[ atomtypes ]
; name at.num mass charge ptype sigma epsilon
SI 14 28.08600 0.000000 A 0.4150 0.3891120
OM 8 15.99940 0.000000 A 0.3470 0.2259360
OA 8 15.99940 0.000000 A 0.3470 0.5104480
HG 1 2.01600 0.000000 A 0.1085 0.0627600
ha 1 1.008000 0.00000000 A 0.26254785 0.0673624
ca 6 12.010000 0.00000000 A 0.33152123 0.4133792
si 14 28.085000 0.00000000 A 0.4150 0.3891120

[ moleculetype ]
; name nrexcl
MSN_9_1 3

[ atoms ]
; nr type resnr resid atom cgnr charge mass
1 OM 1 OM OM1 1 -0.550000 15.99940
2 OM 2 OM OM1 2 -0.550000 15.99940
3 OM 3 OM OM1 3 -0.550000 15.99940
4 OM 4 OM OM1 4 -0.550000 15.99940
5 OM 5 OM OM1 5 -0.550000 15.99940
6 OM 6 OM OM1 6 -0.550000 15.99940
7 OM 7 OM OM1 7 -0.550000 15.99940
8 OM 8 OM OM1 8 -0.550000 15.99940
9 OM 9 OM OM1 9 -0.550000 15.99940
10 OM 10 OM OM1 10 -0.550000 15.99940
11 OM 11 OM OM1 11 -0.550000 15.99940
12 OM 12 OM OM1 12 -0.550000 15.99940
13 OM 13 OM OM1 13 -0.550000 15.99940
14 OM 14 OM OM1 14 -0.550000 15.99940
15 OM 15 OM OM1 15 -0.550000 15.99940
16 OM 16 OM OM1 16 -0.550000 15.99940
17 OM 17 OM OM1 17 -0.550000 15.99940
18 OM 18 OM OM1 18 -0.550000 15.99940
19 OM 19 OM OM1 19 -0.550000 15.99940
20 OM 20 OM OM1 20 -0.550000 15.99940
21 OM 21 OM OM1 21 -0.550000 15.99940
22 OM 22 OM OM1 22 -0.550000 15.99940
23 OM 23 OM OM1 23 -0.550000 15.99940
24 OM 24 OM OM1 24 -0.550000 15.99940
25 OM 25 OM OM1 25 -0.550000 15.99940
26 OM 26 OM OM1 26 -0.550000 15.99940
27 OM 27 OM OM1 27 -0.550000 15.99940
28 OM 28 OM OM1 28 -0.550000 15.99940
29 OM 29 OM OM1 29 -0.550000 15.99940
30 OM 30 OM OM1 30 -0.550000 15.99940
31 OM 31 OM OM1 31 -0.550000 15.99940
32 OM 32 OM OM1 32 -0.550000 15.99940
33 OM 33 OM OM1 33 -0.550000 15.99940
34 OM 34 OM OM1 34 -0.550000 15.99940
35 OM 35 OM OM1 35 -0.550000 15.99940
36 OM 36 OM OM1 36 -0.550000 15.99940
37 OM 37 OM OM1 37 -0.550000 15.99940
38 OM 38 OM OM1 38 -0.550000 15.99940
39 OM 39 OM OM1 39 -0.550000 15.99940
40 OM 40 OM OM1 40 -0.550000 15.99940
41 OM 41 OM OM1 41 -0.550000 15.99940
42 OM 42 OM OM1 42 -0.550000 15.99940
43 OM 43 OM OM1 43 -0.550000 15.99940
44 OM 44 OM OM1 44 -0.550000 15.99940
45 OM 45 OM OM1 45 -0.550000 15.99940
46 OM 46 OM OM1 46 -0.550000 15.99940
47 OM 47 OM OM1 47 -0.550000 15.99940
48 OM 48 OM OM1 48 -0.550000 15.99940
49 OM 49 OM OM1 49 -0.550000 15.99940
50 OM 50 OM OM1 50 -0.550000 15.99940
51 OM 51 OM OM1 51 -0.550000 15.99940
52 OM 52 OM OM1 52 -0.550000 15.99940
53 OM 53 OM OM1 53 -0.550000 15.99940
54 OM 54 OM OM1 54 -0.550000 15.99940
55 OM 55 OM OM1 55 -0.550000 15.99940
56 OM 56 OM OM1 56 -0.550000 15.99940
57 OM 57 OM OM1 57 -0.550000 15.99940
58 OM 58 OM OM1 58 -0.550000 15.99940
59 OM 59 OM OM1 59 -0.550000 15.99940
60 OM 60 OM OM1 60 -0.550000 15.99940
61 OM 61 OM OM1 61 -0.550000 15.99940
62 OM 62 OM OM1 62 -0.550000 15.99940
63 OM 63 OM OM1 63 -0.550000 15.99940
64 OM 64 OM OM1 64 -0.550000 15.99940
65 OM 65 OM OM1 65 -0.550000 15.99940
66 OM 66 OM OM1 66 -0.550000 15.99940
67 OM 67 OM OM1 67 -0.550000 15.99940
68 OM 68 OM OM1 68 -0.550000 15.99940
69 OM 69 OM OM1 69 -0.550000 15.99940
70 OM 70 OM OM1 70 -0.550000 15.99940
71 OM 71 OM OM1 71 -0.550000 15.99940
72 OM 72 OM OM1 72 -0.550000 15.99940
73 OM 73 OM OM1 73 -0.550000 15.99940
74 OM 74 OM OM1 74 -0.550000 15.99940
75 OM 75 OM OM1 75 -0.550000 15.99940
76 OM 76 OM OM1 76 -0.550000 15.99940
77 OM 77 OM OM1 77 -0.550000 15.99940
78 OM 78 OM OM1 78 -0.550000 15.99940
79 OM 79 OM OM1 79 -0.550000 15.99940
80 OM 80 OM OM1 80 -0.550000 15.99940
81 OM 81 OM OM1 81 -0.550000 15.99940
82 OM 82 OM OM1 82 -0.550000 15.99940
83 OM 83 OM OM1 83 -0.550000 15.99940
84 OM 84 OM OM1 84 -0.550000 15.99940
85 OM 85 OM OM1 85 -0.550000 15.99940
86 OM 86 OM OM1 86 -0.550000 15.99940
87 OM 87 OM OM1 87 -0.550000 15.99940
88 OM 88 OM OM1 88 -0.550000 15.99940
89 OM 89 OM OM1 89 -0.550000 15.99940
90 OM 90 OM OM1 90 -0.550000 15.99940
91 OM 91 OM OM1 91 -0.550000 15.99940
92 OM 92 OM OM1 92 -0.550000 15.99940
93 OM 93 OM OM1 93 -0.550000 15.99940
94 OM 94 OM OM1 94 -0.550000 15.99940
95 OM 95 OM OM1 95 -0.550000 15.99940
96 OM 96 OM OM1 96 -0.550000 15.99940
97 OM 97 OM OM1 97 -0.550000 15.99940
98 OM 98 OM OM1 98 -0.550000 15.99940
99 OM 99 OM OM1 99 -0.550000 15.99940
100 OM 100 OM OM1 100 -0.550000 15.99940
101 OM 101 OM OM1 101 -0.550000 15.99940
102 OM 102 OM OM1 102 -0.550000 15.99940
103 OM 103 OM OM1 103 -0.550000 15.99940
104 OM 104 OM OM1 104 -0.550000 15.99940
105 OM 105 OM OM1 105 -0.550000 15.99940
106 OM 106 OM OM1 106 -0.550000 15.99940
107 OM 107 OM OM1 107 -0.550000 15.99940
108 OM 108 OM OM1 108 -0.550000 15.99940
109 OM 109 OM OM1 109 -0.550000 15.99940
110 OM 110 OM OM1 110 -0.550000 15.99940
111 OM 111 OM OM1 111 -0.550000 15.99940
112 OM 112 OM OM1 112 -0.550000 15.99940
113 OM 113 OM OM1 113 -0.550000 15.99940
114 OM 114 OM OM1 114 -0.550000 15.99940
115 OM 115 OM OM1 115 -0.550000 15.99940
116 OM 116 OM OM1 116 -0.550000 15.99940
117 OM 117 OM OM1 117 -0.550000 15.99940
118 OM 118 OM OM1 118 -0.550000 15.99940
119 OM 119 OM OM1 119 -0.550000 15.99940
120 OM 120 OM OM1 120 -0.550000 15.99940
121 OM 121 OM OM1 121 -0.550000 15.99940
122 OM 122 OM OM1 122 -0.550000 15.99940
123 OM 123 OM OM1 123 -0.550000 15.99940
124 OM 124 OM OM1 124 -0.550000 15.99940
125 OM 125 OM OM1 125 -0.550000 15.99940
126 OM 126 OM OM1 126 -0.550000 15.99940
127 OM 127 OM OM1 127 -0.550000 15.99940
128 OM 128 OM OM1 128 -0.550000 15.99940
129 OM 129 OM OM1 129 -0.550000 15.99940
130 OM 130 OM OM1 130 -0.550000 15.99940
131 OM 131 OM OM1 131 -0.550000 15.99940
132 OM 132 OM OM1 132 -0.550000 15.99940
133 OM 133 OM OM1 133 -0.550000 15.99940
134 OM 134 OM OM1 134 -0.550000 15.99940
135 OM 135 OM OM1 135 -0.550000 15.99940
136 OM 136 OM OM1 136 -0.550000 15.99940
137 OM 137 OM OM1 137 -0.550000 15.99940
138 OM 138 OM OM1 138 -0.550000 15.99940
139 OM 139 OM OM1 139 -0.550000 15.99940
140 OM 140 OM OM1 140 -0.550000 15.99940
141 OM 141 OM OM1 141 -0.550000 15.99940
142 OM 142 OM OM1 142 -0.550000 15.99940
143 OM 143 OM OM1 143 -0.550000 15.99940
144 OM 144 OM OM1 144 -0.550000 15.99940
145 OM 145 OM OM1 145 -0.550000 15.99940
146 OM 146 OM OM1 146 -0.550000 15.99940
147 OM 147 OM OM1 147 -0.550000 15.99940
148 OM 148 OM OM1 148 -0.550000 15.99940
149 OM 149 OM OM1 149 -0.550000 15.99940
150 OM 150 OM OM1 150 -0.550000 15.99940
151 OM 151 OM OM1 151 -0.550000 15.99940
152 OM 152 OM OM1 152 -0.550000 15.99940
153 OM 153 OM OM1 153 -0.550000 15.99940
154 OM 154 OM OM1 154 -0.550000 15.99940
155 OM 155 OM OM1 155 -0.550000 15.99940
156 OM 156 OM OM1 156 -0.550000 15.99940
157 OM 157 OM OM1 157 -0.550000 15.99940
158 OM 158 OM OM1 158 -0.550000 15.99940
159 OM 159 OM OM1 159 -0.550000 15.99940
160 OM 160 OM OM1 160 -0.550000 15.99940
161 OM 161 OM OM1 161 -0.550000 15.99940
162 OM 162 OM OM1 162 -0.550000 15.99940
163 OM 163 OM OM1 163 -0.550000 15.99940
164 OM 164 OM OM1 164 -0.550000 15.99940
165 OM 165 OM OM1 165 -0.550000 15.99940
166 OM 166 OM OM1 166 -0.550000 15.99940
167 OM 167 OM OM1 167 -0.550000 15.99940
168 OM 168 OM OM1 168 -0.550000 15.99940
169 OM 169 OM OM1 169 -0.550000 15.99940
170 OM 170 OM OM1 170 -0.550000 15.99940
171 OM 171 OM OM1 171 -0.550000 15.99940
172 OM 172 OM OM1 172 -0.550000 15.99940
173 OM 173 OM OM1 173 -0.550000 15.99940
174 OM 174 OM OM1 174 -0.550000 15.99940
175 OM 175 OM OM1 175 -0.550000 15.99940
176 OM 176 OM OM1 176 -0.550000 15.99940
177 OM 177 OM OM1 177 -0.550000 15.99940
178 OM 178 OM OM1 178 -0.550000 15.99940
179 OM 179 OM OM1 179 -0.550000 15.99940
180 OM 180 OM OM1 180 -0.550000 15.99940
181 OM 181 OM OM1 181 -0.550000 15.99940
182 OM 182 OM OM1 182 -0.550000 15.99940
183 OM 183 OM OM1 183 -0.550000 15.99940
184 OM 184 OM OM1 184 -0.550000 15.99940
185 OM 185 OM OM1 185 -0.550000 15.99940
186 OM 186 OM OM1 186 -0.550000 15.99940
187 OM 187 OM OM1 187 -0.550000 15.99940
188 OM 188 OM OM1 188 -0.550000 15.99940
189 OM 189 OM OM1 189 -0.550000 15.99940
190 OM 190 OM OM1 190 -0.550000 15.99940
191 OM 191 OM OM1 191 -0.550000 15.99940
192 OM 192 OM OM1 192 -0.550000 15.99940
193 OM 193 OM OM1 193 -0.550000 15.99940
194 OM 194 OM OM1 194 -0.550000 15.99940
195 OM 195 OM OM1 195 -0.550000 15.99940
196 OM 196 OM OM1 196 -0.550000 15.99940
197 OM 197 OM OM1 197 -0.550000 15.99940
198 OM 198 OM OM1 198 -0.550000 15.99940
199 OM 199 OM OM1 199 -0.550000 15.99940
200 OM 200 OM OM1 200 -0.550000 15.99940
201 OM 201 OM OM1 201 -0.550000 15.99940
202 OM 202 OM OM1 202 -0.550000 15.99940
203 OM 203 OM OM1 203 -0.550000 15.99940
204 OM 204 OM OM1 204 -0.550000 15.99940
205 OM 205 OM OM1 205 -0.550000 15.99940
206 OM 206 OM OM1 206 -0.550000 15.99940
207 OM 207 OM OM1 207 -0.550000 15.99940
208 OM 208 OM OM1 208 -0.550000 15.99940
209 OM 209 OM OM1 209 -0.550000 15.99940
210 OM 210 OM OM1 210 -0.550000 15.99940
211 OM 211 OM OM1 211 -0.550000 15.99940
212 OM 212 OM OM1 212 -0.550000 15.99940
213 OM 213 OM OM1 213 -0.550000 15.99940
214 OM 214 OM OM1 214 -0.550000 15.99940
215 OM 215 OM OM1 215 -0.550000 15.99940
216 OM 216 OM OM1 216 -0.550000 15.99940
217 OM 217 OM OM1 217 -0.550000 15.99940
218 OM 218 OM OM1 218 -0.550000 15.99940
219 OM 219 OM OM1 219 -0.550000 15.99940
220 OM 220 OM OM1 220 -0.550000 15.99940
221 OM 221 OM OM1 221 -0.550000 15.99940
222 OM 222 OM OM1 222 -0.550000 15.99940
223 OM 223 OM OM1 223 -0.550000 15.99940
224 OM 224 OM OM1 224 -0.550000 15.99940
225 OM 225 OM OM1 225 -0.550000 15.99940
226 OM 226 OM OM1 226 -0.550000 15.99940
227 OM 227 OM OM1 227 -0.550000 15.99940
228 OM 228 OM OM1 228 -0.550000 15.99940
229 OM 229 OM OM1 229 -0.550000 15.99940
230 OM 230 OM OM1 230 -0.550000 15.99940
231 OM 231 OM OM1 231 -0.550000 15.99940
232 OM 232 OM OM1 232 -0.550000 15.99940
233 OM 233 OM OM1 233 -0.550000 15.99940
234 OM 234 OM OM1 234 -0.550000 15.99940
235 OM 235 OM OM1 235 -0.550000 15.99940
236 OM 236 OM OM1 236 -0.550000 15.99940
237 OM 237 OM OM1 237 -0.550000 15.99940
238 OM 238 OM OM1 238 -0.550000 15.99940
239 OM 239 OM OM1 239 -0.550000 15.99940
240 OM 240 OM OM1 240 -0.550000 15.99940
241 OM 241 OM OM1 241 -0.550000 15.99940
242 OM 242 OM OM1 242 -0.550000 15.99940
243 OM 243 OM OM1 243 -0.550000 15.99940
244 OM 244 OM OM1 244 -0.550000 15.99940
245 OM 245 OM OM1 245 -0.550000 15.99940
246 OM 246 OM OM1 246 -0.550000 15.99940
247 OM 247 OM OM1 247 -0.550000 15.99940
248 OM 248 OM OM1 248 -0.550000 15.99940
249 OM 249 OM OM1 249 -0.550000 15.99940
250 OM 250 OM OM1 250 -0.550000 15.99940
251 OM 251 OM OM1 251 -0.550000 15.99940
252 OM 252 OM OM1 252 -0.550000 15.99940
253 OM 253 OM OM1 253 -0.550000 15.99940
254 OM 254 OM OM1 254 -0.550000 15.99940
255 OM 255 OM OM1 255 -0.550000 15.99940
256 OM 256 OM OM1 256 -0.550000 15.99940
257 OM 257 OM OM1 257 -0.550000 15.99940
258 OM 258 OM OM1 258 -0.550000 15.99940
259 OM 259 OM OM1 259 -0.550000 15.99940
260 OM 260 OM OM1 260 -0.550000 15.99940
261 OM 261 OM OM1 261 -0.550000 15.99940
262 OM 262 OM OM1 262 -0.550000 15.99940
263 OM 263 OM OM1 263 -0.550000 15.99940
264 OM 264 OM OM1 264 -0.550000 15.99940
265 OM 265 OM OM1 265 -0.550000 15.99940
266 OM 266 OM OM1 266 -0.550000 15.99940
267 OM 267 OM OM1 267 -0.550000 15.99940
268 OM 268 OM OM1 268 -0.550000 15.99940
269 OM 269 OM OM1 269 -0.550000 15.99940
270 OM 270 OM OM1 270 -0.550000 15.99940
271 OM 271 OM OM1 271 -0.550000 15.99940
272 OM 272 OM OM1 272 -0.550000 15.99940
273 OM 273 OM OM1 273 -0.550000 15.99940
274 OM 274 OM OM1 274 -0.550000 15.99940
275 OM 275 OM OM1 275 -0.550000 15.99940
276 OM 276 OM OM1 276 -0.550000 15.99940
277 OM 277 OM OM1 277 -0.550000 15.99940
278 OM 278 OM OM1 278 -0.550000 15.99940
279 OM 279 OM OM1 279 -0.550000 15.99940
280 OM 280 OM OM1 280 -0.550000 15.99940
281 OM 281 OM OM1 281 -0.550000 15.99940
282 OM 282 OM OM1 282 -0.550000 15.99940
283 OM 283 OM OM1 283 -0.550000 15.99940
284 OM 284 OM OM1 284 -0.550000 15.99940
285 OM 285 OM OM1 285 -0.550000 15.99940
286 OM 286 OM OM1 286 -0.550000 15.99940
287 OM 287 OM OM1 287 -0.550000 15.99940
288 OM 288 OM OM1 288 -0.550000 15.99940
289 OM 289 OM OM1 289 -0.550000 15.99940
290 OM 290 OM OM1 290 -0.550000 15.99940
291 OM 291 OM OM1 291 -0.550000 15.99940
292 OM 292 OM OM1 292 -0.550000 15.99940
293 OM 293 OM OM1 293 -0.550000 15.99940
294 OM 294 OM OM1 294 -0.550000 15.99940
295 OM 295 OM OM1 295 -0.550000 15.99940
296 OM 296 OM OM1 296 -0.550000 15.99940
297 OM 297 OM OM1 297 -0.550000 15.99940
298 OM 298 OM OM1 298 -0.550000 15.99940
299 OM 299 OM OM1 299 -0.550000 15.99940
300 OM 300 OM OM1 300 -0.550000 15.99940
301 OM 301 OM OM1 301 -0.550000 15.99940
302 OM 302 OM OM1 302 -0.550000 15.99940
303 OM 303 OM OM1 303 -0.550000 15.99940
304 OM 304 OM OM1 304 -0.550000 15.99940
305 OM 305 OM OM1 305 -0.550000 15.99940
306 OM 306 OM OM1 306 -0.550000 15.99940
307 OM 307 OM OM1 307 -0.550000 15.99940
308 OM 308 OM OM1 308 -0.550000 15.99940
309 OM 309 OM OM1 309 -0.550000 15.99940
310 OM 310 OM OM1 310 -0.550000 15.99940
311 OM 311 OM OM1 311 -0.550000 15.99940
312 OM 312 OM OM1 312 -0.550000 15.99940
313 OM 313 OM OM1 313 -0.550000 15.99940
314 OM 314 OM OM1 314 -0.550000 15.99940
315 OM 315 OM OM1 315 -0.550000 15.99940
316 OM 316 OM OM1 316 -0.550000 15.99940
317 OM 317 OM OM1 317 -0.550000 15.99940
318 OM 318 OM OM1 318 -0.550000 15.99940
319 OM 319 OM OM1 319 -0.550000 15.99940
320 OM 320 OM OM1 320 -0.550000 15.99940
321 OM 321 OM OM1 321 -0.550000 15.99940
322 OM 322 OM OM1 322 -0.550000 15.99940
323 OM 323 OM OM1 323 -0.550000 15.99940
324 OM 324 OM OM1 324 -0.550000 15.99940
325 OM 325 OM OM1 325 -0.550000 15.99940
326 OM 326 OM OM1 326 -0.550000 15.99940
327 OM 327 OM OM1 327 -0.550000 15.99940
328 OM 328 OM OM1 328 -0.550000 15.99940
329 OM 329 OM OM1 329 -0.550000 15.99940
330 OM 330 OM OM1 330 -0.550000 15.99940
331 OM 331 OM OM1 331 -0.550000 15.99940
332 OM 332 OM OM1 332 -0.550000 15.99940
333 OM 333 OM OM1 333 -0.550000 15.99940
334 OM 334 OM OM1 334 -0.550000 15.99940
335 OM 335 OM OM1 335 -0.550000 15.99940
336 OM 336 OM OM1 336 -0.550000 15.99940
337 OM 337 OM OM1 337 -0.550000 15.99940
338 OM 338 OM OM1 338 -0.550000 15.99940
339 OM 339 OM OM1 339 -0.550000 15.99940
340 OM 340 OM OM1 340 -0.550000 15.99940
341 OM 341 OM OM1 341 -0.550000 15.99940
342 OM 342 OM OM1 342 -0.550000 15.99940
343 OM 343 OM OM1 343 -0.550000 15.99940
344 OM 344 OM OM1 344 -0.550000 15.99940
345 OM 345 OM OM1 345 -0.550000 15.99940
346 OM 346 OM OM1 346 -0.550000 15.99940
347 OM 347 OM OM1 347 -0.550000 15.99940
348 OM 348 OM OM1 348 -0.550000 15.99940
349 OM 349 OM OM1 349 -0.550000 15.99940
350 OM 350 OM OM1 350 -0.550000 15.99940
351 OM 351 OM OM1 351 -0.550000 15.99940
352 OM 352 OM OM1 352 -0.550000 15.99940
353 OM 353 OM OM1 353 -0.550000 15.99940
354 OM 354 OM OM1 354 -0.550000 15.99940
355 OM 355 OM OM1 355 -0.550000 15.99940
356 OM 356 OM OM1 356 -0.550000 15.99940
357 OM 357 OM OM1 357 -0.550000 15.99940
358 OM 358 OM OM1 358 -0.550000 15.99940
359 OM 359 OM OM1 359 -0.550000 15.99940
360 OM 360 OM OM1 360 -0.550000 15.99940
361 OM 361 OM OM1 361 -0.550000 15.99940
362 OM 362 OM OM1 362 -0.550000 15.99940
363 OM 363 OM OM1 363 -0.550000 15.99940
364 OM 364 OM OM1 364 -0.550000 15.99940
365 OM 365 OM OM1 365 -0.550000 15.99940
366 OM 366 OM OM1 366 -0.550000 15.99940
367 OM 367 OM OM1 367 -0.550000 15.99940
368 OM 368 OM OM1 368 -0.550000 15.99940
369 OM 369 OM OM1 369 -0.550000 15.99940
370 OM 370 OM OM1 370 -0.550000 15.99940
371 OM 371 OM OM1 371 -0.550000 15.99940
372 OM 372 OM OM1 372 -0.550000 15.99940
373 OM 373 OM OM1 373 -0.550000 15.99940
374 OM 374 OM OM1 374 -0.550000 15.99940
375 OM 375 OM OM1 375 -0.550000 15.99940
376 OM 376 OM OM1 376 -0.550000 15.99940
377 OM 377 OM OM1 377 -0.550000 15.99940
378 OM 378 OM OM1 378 -0.550000 15.99940
379 OM 379 OM OM1 379 -0.550000 15.99940
380 OM 380 OM OM1 380 -0.550000 15.99940
381 OM 381 OM OM1 381 -0.550000 15.99940
382 OM 382 OM OM1 382 -0.550000 15.99940
383 OM 383 OM OM1 383 -0.550000 15.99940
384 OM 384 OM OM1 384 -0.550000 15.99940
385 OM 385 OM OM1 385 -0.550000 15.99940
386 OM 386 OM OM1 386 -0.550000 15.99940
387 OM 387 OM OM1 387 -0.550000 15.99940
388 OM 388 OM OM1 388 -0.550000 15.99940
389 OM 389 OM OM1 389 -0.550000 15.99940
390 OM 390 OM OM1 390 -0.550000 15.99940
391 OM 391 OM OM1 391 -0.550000 15.99940
392 OM 392 OM OM1 392 -0.550000 15.99940
393 OM 393 OM OM1 393 -0.550000 15.99940
394 OM 394 OM OM1 394 -0.550000 15.99940
395 OM 395 OM OM1 395 -0.550000 15.99940
396 OM 396 OM OM1 396 -0.550000 15.99940
397 OM 397 OM OM1 397 -0.550000 15.99940
398 OM 398 OM OM1 398 -0.550000 15.99940
399 OM 399 OM OM1 399 -0.550000 15.99940
400 OM 400 OM OM1 400 -0.550000 15.99940
401 OM 401 OM OM1 401 -0.550000 15.99940
402 OM 402 OM OM1 402 -0.550000 15.99940
403 OM 403 OM OM1 403 -0.550000 15.99940
404 OM 404 OM OM1 404 -0.550000 15.99940
405 OM 405 OM OM1 405 -0.550000 15.99940
406 OM 406 OM OM1 406 -0.550000 15.99940
407 OM 407 OM OM1 407 -0.550000 15.99940
408 OM 408 OM OM1 408 -0.550000 15.99940
409 OM 409 OM OM1 409 -0.550000 15.99940
410 OM 410 OM OM1 410 -0.550000 15.99940
411 OM 411 OM OM1 411 -0.550000 15.99940
412 OM 412 OM OM1 412 -0.550000 15.99940
413 OM 413 OM OM1 413 -0.550000 15.99940
414 OM 414 OM OM1 414 -0.550000 15.99940
415 OM 415 OM OM1 415 -0.550000 15.99940
416 OM 416 OM OM1 416 -0.550000 15.99940
417 OM 417 OM OM1 417 -0.550000 15.99940
418 OM 418 OM OM1 418 -0.550000 15.99940
419 OM 419 OM OM1 419 -0.550000 15.99940
420 OM 420 OM OM1 420 -0.550000 15.99940
421 OM 421 OM OM1 421 -0.550000 15.99940
422 OM 422 OM OM1 422 -0.550000 15.99940
423 OM 423 OM OM1 423 -0.550000 15.99940
424 OM 424 OM OM1 424 -0.550000 15.99940
425 OM 425 OM OM1 425 -0.550000 15.99940
426 OM 426 OM OM1 426 -0.550000 15.99940
427 OM 427 OM OM1 427 -0.550000 15.99940
428 OM 428 OM OM1 428 -0.550000 15.99940
429 OM 429 OM OM1 429 -0.550000 15.99940
430 OM 430 OM OM1 430 -0.550000 15.99940
431 OM 431 OM OM1 431 -0.550000 15.99940
432 OM 432 OM OM1 432 -0.550000 15.99940
433 OM 433 OM OM1 433 -0.550000 15.99940
434 OM 434 OM OM1 434 -0.550000 15.99940
435 OM 435 OM OM1 435 -0.550000 15.99940
436 OM 436 OM OM1 436 -0.550000 15.99940
437 OM 437 OM OM1 437 -0.550000 15.99940
438 OM 438 OM OM1 438 -0.550000 15.99940
439 OM 439 OM OM1 439 -0.550000 15.99940
440 OM 440 OM OM1 440 -0.550000 15.99940
441 OM 441 OM OM1 441 -0.550000 15.99940
442 OM 442 OM OM1 442 -0.550000 15.99940
443 OM 443 OM OM1 443 -0.550000 15.99940
444 OM 444 OM OM1 444 -0.550000 15.99940
445 OM 445 OM OM1 445 -0.550000 15.99940
446 OM 446 OM OM1 446 -0.550000 15.99940
447 OM 447 OM OM1 447 -0.550000 15.99940
448 OM 448 OM OM1 448 -0.550000 15.99940
449 OM 449 OM OM1 449 -0.550000 15.99940
450 OM 450 OM OM1 450 -0.550000 15.99940
451 OM 451 OM OM1 451 -0.550000 15.99940
452 OM 452 OM OM1 452 -0.550000 15.99940
453 OM 453 OM OM1 453 -0.550000 15.99940
454 OM 454 OM OM1 454 -0.550000 15.99940
455 OM 455 OM OM1 455 -0.550000 15.99940
456 OM 456 OM OM1 456 -0.550000 15.99940
457 OM 457 OM OM1 457 -0.550000 15.99940
458 OM 458 OM OM1 458 -0.550000 15.99940
459 OM 459 OM OM1 459 -0.550000 15.99940
460 OM 460 OM OM1 460 -0.550000 15.99940
461 OM 461 OM OM1 461 -0.550000 15.99940
462 OM 462 OM OM1 462 -0.550000 15.99940
463 OM 463 OM OM1 463 -0.550000 15.99940
464 OM 464 OM OM1 464 -0.550000 15.99940
465 OM 465 OM OM1 465 -0.550000 15.99940
466 OM 466 OM OM1 466 -0.550000 15.99940
467 OM 467 OM OM1 467 -0.550000 15.99940
468 OM 468 OM OM1 468 -0.550000 15.99940
469 OM 469 OM OM1 469 -0.550000 15.99940
470 OM 470 OM OM1 470 -0.550000 15.99940
471 OM 471 OM OM1 471 -0.550000 15.99940
472 OM 472 OM OM1 472 -0.550000 15.99940
473 OM 473 OM OM1 473 -0.550000 15.99940
474 OM 474 OM OM1 474 -0.550000 15.99940
475 OM 475 OM OM1 475 -0.550000 15.99940
476 OM 476 OM OM1 476 -0.550000 15.99940
477 OM 477 OM OM1 477 -0.550000 15.99940
478 OM 478 OM OM1 478 -0.550000 15.99940
479 OM 479 OM OM1 479 -0.550000 15.99940
480 OM 480 OM OM1 480 -0.550000 15.99940
481 OM 481 OM OM1 481 -0.550000 15.99940
482 OM 482 OM OM1 482 -0.550000 15.99940
483 OM 483 OM OM1 483 -0.550000 15.99940
484 OM 484 OM OM1 484 -0.550000 15.99940
485 OM 485 OM OM1 485 -0.550000 15.99940
486 OM 486 OM OM1 486 -0.550000 15.99940
487 OM 487 OM OM1 487 -0.550000 15.99940
488 OM 488 OM OM1 488 -0.550000 15.99940
489 OM 489 OM OM1 489 -0.550000 15.99940
490 OM 490 OM OM1 490 -0.550000 15.99940
491 OM 491 OM OM1 491 -0.550000 15.99940
492 OM 492 OM OM1 492 -0.550000 15.99940
493 OM 493 OM OM1 493 -0.550000 15.99940
494 OM 494 OM OM1 494 -0.550000 15.99940
495 OM 495 OM OM1 495 -0.550000 15.99940
496 OM 496 OM OM1 496 -0.550000 15.99940
497 OM 497 OM OM1 497 -0.550000 15.99940
498 OM 498 OM OM1 498 -0.550000 15.99940
499 OM 499 OM OM1 499 -0.550000 15.99940
500 OM 500 OM OM1 500 -0.550000 15.99940
501 OM 501 OM OM1 501 -0.550000 15.99940
502 OM 502 OM OM1 502 -0.550000 15.99940
503 OM 503 OM OM1 503 -0.550000 15.99940
504 OM 504 OM OM1 504 -0.550000 15.99940
505 OM 505 OM OM1 505 -0.550000 15.99940
506 OM 506 OM OM1 506 -0.550000 15.99940
507 OM 507 OM OM1 507 -0.550000 15.99940
508 OM 508 OM OM1 508 -0.550000 15.99940
509 OM 509 OM OM1 509 -0.550000 15.99940
510 OM 510 OM OM1 510 -0.550000 15.99940
511 OM 511 OM OM1 511 -0.550000 15.99940
512 OM 512 OM OM1 512 -0.550000 15.99940
513 OM 513 OM OM1 513 -0.550000 15.99940
514 OM 514 OM OM1 514 -0.550000 15.99940
515 OM 515 OM OM1 515 -0.550000 15.99940
516 OM 516 OM OM1 516 -0.550000 15.99940
517 OM 517 OM OM1 517 -0.550000 15.99940
518 OM 518 OM OM1 518 -0.550000 15.99940
519 OM 519 OM OM1 519 -0.550000 15.99940
520 OM 520 OM OM1 520 -0.550000 15.99940
521 OM 521 OM OM1 521 -0.550000 15.99940
522 OM 522 OM OM1 522 -0.550000 15.99940
523 OM 523 OM OM1 523 -0.550000 15.99940
524 OM 524 OM OM1 524 -0.550000 15.99940
525 OM 525 OM OM1 525 -0.550000 15.99940
526 OM 526 OM OM1 526 -0.550000 15.99940
527 OM 527 OM OM1 527 -0.550000 15.99940
528 OM 528 OM OM1 528 -0.550000 15.99940
529 OM 529 OM OM1 529 -0.550000 15.99940
530 OM 530 OM OM1 530 -0.550000 15.99940
531 OM 531 OM OM1 531 -0.550000 15.99940
532 OM 532 OM OM1 532 -0.550000 15.99940
533 OM 533 OM OM1 533 -0.550000 15.99940
534 OM 534 OM OM1 534 -0.550000 15.99940
535 OM 535 OM OM1 535 -0.550000 15.99940
536 OM 536 OM OM1 536 -0.550000 15.99940
537 OM 537 OM OM1 537 -0.550000 15.99940
538 OM 538 OM OM1 538 -0.550000 15.99940
539 OM 539 OM OM1 539 -0.550000 15.99940
540 OM 540 OM OM1 540 -0.550000 15.99940
541 OM 541 OM OM1 541 -0.550000 15.99940
542 OM 542 OM OM1 542 -0.550000 15.99940
543 OM 543 OM OM1 543 -0.550000 15.99940
544 OM 544 OM OM1 544 -0.550000 15.99940
545 OM 545 OM OM1 545 -0.550000 15.99940
546 OM 546 OM OM1 546 -0.550000 15.99940
547 OM 547 OM OM1 547 -0.550000 15.99940
548 OM 548 OM OM1 548 -0.550000 15.99940
549 OM 549 OM OM1 549 -0.550000 15.99940
550 OM 550 OM OM1 550 -0.550000 15.99940
551 OM 551 OM OM1 551 -0.550000 15.99940
552 OM 552 OM OM1 552 -0.550000 15.99940
553 OM 553 OM OM1 553 -0.550000 15.99940
554 OM 554 OM OM1 554 -0.550000 15.99940
555 OM 555 OM OM1 555 -0.550000 15.99940
556 OM 556 OM OM1 556 -0.550000 15.99940
557 OM 557 OM OM1 557 -0.550000 15.99940
558 OM 558 OM OM1 558 -0.550000 15.99940
559 OM 559 OM OM1 559 -0.550000 15.99940
560 OM 560 OM OM1 560 -0.550000 15.99940
561 OM 561 OM OM1 561 -0.550000 15.99940
562 OM 562 OM OM1 562 -0.550000 15.99940
563 OM 563 OM OM1 563 -0.550000 15.99940
564 OM 564 OM OM1 564 -0.550000 15.99940
565 OM 565 OM OM1 565 -0.550000 15.99940
566 OM 566 OM OM1 566 -0.550000 15.99940
567 OM 567 OM OM1 567 -0.550000 15.99940
568 OM 568 OM OM1 568 -0.550000 15.99940
569 OM 569 OM OM1 569 -0.550000 15.99940
570 OM 570 OM OM1 570 -0.550000 15.99940
571 OM 571 OM OM1 571 -0.550000 15.99940
572 OM 572 OM OM1 572 -0.550000 15.99940
573 OM 573 OM OM1 573 -0.550000 15.99940
574 OM 574 OM OM1 574 -0.550000 15.99940
575 OM 575 OM OM1 575 -0.550000 15.99940
576 OM 576 OM OM1 576 -0.550000 15.99940
577 OM 577 OM OM1 577 -0.550000 15.99940
578 OM 578 OM OM1 578 -0.550000 15.99940
579 OM 579 OM OM1 579 -0.550000 15.99940
580 OM 580 OM OM1 580 -0.550000 15.99940
581 OM 581 OM OM1 581 -0.550000 15.99940
582 OM 582 OM OM1 582 -0.550000 15.99940
583 OM 583 OM OM1 583 -0.550000 15.99940
584 OM 584 OM OM1 584 -0.550000 15.99940
585 OM 585 OM OM1 585 -0.550000 15.99940
586 OM 586 OM OM1 586 -0.550000 15.99940
587 OM 587 OM OM1 587 -0.550000 15.99940
588 OM 588 OM OM1 588 -0.550000 15.99940
589 OM 589 OM OM1 589 -0.550000 15.99940
590 OM 590 OM OM1 590 -0.550000 15.99940
591 OM 591 OM OM1 591 -0.550000 15.99940
592 OM 592 OM OM1 592 -0.550000 15.99940
593 OM 593 OM OM1 593 -0.550000 15.99940
594 OM 594 OM OM1 594 -0.550000 15.99940
595 OM 595 OM OM1 595 -0.550000 15.99940
596 OM 596 OM OM1 596 -0.550000 15.99940
597 OM 597 OM OM1 597 -0.550000 15.99940
598 OM 598 OM OM1 598 -0.550000 15.99940
599 OM 599 OM OM1 599 -0.550000 15.99940
600 OM 600 OM OM1 600 -0.550000 15.99940
601 OM 601 OM OM1 601 -0.550000 15.99940
602 OM 602 OM OM1 602 -0.550000 15.99940
603 OM 603 OM OM1 603 -0.550000 15.99940
604 OM 604 OM OM1 604 -0.550000 15.99940
605 OM 605 OM OM1 605 -0.550000 15.99940
606 OM 606 OM OM1 606 -0.550000 15.99940
607 OM 607 OM OM1 607 -0.550000 15.99940
608 OM 608 OM OM1 608 -0.550000 15.99940
609 OM 609 OM OM1 609 -0.550000 15.99940
610 OM 610 OM OM1 610 -0.550000 15.99940
611 OM 611 OM OM1 611 -0.550000 15.99940
612 OM 612 OM OM1 612 -0.550000 15.99940
613 OM 613 OM OM1 613 -0.550000 15.99940
614 OM 614 OM OM1 614 -0.550000 15.99940
615 OM 615 OM OM1 615 -0.550000 15.99940
616 OM 616 OM OM1 616 -0.550000 15.99940
617 OM 617 OM OM1 617 -0.550000 15.99940
618 OM 618 OM OM1 618 -0.550000 15.99940
619 OM 619 OM OM1 619 -0.550000 15.99940
620 OM 620 OM OM1 620 -0.550000 15.99940
621 OM 621 OM OM1 621 -0.550000 15.99940
622 OM 622 OM OM1 622 -0.550000 15.99940
623 OM 623 OM OM1 623 -0.550000 15.99940
624 OM 624 OM OM1 624 -0.550000 15.99940
625 OM 625 OM OM1 625 -0.550000 15.99940
626 OM 626 OM OM1 626 -0.550000 15.99940
627 OM 627 OM OM1 627 -0.550000 15.99940
628 OM 628 OM OM1 628 -0.550000 15.99940
629 OM 629 OM OM1 629 -0.550000 15.99940
630 OM 630 OM OM1 630 -0.550000 15.99940
631 OM 631 OM OM1 631 -0.550000 15.99940
632 OM 632 OM OM1 632 -0.550000 15.99940
633 OM 633 OM OM1 633 -0.550000 15.99940
634 OM 634 OM OM1 634 -0.550000 15.99940
635 OM 635 OM OM1 635 -0.550000 15.99940
636 OM 636 OM OM1 636 -0.550000 15.99940
637 OM 637 OM OM1 637 -0.550000 15.99940
638 OM 638 OM OM1 638 -0.550000 15.99940
639 OM 639 OM OM1 639 -0.550000 15.99940
640 OM 640 OM OM1 640 -0.550000 15.99940
641 OM 641 OM OM1 641 -0.550000 15.99940
642 OM 642 OM OM1 642 -0.550000 15.99940
643 OM 643 OM OM1 643 -0.550000 15.99940
644 OM 644 OM OM1 644 -0.550000 15.99940
645 OM 645 OM OM1 645 -0.550000 15.99940
646 OM 646 OM OM1 646 -0.550000 15.99940
647 OM 647 OM OM1 647 -0.550000 15.99940
648 OM 648 OM OM1 648 -0.550000 15.99940
649 OM 649 OM OM1 649 -0.550000 15.99940
650 OM 650 OM OM1 650 -0.550000 15.99940
651 OM 651 OM OM1 651 -0.550000 15.99940
652 OM 652 OM OM1 652 -0.550000 15.99940
653 OM 653 OM OM1 653 -0.550000 15.99940
654 OM 654 OM OM1 654 -0.550000 15.99940
655 OM 655 OM OM1 655 -0.550000 15.99940
656 OM 656 OM OM1 656 -0.550000 15.99940
657 OM 657 OM OM1 657 -0.550000 15.99940
658 OM 658 OM OM1 658 -0.550000 15.99940
659 OM 659 OM OM1 659 -0.550000 15.99940
660 OM 660 OM OM1 660 -0.550000 15.99940
661 OM 661 OM OM1 661 -0.550000 15.99940
662 OM 662 OM OM1 662 -0.550000 15.99940
663 OM 663 OM OM1 663 -0.550000 15.99940
664 OM 664 OM OM1 664 -0.550000 15.99940
665 OM 665 OM OM1 665 -0.550000 15.99940
666 OM 666 OM OM1 666 -0.550000 15.99940
667 OM 667 OM OM1 667 -0.550000 15.99940
668 OM 668 OM OM1 668 -0.550000 15.99940
669 OM 669 OM OM1 669 -0.550000 15.99940
670 OM 670 OM OM1 670 -0.550000 15.99940
671 OM 671 OM OM1 671 -0.550000 15.99940
672 OM 672 OM OM1 672 -0.550000 15.99940
673 OM 673 OM OM1 673 -0.550000 15.99940
674 OM 674 OM OM1 674 -0.550000 15.99940
675 OM 675 OM OM1 675 -0.550000 15.99940
676 OM 676 OM OM1 676 -0.550000 15.99940
677 OM 677 OM OM1 677 -0.550000 15.99940
678 OM 678 OM OM1 678 -0.550000 15.99940
679 OM 679 OM OM1 679 -0.550000 15.99940
680 OM 680 OM OM1 680 -0.550000 15.99940
681 OM 681 OM OM1 681 -0.550000 15.99940
682 OM 682 OM OM1 682 -0.550000 15.99940
683 OM 683 OM OM1 683 -0.550000 15.99940
684 OM 684 OM OM1 684 -0.550000 15.99940
685 OM 685 OM OM1 685 -0.550000 15.99940
686 OM 686 OM OM1 686 -0.550000 15.99940
687 OM 687 OM OM1 687 -0.550000 15.99940
688 OM 688 OM OM1 688 -0.550000 15.99940
689 OM 689 OM OM1 689 -0.550000 15.99940
690 OM 690 OM OM1 690 -0.550000 15.99940
691 OM 691 OM OM1 691 -0.550000 15.99940
692 OM 692 OM OM1 692 -0.550000 15.99940
693 OM 693 OM OM1 693 -0.550000 15.99940
694 OM 694 OM OM1 694 -0.550000 15.99940
695 OM 695 OM OM1 695 -0.550000 15.99940
696 OM 696 OM OM1 696 -0.550000 15.99940
697 OM 697 OM OM1 697 -0.550000 15.99940
698 OM 698 OM OM1 698 -0.550000 15.99940
699 OM 699 OM OM1 699 -0.550000 15.99940
700 OM 700 OM OM1 700 -0.550000 15.99940
701 OM 701 OM OM1 701 -0.550000 15.99940
702 OM 702 OM OM1 702 -0.550000 15.99940
703 OM 703 OM OM1 703 -0.550000 15.99940
704 OM 704 OM OM1 704 -0.550000 15.99940
705 OM 705 OM OM1 705 -0.550000 15.99940
706 OM 706 OM OM1 706 -0.550000 15.99940
707 OM 707 OM OM1 707 -0.550000 15.99940
708 OM 708 OM OM1 708 -0.550000 15.99940
709 OM 709 OM OM1 709 -0.550000 15.99940
710 OM 710 OM OM1 710 -0.550000 15.99940
711 OM 711 OM OM1 711 -0.550000 15.99940
712 OM 712 OM OM1 712 -0.550000 15.99940
713 OM 713 OM OM1 713 -0.550000 15.99940
714 OM 714 OM OM1 714 -0.550000 15.99940
715 OM 715 OM OM1 715 -0.550000 15.99940
716 OM 716 OM OM1 716 -0.550000 15.99940
717 OM 717 OM OM1 717 -0.550000 15.99940
718 OM 718 OM OM1 718 -0.550000 15.99940
719 OM 719 OM OM1 719 -0.550000 15.99940
720 OM 720 OM OM1 720 -0.550000 15.99940
721 OM 721 OM OM1 721 -0.550000 15.99940
722 OM 722 OM OM1 722 -0.550000 15.99940
723 OM 723 OM OM1 723 -0.550000 15.99940
724 OM 724 OM OM1 724 -0.550000 15.99940
725 OM 725 OM OM1 725 -0.550000 15.99940
726 OM 726 OM OM1 726 -0.550000 15.99940
727 OM 727 OM OM1 727 -0.550000 15.99940
728 OM 728 OM OM1 728 -0.550000 15.99940
729 OM 729 OM OM1 729 -0.550000 15.99940
730 OM 730 OM OM1 730 -0.550000 15.99940
731 OM 731 OM OM1 731 -0.550000 15.99940
732 OM 732 OM OM1 732 -0.550000 15.99940
733 OM 733 OM OM1 733 -0.550000 15.99940
734 OM 734 OM OM1 734 -0.550000 15.99940
735 OM 735 OM OM1 735 -0.550000 15.99940
736 OM 736 OM OM1 736 -0.550000 15.99940
737 OM 737 OM OM1 737 -0.550000 15.99940
738 OM 738 OM OM1 738 -0.550000 15.99940
739 OM 739 OM OM1 739 -0.550000 15.99940
740 OM 740 OM OM1 740 -0.550000 15.99940
741 OM 741 OM OM1 741 -0.550000 15.99940
742 OM 742 OM OM1 742 -0.550000 15.99940
743 OM 743 OM OM1 743 -0.550000 15.99940
744 OM 744 OM OM1 744 -0.550000 15.99940
745 OM 745 OM OM1 745 -0.550000 15.99940
746 OM 746 OM OM1 746 -0.550000 15.99940
747 OM 747 OM OM1 747 -0.550000 15.99940
748 OM 748 OM OM1 748 -0.550000 15.99940
749 OM 749 OM OM1 749 -0.550000 15.99940
750 OM 750 OM OM1 750 -0.550000 15.99940
751 OM 751 OM OM1 751 -0.550000 15.99940
752 OM 752 OM OM1 752 -0.550000 15.99940
753 OM 753 OM OM1 753 -0.550000 15.99940
754 OM 754 OM OM1 754 -0.550000 15.99940
755 OM 755 OM OM1 755 -0.550000 15.99940
756 OM 756 OM OM1 756 -0.550000 15.99940
757 OM 757 OM OM1 757 -0.550000 15.99940
758 OM 758 OM OM1 758 -0.550000 15.99940
759 OM 759 OM OM1 759 -0.550000 15.99940
760 OM 760 OM OM1 760 -0.550000 15.99940
761 OM 761 OM OM1 761 -0.550000 15.99940
762 OM 762 OM OM1 762 -0.550000 15.99940
763 OM 763 OM OM1 763 -0.550000 15.99940
764 OM 764 OM OM1 764 -0.550000 15.99940
765 OM 765 OM OM1 765 -0.550000 15.99940
766 OM 766 OM OM1 766 -0.550000 15.99940
767 OM 767 OM OM1 767 -0.550000 15.99940
768 OM 768 OM OM1 768 -0.550000 15.99940
769 OM 769 OM OM1 769 -0.550000 15.99940
770 OM 770 OM OM1 770 -0.550000 15.99940
771 OM 771 OM OM1 771 -0.550000 15.99940
772 OM 772 OM OM1 772 -0.550000 15.99940
773 OM 773 OM OM1 773 -0.550000 15.99940
774 OM 774 OM OM1 774 -0.550000 15.99940
775 OM 775 OM OM1 775 -0.550000 15.99940
776 OM 776 OM OM1 776 -0.550000 15.99940
777 OM 777 OM OM1 777 -0.550000 15.99940
778 OM 778 OM OM1 778 -0.550000 15.99940
779 OM 779 OM OM1 779 -0.550000 15.99940
780 OM 780 OM OM1 780 -0.550000 15.99940
781 OM 781 OM OM1 781 -0.550000 15.99940
782 OM 782 OM OM1 782 -0.550000 15.99940
783 OM 783 OM OM1 783 -0.550000 15.99940
784 OM 784 OM OM1 784 -0.550000 15.99940
785 OM 785 OM OM1 785 -0.550000 15.99940
786 OM 786 OM OM1 786 -0.550000 15.99940
787 OM 787 OM OM1 787 -0.550000 15.99940
788 OM 788 OM OM1 788 -0.550000 15.99940
789 OM 789 OM OM1 789 -0.550000 15.99940
790 OM 790 OM OM1 790 -0.550000 15.99940
791 OM 791 OM OM1 791 -0.550000 15.99940
792 OM 792 OM OM1 792 -0.550000 15.99940
793 OM 793 OM OM1 793 -0.550000 15.99940
794 OM 794 OM OM1 794 -0.550000 15.99940
795 OM 795 OM OM1 795 -0.550000 15.99940
796 OM 796 OM OM1 796 -0.550000 15.99940
797 OM 797 OM OM1 797 -0.550000 15.99940
798 OM 798 OM OM1 798 -0.550000 15.99940
799 OM 799 OM OM1 799 -0.550000 15.99940
800 OM 800 OM OM1 800 -0.550000 15.99940
801 OM 801 OM OM1 801 -0.550000 15.99940
802 OM 802 OM OM1 802 -0.550000 15.99940
803 OM 803 OM OM1 803 -0.550000 15.99940
804 OM 804 OM OM1 804 -0.550000 15.99940
805 OM 805 OM OM1 805 -0.550000 15.99940
806 OM 806 OM OM1 806 -0.550000 15.99940
807 OM 807 OM OM1 807 -0.550000 15.99940
808 OM 808 OM OM1 808 -0.550000 15.99940
809 OM 809 OM OM1 809 -0.550000 15.99940
810 OM 810 OM OM1 810 -0.550000 15.99940
811 OM 811 OM OM1 811 -0.550000 15.99940
812 OM 812 OM OM1 812 -0.550000 15.99940
813 OM 813 OM OM1 813 -0.550000 15.99940
814 OM 814 OM OM1 814 -0.550000 15.99940
815 OM 815 OM OM1 815 -0.550000 15.99940
816 OM 816 OM OM1 816 -0.550000 15.99940
817 OM 817 OM OM1 817 -0.550000 15.99940
818 OM 818 OM OM1 818 -0.550000 15.99940
819 OM 819 OM OM1 819 -0.550000 15.99940
820 OM 820 OM OM1 820 -0.550000 15.99940
821 OM 821 OM OM1 821 -0.550000 15.99940
822 OM 822 OM OM1 822 -0.550000 15.99940
823 OM 823 OM OM1 823 -0.550000 15.99940
824 OM 824 OM OM1 824 -0.550000 15.99940
825 OM 825 OM OM1 825 -0.550000 15.99940
826 OM 826 OM OM1 826 -0.550000 15.99940
827 OM 827 OM OM1 827 -0.550000 15.99940
828 OM 828 OM OM1 828 -0.550000 15.99940
829 OM 829 OM OM1 829 -0.550000 15.99940
830 OM 830 OM OM1 830 -0.550000 15.99940
831 OM 831 OM OM1 831 -0.550000 15.99940
832 OM 832 OM OM1 832 -0.550000 15.99940
833 OM 833 OM OM1 833 -0.550000 15.99940
834 OM 834 OM OM1 834 -0.550000 15.99940
835 OM 835 OM OM1 835 -0.550000 15.99940
836 OM 836 OM OM1 836 -0.550000 15.99940
837 OM 837 OM OM1 837 -0.550000 15.99940
838 OM 838 OM OM1 838 -0.550000 15.99940
839 OM 839 OM OM1 839 -0.550000 15.99940
840 OM 840 OM OM1 840 -0.550000 15.99940
841 OM 841 OM OM1 841 -0.550000 15.99940
842 OM 842 OM OM1 842 -0.550000 15.99940
843 OM 843 OM OM1 843 -0.550000 15.99940
844 OM 844 OM OM1 844 -0.550000 15.99940
845 OM 845 OM OM1 845 -0.550000 15.99940
846 OM 846 OM OM1 846 -0.550000 15.99940
847 OM 847 OM OM1 847 -0.550000 15.99940
848 OM 848 OM OM1 848 -0.550000 15.99940
849 OM 849 OM OM1 849 -0.550000 15.99940
850 OM 850 OM OM1 850 -0.550000 15.99940
851 OM 851 OM OM1 851 -0.550000 15.99940
852 OM 852 OM OM1 852 -0.550000 15.99940
853 OM 853 OM OM1 853 -0.550000 15.99940
854 OM 854 OM OM1 854 -0.550000 15.99940
855 OM 855 OM OM1 855 -0.550000 15.99940
856 OM 856 OM OM1 856 -0.550000 15.99940
857 OM 857 OM OM1 857 -0.550000 15.99940
858 OM 858 OM OM1 858 -0.550000 15.99940
859 OM 859 OM OM1 859 -0.550000 15.99940
860 OM 860 OM OM1 860 -0.550000 15.99940
861 OM 861 OM OM1 861 -0.550000 15.99940
862 OM 862 OM OM1 862 -0.550000 15.99940
863 OM 863 OM OM1 863 -0.550000 15.99940
864 OM 864 OM OM1 864 -0.550000 15.99940
865 OM 865 OM OM1 865 -0.550000 15.99940
866 OM 866 OM OM1 866 -0.550000 15.99940
867 OM 867 OM OM1 867 -0.550000 15.99940
868 OM 868 OM OM1 868 -0.550000 15.99940
869 OM 869 OM OM1 869 -0.550000 15.99940
870 OM 870 OM OM1 870 -0.550000 15.99940
871 OM 871 OM OM1 871 -0.550000 15.99940
872 OM 872 OM OM1 872 -0.550000 15.99940
873 OM 873 OM OM1 873 -0.550000 15.99940
874 OM 874 OM OM1 874 -0.550000 15.99940
875 OM 875 OM OM1 875 -0.550000 15.99940
876 OM 876 OM OM1 876 -0.550000 15.99940
877 OM 877 OM OM1 877 -0.550000 15.99940
878 OM 878 OM OM1 878 -0.550000 15.99940
879 OM 879 OM OM1 879 -0.550000 15.99940
880 OM 880 OM OM1 880 -0.550000 15.99940
881 OM 881 OM OM1 881 -0.550000 15.99940
882 OM 882 OM OM1 882 -0.550000 15.99940
883 OM 883 OM OM1 883 -0.550000 15.99940
884 OM 884 OM OM1 884 -0.550000 15.99940
885 OM 885 OM OM1 885 -0.550000 15.99940
886 OM 886 OM OM1 886 -0.550000 15.99940
887 OM 887 OM OM1 887 -0.550000 15.99940
888 OM 888 OM OM1 888 -0.550000 15.99940
889 OM 889 OM OM1 889 -0.550000 15.99940
890 OM 890 OM OM1 890 -0.550000 15.99940
891 OM 891 OM OM1 891 -0.550000 15.99940
892 OM 892 OM OM1 892 -0.550000 15.99940
893 OM 893 OM OM1 893 -0.550000 15.99940
894 OM 894 OM OM1 894 -0.550000 15.99940
895 OM 895 OM OM1 895 -0.550000 15.99940
896 OM 896 OM OM1 896 -0.550000 15.99940
897 OM 897 OM OM1 897 -0.550000 15.99940
898 OM 898 OM OM1 898 -0.550000 15.99940
899 OM 899 OM OM1 899 -0.550000 15.99940
900 OM 900 OM OM1 900 -0.550000 15.99940
901 OM 901 OM OM1 901 -0.550000 15.99940
902 OM 902 OM OM1 902 -0.550000 15.99940
903 OM 903 OM OM1 903 -0.550000 15.99940
904 OM 904 OM OM1 904 -0.550000 15.99940
905 OM 905 OM OM1 905 -0.550000 15.99940
906 OM 906 OM OM1 906 -0.550000 15.99940
907 OM 907 OM OM1 907 -0.550000 15.99940
908 OM 908 OM OM1 908 -0.550000 15.99940
909 OM 909 OM OM1 909 -0.550000 15.99940
910 OM 910 OM OM1 910 -0.550000 15.99940
911 OM 911 OM OM1 911 -0.550000 15.99940
912 OM 912 OM OM1 912 -0.550000 15.99940
913 OM 913 OM OM1 913 -0.550000 15.99940
914 OM 914 OM OM1 914 -0.550000 15.99940
915 OM 915 OM OM1 915 -0.550000 15.99940
916 OM 916 OM OM1 916 -0.550000 15.99940
917 OM 917 OM OM1 917 -0.550000 15.99940
918 OM 918 OM OM1 918 -0.550000 15.99940
919 OM 919 OM OM1 919 -0.550000 15.99940
920 OM 920 OM OM1 920 -0.550000 15.99940
921 OM 921 OM OM1 921 -0.550000 15.99940
922 OM 922 OM OM1 922 -0.550000 15.99940
923 OM 923 OM OM1 923 -0.550000 15.99940
924 OM 924 OM OM1 924 -0.550000 15.99940
925 OM 925 OM OM1 925 -0.550000 15.99940
926 OM 926 OM OM1 926 -0.550000 15.99940
927 OM 927 OM OM1 927 -0.550000 15.99940
928 OM 928 OM OM1 928 -0.550000 15.99940
929 OM 929 OM OM1 929 -0.550000 15.99940
930 OM 930 OM OM1 930 -0.550000 15.99940
931 OM 931 OM OM1 931 -0.550000 15.99940
932 OM 932 OM OM1 932 -0.550000 15.99940
933 OM 933 OM OM1 933 -0.550000 15.99940
934 OM 934 OM OM1 934 -0.550000 15.99940
935 OM 935 OM OM1 935 -0.550000 15.99940
936 OM 936 OM OM1 936 -0.550000 15.99940
937 OM 937 OM OM1 937 -0.550000 15.99940
938 OM 938 OM OM1 938 -0.550000 15.99940
939 OM 939 OM OM1 939 -0.550000 15.99940
940 OM 940 OM OM1 940 -0.550000 15.99940
941 OM 941 OM OM1 941 -0.550000 15.99940
942 OM 942 OM OM1 942 -0.550000 15.99940
943 OM 943 OM OM1 943 -0.550000 15.99940
944 OM 944 OM OM1 944 -0.550000 15.99940
945 OM 945 OM OM1 945 -0.550000 15.99940
946 OM 946 OM OM1 946 -0.550000 15.99940
947 OM 947 OM OM1 947 -0.550000 15.99940
948 OM 948 OM OM1 948 -0.550000 15.99940
949 OM 949 OM OM1 949 -0.550000 15.99940
950 OM 950 OM OM1 950 -0.550000 15.99940
951 OM 951 OM OM1 951 -0.550000 15.99940
952 OM 952 OM OM1 952 -0.550000 15.99940
953 OM 953 OM OM1 953 -0.550000 15.99940
954 OM 954 OM OM1 954 -0.550000 15.99940
955 OM 955 OM OM1 955 -0.550000 15.99940
956 OM 956 OM OM1 956 -0.550000 15.99940
957 OM 957 OM OM1 957 -0.550000 15.99940
958 OM 958 OM OM1 958 -0.550000 15.99940
959 OM 959 OM OM1 959 -0.550000 15.99940
960 OM 960 OM OM1 960 -0.550000 15.99940
961 OM 961 OM OM1 961 -0.550000 15.99940
962 OM 962 OM OM1 962 -0.550000 15.99940
963 OM 963 OM OM1 963 -0.550000 15.99940
964 OM 964 OM OM1 964 -0.550000 15.99940
965 OM 965 OM OM1 965 -0.550000 15.99940
966 OM 966 OM OM1 966 -0.550000 15.99940
967 OM 967 OM OM1 967 -0.550000 15.99940
968 OM 968 OM OM1 968 -0.550000 15.99940
969 OM 969 OM OM1 969 -0.550000 15.99940
970 OM 970 OM OM1 970 -0.550000 15.99940
971 OM 971 OM OM1 971 -0.550000 15.99940
972 OM 972 OM OM1 972 -0.550000 15.99940
973 OM 973 OM OM1 973 -0.550000 15.99940
974 OM 974 OM OM1 974 -0.550000 15.99940
975 OM 975 OM OM1 975 -0.550000 15.99940
976 OM 976 OM OM1 976 -0.550000 15.99940
977 OM 977 OM OM1 977 -0.550000 15.99940
978 OM 978 OM OM1 978 -0.550000 15.99940
979 OM 979 OM OM1 979 -0.550000 15.99940
980 OM 980 OM OM1 980 -0.550000 15.99940
981 OM 981 OM OM1 981 -0.550000 15.99940
982 OM 982 OM OM1 982 -0.550000 15.99940
983 OM 983 OM OM1 983 -0.550000 15.99940
984 OM 984 OM OM1 984 -0.550000 15.99940
985 OM 985 OM OM1 985 -0.550000 15.99940
986 OM 986 OM OM1 986 -0.550000 15.99940
987 OM 987 OM OM1 987 -0.550000 15.99940
988 OM 988 OM OM1 988 -0.550000 15.99940
989 OM 989 OM OM1 989 -0.550000 15.99940
990 OM 990 OM OM1 990 -0.550000 15.99940
991 OM 991 OM OM1 991 -0.550000 15.99940
992 OM 992 OM OM1 992 -0.550000 15.99940
993 OM 993 OM OM1 993 -0.550000 15.99940
994 OM 994 OM OM1 994 -0.550000 15.99940
995 OM 995 OM OM1 995 -0.550000 15.99940
996 OM 996 OM OM1 996 -0.550000 15.99940
997 OM 997 OM OM1 997 -0.550000 15.99940
998 OM 998 OM OM1 998 -0.550000 15.99940
999 OM 999 OM OM1 999 -0.550000 15.99940
1000 OM 1000 OM OM1 1000 -0.550000 15.99940
1001 OM 1001 OM OM1 1001 -0.550000 15.99940
1002 OM 1002 OM OM1 1002 -0.550000 15.99940
1003 OM 1003 OM OM1 1003 -0.550000 15.99940
1004 OM 1004 OM OM1 1004 -0.550000 15.99940
1005 OM 1005 OM OM1 1005 -0.550000 15.99940
1006 OM 1006 OM OM1 1006 -0.550000 15.99940
1007 OM 1007 OM OM1 1007 -0.550000 15.99940
1008 OM 1008 OM OM1 1008 -0.550000 15.99940
1009 OM 1009 OM OM1 1009 -0.550000 15.99940
1010 OM 1010 OM OM1 1010 -0.550000 15.99940
1011 OM 1011 OM OM1 1011 -0.550000 15.99940
1012 OM 1012 OM OM1 1012 -0.550000 15.99940
1013 OM 1013 OM OM1 1013 -0.550000 15.99940
1014 OM 1014 OM OM1 1014 -0.550000 15.99940
1015 OM 1015 OM OM1 1015 -0.550000 15.99940
1016 OM 1016 OM OM1 1016 -0.550000 15.99940
1017 OM 1017 OM OM1 1017 -0.550000 15.99940
1018 OM 1018 OM OM1 1018 -0.550000 15.99940
1019 OM 1019 OM OM1 1019 -0.550000 15.99940
1020 OM 1020 OM OM1 1020 -0.550000 15.99940
1021 OM 1021 OM OM1 1021 -0.550000 15.99940
1022 OM 1022 OM OM1 1022 -0.550000 15.99940
1023 OM 1023 OM OM1 1023 -0.550000 15.99940
1024 OM 1024 OM OM1 1024 -0.550000 15.99940
1025 OM 1025 OM OM1 1025 -0.550000 15.99940
1026 OM 1026 OM OM1 1026 -0.550000 15.99940
1027 OM 1027 OM OM1 1027 -0.550000 15.99940
1028 OM 1028 OM OM1 1028 -0.550000 15.99940
1029 OM 1029 OM OM1 1029 -0.550000 15.99940
1030 OM 1030 OM OM1 1030 -0.550000 15.99940
1031 OM 1031 OM OM1 1031 -0.550000 15.99940
1032 OM 1032 OM OM1 1032 -0.550000 15.99940
1033 OM 1033 OM OM1 1033 -0.550000 15.99940
1034 OM 1034 OM OM1 1034 -0.550000 15.99940
1035 OM 1035 OM OM1 1035 -0.550000 15.99940
1036 OM 1036 OM OM1 1036 -0.550000 15.99940
1037 OM 1037 OM OM1 1037 -0.550000 15.99940
1038 OM 1038 OM OM1 1038 -0.550000 15.99940
1039 OM 1039 OM OM1 1039 -0.550000 15.99940
1040 OM 1040 OM OM1 1040 -0.550000 15.99940
1041 OM 1041 OM OM1 1041 -0.550000 15.99940
1042 OM 1042 OM OM1 1042 -0.550000 15.99940
1043 OM 1043 OM OM1 1043 -0.550000 15.99940
1044 OM 1044 OM OM1 1044 -0.550000 15.99940
1045 OM 1045 OM OM1 1045 -0.550000 15.99940
1046 OM 1046 OM OM1 1046 -0.550000 15.99940
1047 OM 1047 OM OM1 1047 -0.550000 15.99940
1048 OM 1048 OM OM1 1048 -0.550000 15.99940
1049 OM 1049 OM OM1 1049 -0.550000 15.99940
1050 OM 1050 OM OM1 1050 -0.550000 15.99940
1051 OM 1051 OM OM1 1051 -0.550000 15.99940
1052 OM 1052 OM OM1 1052 -0.550000 15.99940
1053 OM 1053 OM OM1 1053 -0.550000 15.99940
1054 OM 1054 OM OM1 1054 -0.550000 15.99940
1055 OM 1055 OM OM1 1055 -0.550000 15.99940
1056 OM 1056 OM OM1 1056 -0.550000 15.99940
1057 OM 1057 OM OM1 1057 -0.550000 15.99940
1058 OM 1058 OM OM1 1058 -0.550000 15.99940
1059 OM 1059 OM OM1 1059 -0.550000 15.99940
1060 OM 1060 OM OM1 1060 -0.550000 15.99940
1061 OM 1061 OM OM1 1061 -0.550000 15.99940
1062 OM 1062 OM OM1 1062 -0.550000 15.99940
1063 OM 1063 OM OM1 1063 -0.550000 15.99940
1064 OM 1064 OM OM1 1064 -0.550000 15.99940
1065 OM 1065 OM OM1 1065 -0.550000 15.99940
1066 OM 1066 OM OM1 1066 -0.550000 15.99940
1067 OM 1067 OM OM1 1067 -0.550000 15.99940
1068 OM 1068 OM OM1 1068 -0.550000 15.99940
1069 OM 1069 OM OM1 1069 -0.550000 15.99940
1070 OM 1070 OM OM1 1070 -0.550000 15.99940
1071 OM 1071 OM OM1 1071 -0.550000 15.99940
1072 OM 1072 OM OM1 1072 -0.550000 15.99940
1073 OM 1073 OM OM1 1073 -0.550000 15.99940
1074 OM 1074 OM OM1 1074 -0.550000 15.99940
1075 OM 1075 OM OM1 1075 -0.550000 15.99940
1076 OM 1076 OM OM1 1076 -0.550000 15.99940
1077 OM 1077 OM OM1 1077 -0.550000 15.99940
1078 OM 1078 OM OM1 1078 -0.550000 15.99940
1079 OM 1079 OM OM1 1079 -0.550000 15.99940
1080 OM 1080 OM OM1 1080 -0.550000 15.99940
1081 OM 1081 OM OM1 1081 -0.550000 15.99940
1082 OM 1082 OM OM1 1082 -0.550000 15.99940
1083 OM 1083 OM OM1 1083 -0.550000 15.99940
1084 OM 1084 OM OM1 1084 -0.550000 15.99940
1085 OM 1085 OM OM1 1085 -0.550000 15.99940
1086 OM 1086 OM OM1 1086 -0.550000 15.99940
1087 OM 1087 OM OM1 1087 -0.550000 15.99940
1088 OM 1088 OM OM1 1088 -0.550000 15.99940
1089 OM 1089 OM OM1 1089 -0.550000 15.99940
1090 OM 1090 OM OM1 1090 -0.550000 15.99940
1091 OM 1091 OM OM1 1091 -0.550000 15.99940
1092 OM 1092 OM OM1 1092 -0.550000 15.99940
1093 OM 1093 OM OM1 1093 -0.550000 15.99940
1094 OM 1094 OM OM1 1094 -0.550000 15.99940
1095 OM 1095 OM OM1 1095 -0.550000 15.99940
1096 OM 1096 OM OM1 1096 -0.550000 15.99940
1097 OM 1097 OM OM1 1097 -0.550000 15.99940
1098 OM 1098 OM OM1 1098 -0.550000 15.99940
1099 OM 1099 OM OM1 1099 -0.550000 15.99940
1100 OM 1100 OM OM1 1100 -0.550000 15.99940
1101 OM 1101 OM OM1 1101 -0.550000 15.99940
1102 OM 1102 OM OM1 1102 -0.550000 15.99940
1103 OM 1103 OM OM1 1103 -0.550000 15.99940
1104 OM 1104 OM OM1 1104 -0.550000 15.99940
1105 OM 1105 OM OM1 1105 -0.550000 15.99940
1106 OM 1106 OM OM1 1106 -0.550000 15.99940
1107 OM 1107 OM OM1 1107 -0.550000 15.99940
1108 OM 1108 OM OM1 1108 -0.550000 15.99940
1109 OM 1109 OM OM1 1109 -0.550000 15.99940
1110 OM 1110 OM OM1 1110 -0.550000 15.99940
1111 OM 1111 OM OM1 1111 -0.550000 15.99940
1112 OM 1112 OM OM1 1112 -0.550000 15.99940
1113 OM 1113 OM OM1 1113 -0.550000 15.99940
1114 OM 1114 OM OM1 1114 -0.550000 15.99940
1115 OM 1115 OM OM1 1115 -0.550000 15.99940
1116 OM 1116 OM OM1 1116 -0.550000 15.99940
1117 OM 1117 OM OM1 1117 -0.550000 15.99940
1118 OM 1118 OM OM1 1118 -0.550000 15.99940
1119 OM 1119 OM OM1 1119 -0.550000 15.99940
1120 OM 1120 OM OM1 1120 -0.550000 15.99940
1121 OM 1121 OM OM1 1121 -0.550000 15.99940
1122 OM 1122 OM OM1 1122 -0.550000 15.99940
1123 OM 1123 OM OM1 1123 -0.550000 15.99940
1124 OM 1124 OM OM1 1124 -0.550000 15.99940
1125 OM 1125 OM OM1 1125 -0.550000 15.99940
1126 OM 1126 OM OM1 1126 -0.550000 15.99940
1127 OM 1127 OM OM1 1127 -0.550000 15.99940
1128 OM 1128 OM OM1 1128 -0.550000 15.99940
1129 OM 1129 OM OM1 1129 -0.550000 15.99940
1130 OM 1130 OM OM1 1130 -0.550000 15.99940
1131 OM 1131 OM OM1 1131 -0.550000 15.99940
1132 OM 1132 OM OM1 1132 -0.550000 15.99940
1133 OM 1133 OM OM1 1133 -0.550000 15.99940
1134 OM 1134 OM OM1 1134 -0.550000 15.99940
1135 OM 1135 OM OM1 1135 -0.550000 15.99940
1136 OM 1136 OM OM1 1136 -0.550000 15.99940
1137 OM 1137 OM OM1 1137 -0.550000 15.99940
1138 OM 1138 OM OM1 1138 -0.550000 15.99940
1139 OM 1139 OM OM1 1139 -0.550000 15.99940
1140 OM 1140 OM OM1 1140 -0.550000 15.99940
1141 OM 1141 OM OM1 1141 -0.550000 15.99940
1142 OM 1142 OM OM1 1142 -0.550000 15.99940
1143 OM 1143 OM OM1 1143 -0.550000 15.99940
1144 OM 1144 OM OM1 1144 -0.550000 15.99940
1145 OM 1145 OM OM1 1145 -0.550000 15.99940
1146 OM 1146 OM OM1 1146 -0.550000 15.99940
1147 OM 1147 OM OM1 1147 -0.550000 15.99940
1148 OM 1148 OM OM1 1148 -0.550000 15.99940
1149 OM 1149 OM OM1 1149 -0.550000 15.99940
1150 OM 1150 OM OM1 1150 -0.550000 15.99940
1151 OM 1151 OM OM1 1151 -0.550000 15.99940
1152 OM 1152 OM OM1 1152 -0.550000 15.99940
1153 OM 1153 OM OM1 1153 -0.550000 15.99940
1154 OM 1154 OM OM1 1154 -0.550000 15.99940
1155 OM 1155 OM OM1 1155 -0.550000 15.99940
1156 OM 1156 OM OM1 1156 -0.550000 15.99940
1157 OM 1157 OM OM1 1157 -0.550000 15.99940
1158 OM 1158 OM OM1 1158 -0.550000 15.99940
1159 OM 1159 OM OM1 1159 -0.550000 15.99940
1160 OM 1160 OM OM1 1160 -0.550000 15.99940
1161 OM 1161 OM OM1 1161 -0.550000 15.99940
1162 OM 1162 OM OM1 1162 -0.550000 15.99940
1163 OM 1163 OM OM1 1163 -0.550000 15.99940
1164 OM 1164 OM OM1 1164 -0.550000 15.99940
1165 OM 1165 OM OM1 1165 -0.550000 15.99940
1166 OM 1166 OM OM1 1166 -0.550000 15.99940
1167 OM 1167 OM OM1 1167 -0.550000 15.99940
1168 OM 1168 OM OM1 1168 -0.550000 15.99940
1169 OM 1169 OM OM1 1169 -0.550000 15.99940
1170 OM 1170 OM OM1 1170 -0.550000 15.99940
1171 OM 1171 OM OM1 1171 -0.550000 15.99940
1172 OM 1172 OM OM1 1172 -0.550000 15.99940
1173 OM 1173 OM OM1 1173 -0.550000 15.99940
1174 OM 1174 OM OM1 1174 -0.550000 15.99940
1175 OM 1175 OM OM1 1175 -0.550000 15.99940
1176 OM 1176 OM OM1 1176 -0.550000 15.99940
1177 OM 1177 OM OM1 1177 -0.550000 15.99940
1178 OM 1178 OM OM1 1178 -0.550000 15.99940
1179 OM 1179 OM OM1 1179 -0.550000 15.99940
1180 OM 1180 OM OM1 1180 -0.550000 15.99940
1181 OM 1181 OM OM1 1181 -0.550000 15.99940
1182 OM 1182 OM OM1 1182 -0.550000 15.99940
1183 OM 1183 OM OM1 1183 -0.550000 15.99940
1184 OM 1184 OM OM1 1184 -0.550000 15.99940
1185 OM 1185 OM OM1 1185 -0.550000 15.99940
1186 OM 1186 OM OM1 1186 -0.550000 15.99940
1187 OM 1187 OM OM1 1187 -0.550000 15.99940
1188 OM 1188 OM OM1 1188 -0.550000 15.99940
1189 OM 1189 OM OM1 1189 -0.550000 15.99940
1190 OM 1190 OM OM1 1190 -0.550000 15.99940
1191 OM 1191 OM OM1 1191 -0.550000 15.99940
1192 OM 1192 OM OM1 1192 -0.550000 15.99940
1193 OM 1193 OM OM1 1193 -0.550000 15.99940
1194 OM 1194 OM OM1 1194 -0.550000 15.99940
1195 OM 1195 OM OM1 1195 -0.550000 15.99940
1196 OM 1196 OM OM1 1196 -0.550000 15.99940
1197 OM 1197 OM OM1 1197 -0.550000 15.99940
1198 OM 1198 OM OM1 1198 -0.550000 15.99940
1199 OM 1199 OM OM1 1199 -0.550000 15.99940
1200 OM 1200 OM OM1 1200 -0.550000 15.99940
1201 OM 1201 OM OM1 1201 -0.550000 15.99940
1202 OM 1202 OM OM1 1202 -0.550000 15.99940
1203 OM 1203 OM OM1 1203 -0.550000 15.99940
1204 OM 1204 OM OM1 1204 -0.550000 15.99940
1205 OM 1205 OM OM1 1205 -0.550000 15.99940
1206 OM 1206 OM OM1 1206 -0.550000 15.99940
1207 OM 1207 OM OM1 1207 -0.550000 15.99940
1208 OM 1208 OM OM1 1208 -0.550000 15.99940
1209 OM 1209 OM OM1 1209 -0.550000 15.99940
1210 OM 1210 OM OM1 1210 -0.550000 15.99940
1211 OM 1211 OM OM1 1211 -0.550000 15.99940
1212 OM 1212 OM OM1 1212 -0.550000 15.99940
1213 OM 1213 OM OM1 1213 -0.550000 15.99940
1214 OM 1214 OM OM1 1214 -0.550000 15.99940
1215 OM 1215 OM OM1 1215 -0.550000 15.99940
1216 OM 1216 OM OM1 1216 -0.550000 15.99940
1217 OM 1217 OM OM1 1217 -0.550000 15.99940
1218 OM 1218 OM OM1 1218 -0.550000 15.99940
1219 OM 1219 OM OM1 1219 -0.550000 15.99940
1220 OM 1220 OM OM1 1220 -0.550000 15.99940
1221 OM 1221 OM OM1 1221 -0.550000 15.99940
1222 OM 1222 OM OM1 1222 -0.550000 15.99940
1223 OM 1223 OM OM1 1223 -0.550000 15.99940
1224 OM 1224 OM OM1 1224 -0.550000 15.99940
1225 OM 1225 OM OM1 1225 -0.550000 15.99940
1226 OM 1226 OM OM1 1226 -0.550000 15.99940
1227 OM 1227 OM OM1 1227 -0.550000 15.99940
1228 OM 1228 OM OM1 1228 -0.550000 15.99940
1229 OM 1229 OM OM1 1229 -0.550000 15.99940
1230 OM 1230 OM OM1 1230 -0.550000 15.99940
1231 OM 1231 OM OM1 1231 -0.550000 15.99940
1232 OM 1232 OM OM1 1232 -0.550000 15.99940
1233 OM 1233 OM OM1 1233 -0.550000 15.99940
1234 OM 1234 OM OM1 1234 -0.550000 15.99940
1235 OM 1235 OM OM1 1235 -0.550000 15.99940
1236 OM 1236 OM OM1 1236 -0.550000 15.99940
1237 OM 1237 OM OM1 1237 -0.550000 15.99940
1238 OM 1238 OM OM1 1238 -0.550000 15.99940
1239 OM 1239 OM OM1 1239 -0.550000 15.99940
1240 OM 1240 OM OM1 1240 -0.550000 15.99940
1241 OM 1241 OM OM1 1241 -0.550000 15.99940
1242 OM 1242 OM OM1 1242 -0.550000 15.99940
1243 OM 1243 OM OM1 1243 -0.550000 15.99940
1244 OM 1244 OM OM1 1244 -0.550000 15.99940
1245 OM 1245 OM OM1 1245 -0.550000 15.99940
1246 OM 1246 OM OM1 1246 -0.550000 15.99940
1247 OM 1247 OM OM1 1247 -0.550000 15.99940
1248 OM 1248 OM OM1 1248 -0.550000 15.99940
1249 OM 1249 OM OM1 1249 -0.550000 15.99940
1250 OM 1250 OM OM1 1250 -0.550000 15.99940
1251 OM 1251 OM OM1 1251 -0.550000 15.99940
1252 OM 1252 OM OM1 1252 -0.550000 15.99940
1253 OM 1253 OM OM1 1253 -0.550000 15.99940
1254 OM 1254 OM OM1 1254 -0.550000 15.99940
1255 OM 1255 OM OM1 1255 -0.550000 15.99940
1256 OM 1256 OM OM1 1256 -0.550000 15.99940
1257 OM 1257 OM OM1 1257 -0.550000 15.99940
1258 OM 1258 OM OM1 1258 -0.550000 15.99940
1259 OM 1259 OM OM1 1259 -0.550000 15.99940
1260 OM 1260 OM OM1 1260 -0.550000 15.99940
1261 OM 1261 OM OM1 1261 -0.550000 15.99940
1262 OM 1262 OM OM1 1262 -0.550000 15.99940
1263 OM 1263 OM OM1 1263 -0.550000 15.99940
1264 OM 1264 OM OM1 1264 -0.550000 15.99940
1265 OM 1265 OM OM1 1265 -0.550000 15.99940
1266 OM 1266 OM OM1 1266 -0.550000 15.99940
1267 OM 1267 OM OM1 1267 -0.550000 15.99940
1268 OM 1268 OM OM1 1268 -0.550000 15.99940
1269 OM 1269 OM OM1 1269 -0.550000 15.99940
1270 OM 1270 OM OM1 1270 -0.550000 15.99940
1271 OM 1271 OM OM1 1271 -0.550000 15.99940
1272 OM 1272 OM OM1 1272 -0.550000 15.99940
1273 OM 1273 OM OM1 1273 -0.550000 15.99940
1274 OM 1274 OM OM1 1274 -0.550000 15.99940
1275 OM 1275 OM OM1 1275 -0.550000 15.99940
1276 OM 1276 OM OM1 1276 -0.550000 15.99940
1277 OM 1277 OM OM1 1277 -0.550000 15.99940
1278 OM 1278 OM OM1 1278 -0.550000 15.99940
1279 OM 1279 OM OM1 1279 -0.550000 15.99940
1280 OM 1280 OM OM1 1280 -0.550000 15.99940
1281 OM 1281 OM OM1 1281 -0.550000 15.99940
1282 OM 1282 OM OM1 1282 -0.550000 15.99940
1283 OM 1283 OM OM1 1283 -0.550000 15.99940
1284 OM 1284 OM OM1 1284 -0.550000 15.99940
1285 OM 1285 OM OM1 1285 -0.550000 15.99940
1286 OM 1286 OM OM1 1286 -0.550000 15.99940
1287 OM 1287 OM OM1 1287 -0.550000 15.99940
1288 OM 1288 OM OM1 1288 -0.550000 15.99940
1289 OM 1289 OM OM1 1289 -0.550000 15.99940
1290 OM 1290 OM OM1 1290 -0.550000 15.99940
1291 OM 1291 OM OM1 1291 -0.550000 15.99940
1292 OM 1292 OM OM1 1292 -0.550000 15.99940
1293 OM 1293 OM OM1 1293 -0.550000 15.99940
1294 OM 1294 OM OM1 1294 -0.550000 15.99940
1295 OM 1295 OM OM1 1295 -0.550000 15.99940
1296 OM 1296 OM OM1 1296 -0.550000 15.99940
1297 OM 1297 OM OM1 1297 -0.550000 15.99940
1298 OM 1298 OM OM1 1298 -0.550000 15.99940
1299 OM 1299 OM OM1 1299 -0.550000 15.99940
1300 OM 1300 OM OM1 1300 -0.550000 15.99940
1301 OM 1301 OM OM1 1301 -0.550000 15.99940
1302 OM 1302 OM OM1 1302 -0.550000 15.99940
1303 OM 1303 OM OM1 1303 -0.550000 15.99940
1304 OM 1304 OM OM1 1304 -0.550000 15.99940
1305 OM 1305 OM OM1 1305 -0.550000 15.99940
1306 OM 1306 OM OM1 1306 -0.550000 15.99940
1307 OM 1307 OM OM1 1307 -0.550000 15.99940
1308 OM 1308 OM OM1 1308 -0.550000 15.99940
1309 OM 1309 OM OM1 1309 -0.550000 15.99940
1310 OM 1310 OM OM1 1310 -0.550000 15.99940
1311 OM 1311 OM OM1 1311 -0.550000 15.99940
1312 OM 1312 OM OM1 1312 -0.550000 15.99940
1313 OM 1313 OM OM1 1313 -0.550000 15.99940
1314 OM 1314 OM OM1 1314 -0.550000 15.99940
1315 OM 1315 OM OM1 1315 -0.550000 15.99940
1316 OM 1316 OM OM1 1316 -0.550000 15.99940
1317 OM 1317 OM OM1 1317 -0.550000 15.99940
1318 OM 1318 OM OM1 1318 -0.550000 15.99940
1319 OM 1319 OM OM1 1319 -0.550000 15.99940
1320 OM 1320 OM OM1 1320 -0.550000 15.99940
1321 OM 1321 OM OM1 1321 -0.550000 15.99940
1322 OM 1322 OM OM1 1322 -0.550000 15.99940
1323 OM 1323 OM OM1 1323 -0.550000 15.99940
1324 OM 1324 OM OM1 1324 -0.550000 15.99940
1325 OM 1325 OM OM1 1325 -0.550000 15.99940
1326 OM 1326 OM OM1 1326 -0.550000 15.99940
1327 OM 1327 OM OM1 1327 -0.550000 15.99940
1328 OM 1328 OM OM1 1328 -0.550000 15.99940
1329 OM 1329 OM OM1 1329 -0.550000 15.99940
1330 OM 1330 OM OM1 1330 -0.550000 15.99940
1331 OM 1331 OM OM1 1331 -0.550000 15.99940
1332 OM 1332 OM OM1 1332 -0.550000 15.99940
1333 OM 1333 OM OM1 1333 -0.550000 15.99940
1334 OM 1334 OM OM1 1334 -0.550000 15.99940
1335 OM 1335 OM OM1 1335 -0.550000 15.99940
1336 OM 1336 OM OM1 1336 -0.550000 15.99940
1337 OM 1337 OM OM1 1337 -0.550000 15.99940
1338 OM 1338 OM OM1 1338 -0.550000 15.99940
1339 OM 1339 OM OM1 1339 -0.550000 15.99940
1340 OM 1340 OM OM1 1340 -0.550000 15.99940
1341 OM 1341 OM OM1 1341 -0.550000 15.99940
1342 OM 1342 OM OM1 1342 -0.550000 15.99940
1343 OM 1343 OM OM1 1343 -0.550000 15.99940
1344 OM 1344 OM OM1 1344 -0.550000 15.99940
1345 OM 1345 OM OM1 1345 -0.550000 15.99940
1346 OM 1346 OM OM1 1346 -0.550000 15.99940
1347 OM 1347 OM OM1 1347 -0.550000 15.99940
1348 OM 1348 OM OM1 1348 -0.550000 15.99940
1349 OM 1349 OM OM1 1349 -0.550000 15.99940
1350 OM 1350 OM OM1 1350 -0.550000 15.99940
1351 OM 1351 OM OM1 1351 -0.550000 15.99940
1352 OM 1352 OM OM1 1352 -0.550000 15.99940
1353 OM 1353 OM OM1 1353 -0.550000 15.99940
1354 OM 1354 OM OM1 1354 -0.550000 15.99940
1355 OM 1355 OM OM1 1355 -0.550000 15.99940
1356 OM 1356 OM OM1 1356 -0.550000 15.99940
1357 OM 1357 OM OM1 1357 -0.550000 15.99940
1358 OM 1358 OM OM1 1358 -0.550000 15.99940
1359 OM 1359 OM OM1 1359 -0.550000 15.99940
1360 OM 1360 OM OM1 1360 -0.550000 15.99940
1361 OM 1361 OM OM1 1361 -0.550000 15.99940
1362 OM 1362 OM OM1 1362 -0.550000 15.99940
1363 OM 1363 OM OM1 1363 -0.550000 15.99940
1364 OM 1364 OM OM1 1364 -0.550000 15.99940
1365 OM 1365 OM OM1 1365 -0.550000 15.99940
1366 OM 1366 OM OM1 1366 -0.550000 15.99940
1367 OM 1367 OM OM1 1367 -0.550000 15.99940
1368 OM 1368 OM OM1 1368 -0.550000 15.99940
1369 OM 1369 OM OM1 1369 -0.550000 15.99940
1370 OM 1370 OM OM1 1370 -0.550000 15.99940
1371 OM 1371 OM OM1 1371 -0.550000 15.99940
1372 OM 1372 OM OM1 1372 -0.550000 15.99940
1373 OM 1373 OM OM1 1373 -0.550000 15.99940
1374 OM 1374 OM OM1 1374 -0.550000 15.99940
1375 OM 1375 OM OM1 1375 -0.550000 15.99940
1376 OM 1376 OM OM1 1376 -0.550000 15.99940
1377 OM 1377 OM OM1 1377 -0.550000 15.99940
1378 OM 1378 OM OM1 1378 -0.550000 15.99940
1379 OM 1379 OM OM1 1379 -0.550000 15.99940
1380 OM 1380 OM OM1 1380 -0.550000 15.99940
1381 OM 1381 OM OM1 1381 -0.550000 15.99940
1382 OM 1382 OM OM1 1382 -0.550000 15.99940
1383 OM 1383 OM OM1 1383 -0.550000 15.99940
1384 OM 1384 OM OM1 1384 -0.550000 15.99940
1385 OM 1385 OM OM1 1385 -0.550000 15.99940
1386 OM 1386 OM OM1 1386 -0.550000 15.99940
1387 OM 1387 OM OM1 1387 -0.550000 15.99940
1388 OM 1388 OM OM1 1388 -0.550000 15.99940
1389 OM 1389 OM OM1 1389 -0.550000 15.99940
1390 OM 1390 OM OM1 1390 -0.550000 15.99940
1391 OM 1391 OM OM1 1391 -0.550000 15.99940
1392 OM 1392 OM OM1 1392 -0.550000 15.99940
1393 OM 1393 OM OM1 1393 -0.550000 15.99940
1394 OM 1394 OM OM1 1394 -0.550000 15.99940
1395 OM 1395 OM OM1 1395 -0.550000 15.99940
1396 OM 1396 OM OM1 1396 -0.550000 15.99940
1397 OM 1397 OM OM1 1397 -0.550000 15.99940
1398 OM 1398 OM OM1 1398 -0.550000 15.99940
1399 OM 1399 OM OM1 1399 -0.550000 15.99940
1400 OM 1400 OM OM1 1400 -0.550000 15.99940
1401 OM 1401 OM OM1 1401 -0.550000 15.99940
1402 OM 1402 OM OM1 1402 -0.550000 15.99940
1403 OM 1403 OM OM1 1403 -0.550000 15.99940
1404 OM 1404 OM OM1 1404 -0.550000 15.99940
1405 OM 1405 OM OM1 1405 -0.550000 15.99940
1406 OM 1406 OM OM1 1406 -0.550000 15.99940
1407 OM 1407 OM OM1 1407 -0.550000 15.99940
1408 OM 1408 OM OM1 1408 -0.550000 15.99940
1409 OM 1409 OM OM1 1409 -0.550000 15.99940
1410 OM 1410 OM OM1 1410 -0.550000 15.99940
1411 OM 1411 OM OM1 1411 -0.550000 15.99940
1412 OM 1412 OM OM1 1412 -0.550000 15.99940
1413 OM 1413 OM OM1 1413 -0.550000 15.99940
1414 OM 1414 OM OM1 1414 -0.550000 15.99940
1415 OM 1415 OM OM1 1415 -0.550000 15.99940
1416 OM 1416 OM OM1 1416 -0.550000 15.99940
1417 OM 1417 OM OM1 1417 -0.550000 15.99940
1418 OM 1418 OM OM1 1418 -0.550000 15.99940
1419 OM 1419 OM OM1 1419 -0.550000 15.99940
1420 OM 1420 OM OM1 1420 -0.550000 15.99940
1421 OM 1421 OM OM1 1421 -0.550000 15.99940
1422 OM 1422 OM OM1 1422 -0.550000 15.99940
1423 OM 1423 OM OM1 1423 -0.550000 15.99940
1424 OM 1424 OM OM1 1424 -0.550000 15.99940
1425 OM 1425 OM OM1 1425 -0.550000 15.99940
1426 OM 1426 OM OM1 1426 -0.550000 15.99940
1427 OM 1427 OM OM1 1427 -0.550000 15.99940
1428 OM 1428 OM OM1 1428 -0.550000 15.99940
1429 OM 1429 OM OM1 1429 -0.550000 15.99940
1430 OM 1430 OM OM1 1430 -0.550000 15.99940
1431 OM 1431 OM OM1 1431 -0.550000 15.99940
1432 OM 1432 OM OM1 1432 -0.550000 15.99940
1433 OM 1433 OM OM1 1433 -0.550000 15.99940
1434 OM 1434 OM OM1 1434 -0.550000 15.99940
1435 OM 1435 OM OM1 1435 -0.550000 15.99940
1436 OM 1436 OM OM1 1436 -0.550000 15.99940
1437 OM 1437 OM OM1 1437 -0.550000 15.99940
1438 OM 1438 OM OM1 1438 -0.550000 15.99940
1439 OM 1439 OM OM1 1439 -0.550000 15.99940
1440 OM 1440 OM OM1 1440 -0.550000 15.99940
1441 OM 1441 OM OM1 1441 -0.550000 15.99940
1442 OM 1442 OM OM1 1442 -0.550000 15.99940
1443 OM 1443 OM OM1 1443 -0.550000 15.99940
1444 OM 1444 OM OM1 1444 -0.550000 15.99940
1445 OM 1445 OM OM1 1445 -0.550000 15.99940
1446 OM 1446 OM OM1 1446 -0.550000 15.99940
1447 OM 1447 OM OM1 1447 -0.550000 15.99940
1448 OM 1448 OM OM1 1448 -0.550000 15.99940
1449 OM 1449 OM OM1 1449 -0.550000 15.99940
1450 OM 1450 OM OM1 1450 -0.550000 15.99940
1451 OM 1451 OM OM1 1451 -0.550000 15.99940
1452 OM 1452 OM OM1 1452 -0.550000 15.99940
1453 OM 1453 OM OM1 1453 -0.550000 15.99940
1454 OM 1454 OM OM1 1454 -0.550000 15.99940
1455 OM 1455 OM OM1 1455 -0.550000 15.99940
1456 OM 1456 OM OM1 1456 -0.550000 15.99940
1457 OM 1457 OM OM1 1457 -0.550000 15.99940
1458 OM 1458 OM OM1 1458 -0.550000 15.99940
1459 OM 1459 OM OM1 1459 -0.550000 15.99940
1460 OM 1460 OM OM1 1460 -0.550000 15.99940
1461 OM 1461 OM OM1 1461 -0.550000 15.99940
1462 OM 1462 OM OM1 1462 -0.550000 15.99940
1463 OM 1463 OM OM1 1463 -0.550000 15.99940
1464 OM 1464 OM OM1 1464 -0.550000 15.99940
1465 OM 1465 OM OM1 1465 -0.550000 15.99940
1466 OM 1466 OM OM1 1466 -0.550000 15.99940
1467 OM 1467 OM OM1 1467 -0.550000 15.99940
1468 OM 1468 OM OM1 1468 -0.550000 15.99940
1469 OM 1469 OM OM1 1469 -0.550000 15.99940
1470 OM 1470 OM OM1 1470 -0.550000 15.99940
1471 OM 1471 OM OM1 1471 -0.550000 15.99940
1472 OM 1472 OM OM1 1472 -0.550000 15.99940
1473 OM 1473 OM OM1 1473 -0.550000 15.99940
1474 OM 1474 OM OM1 1474 -0.550000 15.99940
1475 OM 1475 OM OM1 1475 -0.550000 15.99940
1476 OM 1476 OM OM1 1476 -0.550000 15.99940
1477 OM 1477 OM OM1 1477 -0.550000 15.99940
1478 OM 1478 OM OM1 1478 -0.550000 15.99940
1479 OM 1479 OM OM1 1479 -0.550000 15.99940
1480 OM 1480 OM OM1 1480 -0.550000 15.99940
1481 OM 1481 OM OM1 1481 -0.550000 15.99940
1482 OM 1482 OM OM1 1482 -0.550000 15.99940
1483 OM 1483 OM OM1 1483 -0.550000 15.99940
1484 OM 1484 OM OM1 1484 -0.550000 15.99940
1485 OM 1485 OM OM1 1485 -0.550000 15.99940
1486 OM 1486 OM OM1 1486 -0.550000 15.99940
1487 OM 1487 OM OM1 1487 -0.550000 15.99940
1488 OM 1488 OM OM1 1488 -0.550000 15.99940
1489 OM 1489 OM OM1 1489 -0.550000 15.99940
1490 OM 1490 OM OM1 1490 -0.550000 15.99940
1491 OM 1491 OM OM1 1491 -0.550000 15.99940
1492 OM 1492 OM OM1 1492 -0.550000 15.99940
1493 OM 1493 OM OM1 1493 -0.550000 15.99940
1494 OM 1494 OM OM1 1494 -0.550000 15.99940
1495 OM 1495 OM OM1 1495 -0.550000 15.99940
1496 OM 1496 OM OM1 1496 -0.550000 15.99940
1497 OM 1497 OM OM1 1497 -0.550000 15.99940
1498 OM 1498 OM OM1 1498 -0.550000 15.99940
1499 OM 1499 OM OM1 1499 -0.550000 15.99940
1500 OM 1500 OM OM1 1500 -0.550000 15.99940
1501 OM 1501 OM OM1 1501 -0.550000 15.99940
1502 OM 1502 OM OM1 1502 -0.550000 15.99940
1503 OM 1503 OM OM1 1503 -0.550000 15.99940
1504 OM 1504 OM OM1 1504 -0.550000 15.99940
1505 OM 1505 OM OM1 1505 -0.550000 15.99940
1506 OM 1506 OM OM1 1506 -0.550000 15.99940
1507 OM 1507 OM OM1 1507 -0.550000 15.99940
1508 OM 1508 OM OM1 1508 -0.550000 15.99940
1509 OM 1509 OM OM1 1509 -0.550000 15.99940
1510 OM 1510 OM OM1 1510 -0.550000 15.99940
1511 OM 1511 OM OM1 1511 -0.550000 15.99940
1512 OM 1512 OM OM1 1512 -0.550000 15.99940
1513 OM 1513 OM OM1 1513 -0.550000 15.99940
1514 OM 1514 OM OM1 1514 -0.550000 15.99940
1515 OM 1515 OM OM1 1515 -0.550000 15.99940
1516 OM 1516 OM OM1 1516 -0.550000 15.99940
1517 OM 1517 OM OM1 1517 -0.550000 15.99940
1518 OM 1518 OM OM1 1518 -0.550000 15.99940
1519 OM 1519 OM OM1 1519 -0.550000 15.99940
1520 OM 1520 OM OM1 1520 -0.550000 15.99940
1521 OM 1521 OM OM1 1521 -0.550000 15.99940
1522 OM 1522 OM OM1 1522 -0.550000 15.99940
1523 OM 1523 OM OM1 1523 -0.550000 15.99940
1524 OM 1524 OM OM1 1524 -0.550000 15.99940
1525 OM 1525 OM OM1 1525 -0.550000 15.99940
1526 OM 1526 OM OM1 1526 -0.550000 15.99940
1527 OM 1527 OM OM1 1527 -0.550000 15.99940
1528 OM 1528 OM OM1 1528 -0.550000 15.99940
1529 OM 1529 OM OM1 1529 -0.550000 15.99940
1530 OM 1530 OM OM1 1530 -0.550000 15.99940
1531 OM 1531 OM OM1 1531 -0.550000 15.99940
1532 OM 1532 OM OM1 1532 -0.550000 15.99940
1533 OM 1533 OM OM1 1533 -0.550000 15.99940
1534 OM 1534 OM OM1 1534 -0.550000 15.99940
1535 OM 1535 OM OM1 1535 -0.550000 15.99940
1536 OM 1536 OM OM1 1536 -0.550000 15.99940
1537 OM 1537 OM OM1 1537 -0.550000 15.99940
1538 OM 1538 OM OM1 1538 -0.550000 15.99940
1539 OM 1539 OM OM1 1539 -0.550000 15.99940
1540 OM 1540 OM OM1 1540 -0.550000 15.99940
1541 OM 1541 OM OM1 1541 -0.550000 15.99940
1542 OM 1542 OM OM1 1542 -0.550000 15.99940
1543 OM 1543 OM OM1 1543 -0.550000 15.99940
1544 OM 1544 OM OM1 1544 -0.550000 15.99940
1545 OM 1545 OM OM1 1545 -0.550000 15.99940
1546 OM 1546 OM OM1 1546 -0.550000 15.99940
1547 OM 1547 OM OM1 1547 -0.550000 15.99940
1548 OM 1548 OM OM1 1548 -0.550000 15.99940
1549 OM 1549 OM OM1 1549 -0.550000 15.99940
1550 OM 1550 OM OM1 1550 -0.550000 15.99940
1551 OM 1551 OM OM1 1551 -0.550000 15.99940
1552 OM 1552 OM OM1 1552 -0.550000 15.99940
1553 OM 1553 OM OM1 1553 -0.550000 15.99940
1554 OM 1554 OM OM1 1554 -0.550000 15.99940
1555 OM 1555 OM OM1 1555 -0.550000 15.99940
1556 OM 1556 OM OM1 1556 -0.550000 15.99940
1557 OM 1557 OM OM1 1557 -0.550000 15.99940
1558 OM 1558 OM OM1 1558 -0.550000 15.99940
1559 OM 1559 OM OM1 1559 -0.550000 15.99940
1560 OM 1560 OM OM1 1560 -0.550000 15.99940
1561 OM 1561 OM OM1 1561 -0.550000 15.99940
1562 OM 1562 OM OM1 1562 -0.550000 15.99940
1563 OM 1563 OM OM1 1563 -0.550000 15.99940
1564 OM 1564 OM OM1 1564 -0.550000 15.99940
1565 OM 1565 OM OM1 1565 -0.550000 15.99940
1566 OM 1566 OM OM1 1566 -0.550000 15.99940
1567 OM 1567 OM OM1 1567 -0.550000 15.99940
1568 OM 1568 OM OM1 1568 -0.550000 15.99940
1569 OM 1569 OM OM1 1569 -0.550000 15.99940
1570 OM 1570 OM OM1 1570 -0.550000 15.99940
1571 OM 1571 OM OM1 1571 -0.550000 15.99940
1572 OM 1572 OM OM1 1572 -0.550000 15.99940
1573 OM 1573 OM OM1 1573 -0.550000 15.99940
1574 OM 1574 OM OM1 1574 -0.550000 15.99940
1575 OM 1575 OM OM1 1575 -0.550000 15.99940
1576 OM 1576 OM OM1 1576 -0.550000 15.99940
1577 OM 1577 OM OM1 1577 -0.550000 15.99940
1578 OM 1578 OM OM1 1578 -0.550000 15.99940
1579 OM 1579 OM OM1 1579 -0.550000 15.99940
1580 OM 1580 OM OM1 1580 -0.550000 15.99940
1581 OM 1581 OM OM1 1581 -0.550000 15.99940
1582 OM 1582 OM OM1 1582 -0.550000 15.99940
1583 OM 1583 OM OM1 1583 -0.550000 15.99940
1584 OM 1584 OM OM1 1584 -0.550000 15.99940
1585 OM 1585 OM OM1 1585 -0.550000 15.99940
1586 OM 1586 OM OM1 1586 -0.550000 15.99940
1587 OM 1587 OM OM1 1587 -0.550000 15.99940
1588 OM 1588 OM OM1 1588 -0.550000 15.99940
1589 OM 1589 OM OM1 1589 -0.550000 15.99940
1590 OM 1590 OM OM1 1590 -0.550000 15.99940
1591 OM 1591 OM OM1 1591 -0.550000 15.99940
1592 OM 1592 OM OM1 1592 -0.550000 15.99940
1593 OM 1593 OM OM1 1593 -0.550000 15.99940
1594 OM 1594 OM OM1 1594 -0.550000 15.99940
1595 OM 1595 OM OM1 1595 -0.550000 15.99940
1596 OM 1596 OM OM1 1596 -0.550000 15.99940
1597 OM 1597 OM OM1 1597 -0.550000 15.99940
1598 OM 1598 OM OM1 1598 -0.550000 15.99940
1599 OM 1599 OM OM1 1599 -0.550000 15.99940
1600 OM 1600 OM OM1 1600 -0.550000 15.99940
1601 OM 1601 OM OM1 1601 -0.550000 15.99940
1602 OM 1602 OM OM1 1602 -0.550000 15.99940
1603 OM 1603 OM OM1 1603 -0.550000 15.99940
1604 OM 1604 OM OM1 1604 -0.550000 15.99940
1605 OM 1605 OM OM1 1605 -0.550000 15.99940
1606 OM 1606 OM OM1 1606 -0.550000 15.99940
1607 OM 1607 OM OM1 1607 -0.550000 15.99940
1608 OM 1608 OM OM1 1608 -0.550000 15.99940
1609 OM 1609 OM OM1 1609 -0.550000 15.99940
1610 OM 1610 OM OM1 1610 -0.550000 15.99940
1611 OM 1611 OM OM1 1611 -0.550000 15.99940
1612 OM 1612 OM OM1 1612 -0.550000 15.99940
1613 OM 1613 OM OM1 1613 -0.550000 15.99940
1614 OM 1614 OM OM1 1614 -0.550000 15.99940
1615 OM 1615 OM OM1 1615 -0.550000 15.99940
1616 OM 1616 OM OM1 1616 -0.550000 15.99940
1617 OM 1617 OM OM1 1617 -0.550000 15.99940
1618 OM 1618 OM OM1 1618 -0.550000 15.99940
1619 OM 1619 OM OM1 1619 -0.550000 15.99940
1620 OM 1620 OM OM1 1620 -0.550000 15.99940
1621 OM 1621 OM OM1 1621 -0.550000 15.99940
1622 OM 1622 OM OM1 1622 -0.550000 15.99940
1623 OM 1623 OM OM1 1623 -0.550000 15.99940
1624 OM 1624 OM OM1 1624 -0.550000 15.99940
1625 OM 1625 OM OM1 1625 -0.550000 15.99940
1626 OM 1626 OM OM1 1626 -0.550000 15.99940
1627 OM 1627 OM OM1 1627 -0.550000 15.99940
1628 OM 1628 OM OM1 1628 -0.550000 15.99940
1629 OM 1629 OM OM1 1629 -0.550000 15.99940
1630 OM 1630 OM OM1 1630 -0.550000 15.99940
1631 OM 1631 OM OM1 1631 -0.550000 15.99940
1632 OM 1632 OM OM1 1632 -0.550000 15.99940
1633 OM 1633 OM OM1 1633 -0.550000 15.99940
1634 OM 1634 OM OM1 1634 -0.550000 15.99940
1635 OM 1635 OM OM1 1635 -0.550000 15.99940
1636 OM 1636 OM OM1 1636 -0.550000 15.99940
1637 OM 1637 OM OM1 1637 -0.550000 15.99940
1638 OM 1638 OM OM1 1638 -0.550000 15.99940
1639 OM 1639 OM OM1 1639 -0.550000 15.99940
1640 OM 1640 OM OM1 1640 -0.550000 15.99940
1641 OM 1641 OM OM1 1641 -0.550000 15.99940
1642 OM 1642 OM OM1 1642 -0.550000 15.99940
1643 OM 1643 OM OM1 1643 -0.550000 15.99940
1644 OM 1644 OM OM1 1644 -0.550000 15.99940
1645 OM 1645 OM OM1 1645 -0.550000 15.99940
1646 OM 1646 OM OM1 1646 -0.550000 15.99940
1647 OM 1647 OM OM1 1647 -0.550000 15.99940
1648 OM 1648 OM OM1 1648 -0.550000 15.99940
1649 OM 1649 OM OM1 1649 -0.550000 15.99940
1650 OM 1650 OM OM1 1650 -0.550000 15.99940
1651 OM 1651 OM OM1 1651 -0.550000 15.99940
1652 OM 1652 OM OM1 1652 -0.550000 15.99940
1653 OM 1653 OM OM1 1653 -0.550000 15.99940
1654 OM 1654 OM OM1 1654 -0.550000 15.99940
1655 OM 1655 OM OM1 1655 -0.550000 15.99940
1656 OM 1656 OM OM1 1656 -0.550000 15.99940
1657 OM 1657 OM OM1 1657 -0.550000 15.99940
1658 OM 1658 OM OM1 1658 -0.550000 15.99940
1659 OM 1659 OM OM1 1659 -0.550000 15.99940
1660 OM 1660 OM OM1 1660 -0.550000 15.99940
1661 OM 1661 OM OM1 1661 -0.550000 15.99940
1662 OM 1662 OM OM1 1662 -0.550000 15.99940
1663 OM 1663 OM OM1 1663 -0.550000 15.99940
1664 OM 1664 OM OM1 1664 -0.550000 15.99940
1665 OM 1665 OM OM1 1665 -0.550000 15.99940
1666 OM 1666 OM OM1 1666 -0.550000 15.99940
1667 OM 1667 OM OM1 1667 -0.550000 15.99940
1668 OM 1668 OM OM1 1668 -0.550000 15.99940
1669 OM 1669 OM OM1 1669 -0.550000 15.99940
1670 OM 1670 OM OM1 1670 -0.550000 15.99940
1671 OM 1671 OM OM1 1671 -0.550000 15.99940
1672 OM 1672 OM OM1 1672 -0.550000 15.99940
1673 OM 1673 OM OM1 1673 -0.550000 15.99940
1674 OM 1674 OM OM1 1674 -0.550000 15.99940
1675 OM 1675 OM OM1 1675 -0.550000 15.99940
1676 OM 1676 OM OM1 1676 -0.550000 15.99940
1677 OM 1677 OM OM1 1677 -0.550000 15.99940
1678 OM 1678 OM OM1 1678 -0.550000 15.99940
1679 OM 1679 OM OM1 1679 -0.550000 15.99940
1680 OM 1680 OM OM1 1680 -0.550000 15.99940
1681 OM 1681 OM OM1 1681 -0.550000 15.99940
1682 OM 1682 OM OM1 1682 -0.550000 15.99940
1683 OM 1683 OM OM1 1683 -0.550000 15.99940
1684 OM 1684 OM OM1 1684 -0.550000 15.99940
1685 OM 1685 OM OM1 1685 -0.550000 15.99940
1686 OM 1686 OM OM1 1686 -0.550000 15.99940
1687 OM 1687 OM OM1 1687 -0.550000 15.99940
1688 OM 1688 OM OM1 1688 -0.550000 15.99940
1689 OM 1689 OM OM1 1689 -0.550000 15.99940
1690 OM 1690 OM OM1 1690 -0.550000 15.99940
1691 OM 1691 OM OM1 1691 -0.550000 15.99940
1692 OM 1692 OM OM1 1692 -0.550000 15.99940
1693 OM 1693 OM OM1 1693 -0.550000 15.99940
1694 OM 1694 OM OM1 1694 -0.550000 15.99940
1695 OM 1695 OM OM1 1695 -0.550000 15.99940
1696 OM 1696 OM OM1 1696 -0.550000 15.99940
1697 OM 1697 OM OM1 1697 -0.550000 15.99940
1698 OM 1698 OM OM1 1698 -0.550000 15.99940
1699 OM 1699 OM OM1 1699 -0.550000 15.99940
1700 OM 1700 OM OM1 1700 -0.550000 15.99940
1701 OM 1701 OM OM1 1701 -0.550000 15.99940
1702 OM 1702 OM OM1 1702 -0.550000 15.99940
1703 OM 1703 OM OM1 1703 -0.550000 15.99940
1704 OM 1704 OM OM1 1704 -0.550000 15.99940
1705 OM 1705 OM OM1 1705 -0.550000 15.99940
1706 OM 1706 OM OM1 1706 -0.550000 15.99940
1707 OM 1707 OM OM1 1707 -0.550000 15.99940
1708 OM 1708 OM OM1 1708 -0.550000 15.99940
1709 OM 1709 OM OM1 1709 -0.550000 15.99940
1710 OM 1710 OM OM1 1710 -0.550000 15.99940
1711 OM 1711 OM OM1 1711 -0.550000 15.99940
1712 OM 1712 OM OM1 1712 -0.550000 15.99940
1713 OM 1713 OM OM1 1713 -0.550000 15.99940
1714 OM 1714 OM OM1 1714 -0.550000 15.99940
1715 OM 1715 OM OM1 1715 -0.550000 15.99940
1716 OM 1716 OM OM1 1716 -0.550000 15.99940
1717 OM 1717 OM OM1 1717 -0.550000 15.99940
1718 OM 1718 OM OM1 1718 -0.550000 15.99940
1719 OM 1719 OM OM1 1719 -0.550000 15.99940
1720 OM 1720 OM OM1 1720 -0.550000 15.99940
1721 OM 1721 OM OM1 1721 -0.550000 15.99940
1722 OM 1722 OM OM1 1722 -0.550000 15.99940
1723 OM 1723 OM OM1 1723 -0.550000 15.99940
1724 OM 1724 OM OM1 1724 -0.550000 15.99940
1725 OM 1725 OM OM1 1725 -0.550000 15.99940
1726 OM 1726 OM OM1 1726 -0.550000 15.99940
1727 OM 1727 OM OM1 1727 -0.550000 15.99940
1728 OM 1728 OM OM1 1728 -0.550000 15.99940
1729 OM 1729 OM OM1 1729 -0.550000 15.99940
1730 OM 1730 OM OM1 1730 -0.550000 15.99940
1731 OM 1731 OM OM1 1731 -0.550000 15.99940
1732 OM 1732 OM OM1 1732 -0.550000 15.99940
1733 OM 1733 OM OM1 1733 -0.550000 15.99940
1734 OM 1734 OM OM1 1734 -0.550000 15.99940
1735 OM 1735 OM OM1 1735 -0.550000 15.99940
1736 OM 1736 OM OM1 1736 -0.550000 15.99940
1737 OM 1737 OM OM1 1737 -0.550000 15.99940
1738 OM 1738 OM OM1 1738 -0.550000 15.99940
1739 OM 1739 OM OM1 1739 -0.550000 15.99940
1740 OM 1740 OM OM1 1740 -0.550000 15.99940
1741 OM 1741 OM OM1 1741 -0.550000 15.99940
1742 OM 1742 OM OM1 1742 -0.550000 15.99940
1743 OM 1743 OM OM1 1743 -0.550000 15.99940
1744 OM 1744 OM OM1 1744 -0.550000 15.99940
1745 OM 1745 OM OM1 1745 -0.550000 15.99940
1746 OM 1746 OM OM1 1746 -0.550000 15.99940
1747 OM 1747 OM OM1 1747 -0.550000 15.99940
1748 OM 1748 OM OM1 1748 -0.550000 15.99940
1749 OM 1749 OM OM1 1749 -0.550000 15.99940
1750 OM 1750 OM OM1 1750 -0.550000 15.99940
1751 OM 1751 OM OM1 1751 -0.550000 15.99940
1752 OM 1752 OM OM1 1752 -0.550000 15.99940
1753 OM 1753 OM OM1 1753 -0.550000 15.99940
1754 OM 1754 OM OM1 1754 -0.550000 15.99940
1755 OM 1755 OM OM1 1755 -0.550000 15.99940
1756 OM 1756 OM OM1 1756 -0.550000 15.99940
1757 OM 1757 OM OM1 1757 -0.550000 15.99940
1758 OM 1758 OM OM1 1758 -0.550000 15.99940
1759 OM 1759 OM OM1 1759 -0.550000 15.99940
1760 OM 1760 OM OM1 1760 -0.550000 15.99940
1761 OM 1761 OM OM1 1761 -0.550000 15.99940
1762 OM 1762 OM OM1 1762 -0.550000 15.99940
1763 OM 1763 OM OM1 1763 -0.550000 15.99940
1764 OM 1764 OM OM1 1764 -0.550000 15.99940
1765 OM 1765 OM OM1 1765 -0.550000 15.99940
1766 OM 1766 OM OM1 1766 -0.550000 15.99940
1767 OM 1767 OM OM1 1767 -0.550000 15.99940
1768 OM 1768 OM OM1 1768 -0.550000 15.99940
1769 OM 1769 OM OM1 1769 -0.550000 15.99940
1770 OM 1770 OM OM1 1770 -0.550000 15.99940
1771 OM 1771 OM OM1 1771 -0.550000 15.99940
1772 OM 1772 OM OM1 1772 -0.550000 15.99940
1773 OM 1773 OM OM1 1773 -0.550000 15.99940
1774 OM 1774 OM OM1 1774 -0.550000 15.99940
1775 OM 1775 OM OM1 1775 -0.550000 15.99940
1776 OM 1776 OM OM1 1776 -0.550000 15.99940
1777 OM 1777 OM OM1 1777 -0.550000 15.99940
1778 OM 1778 OM OM1 1778 -0.550000 15.99940
1779 OM 1779 OM OM1 1779 -0.550000 15.99940
1780 OM 1780 OM OM1 1780 -0.550000 15.99940
1781 OM 1781 OM OM1 1781 -0.550000 15.99940
1782 OM 1782 OM OM1 1782 -0.550000 15.99940
1783 OM 1783 OM OM1 1783 -0.550000 15.99940
1784 OM 1784 OM OM1 1784 -0.550000 15.99940
1785 OM 1785 OM OM1 1785 -0.550000 15.99940
1786 OM 1786 OM OM1 1786 -0.550000 15.99940
1787 OM 1787 OM OM1 1787 -0.550000 15.99940
1788 OM 1788 OM OM1 1788 -0.550000 15.99940
1789 OM 1789 OM OM1 1789 -0.550000 15.99940
1790 OM 1790 OM OM1 1790 -0.550000 15.99940
1791 OM 1791 OM OM1 1791 -0.550000 15.99940
1792 OM 1792 OM OM1 1792 -0.550000 15.99940
1793 OM 1793 OM OM1 1793 -0.550000 15.99940
1794 OM 1794 OM OM1 1794 -0.550000 15.99940
1795 OM 1795 OM OM1 1795 -0.550000 15.99940
1796 OM 1796 OM OM1 1796 -0.550000 15.99940
1797 OM 1797 OM OM1 1797 -0.550000 15.99940
1798 OM 1798 OM OM1 1798 -0.550000 15.99940
1799 OM 1799 OM OM1 1799 -0.550000 15.99940
1800 OM 1800 OM OM1 1800 -0.550000 15.99940
1801 OM 1801 OM OM1 1801 -0.550000 15.99940
1802 OM 1802 OM OM1 1802 -0.550000 15.99940
1803 OM 1803 OM OM1 1803 -0.550000 15.99940
1804 OM 1804 OM OM1 1804 -0.550000 15.99940
1805 OM 1805 OM OM1 1805 -0.550000 15.99940
1806 OM 1806 OM OM1 1806 -0.550000 15.99940
1807 OM 1807 OM OM1 1807 -0.550000 15.99940
1808 OM 1808 OM OM1 1808 -0.550000 15.99940
1809 OM 1809 OM OM1 1809 -0.550000 15.99940
1810 OM 1810 OM OM1 1810 -0.550000 15.99940
1811 OM 1811 OM OM1 1811 -0.550000 15.99940
1812 OM 1812 OM OM1 1812 -0.550000 15.99940
1813 OM 1813 OM OM1 1813 -0.550000 15.99940
1814 OM 1814 OM OM1 1814 -0.550000 15.99940
1815 OM 1815 OM OM1 1815 -0.550000 15.99940
1816 OM 1816 OM OM1 1816 -0.550000 15.99940
1817 OM 1817 OM OM1 1817 -0.550000 15.99940
1818 OM 1818 OM OM1 1818 -0.550000 15.99940
1819 OM 1819 OM OM1 1819 -0.550000 15.99940
1820 OM 1820 OM OM1 1820 -0.550000 15.99940
1821 OM 1821 OM OM1 1821 -0.550000 15.99940
1822 OM 1822 OM OM1 1822 -0.550000 15.99940
1823 OM 1823 OM OM1 1823 -0.550000 15.99940
1824 OM 1824 OM OM1 1824 -0.550000 15.99940
1825 OM 1825 OM OM1 1825 -0.550000 15.99940
1826 OM 1826 OM OM1 1826 -0.550000 15.99940
1827 OM 1827 OM OM1 1827 -0.550000 15.99940
1828 OM 1828 OM OM1 1828 -0.550000 15.99940
1829 OM 1829 OM OM1 1829 -0.550000 15.99940
1830 OM 1830 OM OM1 1830 -0.550000 15.99940
1831 OM 1831 OM OM1 1831 -0.550000 15.99940
1832 OM 1832 OM OM1 1832 -0.550000 15.99940
1833 OM 1833 OM OM1 1833 -0.550000 15.99940
1834 OM 1834 OM OM1 1834 -0.550000 15.99940
1835 OM 1835 OM OM1 1835 -0.550000 15.99940
1836 OM 1836 OM OM1 1836 -0.550000 15.99940
1837 OM 1837 OM OM1 1837 -0.550000 15.99940
1838 OM 1838 OM OM1 1838 -0.550000 15.99940
1839 OM 1839 OM OM1 1839 -0.550000 15.99940
1840 OM 1840 OM OM1 1840 -0.550000 15.99940
1841 OM 1841 OM OM1 1841 -0.550000 15.99940
1842 OM 1842 OM OM1 1842 -0.550000 15.99940
1843 OM 1843 OM OM1 1843 -0.550000 15.99940
1844 OM 1844 OM OM1 1844 -0.550000 15.99940
1845 OM 1845 OM OM1 1845 -0.550000 15.99940
1846 OM 1846 OM OM1 1846 -0.550000 15.99940
1847 OM 1847 OM OM1 1847 -0.550000 15.99940
1848 OM 1848 OM OM1 1848 -0.550000 15.99940
1849 OM 1849 OM OM1 1849 -0.550000 15.99940
1850 OM 1850 OM OM1 1850 -0.550000 15.99940
1851 OM 1851 OM OM1 1851 -0.550000 15.99940
1852 OM 1852 OM OM1 1852 -0.550000 15.99940
1853 OM 1853 OM OM1 1853 -0.550000 15.99940
1854 OM 1854 OM OM1 1854 -0.550000 15.99940
1855 OM 1855 OM OM1 1855 -0.550000 15.99940
1856 OM 1856 OM OM1 1856 -0.550000 15.99940
1857 OM 1857 OM OM1 1857 -0.550000 15.99940
1858 OM 1858 OM OM1 1858 -0.550000 15.99940
1859 OM 1859 OM OM1 1859 -0.550000 15.99940
1860 OM 1860 OM OM1 1860 -0.550000 15.99940
1861 OM 1861 OM OM1 1861 -0.550000 15.99940
1862 OM 1862 OM OM1 1862 -0.550000 15.99940
1863 OM 1863 OM OM1 1863 -0.550000 15.99940
1864 OM 1864 OM OM1 1864 -0.550000 15.99940
1865 OM 1865 OM OM1 1865 -0.550000 15.99940
1866 OM 1866 OM OM1 1866 -0.550000 15.99940
1867 OM 1867 OM OM1 1867 -0.550000 15.99940
1868 OM 1868 OM OM1 1868 -0.550000 15.99940
1869 OM 1869 OM OM1 1869 -0.550000 15.99940
1870 OM 1870 OM OM1 1870 -0.550000 15.99940
1871 OM 1871 OM OM1 1871 -0.550000 15.99940
1872 OM 1872 OM OM1 1872 -0.550000 15.99940
1873 OM 1873 OM OM1 1873 -0.550000 15.99940
1874 OM 1874 OM OM1 1874 -0.550000 15.99940
1875 OM 1875 OM OM1 1875 -0.550000 15.99940
1876 OM 1876 OM OM1 1876 -0.550000 15.99940
1877 OM 1877 OM OM1 1877 -0.550000 15.99940
1878 OM 1878 OM OM1 1878 -0.550000 15.99940
1879 OM 1879 OM OM1 1879 -0.550000 15.99940
1880 OM 1880 OM OM1 1880 -0.550000 15.99940
1881 OM 1881 OM OM1 1881 -0.550000 15.99940
1882 OM 1882 OM OM1 1882 -0.550000 15.99940
1883 OM 1883 OM OM1 1883 -0.550000 15.99940
1884 OM 1884 OM OM1 1884 -0.550000 15.99940
1885 OM 1885 OM OM1 1885 -0.550000 15.99940
1886 OM 1886 OM OM1 1886 -0.550000 15.99940
1887 OM 1887 OM OM1 1887 -0.550000 15.99940
1888 OM 1888 OM OM1 1888 -0.550000 15.99940
1889 OM 1889 OM OM1 1889 -0.550000 15.99940
1890 OM 1890 OM OM1 1890 -0.550000 15.99940
1891 OM 1891 OM OM1 1891 -0.550000 15.99940
1892 OM 1892 OM OM1 1892 -0.550000 15.99940
1893 OM 1893 OM OM1 1893 -0.550000 15.99940
1894 OM 1894 OM OM1 1894 -0.550000 15.99940
1895 OM 1895 OM OM1 1895 -0.550000 15.99940
1896 OM 1896 OM OM1 1896 -0.550000 15.99940
1897 OM 1897 OM OM1 1897 -0.550000 15.99940
1898 OM 1898 OM OM1 1898 -0.550000 15.99940
1899 OM 1899 OM OM1 1899 -0.550000 15.99940
1900 OM 1900 OM OM1 1900 -0.550000 15.99940
1901 OM 1901 OM OM1 1901 -0.550000 15.99940
1902 OM 1902 OM OM1 1902 -0.550000 15.99940
1903 OM 1903 OM OM1 1903 -0.550000 15.99940
1904 OM 1904 OM OM1 1904 -0.550000 15.99940
1905 OM 1905 OM OM1 1905 -0.550000 15.99940
1906 OM 1906 OM OM1 1906 -0.550000 15.99940
1907 OM 1907 OM OM1 1907 -0.550000 15.99940
1908 OM 1908 OM OM1 1908 -0.550000 15.99940
1909 OM 1909 OM OM1 1909 -0.550000 15.99940
1910 OM 1910 OM OM1 1910 -0.550000 15.99940
1911 OM 1911 OM OM1 1911 -0.550000 15.99940
1912 OM 1912 OM OM1 1912 -0.550000 15.99940
1913 OM 1913 OM OM1 1913 -0.550000 15.99940
1914 OM 1914 OM OM1 1914 -0.550000 15.99940
1915 OM 1915 OM OM1 1915 -0.550000 15.99940
1916 OM 1916 OM OM1 1916 -0.550000 15.99940
1917 OM 1917 OM OM1 1917 -0.550000 15.99940
1918 OM 1918 OM OM1 1918 -0.550000 15.99940
1919 OM 1919 OM OM1 1919 -0.550000 15.99940
1920 OM 1920 OM OM1 1920 -0.550000 15.99940
1921 OM 1921 OM OM1 1921 -0.550000 15.99940
1922 OM 1922 OM OM1 1922 -0.550000 15.99940
1923 OM 1923 OM OM1 1923 -0.550000 15.99940
1924 OM 1924 OM OM1 1924 -0.550000 15.99940
1925 OM 1925 OM OM1 1925 -0.550000 15.99940
1926 OM 1926 OM OM1 1926 -0.550000 15.99940
1927 OM 1927 OM OM1 1927 -0.550000 15.99940
1928 OM 1928 OM OM1 1928 -0.550000 15.99940
1929 OM 1929 OM OM1 1929 -0.550000 15.99940
1930 OM 1930 OM OM1 1930 -0.550000 15.99940
1931 OM 1931 OM OM1 1931 -0.550000 15.99940
1932 OM 1932 OM OM1 1932 -0.550000 15.99940
1933 OM 1933 OM OM1 1933 -0.550000 15.99940
1934 OM 1934 OM OM1 1934 -0.550000 15.99940
1935 OM 1935 OM OM1 1935 -0.550000 15.99940
1936 OM 1936 OM OM1 1936 -0.550000 15.99940
1937 OM 1937 OM OM1 1937 -0.550000 15.99940
1938 OM 1938 OM OM1 1938 -0.550000 15.99940
1939 OM 1939 OM OM1 1939 -0.550000 15.99940
1940 OM 1940 OM OM1 1940 -0.550000 15.99940
1941 OM 1941 OM OM1 1941 -0.550000 15.99940
1942 OM 1942 OM OM1 1942 -0.550000 15.99940
1943 OM 1943 OM OM1 1943 -0.550000 15.99940
1944 OM 1944 OM OM1 1944 -0.550000 15.99940
1945 OM 1945 OM OM1 1945 -0.550000 15.99940
1946 OM 1946 OM OM1 1946 -0.550000 15.99940
1947 OM 1947 OM OM1 1947 -0.550000 15.99940
1948 OM 1948 OM OM1 1948 -0.550000 15.99940
1949 OM 1949 OM OM1 1949 -0.550000 15.99940
1950 OM 1950 OM OM1 1950 -0.550000 15.99940
1951 OM 1951 OM OM1 1951 -0.550000 15.99940
1952 OM 1952 OM OM1 1952 -0.550000 15.99940
1953 OM 1953 OM OM1 1953 -0.550000 15.99940
1954 OM 1954 OM OM1 1954 -0.550000 15.99940
1955 OM 1955 OM OM1 1955 -0.550000 15.99940
1956 OM 1956 OM OM1 1956 -0.550000 15.99940
1957 OM 1957 OM OM1 1957 -0.550000 15.99940
1958 OM 1958 OM OM1 1958 -0.550000 15.99940
1959 OM 1959 OM OM1 1959 -0.550000 15.99940
1960 OM 1960 OM OM1 1960 -0.550000 15.99940
1961 OM 1961 OM OM1 1961 -0.550000 15.99940
1962 OM 1962 OM OM1 1962 -0.550000 15.99940
1963 OM 1963 OM OM1 1963 -0.550000 15.99940
1964 OM 1964 OM OM1 1964 -0.550000 15.99940
1965 OM 1965 OM OM1 1965 -0.550000 15.99940
1966 OM 1966 OM OM1 1966 -0.550000 15.99940
1967 OM 1967 OM OM1 1967 -0.550000 15.99940
1968 OM 1968 OM OM1 1968 -0.550000 15.99940
1969 OM 1969 OM OM1 1969 -0.550000 15.99940
1970 OM 1970 OM OM1 1970 -0.550000 15.99940
1971 OM 1971 OM OM1 1971 -0.550000 15.99940
1972 OM 1972 OM OM1 1972 -0.550000 15.99940
1973 OM 1973 OM OM1 1973 -0.550000 15.99940
1974 OM 1974 OM OM1 1974 -0.550000 15.99940
1975 OM 1975 OM OM1 1975 -0.550000 15.99940
1976 OM 1976 OM OM1 1976 -0.550000 15.99940
1977 OM 1977 OM OM1 1977 -0.550000 15.99940
1978 OM 1978 OM OM1 1978 -0.550000 15.99940
1979 OM 1979 OM OM1 1979 -0.550000 15.99940
1980 OM 1980 OM OM1 1980 -0.550000 15.99940
1981 OM 1981 OM OM1 1981 -0.550000 15.99940
1982 OM 1982 OM OM1 1982 -0.550000 15.99940
1983 OM 1983 OM OM1 1983 -0.550000 15.99940
1984 OM 1984 OM OM1 1984 -0.550000 15.99940
1985 OM 1985 OM OM1 1985 -0.550000 15.99940
1986 OM 1986 OM OM1 1986 -0.550000 15.99940
1987 OM 1987 OM OM1 1987 -0.550000 15.99940
1988 OM 1988 OM OM1 1988 -0.550000 15.99940
1989 OM 1989 OM OM1 1989 -0.550000 15.99940
1990 OM 1990 OM OM1 1990 -0.550000 15.99940
1991 OM 1991 OM OM1 1991 -0.550000 15.99940
1992 OM 1992 OM OM1 1992 -0.550000 15.99940
1993 OM 1993 OM OM1 1993 -0.550000 15.99940
1994 OM 1994 OM OM1 1994 -0.550000 15.99940
1995 OM 1995 OM OM1 1995 -0.550000 15.99940
1996 OM 1996 OM OM1 1996 -0.550000 15.99940
1997 OM 1997 OM OM1 1997 -0.550000 15.99940
1998 OM 1998 OM OM1 1998 -0.550000 15.99940
1999 OM 1999 OM OM1 1999 -0.550000 15.99940
2000 OM 2000 OM OM1 2000 -0.550000 15.99940
2001 OM 2001 OM OM1 2001 -0.550000 15.99940
2002 OM 2002 OM OM1 2002 -0.550000 15.99940
2003 OM 2003 OM OM1 2003 -0.550000 15.99940
2004 OM 2004 OM OM1 2004 -0.550000 15.99940
2005 OM 2005 OM OM1 2005 -0.550000 15.99940
2006 OM 2006 OM OM1 2006 -0.550000 15.99940
2007 OM 2007 OM OM1 2007 -0.550000 15.99940
2008 OM 2008 OM OM1 2008 -0.550000 15.99940
2009 OM 2009 OM OM1 2009 -0.550000 15.99940
2010 OM 2010 OM OM1 2010 -0.550000 15.99940
2011 OM 2011 OM OM1 2011 -0.550000 15.99940
2012 OM 2012 OM OM1 2012 -0.550000 15.99940
2013 OM 2013 OM OM1 2013 -0.550000 15.99940
2014 OM 2014 OM OM1 2014 -0.550000 15.99940
2015 OM 2015 OM OM1 2015 -0.550000 15.99940
2016 OM 2016 OM OM1 2016 -0.550000 15.99940
2017 OM 2017 OM OM1 2017 -0.550000 15.99940
2018 OM 2018 OM OM1 2018 -0.550000 15.99940
2019 OM 2019 OM OM1 2019 -0.550000 15.99940
2020 OM 2020 OM OM1 2020 -0.550000 15.99940
2021 OM 2021 OM OM1 2021 -0.550000 15.99940
2022 OM 2022 OM OM1 2022 -0.550000 15.99940
2023 OM 2023 OM OM1 2023 -0.550000 15.99940
2024 OM 2024 OM OM1 2024 -0.550000 15.99940
2025 OM 2025 OM OM1 2025 -0.550000 15.99940
2026 OM 2026 OM OM1 2026 -0.550000 15.99940
2027 OM 2027 OM OM1 2027 -0.550000 15.99940
2028 OM 2028 OM OM1 2028 -0.550000 15.99940
2029 OM 2029 OM OM1 2029 -0.550000 15.99940
2030 OM 2030 OM OM1 2030 -0.550000 15.99940
2031 OM 2031 OM OM1 2031 -0.550000 15.99940
2032 OM 2032 OM OM1 2032 -0.550000 15.99940
2033 OM 2033 OM OM1 2033 -0.550000 15.99940
2034 OM 2034 OM OM1 2034 -0.550000 15.99940
2035 OM 2035 OM OM1 2035 -0.550000 15.99940
2036 OM 2036 OM OM1 2036 -0.550000 15.99940
2037 OM 2037 OM OM1 2037 -0.550000 15.99940
2038 OM 2038 OM OM1 2038 -0.550000 15.99940
2039 OM 2039 OM OM1 2039 -0.550000 15.99940
2040 OM 2040 OM OM1 2040 -0.550000 15.99940
2041 OM 2041 OM OM1 2041 -0.550000 15.99940
2042 OM 2042 OM OM1 2042 -0.550000 15.99940
2043 OM 2043 OM OM1 2043 -0.550000 15.99940
2044 OM 2044 OM OM1 2044 -0.550000 15.99940
2045 OM 2045 OM OM1 2045 -0.550000 15.99940
2046 OM 2046 OM OM1 2046 -0.550000 15.99940
2047 OM 2047 OM OM1 2047 -0.550000 15.99940
2048 OM 2048 OM OM1 2048 -0.550000 15.99940
2049 OM 2049 OM OM1 2049 -0.550000 15.99940
2050 OM 2050 OM OM1 2050 -0.550000 15.99940
2051 OM 2051 OM OM1 2051 -0.550000 15.99940
2052 OM 2052 OM OM1 2052 -0.550000 15.99940
2053 OM 2053 OM OM1 2053 -0.550000 15.99940
2054 OM 2054 OM OM1 2054 -0.550000 15.99940
2055 OM 2055 OM OM1 2055 -0.550000 15.99940
2056 OM 2056 OM OM1 2056 -0.550000 15.99940
2057 OM 2057 OM OM1 2057 -0.550000 15.99940
2058 OM 2058 OM OM1 2058 -0.550000 15.99940
2059 OM 2059 OM OM1 2059 -0.550000 15.99940
2060 OM 2060 OM OM1 2060 -0.550000 15.99940
2061 OM 2061 OM OM1 2061 -0.550000 15.99940
2062 OM 2062 OM OM1 2062 -0.550000 15.99940
2063 OM 2063 OM OM1 2063 -0.550000 15.99940
2064 OM 2064 OM OM1 2064 -0.550000 15.99940
2065 OM 2065 OM OM1 2065 -0.550000 15.99940
2066 OM 2066 OM OM1 2066 -0.550000 15.99940
2067 OM 2067 OM OM1 2067 -0.550000 15.99940
2068 OM 2068 OM OM1 2068 -0.550000 15.99940
2069 OM 2069 OM OM1 2069 -0.550000 15.99940
2070 OM 2070 OM OM1 2070 -0.550000 15.99940
2071 OM 2071 OM OM1 2071 -0.550000 15.99940
2072 OM 2072 OM OM1 2072 -0.550000 15.99940
2073 OM 2073 OM OM1 2073 -0.550000 15.99940
2074 OM 2074 OM OM1 2074 -0.550000 15.99940
2075 OM 2075 OM OM1 2075 -0.550000 15.99940
2076 OM 2076 OM OM1 2076 -0.550000 15.99940
2077 OM 2077 OM OM1 2077 -0.550000 15.99940
2078 OM 2078 OM OM1 2078 -0.550000 15.99940
2079 OM 2079 OM OM1 2079 -0.550000 15.99940
2080 OM 2080 OM OM1 2080 -0.550000 15.99940
2081 OM 2081 OM OM1 2081 -0.550000 15.99940
2082 OM 2082 OM OM1 2082 -0.550000 15.99940
2083 OM 2083 OM OM1 2083 -0.550000 15.99940
2084 OM 2084 OM OM1 2084 -0.550000 15.99940
2085 OM 2085 OM OM1 2085 -0.550000 15.99940
2086 OM 2086 OM OM1 2086 -0.550000 15.99940
2087 OM 2087 OM OM1 2087 -0.550000 15.99940
2088 OM 2088 OM OM1 2088 -0.550000 15.99940
2089 OM 2089 OM OM1 2089 -0.550000 15.99940
2090 OM 2090 OM OM1 2090 -0.550000 15.99940
2091 OM 2091 OM OM1 2091 -0.550000 15.99940
2092 OM 2092 OM OM1 2092 -0.550000 15.99940
2093 OM 2093 OM OM1 2093 -0.550000 15.99940
2094 OM 2094 OM OM1 2094 -0.550000 15.99940
2095 OM 2095 OM OM1 2095 -0.550000 15.99940
2096 OM 2096 OM OM1 2096 -0.550000 15.99940
2097 OM 2097 OM OM1 2097 -0.550000 15.99940
2098 OM 2098 OM OM1 2098 -0.550000 15.99940
2099 OM 2099 OM OM1 2099 -0.550000 15.99940
2100 OM 2100 OM OM1 2100 -0.550000 15.99940
2101 OM 2101 OM OM1 2101 -0.550000 15.99940
2102 OM 2102 OM OM1 2102 -0.550000 15.99940
2103 OM 2103 OM OM1 2103 -0.550000 15.99940
2104 OM 2104 OM OM1 2104 -0.550000 15.99940
2105 OM 2105 OM OM1 2105 -0.550000 15.99940
2106 OM 2106 OM OM1 2106 -0.550000 15.99940
2107 OM 2107 OM OM1 2107 -0.550000 15.99940
2108 OM 2108 OM OM1 2108 -0.550000 15.99940
2109 OM 2109 OM OM1 2109 -0.550000 15.99940
2110 OM 2110 OM OM1 2110 -0.550000 15.99940
2111 OM 2111 OM OM1 2111 -0.550000 15.99940
2112 OM 2112 OM OM1 2112 -0.550000 15.99940
2113 OM 2113 OM OM1 2113 -0.550000 15.99940
2114 OM 2114 OM OM1 2114 -0.550000 15.99940
2115 OM 2115 OM OM1 2115 -0.550000 15.99940
2116 OM 2116 OM OM1 2116 -0.550000 15.99940
2117 OM 2117 OM OM1 2117 -0.550000 15.99940
2118 OM 2118 OM OM1 2118 -0.550000 15.99940
2119 OM 2119 OM OM1 2119 -0.550000 15.99940
2120 OM 2120 OM OM1 2120 -0.550000 15.99940
2121 OM 2121 OM OM1 2121 -0.550000 15.99940
2122 OM 2122 OM OM1 2122 -0.550000 15.99940
2123 OM 2123 OM OM1 2123 -0.550000 15.99940
2124 OM 2124 OM OM1 2124 -0.550000 15.99940
2125 OM 2125 OM OM1 2125 -0.550000 15.99940
2126 OM 2126 OM OM1 2126 -0.550000 15.99940
2127 OM 2127 OM OM1 2127 -0.550000 15.99940
2128 OM 2128 OM OM1 2128 -0.550000 15.99940
2129 OM 2129 OM OM1 2129 -0.550000 15.99940
2130 OM 2130 OM OM1 2130 -0.550000 15.99940
2131 OM 2131 OM OM1 2131 -0.550000 15.99940
2132 OM 2132 OM OM1 2132 -0.550000 15.99940
2133 OM 2133 OM OM1 2133 -0.550000 15.99940
2134 OM 2134 OM OM1 2134 -0.550000 15.99940
2135 OM 2135 OM OM1 2135 -0.550000 15.99940
2136 OM 2136 OM OM1 2136 -0.550000 15.99940
2137 OM 2137 OM OM1 2137 -0.550000 15.99940
2138 OM 2138 OM OM1 2138 -0.550000 15.99940
2139 OM 2139 OM OM1 2139 -0.550000 15.99940
2140 OM 2140 OM OM1 2140 -0.550000 15.99940
2141 OM 2141 OM OM1 2141 -0.550000 15.99940
2142 OM 2142 OM OM1 2142 -0.550000 15.99940
2143 OM 2143 OM OM1 2143 -0.550000 15.99940
2144 OM 2144 OM OM1 2144 -0.550000 15.99940
2145 OM 2145 OM OM1 2145 -0.550000 15.99940
2146 OM 2146 OM OM1 2146 -0.550000 15.99940
2147 OM 2147 OM OM1 2147 -0.550000 15.99940
2148 OM 2148 OM OM1 2148 -0.550000 15.99940
2149 OM 2149 OM OM1 2149 -0.550000 15.99940
2150 OM 2150 OM OM1 2150 -0.550000 15.99940
2151 OM 2151 OM OM1 2151 -0.550000 15.99940
2152 OM 2152 OM OM1 2152 -0.550000 15.99940
2153 OM 2153 OM OM1 2153 -0.550000 15.99940
2154 OM 2154 OM OM1 2154 -0.550000 15.99940
2155 OM 2155 OM OM1 2155 -0.550000 15.99940
2156 OM 2156 OM OM1 2156 -0.550000 15.99940
2157 OM 2157 OM OM1 2157 -0.550000 15.99940
2158 OM 2158 OM OM1 2158 -0.550000 15.99940
2159 OM 2159 OM OM1 2159 -0.550000 15.99940
2160 OM 2160 OM OM1 2160 -0.550000 15.99940
2161 OM 2161 OM OM1 2161 -0.550000 15.99940
2162 OM 2162 OM OM1 2162 -0.550000 15.99940
2163 OM 2163 OM OM1 2163 -0.550000 15.99940
2164 OM 2164 OM OM1 2164 -0.550000 15.99940
2165 OM 2165 OM OM1 2165 -0.550000 15.99940
2166 OM 2166 OM OM1 2166 -0.550000 15.99940
2167 OM 2167 OM OM1 2167 -0.550000 15.99940
2168 OM 2168 OM OM1 2168 -0.550000 15.99940
2169 OM 2169 OM OM1 2169 -0.550000 15.99940
2170 OM 2170 OM OM1 2170 -0.550000 15.99940
2171 OM 2171 OM OM1 2171 -0.550000 15.99940
2172 OM 2172 OM OM1 2172 -0.550000 15.99940
2173 OM 2173 OM OM1 2173 -0.550000 15.99940
2174 OM 2174 OM OM1 2174 -0.550000 15.99940
2175 OM 2175 OM OM1 2175 -0.550000 15.99940
2176 OM 2176 OM OM1 2176 -0.550000 15.99940
2177 OM 2177 OM OM1 2177 -0.550000 15.99940
2178 OM 2178 OM OM1 2178 -0.550000 15.99940
2179 OM 2179 OM OM1 2179 -0.550000 15.99940
2180 OM 2180 OM OM1 2180 -0.550000 15.99940
2181 OM 2181 OM OM1 2181 -0.550000 15.99940
2182 OM 2182 OM OM1 2182 -0.550000 15.99940
2183 OM 2183 OM OM1 2183 -0.550000 15.99940
2184 OM 2184 OM OM1 2184 -0.550000 15.99940
2185 OM 2185 OM OM1 2185 -0.550000 15.99940
2186 OM 2186 OM OM1 2186 -0.550000 15.99940
2187 OM 2187 OM OM1 2187 -0.550000 15.99940
2188 OM 2188 OM OM1 2188 -0.550000 15.99940
2189 OM 2189 OM OM1 2189 -0.550000 15.99940
2190 OM 2190 OM OM1 2190 -0.550000 15.99940
2191 OM 2191 OM OM1 2191 -0.550000 15.99940
2192 OM 2192 OM OM1 2192 -0.550000 15.99940
2193 OM 2193 OM OM1 2193 -0.550000 15.99940
2194 OM 2194 OM OM1 2194 -0.550000 15.99940
2195 OM 2195 OM OM1 2195 -0.550000 15.99940
2196 OM 2196 OM OM1 2196 -0.550000 15.99940
2197 OM 2197 OM OM1 2197 -0.550000 15.99940
2198 OM 2198 OM OM1 2198 -0.550000 15.99940
2199 OM 2199 OM OM1 2199 -0.550000 15.99940
2200 OM 2200 OM OM1 2200 -0.550000 15.99940
2201 OM 2201 OM OM1 2201 -0.550000 15.99940
2202 OM 2202 OM OM1 2202 -0.550000 15.99940
2203 OM 2203 OM OM1 2203 -0.550000 15.99940
2204 OM 2204 OM OM1 2204 -0.550000 15.99940
2205 OM 2205 OM OM1 2205 -0.550000 15.99940
2206 OM 2206 OM OM1 2206 -0.550000 15.99940
2207 OM 2207 OM OM1 2207 -0.550000 15.99940
2208 OM 2208 OM OM1 2208 -0.550000 15.99940
2209 OM 2209 OM OM1 2209 -0.550000 15.99940
2210 OM 2210 OM OM1 2210 -0.550000 15.99940
2211 OM 2211 OM OM1 2211 -0.550000 15.99940
2212 OM 2212 OM OM1 2212 -0.550000 15.99940
2213 OM 2213 OM OM1 2213 -0.550000 15.99940
2214 OM 2214 OM OM1 2214 -0.550000 15.99940
2215 OM 2215 OM OM1 2215 -0.550000 15.99940
2216 OM 2216 OM OM1 2216 -0.550000 15.99940
2217 OM 2217 OM OM1 2217 -0.550000 15.99940
2218 OM 2218 OM OM1 2218 -0.550000 15.99940
2219 OM 2219 OM OM1 2219 -0.550000 15.99940
2220 OM 2220 OM OM1 2220 -0.550000 15.99940
2221 OM 2221 OM OM1 2221 -0.550000 15.99940
2222 OM 2222 OM OM1 2222 -0.550000 15.99940
2223 OM 2223 OM OM1 2223 -0.550000 15.99940
2224 OM 2224 OM OM1 2224 -0.550000 15.99940
2225 OM 2225 OM OM1 2225 -0.550000 15.99940
2226 OM 2226 OM OM1 2226 -0.550000 15.99940
2227 OM 2227 OM OM1 2227 -0.550000 15.99940
2228 OM 2228 OM OM1 2228 -0.550000 15.99940
2229 OM 2229 OM OM1 2229 -0.550000 15.99940
2230 OM 2230 OM OM1 2230 -0.550000 15.99940
2231 OM 2231 OM OM1 2231 -0.550000 15.99940
2232 OM 2232 OM OM1 2232 -0.550000 15.99940
2233 OM 2233 OM OM1 2233 -0.550000 15.99940
2234 OM 2234 OM OM1 2234 -0.550000 15.99940
2235 OM 2235 OM OM1 2235 -0.550000 15.99940
2236 OM 2236 OM OM1 2236 -0.550000 15.99940
2237 OM 2237 OM OM1 2237 -0.550000 15.99940
2238 OM 2238 OM OM1 2238 -0.550000 15.99940
2239 OM 2239 OM OM1 2239 -0.550000 15.99940
2240 OM 2240 OM OM1 2240 -0.550000 15.99940
2241 OM 2241 OM OM1 2241 -0.550000 15.99940
2242 OM 2242 OM OM1 2242 -0.550000 15.99940
2243 OM 2243 OM OM1 2243 -0.550000 15.99940
2244 OM 2244 OM OM1 2244 -0.550000 15.99940
2245 OM 2245 OM OM1 2245 -0.550000 15.99940
2246 OM 2246 OM OM1 2246 -0.550000 15.99940
2247 OM 2247 OM OM1 2247 -0.550000 15.99940
2248 OM 2248 OM OM1 2248 -0.550000 15.99940
2249 OM 2249 OM OM1 2249 -0.550000 15.99940
2250 OM 2250 OM OM1 2250 -0.550000 15.99940
2251 OM 2251 OM OM1 2251 -0.550000 15.99940
2252 OM 2252 OM OM1 2252 -0.550000 15.99940
2253 OM 2253 OM OM1 2253 -0.550000 15.99940
2254 OM 2254 OM OM1 2254 -0.550000 15.99940
2255 OM 2255 OM OM1 2255 -0.550000 15.99940
2256 OM 2256 OM OM1 2256 -0.550000 15.99940
2257 OM 2257 OM OM1 2257 -0.550000 15.99940
2258 OM 2258 OM OM1 2258 -0.550000 15.99940
2259 OM 2259 OM OM1 2259 -0.550000 15.99940
2260 OM 2260 OM OM1 2260 -0.550000 15.99940
2261 OM 2261 OM OM1 2261 -0.550000 15.99940
2262 OM 2262 OM OM1 2262 -0.550000 15.99940
2263 OM 2263 OM OM1 2263 -0.550000 15.99940
2264 OM 2264 OM OM1 2264 -0.550000 15.99940
2265 OM 2265 OM OM1 2265 -0.550000 15.99940
2266 OM 2266 OM OM1 2266 -0.550000 15.99940
2267 OM 2267 OM OM1 2267 -0.550000 15.99940
2268 OM 2268 OM OM1 2268 -0.550000 15.99940
2269 OM 2269 OM OM1 2269 -0.550000 15.99940
2270 OM 2270 OM OM1 2270 -0.550000 15.99940
2271 OM 2271 OM OM1 2271 -0.550000 15.99940
2272 OM 2272 OM OM1 2272 -0.550000 15.99940
2273 OM 2273 OM OM1 2273 -0.550000 15.99940
2274 OM 2274 OM OM1 2274 -0.550000 15.99940
2275 OM 2275 OM OM1 2275 -0.550000 15.99940
2276 OM 2276 OM OM1 2276 -0.550000 15.99940
2277 OM 2277 OM OM1 2277 -0.550000 15.99940
2278 OM 2278 OM OM1 2278 -0.550000 15.99940
2279 OM 2279 OM OM1 2279 -0.550000 15.99940
2280 OM 2280 OM OM1 2280 -0.550000 15.99940
2281 OM 2281 OM OM1 2281 -0.550000 15.99940
2282 OM 2282 OM OM1 2282 -0.550000 15.99940
2283 OM 2283 OM OM1 2283 -0.550000 15.99940
2284 OM 2284 OM OM1 2284 -0.550000 15.99940
2285 OM 2285 OM OM1 2285 -0.550000 15.99940
2286 OM 2286 OM OM1 2286 -0.550000 15.99940
2287 OM 2287 OM OM1 2287 -0.550000 15.99940
2288 OM 2288 OM OM1 2288 -0.550000 15.99940
2289 OM 2289 OM OM1 2289 -0.550000 15.99940
2290 OM 2290 OM OM1 2290 -0.550000 15.99940
2291 OM 2291 OM OM1 2291 -0.550000 15.99940
2292 OM 2292 OM OM1 2292 -0.550000 15.99940
2293 OM 2293 OM OM1 2293 -0.550000 15.99940
2294 OM 2294 OM OM1 2294 -0.550000 15.99940
2295 OM 2295 OM OM1 2295 -0.550000 15.99940
2296 OM 2296 OM OM1 2296 -0.550000 15.99940
2297 OM 2297 OM OM1 2297 -0.550000 15.99940
2298 OM 2298 OM OM1 2298 -0.550000 15.99940
2299 OM 2299 OM OM1 2299 -0.550000 15.99940
2300 OM 2300 OM OM1 2300 -0.550000 15.99940
2301 OM 2301 OM OM1 2301 -0.550000 15.99940
2302 OM 2302 OM OM1 2302 -0.550000 15.99940
2303 OM 2303 OM OM1 2303 -0.550000 15.99940
2304 OM 2304 OM OM1 2304 -0.550000 15.99940
2305 OM 2305 OM OM1 2305 -0.550000 15.99940
2306 OM 2306 OM OM1 2306 -0.550000 15.99940
2307 OM 2307 OM OM1 2307 -0.550000 15.99940
2308 OM 2308 OM OM1 2308 -0.550000 15.99940
2309 OM 2309 OM OM1 2309 -0.550000 15.99940
2310 OM 2310 OM OM1 2310 -0.550000 15.99940
2311 OM 2311 OM OM1 2311 -0.550000 15.99940
2312 OM 2312 OM OM1 2312 -0.550000 15.99940
2313 OM 2313 OM OM1 2313 -0.550000 15.99940
2314 OM 2314 OM OM1 2314 -0.550000 15.99940
2315 OM 2315 OM OM1 2315 -0.550000 15.99940
2316 OM 2316 OM OM1 2316 -0.550000 15.99940
2317 OM 2317 OM OM1 2317 -0.550000 15.99940
2318 OM 2318 OM OM1 2318 -0.550000 15.99940
2319 OM 2319 OM OM1 2319 -0.550000 15.99940
2320 OM 2320 OM OM1 2320 -0.550000 15.99940
2321 OM 2321 OM OM1 2321 -0.550000 15.99940
2322 OM 2322 OM OM1 2322 -0.550000 15.99940
2323 OM 2323 OM OM1 2323 -0.550000 15.99940
2324 OM 2324 OM OM1 2324 -0.550000 15.99940
2325 OM 2325 OM OM1 2325 -0.550000 15.99940
2326 OM 2326 OM OM1 2326 -0.550000 15.99940
2327 OM 2327 OM OM1 2327 -0.550000 15.99940
2328 OM 2328 OM OM1 2328 -0.550000 15.99940
2329 OM 2329 OM OM1 2329 -0.550000 15.99940
2330 OM 2330 OM OM1 2330 -0.550000 15.99940
2331 OM 2331 OM OM1 2331 -0.550000 15.99940
2332 OM 2332 OM OM1 2332 -0.550000 15.99940
2333 OM 2333 OM OM1 2333 -0.550000 15.99940
2334 OM 2334 OM OM1 2334 -0.550000 15.99940
2335 OM 2335 OM OM1 2335 -0.550000 15.99940
2336 OM 2336 OM OM1 2336 -0.550000 15.99940
2337 OM 2337 OM OM1 2337 -0.550000 15.99940
2338 OM 2338 OM OM1 2338 -0.550000 15.99940
2339 OM 2339 OM OM1 2339 -0.550000 15.99940
2340 OM 2340 OM OM1 2340 -0.550000 15.99940
2341 OM 2341 OM OM1 2341 -0.550000 15.99940
2342 OM 2342 OM OM1 2342 -0.550000 15.99940
2343 OM 2343 OM OM1 2343 -0.550000 15.99940
2344 OM 2344 OM OM1 2344 -0.550000 15.99940
2345 OM 2345 OM OM1 2345 -0.550000 15.99940
2346 OM 2346 OM OM1 2346 -0.550000 15.99940
2347 OM 2347 OM OM1 2347 -0.550000 15.99940
2348 OM 2348 OM OM1 2348 -0.550000 15.99940
2349 OM 2349 OM OM1 2349 -0.550000 15.99940
2350 OM 2350 OM OM1 2350 -0.550000 15.99940
2351 OM 2351 OM OM1 2351 -0.550000 15.99940
2352 OM 2352 OM OM1 2352 -0.550000 15.99940
2353 OM 2353 OM OM1 2353 -0.550000 15.99940
2354 OM 2354 OM OM1 2354 -0.550000 15.99940
2355 OM 2355 OM OM1 2355 -0.550000 15.99940
2356 OM 2356 OM OM1 2356 -0.550000 15.99940
2357 OM 2357 OM OM1 2357 -0.550000 15.99940
2358 OM 2358 OM OM1 2358 -0.550000 15.99940
2359 OM 2359 OM OM1 2359 -0.550000 15.99940
2360 OM 2360 OM OM1 2360 -0.550000 15.99940
2361 OM 2361 OM OM1 2361 -0.550000 15.99940
2362 OM 2362 OM OM1 2362 -0.550000 15.99940
2363 OM 2363 OM OM1 2363 -0.550000 15.99940
2364 OM 2364 OM OM1 2364 -0.550000 15.99940
2365 OM 2365 OM OM1 2365 -0.550000 15.99940
2366 OM 2366 OM OM1 2366 -0.550000 15.99940
2367 OM 2367 OM OM1 2367 -0.550000 15.99940
2368 OM 2368 OM OM1 2368 -0.550000 15.99940
2369 OM 2369 OM OM1 2369 -0.550000 15.99940
2370 OM 2370 OM OM1 2370 -0.550000 15.99940
2371 OM 2371 OM OM1 2371 -0.550000 15.99940
2372 OM 2372 OM OM1 2372 -0.550000 15.99940
2373 OM 2373 OM OM1 2373 -0.550000 15.99940
2374 OM 2374 OM OM1 2374 -0.550000 15.99940
2375 OM 2375 OM OM1 2375 -0.550000 15.99940
2376 OM 2376 OM OM1 2376 -0.550000 15.99940
2377 OM 2377 OM OM1 2377 -0.550000 15.99940
2378 OM 2378 OM OM1 2378 -0.550000 15.99940
2379 OM 2379 OM OM1 2379 -0.550000 15.99940
2380 OM 2380 OM OM1 2380 -0.550000 15.99940
2381 OM 2381 OM OM1 2381 -0.550000 15.99940
2382 OM 2382 OM OM1 2382 -0.550000 15.99940
2383 OM 2383 OM OM1 2383 -0.550000 15.99940
2384 OM 2384 OM OM1 2384 -0.550000 15.99940
2385 OM 2385 OM OM1 2385 -0.550000 15.99940
2386 OM 2386 OM OM1 2386 -0.550000 15.99940
2387 OM 2387 OM OM1 2387 -0.550000 15.99940
2388 OM 2388 OM OM1 2388 -0.550000 15.99940
2389 OM 2389 OM OM1 2389 -0.550000 15.99940
2390 OM 2390 OM OM1 2390 -0.550000 15.99940
2391 OM 2391 OM OM1 2391 -0.550000 15.99940
2392 OM 2392 OM OM1 2392 -0.550000 15.99940
2393 OM 2393 OM OM1 2393 -0.550000 15.99940
2394 OM 2394 OM OM1 2394 -0.550000 15.99940
2395 OM 2395 OM OM1 2395 -0.550000 15.99940
2396 OM 2396 OM OM1 2396 -0.550000 15.99940
2397 OM 2397 OM OM1 2397 -0.550000 15.99940
2398 OM 2398 OM OM1 2398 -0.550000 15.99940
2399 OM 2399 OM OM1 2399 -0.550000 15.99940
2400 OM 2400 OM OM1 2400 -0.550000 15.99940
2401 OM 2401 OM OM1 2401 -0.550000 15.99940
2402 OM 2402 OM OM1 2402 -0.550000 15.99940
2403 OM 2403 OM OM1 2403 -0.550000 15.99940
2404 OM 2404 OM OM1 2404 -0.550000 15.99940
2405 OM 2405 OM OM1 2405 -0.550000 15.99940
2406 OM 2406 OM OM1 2406 -0.550000 15.99940
2407 OM 2407 OM OM1 2407 -0.550000 15.99940
2408 OM 2408 OM OM1 2408 -0.550000 15.99940
2409 OM 2409 OM OM1 2409 -0.550000 15.99940
2410 OM 2410 OM OM1 2410 -0.550000 15.99940
2411 OM 2411 OM OM1 2411 -0.550000 15.99940
2412 OM 2412 OM OM1 2412 -0.550000 15.99940
2413 OM 2413 OM OM1 2413 -0.550000 15.99940
2414 OM 2414 OM OM1 2414 -0.550000 15.99940
2415 OM 2415 OM OM1 2415 -0.550000 15.99940
2416 OM 2416 OM OM1 2416 -0.550000 15.99940
2417 OM 2417 OM OM1 2417 -0.550000 15.99940
2418 OM 2418 OM OM1 2418 -0.550000 15.99940
2419 OM 2419 OM OM1 2419 -0.550000 15.99940
2420 OM 2420 OM OM1 2420 -0.550000 15.99940
2421 OM 2421 OM OM1 2421 -0.550000 15.99940
2422 OM 2422 OM OM1 2422 -0.550000 15.99940
2423 OM 2423 OM OM1 2423 -0.550000 15.99940
2424 OM 2424 OM OM1 2424 -0.550000 15.99940
2425 OM 2425 OM OM1 2425 -0.550000 15.99940
2426 OM 2426 OM OM1 2426 -0.550000 15.99940
2427 OM 2427 OM OM1 2427 -0.550000 15.99940
2428 OM 2428 OM OM1 2428 -0.550000 15.99940
2429 OM 2429 OM OM1 2429 -0.550000 15.99940
2430 OM 2430 OM OM1 2430 -0.550000 15.99940
2431 OM 2431 OM OM1 2431 -0.550000 15.99940
2432 OM 2432 OM OM1 2432 -0.550000 15.99940
2433 OM 2433 OM OM1 2433 -0.550000 15.99940
2434 OM 2434 OM OM1 2434 -0.550000 15.99940
2435 OM 2435 OM OM1 2435 -0.550000 15.99940
2436 OM 2436 OM OM1 2436 -0.550000 15.99940
2437 OM 2437 OM OM1 2437 -0.550000 15.99940
2438 OM 2438 OM OM1 2438 -0.550000 15.99940
2439 OM 2439 OM OM1 2439 -0.550000 15.99940
2440 OM 2440 OM OM1 2440 -0.550000 15.99940
2441 OM 2441 OM OM1 2441 -0.550000 15.99940
2442 OM 2442 OM OM1 2442 -0.550000 15.99940
2443 OM 2443 OM OM1 2443 -0.550000 15.99940
2444 OM 2444 OM OM1 2444 -0.550000 15.99940
2445 OM 2445 OM OM1 2445 -0.550000 15.99940
2446 OM 2446 OM OM1 2446 -0.550000 15.99940
2447 OM 2447 OM OM1 2447 -0.550000 15.99940
2448 OM 2448 OM OM1 2448 -0.550000 15.99940
2449 OM 2449 OM OM1 2449 -0.550000 15.99940
2450 OM 2450 OM OM1 2450 -0.550000 15.99940
2451 OM 2451 OM OM1 2451 -0.550000 15.99940
2452 OM 2452 OM OM1 2452 -0.550000 15.99940
2453 OM 2453 OM OM1 2453 -0.550000 15.99940
2454 OM 2454 OM OM1 2454 -0.550000 15.99940
2455 OM 2455 OM OM1 2455 -0.550000 15.99940
2456 OM 2456 OM OM1 2456 -0.550000 15.99940
2457 OM 2457 OM OM1 2457 -0.550000 15.99940
2458 OM 2458 OM OM1 2458 -0.550000 15.99940
2459 OM 2459 OM OM1 2459 -0.550000 15.99940
2460 OM 2460 OM OM1 2460 -0.550000 15.99940
2461 OM 2461 OM OM1 2461 -0.550000 15.99940
2462 OM 2462 OM OM1 2462 -0.550000 15.99940
2463 OM 2463 OM OM1 2463 -0.550000 15.99940
2464 OM 2464 OM OM1 2464 -0.550000 15.99940
2465 OM 2465 OM OM1 2465 -0.550000 15.99940
2466 OM 2466 OM OM1 2466 -0.550000 15.99940
2467 OM 2467 OM OM1 2467 -0.550000 15.99940
2468 OM 2468 OM OM1 2468 -0.550000 15.99940
2469 OM 2469 OM OM1 2469 -0.550000 15.99940
2470 OM 2470 OM OM1 2470 -0.550000 15.99940
2471 OM 2471 OM OM1 2471 -0.550000 15.99940
2472 OM 2472 OM OM1 2472 -0.550000 15.99940
2473 OM 2473 OM OM1 2473 -0.550000 15.99940
2474 OM 2474 OM OM1 2474 -0.550000 15.99940
2475 OM 2475 OM OM1 2475 -0.550000 15.99940
2476 OM 2476 OM OM1 2476 -0.550000 15.99940
2477 OM 2477 OM OM1 2477 -0.550000 15.99940
2478 OM 2478 OM OM1 2478 -0.550000 15.99940
2479 OM 2479 OM OM1 2479 -0.550000 15.99940
2480 OM 2480 OM OM1 2480 -0.550000 15.99940
2481 OM 2481 OM OM1 2481 -0.550000 15.99940
2482 OM 2482 OM OM1 2482 -0.550000 15.99940
2483 OM 2483 OM OM1 2483 -0.550000 15.99940
2484 OM 2484 OM OM1 2484 -0.550000 15.99940
2485 OM 2485 OM OM1 2485 -0.550000 15.99940
2486 OM 2486 OM OM1 2486 -0.550000 15.99940
2487 OM 2487 OM OM1 2487 -0.550000 15.99940
2488 OM 2488 OM OM1 2488 -0.550000 15.99940
2489 OM 2489 OM OM1 2489 -0.550000 15.99940
2490 OM 2490 OM OM1 2490 -0.550000 15.99940
2491 OM 2491 OM OM1 2491 -0.550000 15.99940
2492 OM 2492 OM OM1 2492 -0.550000 15.99940
2493 OM 2493 OM OM1 2493 -0.550000 15.99940
2494 OM 2494 OM OM1 2494 -0.550000 15.99940
2495 OM 2495 OM OM1 2495 -0.550000 15.99940
2496 OM 2496 OM OM1 2496 -0.550000 15.99940
2497 OM 2497 OM OM1 2497 -0.550000 15.99940
2498 OM 2498 OM OM1 2498 -0.550000 15.99940
2499 OM 2499 OM OM1 2499 -0.550000 15.99940
2500 OM 2500 OM OM1 2500 -0.550000 15.99940
2501 OM 2501 OM OM1 2501 -0.550000 15.99940
2502 OM 2502 OM OM1 2502 -0.550000 15.99940
2503 OM 2503 OM OM1 2503 -0.550000 15.99940
2504 OM 2504 OM OM1 2504 -0.550000 15.99940
2505 OM 2505 OM OM1 2505 -0.550000 15.99940
2506 OM 2506 OM OM1 2506 -0.550000 15.99940
2507 OM 2507 OM OM1 2507 -0.550000 15.99940
2508 OM 2508 OM OM1 2508 -0.550000 15.99940
2509 OM 2509 OM OM1 2509 -0.550000 15.99940
2510 OM 2510 OM OM1 2510 -0.550000 15.99940
2511 OM 2511 OM OM1 2511 -0.550000 15.99940
2512 OM 2512 OM OM1 2512 -0.550000 15.99940
2513 OM 2513 OM OM1 2513 -0.550000 15.99940
2514 OM 2514 OM OM1 2514 -0.550000 15.99940
2515 OM 2515 OM OM1 2515 -0.550000 15.99940
2516 OM 2516 OM OM1 2516 -0.550000 15.99940
2517 OM 2517 OM OM1 2517 -0.550000 15.99940
2518 OM 2518 OM OM1 2518 -0.550000 15.99940
2519 OM 2519 OM OM1 2519 -0.550000 15.99940
2520 OM 2520 OM OM1 2520 -0.550000 15.99940
2521 OM 2521 OM OM1 2521 -0.550000 15.99940
2522 OM 2522 OM OM1 2522 -0.550000 15.99940
2523 OM 2523 OM OM1 2523 -0.550000 15.99940
2524 OM 2524 OM OM1 2524 -0.550000 15.99940
2525 OM 2525 OM OM1 2525 -0.550000 15.99940
2526 OM 2526 OM OM1 2526 -0.550000 15.99940
2527 OM 2527 OM OM1 2527 -0.550000 15.99940
2528 OM 2528 OM OM1 2528 -0.550000 15.99940
2529 OM 2529 OM OM1 2529 -0.550000 15.99940
2530 OM 2530 OM OM1 2530 -0.550000 15.99940
2531 OM 2531 OM OM1 2531 -0.550000 15.99940
2532 OM 2532 OM OM1 2532 -0.550000 15.99940
2533 OM 2533 OM OM1 2533 -0.550000 15.99940
2534 OM 2534 OM OM1 2534 -0.550000 15.99940
2535 OM 2535 OM OM1 2535 -0.550000 15.99940
2536 OM 2536 OM OM1 2536 -0.550000 15.99940
2537 OM 2537 OM OM1 2537 -0.550000 15.99940
2538 OM 2538 OM OM1 2538 -0.550000 15.99940
2539 OM 2539 OM OM1 2539 -0.550000 15.99940
2540 OM 2540 OM OM1 2540 -0.550000 15.99940
2541 OM 2541 OM OM1 2541 -0.550000 15.99940
2542 OM 2542 OM OM1 2542 -0.550000 15.99940
2543 OM 2543 OM OM1 2543 -0.550000 15.99940
2544 OM 2544 OM OM1 2544 -0.550000 15.99940
2545 OM 2545 OM OM1 2545 -0.550000 15.99940
2546 OM 2546 OM OM1 2546 -0.550000 15.99940
2547 OM 2547 OM OM1 2547 -0.550000 15.99940
2548 OM 2548 OM OM1 2548 -0.550000 15.99940
2549 OM 2549 OM OM1 2549 -0.550000 15.99940
2550 OM 2550 OM OM1 2550 -0.550000 15.99940
2551 OM 2551 OM OM1 2551 -0.550000 15.99940
2552 OM 2552 OM OM1 2552 -0.550000 15.99940
2553 OM 2553 OM OM1 2553 -0.550000 15.99940
2554 OM 2554 OM OM1 2554 -0.550000 15.99940
2555 OM 2555 OM OM1 2555 -0.550000 15.99940
2556 OM 2556 OM OM1 2556 -0.550000 15.99940
2557 OM 2557 OM OM1 2557 -0.550000 15.99940
2558 OM 2558 OM OM1 2558 -0.550000 15.99940
2559 OM 2559 OM OM1 2559 -0.550000 15.99940
2560 OM 2560 OM OM1 2560 -0.550000 15.99940
2561 OM 2561 OM OM1 2561 -0.550000 15.99940
2562 OM 2562 OM OM1 2562 -0.550000 15.99940
2563 OM 2563 OM OM1 2563 -0.550000 15.99940
2564 OM 2564 OM OM1 2564 -0.550000 15.99940
2565 OM 2565 OM OM1 2565 -0.550000 15.99940
2566 OM 2566 OM OM1 2566 -0.550000 15.99940
2567 OM 2567 OM OM1 2567 -0.550000 15.99940
2568 OM 2568 OM OM1 2568 -0.550000 15.99940
2569 OM 2569 OM OM1 2569 -0.550000 15.99940
2570 OM 2570 OM OM1 2570 -0.550000 15.99940
2571 OM 2571 OM OM1 2571 -0.550000 15.99940
2572 OM 2572 OM OM1 2572 -0.550000 15.99940
2573 OM 2573 OM OM1 2573 -0.550000 15.99940
2574 OM 2574 OM OM1 2574 -0.550000 15.99940
2575 OM 2575 OM OM1 2575 -0.550000 15.99940
2576 OM 2576 OM OM1 2576 -0.550000 15.99940
2577 OM 2577 OM OM1 2577 -0.550000 15.99940
2578 OM 2578 OM OM1 2578 -0.550000 15.99940
2579 OM 2579 OM OM1 2579 -0.550000 15.99940
2580 OM 2580 OM OM1 2580 -0.550000 15.99940
2581 OM 2581 OM OM1 2581 -0.550000 15.99940
2582 OM 2582 OM OM1 2582 -0.550000 15.99940
2583 OM 2583 OM OM1 2583 -0.550000 15.99940
2584 OM 2584 OM OM1 2584 -0.550000 15.99940
2585 OM 2585 OM OM1 2585 -0.550000 15.99940
2586 OM 2586 OM OM1 2586 -0.550000 15.99940
2587 OM 2587 OM OM1 2587 -0.550000 15.99940
2588 OM 2588 OM OM1 2588 -0.550000 15.99940
2589 OM 2589 OM OM1 2589 -0.550000 15.99940
2590 OM 2590 OM OM1 2590 -0.550000 15.99940
2591 OM 2591 OM OM1 2591 -0.550000 15.99940
2592 OM 2592 OM OM1 2592 -0.550000 15.99940
2593 OM 2593 OM OM1 2593 -0.550000 15.99940
2594 OM 2594 OM OM1 2594 -0.550000 15.99940
2595 OM 2595 OM OM1 2595 -0.550000 15.99940
2596 OM 2596 OM OM1 2596 -0.550000 15.99940
2597 OM 2597 OM OM1 2597 -0.550000 15.99940
2598 OM 2598 OM OM1 2598 -0.550000 15.99940
2599 OM 2599 OM OM1 2599 -0.550000 15.99940
2600 OM 2600 OM OM1 2600 -0.550000 15.99940
2601 OM 2601 OM OM1 2601 -0.550000 15.99940
2602 OM 2602 OM OM1 2602 -0.550000 15.99940
2603 OM 2603 OM OM1 2603 -0.550000 15.99940
2604 OM 2604 OM OM1 2604 -0.550000 15.99940
2605 OM 2605 OM OM1 2605 -0.550000 15.99940
2606 OM 2606 OM OM1 2606 -0.550000 15.99940
2607 OM 2607 OM OM1 2607 -0.550000 15.99940
2608 OM 2608 OM OM1 2608 -0.550000 15.99940
2609 OM 2609 OM OM1 2609 -0.550000 15.99940
2610 OM 2610 OM OM1 2610 -0.550000 15.99940
2611 OM 2611 OM OM1 2611 -0.550000 15.99940
2612 OM 2612 OM OM1 2612 -0.550000 15.99940
2613 OM 2613 OM OM1 2613 -0.550000 15.99940
2614 OM 2614 OM OM1 2614 -0.550000 15.99940
2615 OM 2615 OM OM1 2615 -0.550000 15.99940
2616 OM 2616 OM OM1 2616 -0.550000 15.99940
2617 OM 2617 OM OM1 2617 -0.550000 15.99940
2618 OM 2618 OM OM1 2618 -0.550000 15.99940
2619 OM 2619 OM OM1 2619 -0.550000 15.99940
2620 OM 2620 OM OM1 2620 -0.550000 15.99940
2621 OM 2621 OM OM1 2621 -0.550000 15.99940
2622 OM 2622 OM OM1 2622 -0.550000 15.99940
2623 OM 2623 OM OM1 2623 -0.550000 15.99940
2624 OM 2624 OM OM1 2624 -0.550000 15.99940
2625 OM 2625 OM OM1 2625 -0.550000 15.99940
2626 OM 2626 OM OM1 2626 -0.550000 15.99940
2627 OM 2627 OM OM1 2627 -0.550000 15.99940
2628 OM 2628 OM OM1 2628 -0.550000 15.99940
2629 OM 2629 OM OM1 2629 -0.550000 15.99940
2630 OM 2630 OM OM1 2630 -0.550000 15.99940
2631 OM 2631 OM OM1 2631 -0.550000 15.99940
2632 OM 2632 OM OM1 2632 -0.550000 15.99940
2633 OM 2633 OM OM1 2633 -0.550000 15.99940
2634 OM 2634 OM OM1 2634 -0.550000 15.99940
2635 OM 2635 OM OM1 2635 -0.550000 15.99940
2636 OM 2636 OM OM1 2636 -0.550000 15.99940
2637 OM 2637 OM OM1 2637 -0.550000 15.99940
2638 OM 2638 OM OM1 2638 -0.550000 15.99940
2639 OM 2639 OM OM1 2639 -0.550000 15.99940
2640 OM 2640 OM OM1 2640 -0.550000 15.99940
2641 OM 2641 OM OM1 2641 -0.550000 15.99940
2642 OM 2642 OM OM1 2642 -0.550000 15.99940
2643 OM 2643 OM OM1 2643 -0.550000 15.99940
2644 OM 2644 OM OM1 2644 -0.550000 15.99940
2645 OM 2645 OM OM1 2645 -0.550000 15.99940
2646 OM 2646 OM OM1 2646 -0.550000 15.99940
2647 OM 2647 OM OM1 2647 -0.550000 15.99940
2648 OM 2648 OM OM1 2648 -0.550000 15.99940
2649 OM 2649 OM OM1 2649 -0.550000 15.99940
2650 OM 2650 OM OM1 2650 -0.550000 15.99940
2651 OM 2651 OM OM1 2651 -0.550000 15.99940
2652 OM 2652 OM OM1 2652 -0.550000 15.99940
2653 OM 2653 OM OM1 2653 -0.550000 15.99940
2654 OM 2654 OM OM1 2654 -0.550000 15.99940
2655 OM 2655 OM OM1 2655 -0.550000 15.99940
2656 OM 2656 OM OM1 2656 -0.550000 15.99940
2657 OM 2657 OM OM1 2657 -0.550000 15.99940
2658 OM 2658 OM OM1 2658 -0.550000 15.99940
2659 OM 2659 OM OM1 2659 -0.550000 15.99940
2660 OM 2660 OM OM1 2660 -0.550000 15.99940
2661 OM 2661 OM OM1 2661 -0.550000 15.99940
2662 OM 2662 OM OM1 2662 -0.550000 15.99940
2663 OM 2663 OM OM1 2663 -0.550000 15.99940
2664 OM 2664 OM OM1 2664 -0.550000 15.99940
2665 OM 2665 OM OM1 2665 -0.550000 15.99940
2666 OM 2666 OM OM1 2666 -0.550000 15.99940
2667 OM 2667 OM OM1 2667 -0.550000 15.99940
2668 OM 2668 OM OM1 2668 -0.550000 15.99940
2669 OM 2669 OM OM1 2669 -0.550000 15.99940
2670 OM 2670 OM OM1 2670 -0.550000 15.99940
2671 OM 2671 OM OM1 2671 -0.550000 15.99940
2672 OM 2672 OM OM1 2672 -0.550000 15.99940
2673 OM 2673 OM OM1 2673 -0.550000 15.99940
2674 OM 2674 OM OM1 2674 -0.550000 15.99940
2675 OM 2675 OM OM1 2675 -0.550000 15.99940
2676 OM 2676 OM OM1 2676 -0.550000 15.99940
2677 OM 2677 OM OM1 2677 -0.550000 15.99940
2678 OM 2678 OM OM1 2678 -0.550000 15.99940
2679 OM 2679 OM OM1 2679 -0.550000 15.99940
2680 OM 2680 OM OM1 2680 -0.550000 15.99940
2681 OM 2681 OM OM1 2681 -0.550000 15.99940
2682 OM 2682 OM OM1 2682 -0.550000 15.99940
2683 OM 2683 OM OM1 2683 -0.550000 15.99940
2684 OM 2684 OM OM1 2684 -0.550000 15.99940
2685 OM 2685 OM OM1 2685 -0.550000 15.99940
2686 OM 2686 OM OM1 2686 -0.550000 15.99940
2687 OM 2687 OM OM1 2687 -0.550000 15.99940
2688 OM 2688 OM OM1 2688 -0.550000 15.99940
2689 OM 2689 OM OM1 2689 -0.550000 15.99940
2690 OM 2690 OM OM1 2690 -0.550000 15.99940
2691 OM 2691 OM OM1 2691 -0.550000 15.99940
2692 OM 2692 OM OM1 2692 -0.550000 15.99940
2693 OM 2693 OM OM1 2693 -0.550000 15.99940
2694 OM 2694 OM OM1 2694 -0.550000 15.99940
2695 OM 2695 OM OM1 2695 -0.550000 15.99940
2696 OM 2696 OM OM1 2696 -0.550000 15.99940
2697 OM 2697 OM OM1 2697 -0.550000 15.99940
2698 OM 2698 OM OM1 2698 -0.550000 15.99940
2699 OM 2699 OM OM1 2699 -0.550000 15.99940
2700 OM 2700 OM OM1 2700 -0.550000 15.99940
2701 OM 2701 OM OM1 2701 -0.550000 15.99940
2702 OM 2702 OM OM1 2702 -0.550000 15.99940
2703 OM 2703 OM OM1 2703 -0.550000 15.99940
2704 OM 2704 OM OM1 2704 -0.550000 15.99940
2705 OM 2705 OM OM1 2705 -0.550000 15.99940
2706 OM 2706 OM OM1 2706 -0.550000 15.99940
2707 OM 2707 OM OM1 2707 -0.550000 15.99940
2708 OM 2708 OM OM1 2708 -0.550000 15.99940
2709 OM 2709 OM OM1 2709 -0.550000 15.99940
2710 OM 2710 OM OM1 2710 -0.550000 15.99940
2711 OM 2711 OM OM1 2711 -0.550000 15.99940
2712 OM 2712 OM OM1 2712 -0.550000 15.99940
2713 OM 2713 OM OM1 2713 -0.550000 15.99940
2714 OM 2714 OM OM1 2714 -0.550000 15.99940
2715 OM 2715 OM OM1 2715 -0.550000 15.99940
2716 OM 2716 OM OM1 2716 -0.550000 15.99940
2717 OM 2717 OM OM1 2717 -0.550000 15.99940
2718 OM 2718 OM OM1 2718 -0.550000 15.99940
2719 OM 2719 OM OM1 2719 -0.550000 15.99940
2720 OM 2720 OM OM1 2720 -0.550000 15.99940
2721 OM 2721 OM OM1 2721 -0.550000 15.99940
2722 OM 2722 OM OM1 2722 -0.550000 15.99940
2723 OM 2723 OM OM1 2723 -0.550000 15.99940
2724 OM 2724 OM OM1 2724 -0.550000 15.99940
2725 OM 2725 OM OM1 2725 -0.550000 15.99940
2726 OM 2726 OM OM1 2726 -0.550000 15.99940
2727 OM 2727 OM OM1 2727 -0.550000 15.99940
2728 OM 2728 OM OM1 2728 -0.550000 15.99940
2729 OM 2729 OM OM1 2729 -0.550000 15.99940
2730 OM 2730 OM OM1 2730 -0.550000 15.99940
2731 OM 2731 OM OM1 2731 -0.550000 15.99940
2732 OM 2732 OM OM1 2732 -0.550000 15.99940
2733 OM 2733 OM OM1 2733 -0.550000 15.99940
2734 OM 2734 OM OM1 2734 -0.550000 15.99940
2735 OM 2735 OM OM1 2735 -0.550000 15.99940
2736 OM 2736 OM OM1 2736 -0.550000 15.99940
2737 OM 2737 OM OM1 2737 -0.550000 15.99940
2738 OM 2738 OM OM1 2738 -0.550000 15.99940
2739 OM 2739 OM OM1 2739 -0.550000 15.99940
2740 OM 2740 OM OM1 2740 -0.550000 15.99940
2741 OM 2741 OM OM1 2741 -0.550000 15.99940
2742 OM 2742 OM OM1 2742 -0.550000 15.99940
2743 OM 2743 OM OM1 2743 -0.550000 15.99940
2744 OM 2744 OM OM1 2744 -0.550000 15.99940
2745 OM 2745 OM OM1 2745 -0.550000 15.99940
2746 OM 2746 OM OM1 2746 -0.550000 15.99940
2747 OM 2747 OM OM1 2747 -0.550000 15.99940
2748 OM 2748 OM OM1 2748 -0.550000 15.99940
2749 OM 2749 OM OM1 2749 -0.550000 15.99940
2750 OM 2750 OM OM1 2750 -0.550000 15.99940
2751 OM 2751 OM OM1 2751 -0.550000 15.99940
2752 OM 2752 OM OM1 2752 -0.550000 15.99940
2753 OM 2753 OM OM1 2753 -0.550000 15.99940
2754 OM 2754 OM OM1 2754 -0.550000 15.99940
2755 OM 2755 OM OM1 2755 -0.550000 15.99940
2756 OM 2756 OM OM1 2756 -0.550000 15.99940
2757 OM 2757 OM OM1 2757 -0.550000 15.99940
2758 OM 2758 OM OM1 2758 -0.550000 15.99940
2759 OM 2759 OM OM1 2759 -0.550000 15.99940
2760 OM 2760 OM OM1 2760 -0.550000 15.99940
2761 OM 2761 OM OM1 2761 -0.550000 15.99940
2762 OM 2762 OM OM1 2762 -0.550000 15.99940
2763 OM 2763 OM OM1 2763 -0.550000 15.99940
2764 OM 2764 OM OM1 2764 -0.550000 15.99940
2765 OM 2765 OM OM1 2765 -0.550000 15.99940
2766 OM 2766 OM OM1 2766 -0.550000 15.99940
2767 OM 2767 OM OM1 2767 -0.550000 15.99940
2768 OM 2768 OM OM1 2768 -0.550000 15.99940
2769 OM 2769 OM OM1 2769 -0.550000 15.99940
2770 OM 2770 OM OM1 2770 -0.550000 15.99940
2771 OM 2771 OM OM1 2771 -0.550000 15.99940
2772 OM 2772 OM OM1 2772 -0.550000 15.99940
2773 OM 2773 OM OM1 2773 -0.550000 15.99940
2774 OM 2774 OM OM1 2774 -0.550000 15.99940
2775 OM 2775 OM OM1 2775 -0.550000 15.99940
2776 OM 2776 OM OM1 2776 -0.550000 15.99940
2777 OM 2777 OM OM1 2777 -0.550000 15.99940
2778 OM 2778 OM OM1 2778 -0.550000 15.99940
2779 OM 2779 OM OM1 2779 -0.550000 15.99940
2780 OM 2780 OM OM1 2780 -0.550000 15.99940
2781 OM 2781 OM OM1 2781 -0.550000 15.99940
2782 OM 2782 OM OM1 2782 -0.550000 15.99940
2783 OM 2783 OM OM1 2783 -0.550000 15.99940
2784 OM 2784 OM OM1 2784 -0.550000 15.99940
2785 OM 2785 OM OM1 2785 -0.550000 15.99940
2786 OM 2786 OM OM1 2786 -0.550000 15.99940
2787 OM 2787 OM OM1 2787 -0.550000 15.99940
2788 OM 2788 OM OM1 2788 -0.550000 15.99940
2789 OM 2789 OM OM1 2789 -0.550000 15.99940
2790 OM 2790 OM OM1 2790 -0.550000 15.99940
2791 OM 2791 OM OM1 2791 -0.550000 15.99940
2792 OM 2792 OM OM1 2792 -0.550000 15.99940
2793 OM 2793 OM OM1 2793 -0.550000 15.99940
2794 OM 2794 OM OM1 2794 -0.550000 15.99940
2795 OM 2795 OM OM1 2795 -0.550000 15.99940
2796 OM 2796 OM OM1 2796 -0.550000 15.99940
2797 OM 2797 OM OM1 2797 -0.550000 15.99940
2798 OM 2798 OM OM1 2798 -0.550000 15.99940
2799 OM 2799 OM OM1 2799 -0.550000 15.99940
2800 OM 2800 OM OM1 2800 -0.550000 15.99940
2801 OM 2801 OM OM1 2801 -0.550000 15.99940
2802 OM 2802 OM OM1 2802 -0.550000 15.99940
2803 OM 2803 OM OM1 2803 -0.550000 15.99940
2804 OM 2804 OM OM1 2804 -0.550000 15.99940
2805 OM 2805 OM OM1 2805 -0.550000 15.99940
2806 OM 2806 OM OM1 2806 -0.550000 15.99940
2807 OM 2807 OM OM1 2807 -0.550000 15.99940
2808 OM 2808 OM OM1 2808 -0.550000 15.99940
2809 OM 2809 OM OM1 2809 -0.550000 15.99940
2810 OM 2810 OM OM1 2810 -0.550000 15.99940
2811 OM 2811 OM OM1 2811 -0.550000 15.99940
2812 OM 2812 OM OM1 2812 -0.550000 15.99940
2813 OM 2813 OM OM1 2813 -0.550000 15.99940
2814 OM 2814 OM OM1 2814 -0.550000 15.99940
2815 OM 2815 OM OM1 2815 -0.550000 15.99940
2816 OM 2816 OM OM1 2816 -0.550000 15.99940
2817 OM 2817 OM OM1 2817 -0.550000 15.99940
2818 OM 2818 OM OM1 2818 -0.550000 15.99940
2819 OM 2819 OM OM1 2819 -0.550000 15.99940
2820 OM 2820 OM OM1 2820 -0.550000 15.99940
2821 OM 2821 OM OM1 2821 -0.550000 15.99940
2822 OM 2822 OM OM1 2822 -0.550000 15.99940
2823 OM 2823 OM OM1 2823 -0.550000 15.99940
2824 OM 2824 OM OM1 2824 -0.550000 15.99940
2825 OM 2825 OM OM1 2825 -0.550000 15.99940
2826 OM 2826 OM OM1 2826 -0.550000 15.99940
2827 OM 2827 OM OM1 2827 -0.550000 15.99940
2828 OM 2828 OM OM1 2828 -0.550000 15.99940
2829 OM 2829 OM OM1 2829 -0.550000 15.99940
2830 OM 2830 OM OM1 2830 -0.550000 15.99940
2831 OM 2831 OM OM1 2831 -0.550000 15.99940
2832 OM 2832 OM OM1 2832 -0.550000 15.99940
2833 OM 2833 OM OM1 2833 -0.550000 15.99940
2834 OM 2834 OM OM1 2834 -0.550000 15.99940
2835 OM 2835 OM OM1 2835 -0.550000 15.99940
2836 OM 2836 OM OM1 2836 -0.550000 15.99940
2837 OM 2837 OM OM1 2837 -0.550000 15.99940
2838 OM 2838 OM OM1 2838 -0.550000 15.99940
2839 OM 2839 OM OM1 2839 -0.550000 15.99940
2840 OM 2840 OM OM1 2840 -0.550000 15.99940
2841 OM 2841 OM OM1 2841 -0.550000 15.99940
2842 OM 2842 OM OM1 2842 -0.550000 15.99940
2843 OM 2843 OM OM1 2843 -0.550000 15.99940
2844 OM 2844 OM OM1 2844 -0.550000 15.99940
2845 OM 2845 OM OM1 2845 -0.550000 15.99940
2846 OM 2846 OM OM1 2846 -0.550000 15.99940
2847 OM 2847 OM OM1 2847 -0.550000 15.99940
2848 OM 2848 OM OM1 2848 -0.550000 15.99940
2849 OM 2849 OM OM1 2849 -0.550000 15.99940
2850 OM 2850 OM OM1 2850 -0.550000 15.99940
2851 OM 2851 OM OM1 2851 -0.550000 15.99940
2852 OM 2852 OM OM1 2852 -0.550000 15.99940
2853 OM 2853 OM OM1 2853 -0.550000 15.99940
2854 OM 2854 OM OM1 2854 -0.550000 15.99940
2855 OM 2855 OM OM1 2855 -0.550000 15.99940
2856 OM 2856 OM OM1 2856 -0.550000 15.99940
2857 OM 2857 OM OM1 2857 -0.550000 15.99940
2858 OM 2858 OM OM1 2858 -0.550000 15.99940
2859 OM 2859 OM OM1 2859 -0.550000 15.99940
2860 OM 2860 OM OM1 2860 -0.550000 15.99940
2861 OM 2861 OM OM1 2861 -0.550000 15.99940
2862 OM 2862 OM OM1 2862 -0.550000 15.99940
2863 OM 2863 OM OM1 2863 -0.550000 15.99940
2864 OM 2864 OM OM1 2864 -0.550000 15.99940
2865 OM 2865 OM OM1 2865 -0.550000 15.99940
2866 OM 2866 OM OM1 2866 -0.550000 15.99940
2867 OM 2867 OM OM1 2867 -0.550000 15.99940
2868 OM 2868 OM OM1 2868 -0.550000 15.99940
2869 OM 2869 OM OM1 2869 -0.550000 15.99940
2870 OM 2870 OM OM1 2870 -0.550000 15.99940
2871 OM 2871 OM OM1 2871 -0.550000 15.99940
2872 OM 2872 OM OM1 2872 -0.550000 15.99940
2873 OM 2873 OM OM1 2873 -0.550000 15.99940
2874 OM 2874 OM OM1 2874 -0.550000 15.99940
2875 OM 2875 OM OM1 2875 -0.550000 15.99940
2876 OM 2876 OM OM1 2876 -0.550000 15.99940
2877 OM 2877 OM OM1 2877 -0.550000 15.99940
2878 OM 2878 OM OM1 2878 -0.550000 15.99940
2879 OM 2879 OM OM1 2879 -0.550000 15.99940
2880 OM 2880 OM OM1 2880 -0.550000 15.99940
2881 OM 2881 OM OM1 2881 -0.550000 15.99940
2882 OM 2882 OM OM1 2882 -0.550000 15.99940
2883 OM 2883 OM OM1 2883 -0.550000 15.99940
2884 OM 2884 OM OM1 2884 -0.550000 15.99940
2885 OM 2885 OM OM1 2885 -0.550000 15.99940
2886 OM 2886 OM OM1 2886 -0.550000 15.99940
2887 OM 2887 OM OM1 2887 -0.550000 15.99940
2888 OM 2888 OM OM1 2888 -0.550000 15.99940
2889 OM 2889 OM OM1 2889 -0.550000 15.99940
2890 OM 2890 OM OM1 2890 -0.550000 15.99940
2891 OM 2891 OM OM1 2891 -0.550000 15.99940
2892 OM 2892 OM OM1 2892 -0.550000 15.99940
2893 OM 2893 OM OM1 2893 -0.550000 15.99940
2894 OM 2894 OM OM1 2894 -0.550000 15.99940
2895 OM 2895 OM OM1 2895 -0.550000 15.99940
2896 OM 2896 OM OM1 2896 -0.550000 15.99940
2897 OM 2897 OM OM1 2897 -0.550000 15.99940
2898 OM 2898 OM OM1 2898 -0.550000 15.99940
2899 OM 2899 OM OM1 2899 -0.550000 15.99940
2900 OM 2900 OM OM1 2900 -0.550000 15.99940
2901 OM 2901 OM OM1 2901 -0.550000 15.99940
2902 OM 2902 OM OM1 2902 -0.550000 15.99940
2903 OM 2903 OM OM1 2903 -0.550000 15.99940
2904 OM 2904 OM OM1 2904 -0.550000 15.99940
2905 OM 2905 OM OM1 2905 -0.550000 15.99940
2906 OM 2906 OM OM1 2906 -0.550000 15.99940
2907 OM 2907 OM OM1 2907 -0.550000 15.99940
2908 OM 2908 OM OM1 2908 -0.550000 15.99940
2909 OM 2909 OM OM1 2909 -0.550000 15.99940
2910 OM 2910 OM OM1 2910 -0.550000 15.99940
2911 OM 2911 OM OM1 2911 -0.550000 15.99940
2912 OM 2912 OM OM1 2912 -0.550000 15.99940
2913 OM 2913 OM OM1 2913 -0.550000 15.99940
2914 OM 2914 OM OM1 2914 -0.550000 15.99940
2915 OM 2915 OM OM1 2915 -0.550000 15.99940
2916 OM 2916 OM OM1 2916 -0.550000 15.99940
2917 OM 2917 OM OM1 2917 -0.550000 15.99940
2918 OM 2918 OM OM1 2918 -0.550000 15.99940
2919 OM 2919 OM OM1 2919 -0.550000 15.99940
2920 OM 2920 OM OM1 2920 -0.550000 15.99940
2921 OM 2921 OM OM1 2921 -0.550000 15.99940
2922 OM 2922 OM OM1 2922 -0.550000 15.99940
2923 OM 2923 OM OM1 2923 -0.550000 15.99940
2924 OM 2924 OM OM1 2924 -0.550000 15.99940
2925 OM 2925 OM OM1 2925 -0.550000 15.99940
2926 OM 2926 OM OM1 2926 -0.550000 15.99940
2927 OM 2927 OM OM1 2927 -0.550000 15.99940
2928 OM 2928 OM OM1 2928 -0.550000 15.99940
2929 OM 2929 OM OM1 2929 -0.550000 15.99940
2930 OM 2930 OM OM1 2930 -0.550000 15.99940
2931 OM 2931 OM OM1 2931 -0.550000 15.99940
2932 OM 2932 OM OM1 2932 -0.550000 15.99940
2933 OM 2933 OM OM1 2933 -0.550000 15.99940
2934 OM 2934 OM OM1 2934 -0.550000 15.99940
2935 OM 2935 OM OM1 2935 -0.550000 15.99940
2936 OM 2936 OM OM1 2936 -0.550000 15.99940
2937 OM 2937 OM OM1 2937 -0.550000 15.99940
2938 OM 2938 OM OM1 2938 -0.550000 15.99940
2939 OM 2939 OM OM1 2939 -0.550000 15.99940
2940 OM 2940 OM OM1 2940 -0.550000 15.99940
2941 OM 2941 OM OM1 2941 -0.550000 15.99940
2942 OM 2942 OM OM1 2942 -0.550000 15.99940
2943 OM 2943 OM OM1 2943 -0.550000 15.99940
2944 OM 2944 OM OM1 2944 -0.550000 15.99940
2945 OM 2945 OM OM1 2945 -0.550000 15.99940
2946 OM 2946 OM OM1 2946 -0.550000 15.99940
2947 OM 2947 OM OM1 2947 -0.550000 15.99940
2948 OM 2948 OM OM1 2948 -0.550000 15.99940
2949 OM 2949 OM OM1 2949 -0.550000 15.99940
2950 OM 2950 OM OM1 2950 -0.550000 15.99940
2951 OM 2951 OM OM1 2951 -0.550000 15.99940
2952 OM 2952 OM OM1 2952 -0.550000 15.99940
2953 OM 2953 OM OM1 2953 -0.550000 15.99940
2954 OM 2954 OM OM1 2954 -0.550000 15.99940
2955 OM 2955 OM OM1 2955 -0.550000 15.99940
2956 OM 2956 OM OM1 2956 -0.550000 15.99940
2957 OM 2957 OM OM1 2957 -0.550000 15.99940
2958 OM 2958 OM OM1 2958 -0.550000 15.99940
2959 OM 2959 OM OM1 2959 -0.550000 15.99940
2960 OM 2960 OM OM1 2960 -0.550000 15.99940
2961 OM 2961 OM OM1 2961 -0.550000 15.99940
2962 OM 2962 OM OM1 2962 -0.550000 15.99940
2963 OM 2963 OM OM1 2963 -0.550000 15.99940
2964 OM 2964 OM OM1 2964 -0.550000 15.99940
2965 OM 2965 OM OM1 2965 -0.550000 15.99940
2966 OM 2966 OM OM1 2966 -0.550000 15.99940
2967 OM 2967 OM OM1 2967 -0.550000 15.99940
2968 OM 2968 OM OM1 2968 -0.550000 15.99940
2969 OM 2969 OM OM1 2969 -0.550000 15.99940
2970 OM 2970 OM OM1 2970 -0.550000 15.99940
2971 OM 2971 OM OM1 2971 -0.550000 15.99940
2972 OM 2972 OM OM1 2972 -0.550000 15.99940
2973 OM 2973 OM OM1 2973 -0.550000 15.99940
2974 OM 2974 OM OM1 2974 -0.550000 15.99940
2975 OM 2975 OM OM1 2975 -0.550000 15.99940
2976 OM 2976 OM OM1 2976 -0.550000 15.99940
2977 OM 2977 OM OM1 2977 -0.550000 15.99940
2978 OM 2978 OM OM1 2978 -0.550000 15.99940
2979 OM 2979 OM OM1 2979 -0.550000 15.99940
2980 OM 2980 OM OM1 2980 -0.550000 15.99940
2981 OM 2981 OM OM1 2981 -0.550000 15.99940
2982 OM 2982 OM OM1 2982 -0.550000 15.99940
2983 OM 2983 OM OM1 2983 -0.550000 15.99940
2984 OM 2984 OM OM1 2984 -0.550000 15.99940
2985 OM 2985 OM OM1 2985 -0.550000 15.99940
2986 OM 2986 OM OM1 2986 -0.550000 15.99940
2987 OM 2987 OM OM1 2987 -0.550000 15.99940
2988 OM 2988 OM OM1 2988 -0.550000 15.99940
2989 OM 2989 OM OM1 2989 -0.550000 15.99940
2990 OM 2990 OM OM1 2990 -0.550000 15.99940
2991 OM 2991 OM OM1 2991 -0.550000 15.99940
2992 OM 2992 OM OM1 2992 -0.550000 15.99940
2993 OM 2993 OM OM1 2993 -0.550000 15.99940
2994 OM 2994 OM OM1 2994 -0.550000 15.99940
2995 OM 2995 OM OM1 2995 -0.550000 15.99940
2996 OM 2996 OM OM1 2996 -0.550000 15.99940
2997 OM 2997 OM OM1 2997 -0.550000 15.99940
2998 OM 2998 OM OM1 2998 -0.550000 15.99940
2999 OM 2999 OM OM1 2999 -0.550000 15.99940
3000 OM 3000 OM OM1 3000 -0.550000 15.99940
3001 OM 3001 OM OM1 3001 -0.550000 15.99940
3002 OM 3002 OM OM1 3002 -0.550000 15.99940
3003 OM 3003 OM OM1 3003 -0.550000 15.99940
3004 OM 3004 OM OM1 3004 -0.550000 15.99940
3005 OM 3005 OM OM1 3005 -0.550000 15.99940
3006 OM 3006 OM OM1 3006 -0.550000 15.99940
3007 OM 3007 OM OM1 3007 -0.550000 15.99940
3008 OM 3008 OM OM1 3008 -0.550000 15.99940
3009 OM 3009 OM OM1 3009 -0.550000 15.99940
3010 OM 3010 OM OM1 3010 -0.550000 15.99940
3011 OM 3011 OM OM1 3011 -0.550000 15.99940
3012 OM 3012 OM OM1 3012 -0.550000 15.99940
3013 OM 3013 OM OM1 3013 -0.550000 15.99940
3014 OM 3014 OM OM1 3014 -0.550000 15.99940
3015 OM 3015 OM OM1 3015 -0.550000 15.99940
3016 OM 3016 OM OM1 3016 -0.550000 15.99940
3017 OM 3017 OM OM1 3017 -0.550000 15.99940
3018 OM 3018 OM OM1 3018 -0.550000 15.99940
3019 OM 3019 OM OM1 3019 -0.550000 15.99940
3020 OM 3020 OM OM1 3020 -0.550000 15.99940
3021 OM 3021 OM OM1 3021 -0.550000 15.99940
3022 OM 3022 OM OM1 3022 -0.550000 15.99940
3023 OM 3023 OM OM1 3023 -0.550000 15.99940
3024 OM 3024 OM OM1 3024 -0.550000 15.99940
3025 OM 3025 OM OM1 3025 -0.550000 15.99940
3026 OM 3026 OM OM1 3026 -0.550000 15.99940
3027 OM 3027 OM OM1 3027 -0.550000 15.99940
3028 OM 3028 OM OM1 3028 -0.550000 15.99940
3029 OM 3029 OM OM1 3029 -0.550000 15.99940
3030 OM 3030 OM OM1 3030 -0.550000 15.99940
3031 OM 3031 OM OM1 3031 -0.550000 15.99940
3032 OM 3032 OM OM1 3032 -0.550000 15.99940
3033 OM 3033 OM OM1 3033 -0.550000 15.99940
3034 OM 3034 OM OM1 3034 -0.550000 15.99940
3035 OM 3035 OM OM1 3035 -0.550000 15.99940
3036 OM 3036 OM OM1 3036 -0.550000 15.99940
3037 OM 3037 OM OM1 3037 -0.550000 15.99940
3038 OM 3038 OM OM1 3038 -0.550000 15.99940
3039 OM 3039 OM OM1 3039 -0.550000 15.99940
3040 OM 3040 OM OM1 3040 -0.550000 15.99940
3041 OM 3041 OM OM1 3041 -0.550000 15.99940
3042 OM 3042 OM OM1 3042 -0.550000 15.99940
3043 OM 3043 OM OM1 3043 -0.550000 15.99940
3044 OM 3044 OM OM1 3044 -0.550000 15.99940
3045 OM 3045 OM OM1 3045 -0.550000 15.99940
3046 OM 3046 OM OM1 3046 -0.550000 15.99940
3047 OM 3047 OM OM1 3047 -0.550000 15.99940
3048 OM 3048 OM OM1 3048 -0.550000 15.99940
3049 OM 3049 OM OM1 3049 -0.550000 15.99940
3050 OM 3050 OM OM1 3050 -0.550000 15.99940
3051 OM 3051 OM OM1 3051 -0.550000 15.99940
3052 OM 3052 OM OM1 3052 -0.550000 15.99940
3053 OM 3053 OM OM1 3053 -0.550000 15.99940
3054 OM 3054 OM OM1 3054 -0.550000 15.99940
3055 OM 3055 OM OM1 3055 -0.550000 15.99940
3056 OM 3056 OM OM1 3056 -0.550000 15.99940
3057 OM 3057 OM OM1 3057 -0.550000 15.99940
3058 OM 3058 OM OM1 3058 -0.550000 15.99940
3059 OM 3059 OM OM1 3059 -0.550000 15.99940
3060 OM 3060 OM OM1 3060 -0.550000 15.99940
3061 OM 3061 OM OM1 3061 -0.550000 15.99940
3062 OM 3062 OM OM1 3062 -0.550000 15.99940
3063 OM 3063 OM OM1 3063 -0.550000 15.99940
3064 OM 3064 OM OM1 3064 -0.550000 15.99940
3065 OM 3065 OM OM1 3065 -0.550000 15.99940
3066 OM 3066 OM OM1 3066 -0.550000 15.99940
3067 OM 3067 OM OM1 3067 -0.550000 15.99940
3068 OM 3068 OM OM1 3068 -0.550000 15.99940
3069 OM 3069 OM OM1 3069 -0.550000 15.99940
3070 OM 3070 OM OM1 3070 -0.550000 15.99940
3071 OM 3071 OM OM1 3071 -0.550000 15.99940
3072 OM 3072 OM OM1 3072 -0.550000 15.99940
3073 OM 3073 OM OM1 3073 -0.550000 15.99940
3074 OM 3074 OM OM1 3074 -0.550000 15.99940
3075 OM 3075 OM OM1 3075 -0.550000 15.99940
3076 OM 3076 OM OM1 3076 -0.550000 15.99940
3077 OM 3077 OM OM1 3077 -0.550000 15.99940
3078 OM 3078 OM OM1 3078 -0.550000 15.99940
3079 OM 3079 OM OM1 3079 -0.550000 15.99940
3080 OM 3080 OM OM1 3080 -0.550000 15.99940
3081 OM 3081 OM OM1 3081 -0.550000 15.99940
3082 OM 3082 OM OM1 3082 -0.550000 15.99940
3083 OM 3083 OM OM1 3083 -0.550000 15.99940
3084 OM 3084 OM OM1 3084 -0.550000 15.99940
3085 OM 3085 OM OM1 3085 -0.550000 15.99940
3086 OM 3086 OM OM1 3086 -0.550000 15.99940
3087 OM 3087 OM OM1 3087 -0.550000 15.99940
3088 OM 3088 OM OM1 3088 -0.550000 15.99940
3089 OM 3089 OM OM1 3089 -0.550000 15.99940
3090 OM 3090 OM OM1 3090 -0.550000 15.99940
3091 OM 3091 OM OM1 3091 -0.550000 15.99940
3092 OM 3092 OM OM1 3092 -0.550000 15.99940
3093 OM 3093 OM OM1 3093 -0.550000 15.99940
3094 OM 3094 OM OM1 3094 -0.550000 15.99940
3095 OM 3095 OM OM1 3095 -0.550000 15.99940
3096 OM 3096 OM OM1 3096 -0.550000 15.99940
3097 OM 3097 OM OM1 3097 -0.550000 15.99940
3098 OM 3098 OM OM1 3098 -0.550000 15.99940
3099 OM 3099 OM OM1 3099 -0.550000 15.99940
3100 OM 3100 OM OM1 3100 -0.550000 15.99940
3101 OM 3101 OM OM1 3101 -0.550000 15.99940
3102 OM 3102 OM OM1 3102 -0.550000 15.99940
3103 OM 3103 OM OM1 3103 -0.550000 15.99940
3104 OM 3104 OM OM1 3104 -0.550000 15.99940
3105 OM 3105 OM OM1 3105 -0.550000 15.99940
3106 OM 3106 OM OM1 3106 -0.550000 15.99940
3107 OM 3107 OM OM1 3107 -0.550000 15.99940
3108 OM 3108 OM OM1 3108 -0.550000 15.99940
3109 OM 3109 OM OM1 3109 -0.550000 15.99940
3110 OM 3110 OM OM1 3110 -0.550000 15.99940
3111 OM 3111 OM OM1 3111 -0.550000 15.99940
3112 OM 3112 OM OM1 3112 -0.550000 15.99940
3113 OM 3113 OM OM1 3113 -0.550000 15.99940
3114 OM 3114 OM OM1 3114 -0.550000 15.99940
3115 OM 3115 OM OM1 3115 -0.550000 15.99940
3116 OM 3116 OM OM1 3116 -0.550000 15.99940
3117 OM 3117 OM OM1 3117 -0.550000 15.99940
3118 OM 3118 OM OM1 3118 -0.550000 15.99940
3119 OM 3119 OM OM1 3119 -0.550000 15.99940
3120 OM 3120 OM OM1 3120 -0.550000 15.99940
3121 OM 3121 OM OM1 3121 -0.550000 15.99940
3122 OM 3122 OM OM1 3122 -0.550000 15.99940
3123 OM 3123 OM OM1 3123 -0.550000 15.99940
3124 OM 3124 OM OM1 3124 -0.550000 15.99940
3125 OM 3125 OM OM1 3125 -0.550000 15.99940
3126 OM 3126 OM OM1 3126 -0.550000 15.99940
3127 OM 3127 OM OM1 3127 -0.550000 15.99940
3128 OM 3128 OM OM1 3128 -0.550000 15.99940
3129 OM 3129 OM OM1 3129 -0.550000 15.99940
3130 OM 3130 OM OM1 3130 -0.550000 15.99940
3131 OM 3131 OM OM1 3131 -0.550000 15.99940
3132 OM 3132 OM OM1 3132 -0.550000 15.99940
3133 OM 3133 OM OM1 3133 -0.550000 15.99940
3134 OM 3134 OM OM1 3134 -0.550000 15.99940
3135 OM 3135 OM OM1 3135 -0.550000 15.99940
3136 OM 3136 OM OM1 3136 -0.550000 15.99940
3137 OM 3137 OM OM1 3137 -0.550000 15.99940
3138 OM 3138 OM OM1 3138 -0.550000 15.99940
3139 OM 3139 OM OM1 3139 -0.550000 15.99940
3140 OM 3140 OM OM1 3140 -0.550000 15.99940
3141 OM 3141 OM OM1 3141 -0.550000 15.99940
3142 OM 3142 OM OM1 3142 -0.550000 15.99940
3143 OM 3143 OM OM1 3143 -0.550000 15.99940
3144 OM 3144 OM OM1 3144 -0.550000 15.99940
3145 OM 3145 OM OM1 3145 -0.550000 15.99940
3146 OM 3146 OM OM1 3146 -0.550000 15.99940
3147 OM 3147 OM OM1 3147 -0.550000 15.99940
3148 OM 3148 OM OM1 3148 -0.550000 15.99940
3149 OM 3149 OM OM1 3149 -0.550000 15.99940
3150 OM 3150 OM OM1 3150 -0.550000 15.99940
3151 OM 3151 OM OM1 3151 -0.550000 15.99940
3152 OM 3152 OM OM1 3152 -0.550000 15.99940
3153 OM 3153 OM OM1 3153 -0.550000 15.99940
3154 OM 3154 OM OM1 3154 -0.550000 15.99940
3155 OM 3155 OM OM1 3155 -0.550000 15.99940
3156 OM 3156 OM OM1 3156 -0.550000 15.99940
3157 OM 3157 OM OM1 3157 -0.550000 15.99940
3158 OM 3158 OM OM1 3158 -0.550000 15.99940
3159 OM 3159 OM OM1 3159 -0.550000 15.99940
3160 OM 3160 OM OM1 3160 -0.550000 15.99940
3161 OM 3161 OM OM1 3161 -0.550000 15.99940
3162 OM 3162 OM OM1 3162 -0.550000 15.99940
3163 OM 3163 OM OM1 3163 -0.550000 15.99940
3164 OM 3164 OM OM1 3164 -0.550000 15.99940
3165 OM 3165 OM OM1 3165 -0.550000 15.99940
3166 OM 3166 OM OM1 3166 -0.550000 15.99940
3167 OM 3167 OM OM1 3167 -0.550000 15.99940
3168 OM 3168 OM OM1 3168 -0.550000 15.99940
3169 OM 3169 OM OM1 3169 -0.550000 15.99940
3170 OM 3170 OM OM1 3170 -0.550000 15.99940
3171 OM 3171 OM OM1 3171 -0.550000 15.99940
3172 OM 3172 OM OM1 3172 -0.550000 15.99940
3173 OM 3173 OM OM1 3173 -0.550000 15.99940
3174 OM 3174 OM OM1 3174 -0.550000 15.99940
3175 OM 3175 OM OM1 3175 -0.550000 15.99940
3176 OM 3176 OM OM1 3176 -0.550000 15.99940
3177 OM 3177 OM OM1 3177 -0.550000 15.99940
3178 OM 3178 OM OM1 3178 -0.550000 15.99940
3179 OM 3179 OM OM1 3179 -0.550000 15.99940
3180 OM 3180 OM OM1 3180 -0.550000 15.99940
3181 OM 3181 OM OM1 3181 -0.550000 15.99940
3182 OM 3182 OM OM1 3182 -0.550000 15.99940
3183 OM 3183 OM OM1 3183 -0.550000 15.99940
3184 OM 3184 OM OM1 3184 -0.550000 15.99940
3185 OM 3185 OM OM1 3185 -0.550000 15.99940
3186 OM 3186 OM OM1 3186 -0.550000 15.99940
3187 OM 3187 OM OM1 3187 -0.550000 15.99940
3188 OM 3188 OM OM1 3188 -0.550000 15.99940
3189 OM 3189 OM OM1 3189 -0.550000 15.99940
3190 OM 3190 OM OM1 3190 -0.550000 15.99940
3191 OM 3191 OM OM1 3191 -0.550000 15.99940
3192 OM 3192 OM OM1 3192 -0.550000 15.99940
3193 OM 3193 OM OM1 3193 -0.550000 15.99940
3194 OM 3194 OM OM1 3194 -0.550000 15.99940
3195 OM 3195 OM OM1 3195 -0.550000 15.99940
3196 OM 3196 OM OM1 3196 -0.550000 15.99940
3197 OM 3197 OM OM1 3197 -0.550000 15.99940
3198 OM 3198 OM OM1 3198 -0.550000 15.99940
3199 OM 3199 OM OM1 3199 -0.550000 15.99940
3200 OM 3200 OM OM1 3200 -0.550000 15.99940
3201 OM 3201 OM OM1 3201 -0.550000 15.99940
3202 OM 3202 OM OM1 3202 -0.550000 15.99940
3203 OM 3203 OM OM1 3203 -0.550000 15.99940
3204 OM 3204 OM OM1 3204 -0.550000 15.99940
3205 OM 3205 OM OM1 3205 -0.550000 15.99940
3206 OM 3206 OM OM1 3206 -0.550000 15.99940
3207 OM 3207 OM OM1 3207 -0.550000 15.99940
3208 OM 3208 OM OM1 3208 -0.550000 15.99940
3209 OM 3209 OM OM1 3209 -0.550000 15.99940
3210 OM 3210 OM OM1 3210 -0.550000 15.99940
3211 OM 3211 OM OM1 3211 -0.550000 15.99940
3212 OM 3212 OM OM1 3212 -0.550000 15.99940
3213 OM 3213 OM OM1 3213 -0.550000 15.99940
3214 OM 3214 OM OM1 3214 -0.550000 15.99940
3215 OM 3215 OM OM1 3215 -0.550000 15.99940
3216 OM 3216 OM OM1 3216 -0.550000 15.99940
3217 OM 3217 OM OM1 3217 -0.550000 15.99940
3218 OM 3218 OM OM1 3218 -0.550000 15.99940
3219 OM 3219 OM OM1 3219 -0.550000 15.99940
3220 OM 3220 OM OM1 3220 -0.550000 15.99940
3221 OM 3221 OM OM1 3221 -0.550000 15.99940
3222 OM 3222 OM OM1 3222 -0.550000 15.99940
3223 OM 3223 OM OM1 3223 -0.550000 15.99940
3224 OM 3224 OM OM1 3224 -0.550000 15.99940
3225 OM 3225 OM OM1 3225 -0.550000 15.99940
3226 OM 3226 OM OM1 3226 -0.550000 15.99940
3227 OM 3227 OM OM1 3227 -0.550000 15.99940
3228 OM 3228 OM OM1 3228 -0.550000 15.99940
3229 OM 3229 OM OM1 3229 -0.550000 15.99940
3230 OM 3230 OM OM1 3230 -0.550000 15.99940
3231 OM 3231 OM OM1 3231 -0.550000 15.99940
3232 OM 3232 OM OM1 3232 -0.550000 15.99940
3233 OM 3233 OM OM1 3233 -0.550000 15.99940
3234 OM 3234 OM OM1 3234 -0.550000 15.99940
3235 OM 3235 OM OM1 3235 -0.550000 15.99940
3236 OM 3236 OM OM1 3236 -0.550000 15.99940
3237 OM 3237 OM OM1 3237 -0.550000 15.99940
3238 OM 3238 OM OM1 3238 -0.550000 15.99940
3239 OM 3239 OM OM1 3239 -0.550000 15.99940
3240 OM 3240 OM OM1 3240 -0.550000 15.99940
3241 OM 3241 OM OM1 3241 -0.550000 15.99940
3242 OM 3242 OM OM1 3242 -0.550000 15.99940
3243 OM 3243 OM OM1 3243 -0.550000 15.99940
3244 OM 3244 OM OM1 3244 -0.550000 15.99940
3245 OM 3245 OM OM1 3245 -0.550000 15.99940
3246 OM 3246 OM OM1 3246 -0.550000 15.99940
3247 OM 3247 OM OM1 3247 -0.550000 15.99940
3248 OM 3248 OM OM1 3248 -0.550000 15.99940
3249 OM 3249 OM OM1 3249 -0.550000 15.99940
3250 OM 3250 OM OM1 3250 -0.550000 15.99940
3251 OM 3251 OM OM1 3251 -0.550000 15.99940
3252 OM 3252 OM OM1 3252 -0.550000 15.99940
3253 OM 3253 OM OM1 3253 -0.550000 15.99940
3254 OM 3254 OM OM1 3254 -0.550000 15.99940
3255 OM 3255 OM OM1 3255 -0.550000 15.99940
3256 OM 3256 OM OM1 3256 -0.550000 15.99940
3257 OM 3257 OM OM1 3257 -0.550000 15.99940
3258 OM 3258 OM OM1 3258 -0.550000 15.99940
3259 OM 3259 OM OM1 3259 -0.550000 15.99940
3260 OM 3260 OM OM1 3260 -0.550000 15.99940
3261 OM 3261 OM OM1 3261 -0.550000 15.99940
3262 OM 3262 OM OM1 3262 -0.550000 15.99940
3263 OM 3263 OM OM1 3263 -0.550000 15.99940
3264 OM 3264 OM OM1 3264 -0.550000 15.99940
3265 OM 3265 OM OM1 3265 -0.550000 15.99940
3266 OM 3266 OM OM1 3266 -0.550000 15.99940
3267 OM 3267 OM OM1 3267 -0.550000 15.99940
3268 OM 3268 OM OM1 3268 -0.550000 15.99940
3269 OM 3269 OM OM1 3269 -0.550000 15.99940
3270 OM 3270 OM OM1 3270 -0.550000 15.99940
3271 OM 3271 OM OM1 3271 -0.550000 15.99940
3272 OM 3272 OM OM1 3272 -0.550000 15.99940
3273 OM 3273 OM OM1 3273 -0.550000 15.99940
3274 OM 3274 OM OM1 3274 -0.550000 15.99940
3275 OM 3275 OM OM1 3275 -0.550000 15.99940
3276 OM 3276 OM OM1 3276 -0.550000 15.99940
3277 OM 3277 OM OM1 3277 -0.550000 15.99940
3278 OM 3278 OM OM1 3278 -0.550000 15.99940
3279 OM 3279 OM OM1 3279 -0.550000 15.99940
3280 OM 3280 OM OM1 3280 -0.550000 15.99940
3281 OM 3281 OM OM1 3281 -0.550000 15.99940
3282 OM 3282 OM OM1 3282 -0.550000 15.99940
3283 OM 3283 OM OM1 3283 -0.550000 15.99940
3284 OM 3284 OM OM1 3284 -0.550000 15.99940
3285 OM 3285 OM OM1 3285 -0.550000 15.99940
3286 OM 3286 OM OM1 3286 -0.550000 15.99940
3287 OM 3287 OM OM1 3287 -0.550000 15.99940
3288 OM 3288 OM OM1 3288 -0.550000 15.99940
3289 OM 3289 OM OM1 3289 -0.550000 15.99940
3290 OM 3290 OM OM1 3290 -0.550000 15.99940
3291 OM 3291 OM OM1 3291 -0.550000 15.99940
3292 OM 3292 OM OM1 3292 -0.550000 15.99940
3293 OM 3293 OM OM1 3293 -0.550000 15.99940
3294 OM 3294 OM OM1 3294 -0.550000 15.99940
3295 OM 3295 OM OM1 3295 -0.550000 15.99940
3296 OM 3296 OM OM1 3296 -0.550000 15.99940
3297 OM 3297 OM OM1 3297 -0.550000 15.99940
3298 OM 3298 OM OM1 3298 -0.550000 15.99940
3299 OM 3299 OM OM1 3299 -0.550000 15.99940
3300 OM 3300 OM OM1 3300 -0.550000 15.99940
3301 OM 3301 OM OM1 3301 -0.550000 15.99940
3302 OM 3302 OM OM1 3302 -0.550000 15.99940
3303 OM 3303 OM OM1 3303 -0.550000 15.99940
3304 OM 3304 OM OM1 3304 -0.550000 15.99940
3305 OM 3305 OM OM1 3305 -0.550000 15.99940
3306 OM 3306 OM OM1 3306 -0.550000 15.99940
3307 OM 3307 OM OM1 3307 -0.550000 15.99940
3308 OM 3308 OM OM1 3308 -0.550000 15.99940
3309 OM 3309 OM OM1 3309 -0.550000 15.99940
3310 OM 3310 OM OM1 3310 -0.550000 15.99940
3311 OM 3311 OM OM1 3311 -0.550000 15.99940
3312 OM 3312 OM OM1 3312 -0.550000 15.99940
3313 OM 3313 OM OM1 3313 -0.550000 15.99940
3314 OM 3314 OM OM1 3314 -0.550000 15.99940
3315 OM 3315 OM OM1 3315 -0.550000 15.99940
3316 OM 3316 OM OM1 3316 -0.550000 15.99940
3317 OM 3317 OM OM1 3317 -0.550000 15.99940
3318 OM 3318 OM OM1 3318 -0.550000 15.99940
3319 OM 3319 OM OM1 3319 -0.550000 15.99940
3320 OM 3320 OM OM1 3320 -0.550000 15.99940
3321 OM 3321 OM OM1 3321 -0.550000 15.99940
3322 OM 3322 OM OM1 3322 -0.550000 15.99940
3323 OM 3323 OM OM1 3323 -0.550000 15.99940
3324 OM 3324 OM OM1 3324 -0.550000 15.99940
3325 OM 3325 OM OM1 3325 -0.550000 15.99940
3326 OM 3326 OM OM1 3326 -0.550000 15.99940
3327 OM 3327 OM OM1 3327 -0.550000 15.99940
3328 OM 3328 OM OM1 3328 -0.550000 15.99940
3329 OM 3329 OM OM1 3329 -0.550000 15.99940
3330 OM 3330 OM OM1 3330 -0.550000 15.99940
3331 OM 3331 OM OM1 3331 -0.550000 15.99940
3332 OM 3332 OM OM1 3332 -0.550000 15.99940
3333 OM 3333 OM OM1 3333 -0.550000 15.99940
3334 OM 3334 OM OM1 3334 -0.550000 15.99940
3335 OM 3335 OM OM1 3335 -0.550000 15.99940
3336 OM 3336 OM OM1 3336 -0.550000 15.99940
3337 OM 3337 OM OM1 3337 -0.550000 15.99940
3338 OM 3338 OM OM1 3338 -0.550000 15.99940
3339 OM 3339 OM OM1 3339 -0.550000 15.99940
3340 OM 3340 OM OM1 3340 -0.550000 15.99940
3341 OM 3341 OM OM1 3341 -0.550000 15.99940
3342 OM 3342 OM OM1 3342 -0.550000 15.99940
3343 OM 3343 OM OM1 3343 -0.550000 15.99940
3344 OM 3344 OM OM1 3344 -0.550000 15.99940
3345 OM 3345 OM OM1 3345 -0.550000 15.99940
3346 OM 3346 OM OM1 3346 -0.550000 15.99940
3347 OM 3347 OM OM1 3347 -0.550000 15.99940
3348 OM 3348 OM OM1 3348 -0.550000 15.99940
3349 OM 3349 OM OM1 3349 -0.550000 15.99940
3350 OM 3350 OM OM1 3350 -0.550000 15.99940
3351 OM 3351 OM OM1 3351 -0.550000 15.99940
3352 OM 3352 OM OM1 3352 -0.550000 15.99940
3353 OM 3353 OM OM1 3353 -0.550000 15.99940
3354 OM 3354 OM OM1 3354 -0.550000 15.99940
3355 OM 3355 OM OM1 3355 -0.550000 15.99940
3356 OM 3356 OM OM1 3356 -0.550000 15.99940
3357 OM 3357 OM OM1 3357 -0.550000 15.99940
3358 OM 3358 OM OM1 3358 -0.550000 15.99940
3359 OM 3359 OM OM1 3359 -0.550000 15.99940
3360 OM 3360 OM OM1 3360 -0.550000 15.99940
3361 OM 3361 OM OM1 3361 -0.550000 15.99940
3362 OM 3362 OM OM1 3362 -0.550000 15.99940
3363 OM 3363 OM OM1 3363 -0.550000 15.99940
3364 OM 3364 OM OM1 3364 -0.550000 15.99940
3365 OM 3365 OM OM1 3365 -0.550000 15.99940
3366 OM 3366 OM OM1 3366 -0.550000 15.99940
3367 OM 3367 OM OM1 3367 -0.550000 15.99940
3368 OM 3368 OM OM1 3368 -0.550000 15.99940
3369 OM 3369 OM OM1 3369 -0.550000 15.99940
3370 OM 3370 OM OM1 3370 -0.550000 15.99940
3371 OM 3371 OM OM1 3371 -0.550000 15.99940
3372 OM 3372 OM OM1 3372 -0.550000 15.99940
3373 OM 3373 OM OM1 3373 -0.550000 15.99940
3374 OM 3374 OM OM1 3374 -0.550000 15.99940
3375 OM 3375 OM OM1 3375 -0.550000 15.99940
3376 OM 3376 OM OM1 3376 -0.550000 15.99940
3377 OM 3377 OM OM1 3377 -0.550000 15.99940
3378 OM 3378 OM OM1 3378 -0.550000 15.99940
3379 OM 3379 OM OM1 3379 -0.550000 15.99940
3380 OM 3380 OM OM1 3380 -0.550000 15.99940
3381 OM 3381 OM OM1 3381 -0.550000 15.99940
3382 OM 3382 OM OM1 3382 -0.550000 15.99940
3383 OM 3383 OM OM1 3383 -0.550000 15.99940
3384 OM 3384 OM OM1 3384 -0.550000 15.99940
3385 OM 3385 OM OM1 3385 -0.550000 15.99940
3386 OM 3386 OM OM1 3386 -0.550000 15.99940
3387 OM 3387 OM OM1 3387 -0.550000 15.99940
3388 OM 3388 OM OM1 3388 -0.550000 15.99940
3389 OM 3389 OM OM1 3389 -0.550000 15.99940
3390 OM 3390 OM OM1 3390 -0.550000 15.99940
3391 OM 3391 OM OM1 3391 -0.550000 15.99940
3392 OM 3392 OM OM1 3392 -0.550000 15.99940
3393 OM 3393 OM OM1 3393 -0.550000 15.99940
3394 OM 3394 OM OM1 3394 -0.550000 15.99940
3395 OM 3395 OM OM1 3395 -0.550000 15.99940
3396 OM 3396 OM OM1 3396 -0.550000 15.99940
3397 OM 3397 OM OM1 3397 -0.550000 15.99940
3398 OM 3398 OM OM1 3398 -0.550000 15.99940
3399 OM 3399 OM OM1 3399 -0.550000 15.99940
3400 OM 3400 OM OM1 3400 -0.550000 15.99940
3401 OM 3401 OM OM1 3401 -0.550000 15.99940
3402 OM 3402 OM OM1 3402 -0.550000 15.99940
3403 OM 3403 OM OM1 3403 -0.550000 15.99940
3404 OM 3404 OM OM1 3404 -0.550000 15.99940
3405 OM 3405 OM OM1 3405 -0.550000 15.99940
3406 OM 3406 OM OM1 3406 -0.550000 15.99940
3407 OM 3407 OM OM1 3407 -0.550000 15.99940
3408 OM 3408 OM OM1 3408 -0.550000 15.99940
3409 OM 3409 OM OM1 3409 -0.550000 15.99940
3410 OM 3410 OM OM1 3410 -0.550000 15.99940
3411 OM 3411 OM OM1 3411 -0.550000 15.99940
3412 OM 3412 OM OM1 3412 -0.550000 15.99940
3413 OM 3413 OM OM1 3413 -0.550000 15.99940
3414 OM 3414 OM OM1 3414 -0.550000 15.99940
3415 OM 3415 OM OM1 3415 -0.550000 15.99940
3416 OM 3416 OM OM1 3416 -0.550000 15.99940
3417 OM 3417 OM OM1 3417 -0.550000 15.99940
3418 OM 3418 OM OM1 3418 -0.550000 15.99940
3419 OM 3419 OM OM1 3419 -0.550000 15.99940
3420 OM 3420 OM OM1 3420 -0.550000 15.99940
3421 OM 3421 OM OM1 3421 -0.550000 15.99940
3422 OM 3422 OM OM1 3422 -0.550000 15.99940
3423 OM 3423 OM OM1 3423 -0.550000 15.99940
3424 OM 3424 OM OM1 3424 -0.550000 15.99940
3425 OM 3425 OM OM1 3425 -0.550000 15.99940
3426 OM 3426 OM OM1 3426 -0.550000 15.99940
3427 OM 3427 OM OM1 3427 -0.550000 15.99940
3428 OM 3428 OM OM1 3428 -0.550000 15.99940
3429 OM 3429 OM OM1 3429 -0.550000 15.99940
3430 OM 3430 OM OM1 3430 -0.550000 15.99940
3431 OM 3431 OM OM1 3431 -0.550000 15.99940
3432 OM 3432 OM OM1 3432 -0.550000 15.99940
3433 OM 3433 OM OM1 3433 -0.550000 15.99940
3434 OM 3434 OM OM1 3434 -0.550000 15.99940
3435 OM 3435 OM OM1 3435 -0.550000 15.99940
3436 OM 3436 OM OM1 3436 -0.550000 15.99940
3437 OM 3437 OM OM1 3437 -0.550000 15.99940
3438 OM 3438 OM OM1 3438 -0.550000 15.99940
3439 OM 3439 OM OM1 3439 -0.550000 15.99940
3440 OM 3440 OM OM1 3440 -0.550000 15.99940
3441 OM 3441 OM OM1 3441 -0.550000 15.99940
3442 OM 3442 OM OM1 3442 -0.550000 15.99940
3443 OM 3443 OM OM1 3443 -0.550000 15.99940
3444 OM 3444 OM OM1 3444 -0.550000 15.99940
3445 OM 3445 OM OM1 3445 -0.550000 15.99940
3446 OM 3446 OM OM1 3446 -0.550000 15.99940
3447 OM 3447 OM OM1 3447 -0.550000 15.99940
3448 OM 3448 OM OM1 3448 -0.550000 15.99940
3449 OM 3449 OM OM1 3449 -0.550000 15.99940
3450 OM 3450 OM OM1 3450 -0.550000 15.99940
3451 OM 3451 OM OM1 3451 -0.550000 15.99940
3452 OM 3452 OM OM1 3452 -0.550000 15.99940
3453 OM 3453 OM OM1 3453 -0.550000 15.99940
3454 OM 3454 OM OM1 3454 -0.550000 15.99940
3455 OM 3455 OM OM1 3455 -0.550000 15.99940
3456 OM 3456 OM OM1 3456 -0.550000 15.99940
3457 OM 3457 OM OM1 3457 -0.550000 15.99940
3458 OM 3458 OM OM1 3458 -0.550000 15.99940
3459 OM 3459 OM OM1 3459 -0.550000 15.99940
3460 OM 3460 OM OM1 3460 -0.550000 15.99940
3461 OM 3461 OM OM1 3461 -0.550000 15.99940
3462 OM 3462 OM OM1 3462 -0.550000 15.99940
3463 OM 3463 OM OM1 3463 -0.550000 15.99940
3464 OM 3464 OM OM1 3464 -0.550000 15.99940
3465 OM 3465 OM OM1 3465 -0.550000 15.99940
3466 OM 3466 OM OM1 3466 -0.550000 15.99940
3467 OM 3467 OM OM1 3467 -0.550000 15.99940
3468 OM 3468 OM OM1 3468 -0.550000 15.99940
3469 OM 3469 OM OM1 3469 -0.550000 15.99940
3470 OM 3470 OM OM1 3470 -0.550000 15.99940
3471 OM 3471 OM OM1 3471 -0.550000 15.99940
3472 OM 3472 OM OM1 3472 -0.550000 15.99940
3473 OM 3473 OM OM1 3473 -0.550000 15.99940
3474 OM 3474 OM OM1 3474 -0.550000 15.99940
3475 OM 3475 OM OM1 3475 -0.550000 15.99940
3476 OM 3476 OM OM1 3476 -0.550000 15.99940
3477 OM 3477 OM OM1 3477 -0.550000 15.99940
3478 OM 3478 OM OM1 3478 -0.550000 15.99940
3479 OM 3479 OM OM1 3479 -0.550000 15.99940
3480 OM 3480 OM OM1 3480 -0.550000 15.99940
3481 OM 3481 OM OM1 3481 -0.550000 15.99940
3482 OM 3482 OM OM1 3482 -0.550000 15.99940
3483 OM 3483 OM OM1 3483 -0.550000 15.99940
3484 OM 3484 OM OM1 3484 -0.550000 15.99940
3485 OM 3485 OM OM1 3485 -0.550000 15.99940
3486 OM 3486 OM OM1 3486 -0.550000 15.99940
3487 OM 3487 OM OM1 3487 -0.550000 15.99940
3488 OM 3488 OM OM1 3488 -0.550000 15.99940
3489 OM 3489 OM OM1 3489 -0.550000 15.99940
3490 OM 3490 OM OM1 3490 -0.550000 15.99940
3491 OM 3491 OM OM1 3491 -0.550000 15.99940
3492 OM 3492 OM OM1 3492 -0.550000 15.99940
3493 OM 3493 OM OM1 3493 -0.550000 15.99940
3494 OM 3494 OM OM1 3494 -0.550000 15.99940
3495 OM 3495 OM OM1 3495 -0.550000 15.99940
3496 OM 3496 OM OM1 3496 -0.550000 15.99940
3497 OM 3497 OM OM1 3497 -0.550000 15.99940
3498 OM 3498 OM OM1 3498 -0.550000 15.99940
3499 OM 3499 OM OM1 3499 -0.550000 15.99940
3500 OM 3500 OM OM1 3500 -0.550000 15.99940
3501 OM 3501 OM OM1 3501 -0.550000 15.99940
3502 OM 3502 OM OM1 3502 -0.550000 15.99940
3503 OM 3503 OM OM1 3503 -0.550000 15.99940
3504 OM 3504 OM OM1 3504 -0.550000 15.99940
3505 OM 3505 OM OM1 3505 -0.550000 15.99940
3506 OM 3506 OM OM1 3506 -0.550000 15.99940
3507 OM 3507 OM OM1 3507 -0.550000 15.99940
3508 OM 3508 OM OM1 3508 -0.550000 15.99940
3509 OM 3509 OM OM1 3509 -0.550000 15.99940
3510 OM 3510 OM OM1 3510 -0.550000 15.99940
3511 OM 3511 OM OM1 3511 -0.550000 15.99940
3512 OM 3512 OM OM1 3512 -0.550000 15.99940
3513 OM 3513 OM OM1 3513 -0.550000 15.99940
3514 OM 3514 OM OM1 3514 -0.550000 15.99940
3515 OM 3515 OM OM1 3515 -0.550000 15.99940
3516 OM 3516 OM OM1 3516 -0.550000 15.99940
3517 OM 3517 OM OM1 3517 -0.550000 15.99940
3518 OM 3518 OM OM1 3518 -0.550000 15.99940
3519 OM 3519 OM OM1 3519 -0.550000 15.99940
3520 OM 3520 OM OM1 3520 -0.550000 15.99940
3521 OM 3521 OM OM1 3521 -0.550000 15.99940
3522 OM 3522 OM OM1 3522 -0.550000 15.99940
3523 OM 3523 OM OM1 3523 -0.550000 15.99940
3524 OM 3524 OM OM1 3524 -0.550000 15.99940
3525 OM 3525 OM OM1 3525 -0.550000 15.99940
3526 OM 3526 OM OM1 3526 -0.550000 15.99940
3527 OM 3527 OM OM1 3527 -0.550000 15.99940
3528 OM 3528 OM OM1 3528 -0.550000 15.99940
3529 OM 3529 OM OM1 3529 -0.550000 15.99940
3530 OM 3530 OM OM1 3530 -0.550000 15.99940
3531 OM 3531 OM OM1 3531 -0.550000 15.99940
3532 OM 3532 OM OM1 3532 -0.550000 15.99940
3533 OM 3533 OM OM1 3533 -0.550000 15.99940
3534 OM 3534 OM OM1 3534 -0.550000 15.99940
3535 OM 3535 OM OM1 3535 -0.550000 15.99940
3536 OM 3536 OM OM1 3536 -0.550000 15.99940
3537 OM 3537 OM OM1 3537 -0.550000 15.99940
3538 OM 3538 OM OM1 3538 -0.550000 15.99940
3539 OM 3539 OM OM1 3539 -0.550000 15.99940
3540 OM 3540 OM OM1 3540 -0.550000 15.99940
3541 OM 3541 OM OM1 3541 -0.550000 15.99940
3542 OM 3542 OM OM1 3542 -0.550000 15.99940
3543 OM 3543 OM OM1 3543 -0.550000 15.99940
3544 OM 3544 OM OM1 3544 -0.550000 15.99940
3545 OM 3545 OM OM1 3545 -0.550000 15.99940
3546 OM 3546 OM OM1 3546 -0.550000 15.99940
3547 OM 3547 OM OM1 3547 -0.550000 15.99940
3548 OM 3548 OM OM1 3548 -0.550000 15.99940
3549 OM 3549 OM OM1 3549 -0.550000 15.99940
3550 OM 3550 OM OM1 3550 -0.550000 15.99940
3551 OM 3551 OM OM1 3551 -0.550000 15.99940
3552 OM 3552 OM OM1 3552 -0.550000 15.99940
3553 OM 3553 OM OM1 3553 -0.550000 15.99940
3554 OM 3554 OM OM1 3554 -0.550000 15.99940
3555 OM 3555 OM OM1 3555 -0.550000 15.99940
3556 OM 3556 OM OM1 3556 -0.550000 15.99940
3557 OM 3557 OM OM1 3557 -0.550000 15.99940
3558 OM 3558 OM OM1 3558 -0.550000 15.99940
3559 OM 3559 OM OM1 3559 -0.550000 15.99940
3560 OM 3560 OM OM1 3560 -0.550000 15.99940
3561 OM 3561 OM OM1 3561 -0.550000 15.99940
3562 OM 3562 OM OM1 3562 -0.550000 15.99940
3563 OM 3563 OM OM1 3563 -0.550000 15.99940
3564 OM 3564 OM OM1 3564 -0.550000 15.99940
3565 OM 3565 OM OM1 3565 -0.550000 15.99940
3566 OM 3566 OM OM1 3566 -0.550000 15.99940
3567 OM 3567 OM OM1 3567 -0.550000 15.99940
3568 OM 3568 OM OM1 3568 -0.550000 15.99940
3569 OM 3569 OM OM1 3569 -0.550000 15.99940
3570 OM 3570 OM OM1 3570 -0.550000 15.99940
3571 OM 3571 OM OM1 3571 -0.550000 15.99940
3572 OM 3572 OM OM1 3572 -0.550000 15.99940
3573 OM 3573 OM OM1 3573 -0.550000 15.99940
3574 OM 3574 OM OM1 3574 -0.550000 15.99940
3575 OM 3575 OM OM1 3575 -0.550000 15.99940
3576 OM 3576 OM OM1 3576 -0.550000 15.99940
3577 OM 3577 OM OM1 3577 -0.550000 15.99940
3578 OM 3578 OM OM1 3578 -0.550000 15.99940
3579 OM 3579 OM OM1 3579 -0.550000 15.99940
3580 OM 3580 OM OM1 3580 -0.550000 15.99940
3581 OM 3581 OM OM1 3581 -0.550000 15.99940
3582 OM 3582 OM OM1 3582 -0.550000 15.99940
3583 OM 3583 OM OM1 3583 -0.550000 15.99940
3584 OM 3584 OM OM1 3584 -0.550000 15.99940
3585 OM 3585 OM OM1 3585 -0.550000 15.99940
3586 OM 3586 OM OM1 3586 -0.550000 15.99940
3587 OM 3587 OM OM1 3587 -0.550000 15.99940
3588 OM 3588 OM OM1 3588 -0.550000 15.99940
3589 OM 3589 OM OM1 3589 -0.550000 15.99940
3590 OM 3590 OM OM1 3590 -0.550000 15.99940
3591 OM 3591 OM OM1 3591 -0.550000 15.99940
3592 OM 3592 OM OM1 3592 -0.550000 15.99940
3593 OM 3593 OM OM1 3593 -0.550000 15.99940
3594 OM 3594 OM OM1 3594 -0.550000 15.99940
3595 OM 3595 OM OM1 3595 -0.550000 15.99940
3596 OM 3596 OM OM1 3596 -0.550000 15.99940
3597 OM 3597 OM OM1 3597 -0.550000 15.99940
3598 OM 3598 OM OM1 3598 -0.550000 15.99940
3599 OM 3599 OM OM1 3599 -0.550000 15.99940
3600 OM 3600 OM OM1 3600 -0.550000 15.99940
3601 OM 3601 OM OM1 3601 -0.550000 15.99940
3602 OM 3602 OM OM1 3602 -0.550000 15.99940
3603 OM 3603 OM OM1 3603 -0.550000 15.99940
3604 OM 3604 OM OM1 3604 -0.550000 15.99940
3605 OM 3605 OM OM1 3605 -0.550000 15.99940
3606 OM 3606 OM OM1 3606 -0.550000 15.99940
3607 OM 3607 OM OM1 3607 -0.550000 15.99940
3608 OM 3608 OM OM1 3608 -0.550000 15.99940
3609 OM 3609 OM OM1 3609 -0.550000 15.99940
3610 OM 3610 OM OM1 3610 -0.550000 15.99940
3611 OM 3611 OM OM1 3611 -0.550000 15.99940
3612 OM 3612 OM OM1 3612 -0.550000 15.99940
3613 OM 3613 OM OM1 3613 -0.550000 15.99940
3614 OM 3614 OM OM1 3614 -0.550000 15.99940
3615 OM 3615 OM OM1 3615 -0.550000 15.99940
3616 OM 3616 OM OM1 3616 -0.550000 15.99940
3617 OM 3617 OM OM1 3617 -0.550000 15.99940
3618 OM 3618 OM OM1 3618 -0.550000 15.99940
3619 OM 3619 OM OM1 3619 -0.550000 15.99940
3620 OM 3620 OM OM1 3620 -0.550000 15.99940
3621 OM 3621 OM OM1 3621 -0.550000 15.99940
3622 OM 3622 OM OM1 3622 -0.550000 15.99940
3623 OM 3623 OM OM1 3623 -0.550000 15.99940
3624 OM 3624 OM OM1 3624 -0.550000 15.99940
3625 OM 3625 OM OM1 3625 -0.550000 15.99940
3626 OM 3626 OM OM1 3626 -0.550000 15.99940
3627 OM 3627 OM OM1 3627 -0.550000 15.99940
3628 OM 3628 OM OM1 3628 -0.550000 15.99940
3629 OM 3629 OM OM1 3629 -0.550000 15.99940
3630 OM 3630 OM OM1 3630 -0.550000 15.99940
3631 OM 3631 OM OM1 3631 -0.550000 15.99940
3632 OM 3632 OM OM1 3632 -0.550000 15.99940
3633 OM 3633 OM OM1 3633 -0.550000 15.99940
3634 OM 3634 OM OM1 3634 -0.550000 15.99940
3635 OM 3635 OM OM1 3635 -0.550000 15.99940
3636 OM 3636 OM OM1 3636 -0.550000 15.99940
3637 OM 3637 OM OM1 3637 -0.550000 15.99940
3638 OM 3638 OM OM1 3638 -0.550000 15.99940
3639 OM 3639 OM OM1 3639 -0.550000 15.99940
3640 OM 3640 OM OM1 3640 -0.550000 15.99940
3641 OM 3641 OM OM1 3641 -0.550000 15.99940
3642 OM 3642 OM OM1 3642 -0.550000 15.99940
3643 OM 3643 OM OM1 3643 -0.550000 15.99940
3644 OM 3644 OM OM1 3644 -0.550000 15.99940
3645 OM 3645 OM OM1 3645 -0.550000 15.99940
3646 OM 3646 OM OM1 3646 -0.550000 15.99940
3647 OM 3647 OM OM1 3647 -0.550000 15.99940
3648 OM 3648 OM OM1 3648 -0.550000 15.99940
3649 OM 3649 OM OM1 3649 -0.550000 15.99940
3650 OM 3650 OM OM1 3650 -0.550000 15.99940
3651 OM 3651 OM OM1 3651 -0.550000 15.99940
3652 OM 3652 OM OM1 3652 -0.550000 15.99940
3653 OM 3653 OM OM1 3653 -0.550000 15.99940
3654 OM 3654 OM OM1 3654 -0.550000 15.99940
3655 OM 3655 OM OM1 3655 -0.550000 15.99940
3656 OM 3656 OM OM1 3656 -0.550000 15.99940
3657 OM 3657 OM OM1 3657 -0.550000 15.99940
3658 OM 3658 OM OM1 3658 -0.550000 15.99940
3659 OM 3659 OM OM1 3659 -0.550000 15.99940
3660 OM 3660 OM OM1 3660 -0.550000 15.99940
3661 OM 3661 OM OM1 3661 -0.550000 15.99940
3662 OM 3662 OM OM1 3662 -0.550000 15.99940
3663 OM 3663 OM OM1 3663 -0.550000 15.99940
3664 OM 3664 OM OM1 3664 -0.550000 15.99940
3665 OM 3665 OM OM1 3665 -0.550000 15.99940
3666 OM 3666 OM OM1 3666 -0.550000 15.99940
3667 OM 3667 OM OM1 3667 -0.550000 15.99940
3668 OM 3668 OM OM1 3668 -0.550000 15.99940
3669 OM 3669 OM OM1 3669 -0.550000 15.99940
3670 OM 3670 OM OM1 3670 -0.550000 15.99940
3671 OM 3671 OM OM1 3671 -0.550000 15.99940
3672 OM 3672 OM OM1 3672 -0.550000 15.99940
3673 OM 3673 OM OM1 3673 -0.550000 15.99940
3674 OM 3674 OM OM1 3674 -0.550000 15.99940
3675 OM 3675 OM OM1 3675 -0.550000 15.99940
3676 OM 3676 OM OM1 3676 -0.550000 15.99940
3677 OM 3677 OM OM1 3677 -0.550000 15.99940
3678 OM 3678 OM OM1 3678 -0.550000 15.99940
3679 OM 3679 OM OM1 3679 -0.550000 15.99940
3680 OM 3680 OM OM1 3680 -0.550000 15.99940
3681 OM 3681 OM OM1 3681 -0.550000 15.99940
3682 OM 3682 OM OM1 3682 -0.550000 15.99940
3683 OM 3683 OM OM1 3683 -0.550000 15.99940
3684 OM 3684 OM OM1 3684 -0.550000 15.99940
3685 OM 3685 OM OM1 3685 -0.550000 15.99940
3686 OM 3686 OM OM1 3686 -0.550000 15.99940
3687 OM 3687 OM OM1 3687 -0.550000 15.99940
3688 OM 3688 OM OM1 3688 -0.550000 15.99940
3689 OM 3689 OM OM1 3689 -0.550000 15.99940
3690 OM 3690 OM OM1 3690 -0.550000 15.99940
3691 OM 3691 OM OM1 3691 -0.550000 15.99940
3692 OM 3692 OM OM1 3692 -0.550000 15.99940
3693 OM 3693 OM OM1 3693 -0.550000 15.99940
3694 OM 3694 OM OM1 3694 -0.550000 15.99940
3695 OM 3695 OM OM1 3695 -0.550000 15.99940
3696 OM 3696 OM OM1 3696 -0.550000 15.99940
3697 OM 3697 OM OM1 3697 -0.550000 15.99940
3698 OM 3698 OM OM1 3698 -0.550000 15.99940
3699 OM 3699 OM OM1 3699 -0.550000 15.99940
3700 OM 3700 OM OM1 3700 -0.550000 15.99940
3701 OM 3701 OM OM1 3701 -0.550000 15.99940
3702 OM 3702 OM OM1 3702 -0.550000 15.99940
3703 OM 3703 OM OM1 3703 -0.550000 15.99940
3704 OM 3704 OM OM1 3704 -0.550000 15.99940
3705 OM 3705 OM OM1 3705 -0.550000 15.99940
3706 OM 3706 OM OM1 3706 -0.550000 15.99940
3707 OM 3707 OM OM1 3707 -0.550000 15.99940
3708 OM 3708 OM OM1 3708 -0.550000 15.99940
3709 OM 3709 OM OM1 3709 -0.550000 15.99940
3710 OM 3710 OM OM1 3710 -0.550000 15.99940
3711 OM 3711 OM OM1 3711 -0.550000 15.99940
3712 OM 3712 OM OM1 3712 -0.550000 15.99940
3713 OM 3713 OM OM1 3713 -0.550000 15.99940
3714 OM 3714 OM OM1 3714 -0.550000 15.99940
3715 OM 3715 OM OM1 3715 -0.550000 15.99940
3716 OM 3716 OM OM1 3716 -0.550000 15.99940
3717 OM 3717 OM OM1 3717 -0.550000 15.99940
3718 OM 3718 OM OM1 3718 -0.550000 15.99940
3719 OM 3719 OM OM1 3719 -0.550000 15.99940
3720 OM 3720 OM OM1 3720 -0.550000 15.99940
3721 OM 3721 OM OM1 3721 -0.550000 15.99940
3722 OM 3722 OM OM1 3722 -0.550000 15.99940
3723 OM 3723 OM OM1 3723 -0.550000 15.99940
3724 OM 3724 OM OM1 3724 -0.550000 15.99940
3725 OM 3725 OM OM1 3725 -0.550000 15.99940
3726 OM 3726 OM OM1 3726 -0.550000 15.99940
3727 OM 3727 OM OM1 3727 -0.550000 15.99940
3728 OM 3728 OM OM1 3728 -0.550000 15.99940
3729 OM 3729 OM OM1 3729 -0.550000 15.99940
3730 OM 3730 OM OM1 3730 -0.550000 15.99940
3731 OM 3731 OM OM1 3731 -0.550000 15.99940
3732 OM 3732 OM OM1 3732 -0.550000 15.99940
3733 OM 3733 OM OM1 3733 -0.550000 15.99940
3734 OM 3734 OM OM1 3734 -0.550000 15.99940
3735 OM 3735 OM OM1 3735 -0.550000 15.99940
3736 OM 3736 OM OM1 3736 -0.550000 15.99940
3737 OM 3737 OM OM1 3737 -0.550000 15.99940
3738 OM 3738 OM OM1 3738 -0.550000 15.99940
3739 OM 3739 OM OM1 3739 -0.550000 15.99940
3740 OM 3740 OM OM1 3740 -0.550000 15.99940
3741 OM 3741 OM OM1 3741 -0.550000 15.99940
3742 OM 3742 OM OM1 3742 -0.550000 15.99940
3743 OM 3743 OM OM1 3743 -0.550000 15.99940
3744 OM 3744 OM OM1 3744 -0.550000 15.99940
3745 OM 3745 OM OM1 3745 -0.550000 15.99940
3746 OM 3746 OM OM1 3746 -0.550000 15.99940
3747 OM 3747 OM OM1 3747 -0.550000 15.99940
3748 OM 3748 OM OM1 3748 -0.550000 15.99940
3749 OM 3749 OM OM1 3749 -0.550000 15.99940
3750 OM 3750 OM OM1 3750 -0.550000 15.99940
3751 OM 3751 OM OM1 3751 -0.550000 15.99940
3752 OM 3752 OM OM1 3752 -0.550000 15.99940
3753 OM 3753 OM OM1 3753 -0.550000 15.99940
3754 OM 3754 OM OM1 3754 -0.550000 15.99940
3755 OM 3755 OM OM1 3755 -0.550000 15.99940
3756 OM 3756 OM OM1 3756 -0.550000 15.99940
3757 OM 3757 OM OM1 3757 -0.550000 15.99940
3758 OM 3758 OM OM1 3758 -0.550000 15.99940
3759 OM 3759 OM OM1 3759 -0.550000 15.99940
3760 OM 3760 OM OM1 3760 -0.550000 15.99940
3761 OM 3761 OM OM1 3761 -0.550000 15.99940
3762 OM 3762 OM OM1 3762 -0.550000 15.99940
3763 OM 3763 OM OM1 3763 -0.550000 15.99940
3764 OM 3764 OM OM1 3764 -0.550000 15.99940
3765 OM 3765 OM OM1 3765 -0.550000 15.99940
3766 OM 3766 OM OM1 3766 -0.550000 15.99940
3767 OM 3767 OM OM1 3767 -0.550000 15.99940
3768 OM 3768 OM OM1 3768 -0.550000 15.99940
3769 OM 3769 OM OM1 3769 -0.550000 15.99940
3770 OM 3770 OM OM1 3770 -0.550000 15.99940
3771 OM 3771 OM OM1 3771 -0.550000 15.99940
3772 OM 3772 OM OM1 3772 -0.550000 15.99940
3773 OM 3773 OM OM1 3773 -0.550000 15.99940
3774 OM 3774 OM OM1 3774 -0.550000 15.99940
3775 OM 3775 OM OM1 3775 -0.550000 15.99940
3776 OM 3776 OM OM1 3776 -0.550000 15.99940
3777 OM 3777 OM OM1 3777 -0.550000 15.99940
3778 OM 3778 OM OM1 3778 -0.550000 15.99940
3779 OM 3779 OM OM1 3779 -0.550000 15.99940
3780 OM 3780 OM OM1 3780 -0.550000 15.99940
3781 OM 3781 OM OM1 3781 -0.550000 15.99940
3782 OM 3782 OM OM1 3782 -0.550000 15.99940
3783 OM 3783 OM OM1 3783 -0.550000 15.99940
3784 OM 3784 OM OM1 3784 -0.550000 15.99940
3785 OM 3785 OM OM1 3785 -0.550000 15.99940
3786 OM 3786 OM OM1 3786 -0.550000 15.99940
3787 OM 3787 OM OM1 3787 -0.550000 15.99940
3788 OM 3788 OM OM1 3788 -0.550000 15.99940
3789 OM 3789 OM OM1 3789 -0.550000 15.99940
3790 OM 3790 OM OM1 3790 -0.550000 15.99940
3791 OM 3791 OM OM1 3791 -0.550000 15.99940
3792 OM 3792 OM OM1 3792 -0.550000 15.99940
3793 OM 3793 OM OM1 3793 -0.550000 15.99940
3794 OM 3794 OM OM1 3794 -0.550000 15.99940
3795 OM 3795 OM OM1 3795 -0.550000 15.99940
3796 OM 3796 OM OM1 3796 -0.550000 15.99940
3797 OM 3797 OM OM1 3797 -0.550000 15.99940
3798 OM 3798 OM OM1 3798 -0.550000 15.99940
3799 OM 3799 OM OM1 3799 -0.550000 15.99940
3800 OM 3800 OM OM1 3800 -0.550000 15.99940
3801 OM 3801 OM OM1 3801 -0.550000 15.99940
3802 OM 3802 OM OM1 3802 -0.550000 15.99940
3803 OM 3803 OM OM1 3803 -0.550000 15.99940
3804 OM 3804 OM OM1 3804 -0.550000 15.99940
3805 OM 3805 OM OM1 3805 -0.550000 15.99940
3806 OM 3806 OM OM1 3806 -0.550000 15.99940
3807 OM 3807 OM OM1 3807 -0.550000 15.99940
3808 OM 3808 OM OM1 3808 -0.550000 15.99940
3809 OM 3809 OM OM1 3809 -0.550000 15.99940
3810 OM 3810 OM OM1 3810 -0.550000 15.99940
3811 OM 3811 OM OM1 3811 -0.550000 15.99940
3812 OM 3812 OM OM1 3812 -0.550000 15.99940
3813 OM 3813 OM OM1 3813 -0.550000 15.99940
3814 OM 3814 OM OM1 3814 -0.550000 15.99940
3815 OM 3815 OM OM1 3815 -0.550000 15.99940
3816 OM 3816 OM OM1 3816 -0.550000 15.99940
3817 OM 3817 OM OM1 3817 -0.550000 15.99940
3818 OM 3818 OM OM1 3818 -0.550000 15.99940
3819 OM 3819 OM OM1 3819 -0.550000 15.99940
3820 OM 3820 OM OM1 3820 -0.550000 15.99940
3821 OM 3821 OM OM1 3821 -0.550000 15.99940
3822 OM 3822 OM OM1 3822 -0.550000 15.99940
3823 OM 3823 OM OM1 3823 -0.550000 15.99940
3824 OM 3824 OM OM1 3824 -0.550000 15.99940
3825 OM 3825 OM OM1 3825 -0.550000 15.99940
3826 OM 3826 OM OM1 3826 -0.550000 15.99940
3827 OM 3827 OM OM1 3827 -0.550000 15.99940
3828 OM 3828 OM OM1 3828 -0.550000 15.99940
3829 OM 3829 OM OM1 3829 -0.550000 15.99940
3830 OM 3830 OM OM1 3830 -0.550000 15.99940
3831 OM 3831 OM OM1 3831 -0.550000 15.99940
3832 OM 3832 OM OM1 3832 -0.550000 15.99940
3833 OM 3833 OM OM1 3833 -0.550000 15.99940
3834 OM 3834 OM OM1 3834 -0.550000 15.99940
3835 OM 3835 OM OM1 3835 -0.550000 15.99940
3836 OM 3836 OM OM1 3836 -0.550000 15.99940
3837 OM 3837 OM OM1 3837 -0.550000 15.99940
3838 OM 3838 OM OM1 3838 -0.550000 15.99940
3839 OM 3839 OM OM1 3839 -0.550000 15.99940
3840 OM 3840 OM OM1 3840 -0.550000 15.99940
3841 OM 3841 OM OM1 3841 -0.550000 15.99940
3842 OM 3842 OM OM1 3842 -0.550000 15.99940
3843 OM 3843 OM OM1 3843 -0.550000 15.99940
3844 OM 3844 OM OM1 3844 -0.550000 15.99940
3845 OM 3845 OM OM1 3845 -0.550000 15.99940
3846 OM 3846 OM OM1 3846 -0.550000 15.99940
3847 OM 3847 OM OM1 3847 -0.550000 15.99940
3848 OM 3848 OM OM1 3848 -0.550000 15.99940
3849 OM 3849 OM OM1 3849 -0.550000 15.99940
3850 OM 3850 OM OM1 3850 -0.550000 15.99940
3851 OM 3851 OM OM1 3851 -0.550000 15.99940
3852 OM 3852 OM OM1 3852 -0.550000 15.99940
3853 OM 3853 OM OM1 3853 -0.550000 15.99940
3854 OM 3854 OM OM1 3854 -0.550000 15.99940
3855 OM 3855 OM OM1 3855 -0.550000 15.99940
3856 OM 3856 OM OM1 3856 -0.550000 15.99940
3857 OM 3857 OM OM1 3857 -0.550000 15.99940
3858 OM 3858 OM OM1 3858 -0.550000 15.99940
3859 OM 3859 OM OM1 3859 -0.550000 15.99940
3860 OM 3860 OM OM1 3860 -0.550000 15.99940
3861 OM 3861 OM OM1 3861 -0.550000 15.99940
3862 OM 3862 OM OM1 3862 -0.550000 15.99940
3863 OM 3863 OM OM1 3863 -0.550000 15.99940
3864 OM 3864 OM OM1 3864 -0.550000 15.99940
3865 OM 3865 OM OM1 3865 -0.550000 15.99940
3866 OM 3866 OM OM1 3866 -0.550000 15.99940
3867 OM 3867 OM OM1 3867 -0.550000 15.99940
3868 OM 3868 OM OM1 3868 -0.550000 15.99940
3869 OM 3869 OM OM1 3869 -0.550000 15.99940
3870 OM 3870 OM OM1 3870 -0.550000 15.99940
3871 OM 3871 OM OM1 3871 -0.550000 15.99940
3872 OM 3872 OM OM1 3872 -0.550000 15.99940
3873 OM 3873 OM OM1 3873 -0.550000 15.99940
3874 OM 3874 OM OM1 3874 -0.550000 15.99940
3875 OM 3875 OM OM1 3875 -0.550000 15.99940
3876 OM 3876 OM OM1 3876 -0.550000 15.99940
3877 OM 3877 OM OM1 3877 -0.550000 15.99940
3878 OM 3878 OM OM1 3878 -0.550000 15.99940
3879 OM 3879 OM OM1 3879 -0.550000 15.99940
3880 OM 3880 OM OM1 3880 -0.550000 15.99940
3881 OM 3881 OM OM1 3881 -0.550000 15.99940
3882 OM 3882 OM OM1 3882 -0.550000 15.99940
3883 OM 3883 OM OM1 3883 -0.550000 15.99940
3884 OM 3884 OM OM1 3884 -0.550000 15.99940
3885 OM 3885 OM OM1 3885 -0.550000 15.99940
3886 OM 3886 OM OM1 3886 -0.550000 15.99940
3887 OM 3887 OM OM1 3887 -0.550000 15.99940
3888 OM 3888 OM OM1 3888 -0.550000 15.99940
3889 OM 3889 OM OM1 3889 -0.550000 15.99940
3890 OM 3890 OM OM1 3890 -0.550000 15.99940
3891 OM 3891 OM OM1 3891 -0.550000 15.99940
3892 OM 3892 OM OM1 3892 -0.550000 15.99940
3893 OM 3893 OM OM1 3893 -0.550000 15.99940
3894 OM 3894 OM OM1 3894 -0.550000 15.99940
3895 OM 3895 OM OM1 3895 -0.550000 15.99940
3896 OM 3896 OM OM1 3896 -0.550000 15.99940
3897 OM 3897 OM OM1 3897 -0.550000 15.99940
3898 OM 3898 OM OM1 3898 -0.550000 15.99940
3899 OM 3899 OM OM1 3899 -0.550000 15.99940
3900 OM 3900 OM OM1 3900 -0.550000 15.99940
3901 OM 3901 OM OM1 3901 -0.550000 15.99940
3902 OM 3902 OM OM1 3902 -0.550000 15.99940
3903 OM 3903 OM OM1 3903 -0.550000 15.99940
3904 OM 3904 OM OM1 3904 -0.550000 15.99940
3905 OM 3905 OM OM1 3905 -0.550000 15.99940
3906 OM 3906 OM OM1 3906 -0.550000 15.99940
3907 OM 3907 OM OM1 3907 -0.550000 15.99940
3908 OM 3908 OM OM1 3908 -0.550000 15.99940
3909 OM 3909 OM OM1 3909 -0.550000 15.99940
3910 OM 3910 OM OM1 3910 -0.550000 15.99940
3911 OM 3911 OM OM1 3911 -0.550000 15.99940
3912 OM 3912 OM OM1 3912 -0.550000 15.99940
3913 OM 3913 OM OM1 3913 -0.550000 15.99940
3914 OM 3914 OM OM1 3914 -0.550000 15.99940
3915 OM 3915 OM OM1 3915 -0.550000 15.99940
3916 OM 3916 OM OM1 3916 -0.550000 15.99940
3917 OM 3917 OM OM1 3917 -0.550000 15.99940
3918 OM 3918 OM OM1 3918 -0.550000 15.99940
3919 OM 3919 OM OM1 3919 -0.550000 15.99940
3920 OM 3920 OM OM1 3920 -0.550000 15.99940
3921 OM 3921 OM OM1 3921 -0.550000 15.99940
3922 OM 3922 OM OM1 3922 -0.550000 15.99940
3923 OM 3923 OM OM1 3923 -0.550000 15.99940
3924 OM 3924 OM OM1 3924 -0.550000 15.99940
3925 OM 3925 OM OM1 3925 -0.550000 15.99940
3926 OM 3926 OM OM1 3926 -0.550000 15.99940
3927 OM 3927 OM OM1 3927 -0.550000 15.99940
3928 OM 3928 OM OM1 3928 -0.550000 15.99940
3929 OM 3929 OM OM1 3929 -0.550000 15.99940
3930 OM 3930 OM OM1 3930 -0.550000 15.99940
3931 OM 3931 OM OM1 3931 -0.550000 15.99940
3932 OM 3932 OM OM1 3932 -0.550000 15.99940
3933 OM 3933 OM OM1 3933 -0.550000 15.99940
3934 OM 3934 OM OM1 3934 -0.550000 15.99940
3935 OM 3935 OM OM1 3935 -0.550000 15.99940
3936 OM 3936 OM OM1 3936 -0.550000 15.99940
3937 OM 3937 OM OM1 3937 -0.550000 15.99940
3938 OM 3938 OM OM1 3938 -0.550000 15.99940
3939 OM 3939 OM OM1 3939 -0.550000 15.99940
3940 OM 3940 OM OM1 3940 -0.550000 15.99940
3941 OM 3941 OM OM1 3941 -0.550000 15.99940
3942 OM 3942 OM OM1 3942 -0.550000 15.99940
3943 OM 3943 OM OM1 3943 -0.550000 15.99940
3944 OM 3944 OM OM1 3944 -0.550000 15.99940
3945 OM 3945 OM OM1 3945 -0.550000 15.99940
3946 OM 3946 OM OM1 3946 -0.550000 15.99940
3947 OM 3947 OM OM1 3947 -0.550000 15.99940
3948 OM 3948 OM OM1 3948 -0.550000 15.99940
3949 OM 3949 OM OM1 3949 -0.550000 15.99940
3950 OM 3950 OM OM1 3950 -0.550000 15.99940
3951 OM 3951 OM OM1 3951 -0.550000 15.99940
3952 OM 3952 OM OM1 3952 -0.550000 15.99940
3953 OM 3953 OM OM1 3953 -0.550000 15.99940
3954 OM 3954 OM OM1 3954 -0.550000 15.99940
3955 OM 3955 OM OM1 3955 -0.550000 15.99940
3956 OM 3956 OM OM1 3956 -0.550000 15.99940
3957 OM 3957 OM OM1 3957 -0.550000 15.99940
3958 OM 3958 OM OM1 3958 -0.550000 15.99940
3959 OM 3959 OM OM1 3959 -0.550000 15.99940
3960 OM 3960 OM OM1 3960 -0.550000 15.99940
3961 OM 3961 OM OM1 3961 -0.550000 15.99940
3962 OM 3962 OM OM1 3962 -0.550000 15.99940
3963 OM 3963 OM OM1 3963 -0.550000 15.99940
3964 OM 3964 OM OM1 3964 -0.550000 15.99940
3965 OM 3965 OM OM1 3965 -0.550000 15.99940
3966 OM 3966 OM OM1 3966 -0.550000 15.99940
3967 OM 3967 OM OM1 3967 -0.550000 15.99940
3968 OM 3968 OM OM1 3968 -0.550000 15.99940
3969 OM 3969 OM OM1 3969 -0.550000 15.99940
3970 OM 3970 OM OM1 3970 -0.550000 15.99940
3971 OM 3971 OM OM1 3971 -0.550000 15.99940
3972 OM 3972 OM OM1 3972 -0.550000 15.99940
3973 OM 3973 OM OM1 3973 -0.550000 15.99940
3974 OM 3974 OM OM1 3974 -0.550000 15.99940
3975 OM 3975 OM OM1 3975 -0.550000 15.99940
3976 OM 3976 OM OM1 3976 -0.550000 15.99940
3977 OM 3977 OM OM1 3977 -0.550000 15.99940
3978 OM 3978 OM OM1 3978 -0.550000 15.99940
3979 OM 3979 OM OM1 3979 -0.550000 15.99940
3980 OM 3980 OM OM1 3980 -0.550000 15.99940
3981 OM 3981 OM OM1 3981 -0.550000 15.99940
3982 OM 3982 OM OM1 3982 -0.550000 15.99940
3983 OM 3983 OM OM1 3983 -0.550000 15.99940
3984 OM 3984 OM OM1 3984 -0.550000 15.99940
3985 OM 3985 OM OM1 3985 -0.550000 15.99940
3986 OM 3986 OM OM1 3986 -0.550000 15.99940
3987 OM 3987 OM OM1 3987 -0.550000 15.99940
3988 OM 3988 OM OM1 3988 -0.550000 15.99940
3989 OM 3989 OM OM1 3989 -0.550000 15.99940
3990 OM 3990 OM OM1 3990 -0.550000 15.99940
3991 OM 3991 OM OM1 3991 -0.550000 15.99940
3992 OM 3992 OM OM1 3992 -0.550000 15.99940
3993 OM 3993 OM OM1 3993 -0.550000 15.99940
3994 OM 3994 OM OM1 3994 -0.550000 15.99940
3995 OM 3995 OM OM1 3995 -0.550000 15.99940
3996 OM 3996 OM OM1 3996 -0.550000 15.99940
3997 OM 3997 OM OM1 3997 -0.550000 15.99940
3998 OM 3998 OM OM1 3998 -0.550000 15.99940
3999 OM 3999 OM OM1 3999 -0.550000 15.99940
4000 OM 4000 OM OM1 4000 -0.550000 15.99940
4001 OM 4001 OM OM1 4001 -0.550000 15.99940
4002 OM 4002 OM OM1 4002 -0.550000 15.99940
4003 OM 4003 OM OM1 4003 -0.550000 15.99940
4004 OM 4004 OM OM1 4004 -0.550000 15.99940
4005 OM 4005 OM OM1 4005 -0.550000 15.99940
4006 OM 4006 OM OM1 4006 -0.550000 15.99940
4007 OM 4007 OM OM1 4007 -0.550000 15.99940
4008 OM 4008 OM OM1 4008 -0.550000 15.99940
4009 OM 4009 OM OM1 4009 -0.550000 15.99940
4010 OM 4010 OM OM1 4010 -0.550000 15.99940
4011 OM 4011 OM OM1 4011 -0.550000 15.99940
4012 OM 4012 OM OM1 4012 -0.550000 15.99940
4013 OM 4013 OM OM1 4013 -0.550000 15.99940
4014 OM 4014 OM OM1 4014 -0.550000 15.99940
4015 OM 4015 OM OM1 4015 -0.550000 15.99940
4016 OM 4016 OM OM1 4016 -0.550000 15.99940
4017 OM 4017 OM OM1 4017 -0.550000 15.99940
4018 OM 4018 OM OM1 4018 -0.550000 15.99940
4019 OM 4019 OM OM1 4019 -0.550000 15.99940
4020 OM 4020 OM OM1 4020 -0.550000 15.99940
4021 OM 4021 OM OM1 4021 -0.550000 15.99940
4022 OM 4022 OM OM1 4022 -0.550000 15.99940
4023 OM 4023 OM OM1 4023 -0.550000 15.99940
4024 OM 4024 OM OM1 4024 -0.550000 15.99940
4025 OM 4025 OM OM1 4025 -0.550000 15.99940
4026 OM 4026 OM OM1 4026 -0.550000 15.99940
4027 OM 4027 OM OM1 4027 -0.550000 15.99940
4028 OM 4028 OM OM1 4028 -0.550000 15.99940
4029 OM 4029 OM OM1 4029 -0.550000 15.99940
4030 OM 4030 OM OM1 4030 -0.550000 15.99940
4031 OM 4031 OM OM1 4031 -0.550000 15.99940
4032 OM 4032 OM OM1 4032 -0.550000 15.99940
4033 OM 4033 OM OM1 4033 -0.550000 15.99940
4034 OM 4034 OM OM1 4034 -0.550000 15.99940
4035 OM 4035 OM OM1 4035 -0.550000 15.99940
4036 OM 4036 OM OM1 4036 -0.550000 15.99940
4037 OM 4037 OM OM1 4037 -0.550000 15.99940
4038 OM 4038 OM OM1 4038 -0.550000 15.99940
4039 OM 4039 OM OM1 4039 -0.550000 15.99940
4040 OM 4040 OM OM1 4040 -0.550000 15.99940
4041 OM 4041 OM OM1 4041 -0.550000 15.99940
4042 OM 4042 OM OM1 4042 -0.550000 15.99940
4043 OM 4043 OM OM1 4043 -0.550000 15.99940
4044 OM 4044 OM OM1 4044 -0.550000 15.99940
4045 OM 4045 OM OM1 4045 -0.550000 15.99940
4046 OM 4046 OM OM1 4046 -0.550000 15.99940
4047 OM 4047 OM OM1 4047 -0.550000 15.99940
4048 OM 4048 OM OM1 4048 -0.550000 15.99940
4049 OM 4049 OM OM1 4049 -0.550000 15.99940
4050 OM 4050 OM OM1 4050 -0.550000 15.99940
4051 OM 4051 OM OM1 4051 -0.550000 15.99940
4052 OM 4052 OM OM1 4052 -0.550000 15.99940
4053 OM 4053 OM OM1 4053 -0.550000 15.99940
4054 OM 4054 OM OM1 4054 -0.550000 15.99940
4055 OM 4055 OM OM1 4055 -0.550000 15.99940
4056 OM 4056 OM OM1 4056 -0.550000 15.99940
4057 OM 4057 OM OM1 4057 -0.550000 15.99940
4058 OM 4058 OM OM1 4058 -0.550000 15.99940
4059 OM 4059 OM OM1 4059 -0.550000 15.99940
4060 OM 4060 OM OM1 4060 -0.550000 15.99940
4061 OM 4061 OM OM1 4061 -0.550000 15.99940
4062 OM 4062 OM OM1 4062 -0.550000 15.99940
4063 OM 4063 OM OM1 4063 -0.550000 15.99940
4064 OM 4064 OM OM1 4064 -0.550000 15.99940
4065 OM 4065 OM OM1 4065 -0.550000 15.99940
4066 OM 4066 OM OM1 4066 -0.550000 15.99940
4067 OM 4067 OM OM1 4067 -0.550000 15.99940
4068 OM 4068 OM OM1 4068 -0.550000 15.99940
4069 OM 4069 OM OM1 4069 -0.550000 15.99940
4070 OM 4070 OM OM1 4070 -0.550000 15.99940
4071 OM 4071 OM OM1 4071 -0.550000 15.99940
4072 OM 4072 OM OM1 4072 -0.550000 15.99940
4073 OM 4073 OM OM1 4073 -0.550000 15.99940
4074 OM 4074 OM OM1 4074 -0.550000 15.99940
4075 OM 4075 OM OM1 4075 -0.550000 15.99940
4076 OM 4076 OM OM1 4076 -0.550000 15.99940
4077 OM 4077 OM OM1 4077 -0.550000 15.99940
4078 OM 4078 OM OM1 4078 -0.550000 15.99940
4079 OM 4079 OM OM1 4079 -0.550000 15.99940
4080 OM 4080 OM OM1 4080 -0.550000 15.99940
4081 OM 4081 OM OM1 4081 -0.550000 15.99940
4082 OM 4082 OM OM1 4082 -0.550000 15.99940
4083 OM 4083 OM OM1 4083 -0.550000 15.99940
4084 OM 4084 OM OM1 4084 -0.550000 15.99940
4085 OM 4085 OM OM1 4085 -0.550000 15.99940
4086 OM 4086 OM OM1 4086 -0.550000 15.99940
4087 OM 4087 OM OM1 4087 -0.550000 15.99940
4088 OM 4088 OM OM1 4088 -0.550000 15.99940
4089 OM 4089 OM OM1 4089 -0.550000 15.99940
4090 OM 4090 OM OM1 4090 -0.550000 15.99940
4091 OM 4091 OM OM1 4091 -0.550000 15.99940
4092 OM 4092 OM OM1 4092 -0.550000 15.99940
4093 OM 4093 OM OM1 4093 -0.550000 15.99940
4094 OM 4094 OM OM1 4094 -0.550000 15.99940
4095 OM 4095 OM OM1 4095 -0.550000 15.99940
4096 OM 4096 OM OM1 4096 -0.550000 15.99940
4097 OM 4097 OM OM1 4097 -0.550000 15.99940
4098 OM 4098 OM OM1 4098 -0.550000 15.99940
4099 OM 4099 OM OM1 4099 -0.550000 15.99940
4100 OM 4100 OM OM1 4100 -0.550000 15.99940
4101 OM 4101 OM OM1 4101 -0.550000 15.99940
4102 OM 4102 OM OM1 4102 -0.550000 15.99940
4103 OM 4103 OM OM1 4103 -0.550000 15.99940
4104 OM 4104 OM OM1 4104 -0.550000 15.99940
4105 OM 4105 OM OM1 4105 -0.550000 15.99940
4106 OM 4106 OM OM1 4106 -0.550000 15.99940
4107 OM 4107 OM OM1 4107 -0.550000 15.99940
4108 OM 4108 OM OM1 4108 -0.550000 15.99940
4109 OM 4109 OM OM1 4109 -0.550000 15.99940
4110 OM 4110 OM OM1 4110 -0.550000 15.99940
4111 OM 4111 OM OM1 4111 -0.550000 15.99940
4112 OM 4112 OM OM1 4112 -0.550000 15.99940
4113 OM 4113 OM OM1 4113 -0.550000 15.99940
4114 OM 4114 OM OM1 4114 -0.550000 15.99940
4115 OM 4115 OM OM1 4115 -0.550000 15.99940
4116 OM 4116 OM OM1 4116 -0.550000 15.99940
4117 OM 4117 OM OM1 4117 -0.550000 15.99940
4118 OM 4118 OM OM1 4118 -0.550000 15.99940
4119 OM 4119 OM OM1 4119 -0.550000 15.99940
4120 OM 4120 OM OM1 4120 -0.550000 15.99940
4121 OM 4121 OM OM1 4121 -0.550000 15.99940
4122 OM 4122 OM OM1 4122 -0.550000 15.99940
4123 OM 4123 OM OM1 4123 -0.550000 15.99940
4124 OM 4124 OM OM1 4124 -0.550000 15.99940
4125 OM 4125 OM OM1 4125 -0.550000 15.99940
4126 OM 4126 OM OM1 4126 -0.550000 15.99940
4127 OM 4127 OM OM1 4127 -0.550000 15.99940
4128 OM 4128 OM OM1 4128 -0.550000 15.99940
4129 OM 4129 OM OM1 4129 -0.550000 15.99940
4130 OM 4130 OM OM1 4130 -0.550000 15.99940
4131 OM 4131 OM OM1 4131 -0.550000 15.99940
4132 OM 4132 OM OM1 4132 -0.550000 15.99940
4133 OM 4133 OM OM1 4133 -0.550000 15.99940
4134 OM 4134 OM OM1 4134 -0.550000 15.99940
4135 OM 4135 OM OM1 4135 -0.550000 15.99940
4136 OM 4136 OM OM1 4136 -0.550000 15.99940
4137 OM 4137 OM OM1 4137 -0.550000 15.99940
4138 OM 4138 OM OM1 4138 -0.550000 15.99940
4139 OM 4139 OM OM1 4139 -0.550000 15.99940
4140 OM 4140 OM OM1 4140 -0.550000 15.99940
4141 OM 4141 OM OM1 4141 -0.550000 15.99940
4142 OM 4142 OM OM1 4142 -0.550000 15.99940
4143 OM 4143 OM OM1 4143 -0.550000 15.99940
4144 OM 4144 OM OM1 4144 -0.550000 15.99940
4145 OM 4145 OM OM1 4145 -0.550000 15.99940
4146 OM 4146 OM OM1 4146 -0.550000 15.99940
4147 OM 4147 OM OM1 4147 -0.550000 15.99940
4148 OM 4148 OM OM1 4148 -0.550000 15.99940
4149 OM 4149 OM OM1 4149 -0.550000 15.99940
4150 OM 4150 OM OM1 4150 -0.550000 15.99940
4151 OM 4151 OM OM1 4151 -0.550000 15.99940
4152 OM 4152 OM OM1 4152 -0.550000 15.99940
4153 OM 4153 OM OM1 4153 -0.550000 15.99940
4154 OM 4154 OM OM1 4154 -0.550000 15.99940
4155 OM 4155 OM OM1 4155 -0.550000 15.99940
4156 OM 4156 OM OM1 4156 -0.550000 15.99940
4157 OM 4157 OM OM1 4157 -0.550000 15.99940
4158 OM 4158 OM OM1 4158 -0.550000 15.99940
4159 OM 4159 OM OM1 4159 -0.550000 15.99940
4160 OM 4160 OM OM1 4160 -0.550000 15.99940
4161 OM 4161 OM OM1 4161 -0.550000 15.99940
4162 OM 4162 OM OM1 4162 -0.550000 15.99940
4163 OM 4163 OM OM1 4163 -0.550000 15.99940
4164 OM 4164 OM OM1 4164 -0.550000 15.99940
4165 OM 4165 OM OM1 4165 -0.550000 15.99940
4166 OM 4166 OM OM1 4166 -0.550000 15.99940
4167 OM 4167 OM OM1 4167 -0.550000 15.99940
4168 OM 4168 OM OM1 4168 -0.550000 15.99940
4169 OM 4169 OM OM1 4169 -0.550000 15.99940
4170 OM 4170 OM OM1 4170 -0.550000 15.99940
4171 OM 4171 OM OM1 4171 -0.550000 15.99940
4172 OM 4172 OM OM1 4172 -0.550000 15.99940
4173 OM 4173 OM OM1 4173 -0.550000 15.99940
4174 OM 4174 OM OM1 4174 -0.550000 15.99940
4175 OM 4175 OM OM1 4175 -0.550000 15.99940
4176 OM 4176 OM OM1 4176 -0.550000 15.99940
4177 OM 4177 OM OM1 4177 -0.550000 15.99940
4178 OM 4178 OM OM1 4178 -0.550000 15.99940
4179 OM 4179 OM OM1 4179 -0.550000 15.99940
4180 OM 4180 OM OM1 4180 -0.550000 15.99940
4181 OM 4181 OM OM1 4181 -0.550000 15.99940
4182 OM 4182 OM OM1 4182 -0.550000 15.99940
4183 OM 4183 OM OM1 4183 -0.550000 15.99940
4184 OM 4184 OM OM1 4184 -0.550000 15.99940
4185 OM 4185 OM OM1 4185 -0.550000 15.99940
4186 OM 4186 OM OM1 4186 -0.550000 15.99940
4187 OM 4187 OM OM1 4187 -0.550000 15.99940
4188 OM 4188 OM OM1 4188 -0.550000 15.99940
4189 OM 4189 OM OM1 4189 -0.550000 15.99940
4190 OM 4190 OM OM1 4190 -0.550000 15.99940
4191 OM 4191 OM OM1 4191 -0.550000 15.99940
4192 OM 4192 OM OM1 4192 -0.550000 15.99940
4193 OM 4193 OM OM1 4193 -0.550000 15.99940
4194 OM 4194 OM OM1 4194 -0.550000 15.99940
4195 OM 4195 OM OM1 4195 -0.550000 15.99940
4196 OM 4196 OM OM1 4196 -0.550000 15.99940
4197 OM 4197 OM OM1 4197 -0.550000 15.99940
4198 OM 4198 OM OM1 4198 -0.550000 15.99940
4199 OM 4199 OM OM1 4199 -0.550000 15.99940
4200 OM 4200 OM OM1 4200 -0.550000 15.99940
4201 OM 4201 OM OM1 4201 -0.550000 15.99940
4202 OM 4202 OM OM1 4202 -0.550000 15.99940
4203 OM 4203 OM OM1 4203 -0.550000 15.99940
4204 OM 4204 OM OM1 4204 -0.550000 15.99940
4205 OM 4205 OM OM1 4205 -0.550000 15.99940
4206 OM 4206 OM OM1 4206 -0.550000 15.99940
4207 OM 4207 OM OM1 4207 -0.550000 15.99940
4208 OM 4208 OM OM1 4208 -0.550000 15.99940
4209 OM 4209 OM OM1 4209 -0.550000 15.99940
4210 OM 4210 OM OM1 4210 -0.550000 15.99940
4211 OM 4211 OM OM1 4211 -0.550000 15.99940
4212 OM 4212 OM OM1 4212 -0.550000 15.99940
4213 OM 4213 OM OM1 4213 -0.550000 15.99940
4214 OM 4214 OM OM1 4214 -0.550000 15.99940
4215 OM 4215 OM OM1 4215 -0.550000 15.99940
4216 OM 4216 OM OM1 4216 -0.550000 15.99940
4217 OM 4217 OM OM1 4217 -0.550000 15.99940
4218 OM 4218 OM OM1 4218 -0.550000 15.99940
4219 OM 4219 OM OM1 4219 -0.550000 15.99940
4220 OM 4220 OM OM1 4220 -0.550000 15.99940
4221 OM 4221 OM OM1 4221 -0.550000 15.99940
4222 OM 4222 OM OM1 4222 -0.550000 15.99940
4223 OM 4223 OM OM1 4223 -0.550000 15.99940
4224 OM 4224 OM OM1 4224 -0.550000 15.99940
4225 OM 4225 OM OM1 4225 -0.550000 15.99940
4226 OM 4226 OM OM1 4226 -0.550000 15.99940
4227 OM 4227 OM OM1 4227 -0.550000 15.99940
4228 OM 4228 OM OM1 4228 -0.550000 15.99940
4229 OM 4229 OM OM1 4229 -0.550000 15.99940
4230 OM 4230 OM OM1 4230 -0.550000 15.99940
4231 OM 4231 OM OM1 4231 -0.550000 15.99940
4232 OM 4232 OM OM1 4232 -0.550000 15.99940
4233 OM 4233 OM OM1 4233 -0.550000 15.99940
4234 OM 4234 OM OM1 4234 -0.550000 15.99940
4235 OM 4235 OM OM1 4235 -0.550000 15.99940
4236 OM 4236 OM OM1 4236 -0.550000 15.99940
4237 OM 4237 OM OM1 4237 -0.550000 15.99940
4238 OM 4238 OM OM1 4238 -0.550000 15.99940
4239 OM 4239 OM OM1 4239 -0.550000 15.99940
4240 OM 4240 OM OM1 4240 -0.550000 15.99940
4241 OM 4241 OM OM1 4241 -0.550000 15.99940
4242 OM 4242 OM OM1 4242 -0.550000 15.99940
4243 OM 4243 OM OM1 4243 -0.550000 15.99940
4244 OM 4244 OM OM1 4244 -0.550000 15.99940
4245 OM 4245 OM OM1 4245 -0.550000 15.99940
4246 OM 4246 OM OM1 4246 -0.550000 15.99940
4247 OM 4247 OM OM1 4247 -0.550000 15.99940
4248 OM 4248 OM OM1 4248 -0.550000 15.99940
4249 OM 4249 OM OM1 4249 -0.550000 15.99940
4250 OM 4250 OM OM1 4250 -0.550000 15.99940
4251 OM 4251 OM OM1 4251 -0.550000 15.99940
4252 OM 4252 OM OM1 4252 -0.550000 15.99940
4253 OM 4253 OM OM1 4253 -0.550000 15.99940
4254 OM 4254 OM OM1 4254 -0.550000 15.99940
4255 OM 4255 OM OM1 4255 -0.550000 15.99940
4256 OM 4256 OM OM1 4256 -0.550000 15.99940
4257 OM 4257 OM OM1 4257 -0.550000 15.99940
4258 OM 4258 OM OM1 4258 -0.550000 15.99940
4259 OM 4259 OM OM1 4259 -0.550000 15.99940
4260 OM 4260 OM OM1 4260 -0.550000 15.99940
4261 OM 4261 OM OM1 4261 -0.550000 15.99940
4262 OM 4262 OM OM1 4262 -0.550000 15.99940
4263 OM 4263 OM OM1 4263 -0.550000 15.99940
4264 OM 4264 OM OM1 4264 -0.550000 15.99940
4265 OM 4265 OM OM1 4265 -0.550000 15.99940
4266 OM 4266 OM OM1 4266 -0.550000 15.99940
4267 OM 4267 OM OM1 4267 -0.550000 15.99940
4268 OM 4268 OM OM1 4268 -0.550000 15.99940
4269 OM 4269 OM OM1 4269 -0.550000 15.99940
4270 OM 4270 OM OM1 4270 -0.550000 15.99940
4271 OM 4271 OM OM1 4271 -0.550000 15.99940
4272 OM 4272 OM OM1 4272 -0.550000 15.99940
4273 OM 4273 OM OM1 4273 -0.550000 15.99940
4274 OM 4274 OM OM1 4274 -0.550000 15.99940
4275 OM 4275 OM OM1 4275 -0.550000 15.99940
4276 OM 4276 OM OM1 4276 -0.550000 15.99940
4277 OM 4277 OM OM1 4277 -0.550000 15.99940
4278 OM 4278 OM OM1 4278 -0.550000 15.99940
4279 OM 4279 OM OM1 4279 -0.550000 15.99940
4280 OM 4280 OM OM1 4280 -0.550000 15.99940
4281 OM 4281 OM OM1 4281 -0.550000 15.99940
4282 OM 4282 OM OM1 4282 -0.550000 15.99940
4283 OM 4283 OM OM1 4283 -0.550000 15.99940
4284 OM 4284 OM OM1 4284 -0.550000 15.99940
4285 OM 4285 OM OM1 4285 -0.550000 15.99940
4286 OM 4286 OM OM1 4286 -0.550000 15.99940
4287 OM 4287 OM OM1 4287 -0.550000 15.99940
4288 OM 4288 OM OM1 4288 -0.550000 15.99940
4289 OM 4289 OM OM1 4289 -0.550000 15.99940
4290 OM 4290 OM OM1 4290 -0.550000 15.99940
4291 OM 4291 OM OM1 4291 -0.550000 15.99940
4292 OM 4292 OM OM1 4292 -0.550000 15.99940
4293 OM 4293 OM OM1 4293 -0.550000 15.99940
4294 OM 4294 OM OM1 4294 -0.550000 15.99940
4295 OM 4295 OM OM1 4295 -0.550000 15.99940
4296 OM 4296 OM OM1 4296 -0.550000 15.99940
4297 OM 4297 OM OM1 4297 -0.550000 15.99940
4298 OM 4298 OM OM1 4298 -0.550000 15.99940
4299 OM 4299 OM OM1 4299 -0.550000 15.99940
4300 OM 4300 OM OM1 4300 -0.550000 15.99940
4301 OM 4301 OM OM1 4301 -0.550000 15.99940
4302 OM 4302 OM OM1 4302 -0.550000 15.99940
4303 OM 4303 OM OM1 4303 -0.550000 15.99940
4304 OM 4304 OM OM1 4304 -0.550000 15.99940
4305 OM 4305 OM OM1 4305 -0.550000 15.99940
4306 OM 4306 OM OM1 4306 -0.550000 15.99940
4307 OM 4307 OM OM1 4307 -0.550000 15.99940
4308 OM 4308 OM OM1 4308 -0.550000 15.99940
4309 OM 4309 OM OM1 4309 -0.550000 15.99940
4310 OM 4310 OM OM1 4310 -0.550000 15.99940
4311 OM 4311 OM OM1 4311 -0.550000 15.99940
4312 OM 4312 OM OM1 4312 -0.550000 15.99940
4313 OM 4313 OM OM1 4313 -0.550000 15.99940
4314 OM 4314 OM OM1 4314 -0.550000 15.99940
4315 OM 4315 OM OM1 4315 -0.550000 15.99940
4316 OM 4316 OM OM1 4316 -0.550000 15.99940
4317 OM 4317 OM OM1 4317 -0.550000 15.99940
4318 OM 4318 OM OM1 4318 -0.550000 15.99940
4319 OM 4319 OM OM1 4319 -0.550000 15.99940
4320 OM 4320 OM OM1 4320 -0.550000 15.99940
4321 OM 4321 OM OM1 4321 -0.550000 15.99940
4322 OM 4322 OM OM1 4322 -0.550000 15.99940
4323 OM 4323 OM OM1 4323 -0.550000 15.99940
4324 OM 4324 OM OM1 4324 -0.550000 15.99940
4325 OM 4325 OM OM1 4325 -0.550000 15.99940
4326 OM 4326 OM OM1 4326 -0.550000 15.99940
4327 OM 4327 OM OM1 4327 -0.550000 15.99940
4328 OM 4328 OM OM1 4328 -0.550000 15.99940
4329 OM 4329 OM OM1 4329 -0.550000 15.99940
4330 OM 4330 OM OM1 4330 -0.550000 15.99940
4331 OM 4331 OM OM1 4331 -0.550000 15.99940
4332 OM 4332 OM OM1 4332 -0.550000 15.99940
4333 OM 4333 OM OM1 4333 -0.550000 15.99940
4334 OM 4334 OM OM1 4334 -0.550000 15.99940
4335 OM 4335 OM OM1 4335 -0.550000 15.99940
4336 OM 4336 OM OM1 4336 -0.550000 15.99940
4337 OM 4337 OM OM1 4337 -0.550000 15.99940
4338 OM 4338 OM OM1 4338 -0.550000 15.99940
4339 OM 4339 OM OM1 4339 -0.550000 15.99940
4340 OM 4340 OM OM1 4340 -0.550000 15.99940
4341 OM 4341 OM OM1 4341 -0.550000 15.99940
4342 OM 4342 OM OM1 4342 -0.550000 15.99940
4343 OM 4343 OM OM1 4343 -0.550000 15.99940
4344 OM 4344 OM OM1 4344 -0.550000 15.99940
4345 OM 4345 OM OM1 4345 -0.550000 15.99940
4346 OM 4346 OM OM1 4346 -0.550000 15.99940
4347 OM 4347 OM OM1 4347 -0.550000 15.99940
4348 OM 4348 OM OM1 4348 -0.550000 15.99940
4349 OM 4349 OM OM1 4349 -0.550000 15.99940
4350 OM 4350 OM OM1 4350 -0.550000 15.99940
4351 OM 4351 OM OM1 4351 -0.550000 15.99940
4352 OM 4352 OM OM1 4352 -0.550000 15.99940
4353 OM 4353 OM OM1 4353 -0.550000 15.99940
4354 OM 4354 OM OM1 4354 -0.550000 15.99940
4355 OM 4355 OM OM1 4355 -0.550000 15.99940
4356 OM 4356 OM OM1 4356 -0.550000 15.99940
4357 OM 4357 OM OM1 4357 -0.550000 15.99940
4358 OM 4358 OM OM1 4358 -0.550000 15.99940
4359 OM 4359 OM OM1 4359 -0.550000 15.99940
4360 OM 4360 OM OM1 4360 -0.550000 15.99940
4361 OM 4361 OM OM1 4361 -0.550000 15.99940
4362 OM 4362 OM OM1 4362 -0.550000 15.99940
4363 OM 4363 OM OM1 4363 -0.550000 15.99940
4364 OM 4364 OM OM1 4364 -0.550000 15.99940
4365 OM 4365 OM OM1 4365 -0.550000 15.99940
4366 OM 4366 OM OM1 4366 -0.550000 15.99940
4367 OM 4367 OM OM1 4367 -0.550000 15.99940
4368 OM 4368 OM OM1 4368 -0.550000 15.99940
4369 OM 4369 OM OM1 4369 -0.550000 15.99940
4370 OM 4370 OM OM1 4370 -0.550000 15.99940
4371 OM 4371 OM OM1 4371 -0.550000 15.99940
4372 OM 4372 OM OM1 4372 -0.550000 15.99940
4373 OM 4373 OM OM1 4373 -0.550000 15.99940
4374 OM 4374 OM OM1 4374 -0.550000 15.99940
4375 OM 4375 OM OM1 4375 -0.550000 15.99940
4376 OM 4376 OM OM1 4376 -0.550000 15.99940
4377 OM 4377 OM OM1 4377 -0.550000 15.99940
4378 OM 4378 OM OM1 4378 -0.550000 15.99940
4379 OM 4379 OM OM1 4379 -0.550000 15.99940
4380 OM 4380 OM OM1 4380 -0.550000 15.99940
4381 OM 4381 OM OM1 4381 -0.550000 15.99940
4382 OM 4382 OM OM1 4382 -0.550000 15.99940
4383 OM 4383 OM OM1 4383 -0.550000 15.99940
4384 OM 4384 OM OM1 4384 -0.550000 15.99940
4385 OM 4385 OM OM1 4385 -0.550000 15.99940
4386 OM 4386 OM OM1 4386 -0.550000 15.99940
4387 OM 4387 OM OM1 4387 -0.550000 15.99940
4388 OM 4388 OM OM1 4388 -0.550000 15.99940
4389 OM 4389 OM OM1 4389 -0.550000 15.99940
4390 OM 4390 OM OM1 4390 -0.550000 15.99940
4391 OM 4391 OM OM1 4391 -0.550000 15.99940
4392 OM 4392 OM OM1 4392 -0.550000 15.99940
4393 OM 4393 OM OM1 4393 -0.550000 15.99940
4394 OM 4394 OM OM1 4394 -0.550000 15.99940
4395 OM 4395 OM OM1 4395 -0.550000 15.99940
4396 OM 4396 OM OM1 4396 -0.550000 15.99940
4397 OM 4397 OM OM1 4397 -0.550000 15.99940
4398 OM 4398 OM OM1 4398 -0.550000 15.99940
4399 OM 4399 OM OM1 4399 -0.550000 15.99940
4400 OM 4400 OM OM1 4400 -0.550000 15.99940
4401 OM 4401 OM OM1 4401 -0.550000 15.99940
4402 OM 4402 OM OM1 4402 -0.550000 15.99940
4403 OM 4403 OM OM1 4403 -0.550000 15.99940
4404 OM 4404 OM OM1 4404 -0.550000 15.99940
4405 OM 4405 OM OM1 4405 -0.550000 15.99940
4406 OM 4406 OM OM1 4406 -0.550000 15.99940
4407 OM 4407 OM OM1 4407 -0.550000 15.99940
4408 OM 4408 OM OM1 4408 -0.550000 15.99940
4409 OM 4409 OM OM1 4409 -0.550000 15.99940
4410 OM 4410 OM OM1 4410 -0.550000 15.99940
4411 OM 4411 OM OM1 4411 -0.550000 15.99940
4412 OM 4412 OM OM1 4412 -0.550000 15.99940
4413 OM 4413 OM OM1 4413 -0.550000 15.99940
4414 OM 4414 OM OM1 4414 -0.550000 15.99940
4415 OM 4415 OM OM1 4415 -0.550000 15.99940
4416 OM 4416 OM OM1 4416 -0.550000 15.99940
4417 OM 4417 OM OM1 4417 -0.550000 15.99940
4418 OM 4418 OM OM1 4418 -0.550000 15.99940
4419 OM 4419 OM OM1 4419 -0.550000 15.99940
4420 OM 4420 OM OM1 4420 -0.550000 15.99940
4421 OM 4421 OM OM1 4421 -0.550000 15.99940
4422 OM 4422 OM OM1 4422 -0.550000 15.99940
4423 OM 4423 OM OM1 4423 -0.550000 15.99940
4424 OM 4424 OM OM1 4424 -0.550000 15.99940
4425 OM 4425 OM OM1 4425 -0.550000 15.99940
4426 OM 4426 OM OM1 4426 -0.550000 15.99940
4427 OM 4427 OM OM1 4427 -0.550000 15.99940
4428 OM 4428 OM OM1 4428 -0.550000 15.99940
4429 OM 4429 OM OM1 4429 -0.550000 15.99940
4430 OM 4430 OM OM1 4430 -0.550000 15.99940
4431 OM 4431 OM OM1 4431 -0.550000 15.99940
4432 OM 4432 OM OM1 4432 -0.550000 15.99940
4433 OM 4433 OM OM1 4433 -0.550000 15.99940
4434 OM 4434 OM OM1 4434 -0.550000 15.99940
4435 OM 4435 OM OM1 4435 -0.550000 15.99940
4436 OM 4436 OM OM1 4436 -0.550000 15.99940
4437 OM 4437 OM OM1 4437 -0.550000 15.99940
4438 OM 4438 OM OM1 4438 -0.550000 15.99940
4439 OM 4439 OM OM1 4439 -0.550000 15.99940
4440 OM 4440 OM OM1 4440 -0.550000 15.99940
4441 OM 4441 OM OM1 4441 -0.550000 15.99940
4442 OM 4442 OM OM1 4442 -0.550000 15.99940
4443 OM 4443 OM OM1 4443 -0.550000 15.99940
4444 OM 4444 OM OM1 4444 -0.550000 15.99940
4445 OM 4445 OM OM1 4445 -0.550000 15.99940
4446 OM 4446 OM OM1 4446 -0.550000 15.99940
4447 OM 4447 OM OM1 4447 -0.550000 15.99940
4448 OM 4448 OM OM1 4448 -0.550000 15.99940
4449 OM 4449 OM OM1 4449 -0.550000 15.99940
4450 OM 4450 OM OM1 4450 -0.550000 15.99940
4451 OM 4451 OM OM1 4451 -0.550000 15.99940
4452 OM 4452 OM OM1 4452 -0.550000 15.99940
4453 OM 4453 OM OM1 4453 -0.550000 15.99940
4454 OM 4454 OM OM1 4454 -0.550000 15.99940
4455 OM 4455 OM OM1 4455 -0.550000 15.99940
4456 OM 4456 OM OM1 4456 -0.550000 15.99940
4457 OM 4457 OM OM1 4457 -0.550000 15.99940
4458 OM 4458 OM OM1 4458 -0.550000 15.99940
4459 OM 4459 OM OM1 4459 -0.550000 15.99940
4460 OM 4460 OM OM1 4460 -0.550000 15.99940
4461 OM 4461 OM OM1 4461 -0.550000 15.99940
4462 OM 4462 OM OM1 4462 -0.550000 15.99940
4463 OM 4463 OM OM1 4463 -0.550000 15.99940
4464 OM 4464 OM OM1 4464 -0.550000 15.99940
4465 OM 4465 OM OM1 4465 -0.550000 15.99940
4466 OM 4466 OM OM1 4466 -0.550000 15.99940
4467 OM 4467 OM OM1 4467 -0.550000 15.99940
4468 OM 4468 OM OM1 4468 -0.550000 15.99940
4469 OM 4469 OM OM1 4469 -0.550000 15.99940
4470 OM 4470 OM OM1 4470 -0.550000 15.99940
4471 OM 4471 OM OM1 4471 -0.550000 15.99940
4472 OM 4472 OM OM1 4472 -0.550000 15.99940
4473 OM 4473 OM OM1 4473 -0.550000 15.99940
4474 OM 4474 OM OM1 4474 -0.550000 15.99940
4475 OM 4475 OM OM1 4475 -0.550000 15.99940
4476 OM 4476 OM OM1 4476 -0.550000 15.99940
4477 OM 4477 OM OM1 4477 -0.550000 15.99940
4478 OM 4478 OM OM1 4478 -0.550000 15.99940
4479 OM 4479 OM OM1 4479 -0.550000 15.99940
4480 OM 4480 OM OM1 4480 -0.550000 15.99940
4481 OM 4481 OM OM1 4481 -0.550000 15.99940
4482 OM 4482 OM OM1 4482 -0.550000 15.99940
4483 OM 4483 OM OM1 4483 -0.550000 15.99940
4484 OM 4484 OM OM1 4484 -0.550000 15.99940
4485 OM 4485 OM OM1 4485 -0.550000 15.99940
4486 OM 4486 OM OM1 4486 -0.550000 15.99940
4487 OM 4487 OM OM1 4487 -0.550000 15.99940
4488 OM 4488 OM OM1 4488 -0.550000 15.99940
4489 OM 4489 OM OM1 4489 -0.550000 15.99940
4490 OM 4490 OM OM1 4490 -0.550000 15.99940
4491 OM 4491 OM OM1 4491 -0.550000 15.99940
4492 OM 4492 OM OM1 4492 -0.550000 15.99940
4493 OM 4493 OM OM1 4493 -0.550000 15.99940
4494 OM 4494 OM OM1 4494 -0.550000 15.99940
4495 OM 4495 OM OM1 4495 -0.550000 15.99940
4496 OM 4496 OM OM1 4496 -0.550000 15.99940
4497 OM 4497 OM OM1 4497 -0.550000 15.99940
4498 OM 4498 OM OM1 4498 -0.550000 15.99940
4499 OM 4499 OM OM1 4499 -0.550000 15.99940
4500 OM 4500 OM OM1 4500 -0.550000 15.99940
4501 OM 4501 OM OM1 4501 -0.550000 15.99940
4502 OM 4502 OM OM1 4502 -0.550000 15.99940
4503 OM 4503 OM OM1 4503 -0.550000 15.99940
4504 OM 4504 OM OM1 4504 -0.550000 15.99940
4505 OM 4505 OM OM1 4505 -0.550000 15.99940
4506 OM 4506 OM OM1 4506 -0.550000 15.99940
4507 OM 4507 OM OM1 4507 -0.550000 15.99940
4508 OM 4508 OM OM1 4508 -0.550000 15.99940
4509 OM 4509 OM OM1 4509 -0.550000 15.99940
4510 OM 4510 OM OM1 4510 -0.550000 15.99940
4511 OM 4511 OM OM1 4511 -0.550000 15.99940
4512 OM 4512 OM OM1 4512 -0.550000 15.99940
4513 OM 4513 OM OM1 4513 -0.550000 15.99940
4514 OM 4514 OM OM1 4514 -0.550000 15.99940
4515 OM 4515 OM OM1 4515 -0.550000 15.99940
4516 OM 4516 OM OM1 4516 -0.550000 15.99940
4517 OM 4517 OM OM1 4517 -0.550000 15.99940
4518 OM 4518 OM OM1 4518 -0.550000 15.99940
4519 OM 4519 OM OM1 4519 -0.550000 15.99940
4520 OM 4520 OM OM1 4520 -0.550000 15.99940
4521 OM 4521 OM OM1 4521 -0.550000 15.99940
4522 OM 4522 OM OM1 4522 -0.550000 15.99940
4523 OM 4523 OM OM1 4523 -0.550000 15.99940
4524 OM 4524 OM OM1 4524 -0.550000 15.99940
4525 OM 4525 OM OM1 4525 -0.550000 15.99940
4526 OM 4526 OM OM1 4526 -0.550000 15.99940
4527 OM 4527 OM OM1 4527 -0.550000 15.99940
4528 OM 4528 OM OM1 4528 -0.550000 15.99940
4529 OM 4529 OM OM1 4529 -0.550000 15.99940
4530 OM 4530 OM OM1 4530 -0.550000 15.99940
4531 OM 4531 OM OM1 4531 -0.550000 15.99940
4532 OM 4532 OM OM1 4532 -0.550000 15.99940
4533 OM 4533 OM OM1 4533 -0.550000 15.99940
4534 OM 4534 OM OM1 4534 -0.550000 15.99940
4535 OM 4535 OM OM1 4535 -0.550000 15.99940
4536 OM 4536 OM OM1 4536 -0.550000 15.99940
4537 OM 4537 OM OM1 4537 -0.550000 15.99940
4538 OM 4538 OM OM1 4538 -0.550000 15.99940
4539 OM 4539 OM OM1 4539 -0.550000 15.99940
4540 OM 4540 OM OM1 4540 -0.550000 15.99940
4541 OM 4541 OM OM1 4541 -0.550000 15.99940
4542 OM 4542 OM OM1 4542 -0.550000 15.99940
4543 OM 4543 OM OM1 4543 -0.550000 15.99940
4544 OM 4544 OM OM1 4544 -0.550000 15.99940
4545 OM 4545 OM OM1 4545 -0.550000 15.99940
4546 OM 4546 OM OM1 4546 -0.550000 15.99940
4547 OM 4547 OM OM1 4547 -0.550000 15.99940
4548 OM 4548 OM OM1 4548 -0.550000 15.99940
4549 OM 4549 OM OM1 4549 -0.550000 15.99940
4550 OM 4550 OM OM1 4550 -0.550000 15.99940
4551 OM 4551 OM OM1 4551 -0.550000 15.99940
4552 OM 4552 OM OM1 4552 -0.550000 15.99940
4553 OM 4553 OM OM1 4553 -0.550000 15.99940
4554 OM 4554 OM OM1 4554 -0.550000 15.99940
4555 OM 4555 OM OM1 4555 -0.550000 15.99940
4556 OM 4556 OM OM1 4556 -0.550000 15.99940
4557 OM 4557 OM OM1 4557 -0.550000 15.99940
4558 OM 4558 OM OM1 4558 -0.550000 15.99940
4559 OM 4559 OM OM1 4559 -0.550000 15.99940
4560 OM 4560 OM OM1 4560 -0.550000 15.99940
4561 OM 4561 OM OM1 4561 -0.550000 15.99940
4562 OM 4562 OM OM1 4562 -0.550000 15.99940
4563 OM 4563 OM OM1 4563 -0.550000 15.99940
4564 OM 4564 OM OM1 4564 -0.550000 15.99940
4565 OM 4565 OM OM1 4565 -0.550000 15.99940
4566 OM 4566 OM OM1 4566 -0.550000 15.99940
4567 OM 4567 OM OM1 4567 -0.550000 15.99940
4568 OM 4568 OM OM1 4568 -0.550000 15.99940
4569 OM 4569 OM OM1 4569 -0.550000 15.99940
4570 OM 4570 OM OM1 4570 -0.550000 15.99940
4571 OM 4571 OM OM1 4571 -0.550000 15.99940
4572 OM 4572 OM OM1 4572 -0.550000 15.99940
4573 OM 4573 OM OM1 4573 -0.550000 15.99940
4574 OM 4574 OM OM1 4574 -0.550000 15.99940
4575 OM 4575 OM OM1 4575 -0.550000 15.99940
4576 OM 4576 OM OM1 4576 -0.550000 15.99940
4577 OM 4577 OM OM1 4577 -0.550000 15.99940
4578 OM 4578 OM OM1 4578 -0.550000 15.99940
4579 OM 4579 OM OM1 4579 -0.550000 15.99940
4580 OM 4580 OM OM1 4580 -0.550000 15.99940
4581 OM 4581 OM OM1 4581 -0.550000 15.99940
4582 OM 4582 OM OM1 4582 -0.550000 15.99940
4583 OM 4583 OM OM1 4583 -0.550000 15.99940
4584 OM 4584 OM OM1 4584 -0.550000 15.99940
4585 OM 4585 OM OM1 4585 -0.550000 15.99940
4586 OM 4586 OM OM1 4586 -0.550000 15.99940
4587 OM 4587 OM OM1 4587 -0.550000 15.99940
4588 OM 4588 OM OM1 4588 -0.550000 15.99940
4589 OM 4589 OM OM1 4589 -0.550000 15.99940
4590 OM 4590 OM OM1 4590 -0.550000 15.99940
4591 OM 4591 OM OM1 4591 -0.550000 15.99940
4592 OM 4592 OM OM1 4592 -0.550000 15.99940
4593 OM 4593 OM OM1 4593 -0.550000 15.99940
4594 OM 4594 OM OM1 4594 -0.550000 15.99940
4595 OM 4595 OM OM1 4595 -0.550000 15.99940
4596 OM 4596 OM OM1 4596 -0.550000 15.99940
4597 OM 4597 OM OM1 4597 -0.550000 15.99940
4598 OM 4598 OM OM1 4598 -0.550000 15.99940
4599 OM 4599 OM OM1 4599 -0.550000 15.99940
4600 OM 4600 OM OM1 4600 -0.550000 15.99940
4601 OM 4601 OM OM1 4601 -0.550000 15.99940
4602 OM 4602 OM OM1 4602 -0.550000 15.99940
4603 OM 4603 OM OM1 4603 -0.550000 15.99940
4604 OM 4604 OM OM1 4604 -0.550000 15.99940
4605 OM 4605 OM OM1 4605 -0.550000 15.99940
4606 OM 4606 OM OM1 4606 -0.550000 15.99940
4607 OM 4607 OM OM1 4607 -0.550000 15.99940
4608 OM 4608 OM OM1 4608 -0.550000 15.99940
4609 OM 4609 OM OM1 4609 -0.550000 15.99940
4610 OM 4610 OM OM1 4610 -0.550000 15.99940
4611 OM 4611 OM OM1 4611 -0.550000 15.99940
4612 OM 4612 OM OM1 4612 -0.550000 15.99940
4613 OM 4613 OM OM1 4613 -0.550000 15.99940
4614 OM 4614 OM OM1 4614 -0.550000 15.99940
4615 OM 4615 OM OM1 4615 -0.550000 15.99940
4616 OM 4616 OM OM1 4616 -0.550000 15.99940
4617 OM 4617 OM OM1 4617 -0.550000 15.99940
4618 OM 4618 OM OM1 4618 -0.550000 15.99940
4619 OM 4619 OM OM1 4619 -0.550000 15.99940
4620 OM 4620 OM OM1 4620 -0.550000 15.99940
4621 OM 4621 OM OM1 4621 -0.550000 15.99940
4622 OM 4622 OM OM1 4622 -0.550000 15.99940
4623 OM 4623 OM OM1 4623 -0.550000 15.99940
4624 OM 4624 OM OM1 4624 -0.550000 15.99940
4625 OM 4625 OM OM1 4625 -0.550000 15.99940
4626 OM 4626 OM OM1 4626 -0.550000 15.99940
4627 OM 4627 OM OM1 4627 -0.550000 15.99940
4628 OM 4628 OM OM1 4628 -0.550000 15.99940
4629 OM 4629 OM OM1 4629 -0.550000 15.99940
4630 OM 4630 OM OM1 4630 -0.550000 15.99940
4631 OM 4631 OM OM1 4631 -0.550000 15.99940
4632 OM 4632 OM OM1 4632 -0.550000 15.99940
4633 OM 4633 OM OM1 4633 -0.550000 15.99940
4634 OM 4634 OM OM1 4634 -0.550000 15.99940
4635 OM 4635 OM OM1 4635 -0.550000 15.99940
4636 OM 4636 OM OM1 4636 -0.550000 15.99940
4637 OM 4637 OM OM1 4637 -0.550000 15.99940
4638 OM 4638 OM OM1 4638 -0.550000 15.99940
4639 OM 4639 OM OM1 4639 -0.550000 15.99940
4640 OM 4640 OM OM1 4640 -0.550000 15.99940
4641 OM 4641 OM OM1 4641 -0.550000 15.99940
4642 OM 4642 OM OM1 4642 -0.550000 15.99940
4643 OM 4643 OM OM1 4643 -0.550000 15.99940
4644 OM 4644 OM OM1 4644 -0.550000 15.99940
4645 OM 4645 OM OM1 4645 -0.550000 15.99940
4646 OM 4646 OM OM1 4646 -0.550000 15.99940
4647 OM 4647 OM OM1 4647 -0.550000 15.99940
4648 OM 4648 OM OM1 4648 -0.550000 15.99940
4649 OM 4649 OM OM1 4649 -0.550000 15.99940
4650 OM 4650 OM OM1 4650 -0.550000 15.99940
4651 OM 4651 OM OM1 4651 -0.550000 15.99940
4652 OM 4652 OM OM1 4652 -0.550000 15.99940
4653 OM 4653 OM OM1 4653 -0.550000 15.99940
4654 OM 4654 OM OM1 4654 -0.550000 15.99940
4655 OM 4655 OM OM1 4655 -0.550000 15.99940
4656 OM 4656 OM OM1 4656 -0.550000 15.99940
4657 OM 4657 OM OM1 4657 -0.550000 15.99940
4658 OM 4658 OM OM1 4658 -0.550000 15.99940
4659 OM 4659 OM OM1 4659 -0.550000 15.99940
4660 OM 4660 OM OM1 4660 -0.550000 15.99940
4661 OM 4661 OM OM1 4661 -0.550000 15.99940
4662 OM 4662 OM OM1 4662 -0.550000 15.99940
4663 OM 4663 OM OM1 4663 -0.550000 15.99940
4664 OM 4664 OM OM1 4664 -0.550000 15.99940
4665 OM 4665 OM OM1 4665 -0.550000 15.99940
4666 OM 4666 OM OM1 4666 -0.550000 15.99940
4667 OM 4667 OM OM1 4667 -0.550000 15.99940
4668 OM 4668 OM OM1 4668 -0.550000 15.99940
4669 OM 4669 OM OM1 4669 -0.550000 15.99940
4670 OM 4670 OM OM1 4670 -0.550000 15.99940
4671 OM 4671 OM OM1 4671 -0.550000 15.99940
4672 OM 4672 OM OM1 4672 -0.550000 15.99940
4673 OM 4673 OM OM1 4673 -0.550000 15.99940
4674 OM 4674 OM OM1 4674 -0.550000 15.99940
4675 OM 4675 OM OM1 4675 -0.550000 15.99940
4676 OM 4676 OM OM1 4676 -0.550000 15.99940
4677 OM 4677 OM OM1 4677 -0.550000 15.99940
4678 OM 4678 OM OM1 4678 -0.550000 15.99940
4679 OM 4679 OM OM1 4679 -0.550000 15.99940
4680 OM 4680 OM OM1 4680 -0.550000 15.99940
4681 OM 4681 OM OM1 4681 -0.550000 15.99940
4682 OM 4682 OM OM1 4682 -0.550000 15.99940
4683 OM 4683 OM OM1 4683 -0.550000 15.99940
4684 OM 4684 OM OM1 4684 -0.550000 15.99940
4685 OM 4685 OM OM1 4685 -0.550000 15.99940
4686 OM 4686 OM OM1 4686 -0.550000 15.99940
4687 OM 4687 OM OM1 4687 -0.550000 15.99940
4688 OM 4688 OM OM1 4688 -0.550000 15.99940
4689 OM 4689 OM OM1 4689 -0.550000 15.99940
4690 OM 4690 OM OM1 4690 -0.550000 15.99940
4691 OM 4691 OM OM1 4691 -0.550000 15.99940
4692 OM 4692 OM OM1 4692 -0.550000 15.99940
4693 OM 4693 OM OM1 4693 -0.550000 15.99940
4694 OM 4694 OM OM1 4694 -0.550000 15.99940
4695 OM 4695 OM OM1 4695 -0.550000 15.99940
4696 OM 4696 OM OM1 4696 -0.550000 15.99940
4697 OM 4697 OM OM1 4697 -0.550000 15.99940
4698 OM 4698 OM OM1 4698 -0.550000 15.99940
4699 OM 4699 OM OM1 4699 -0.550000 15.99940
4700 OM 4700 OM OM1 4700 -0.550000 15.99940
4701 OM 4701 OM OM1 4701 -0.550000 15.99940
4702 OM 4702 OM OM1 4702 -0.550000 15.99940
4703 OM 4703 OM OM1 4703 -0.550000 15.99940
4704 OM 4704 OM OM1 4704 -0.550000 15.99940
4705 OM 4705 OM OM1 4705 -0.550000 15.99940
4706 OM 4706 OM OM1 4706 -0.550000 15.99940
4707 OM 4707 OM OM1 4707 -0.550000 15.99940
4708 OM 4708 OM OM1 4708 -0.550000 15.99940
4709 OM 4709 OM OM1 4709 -0.550000 15.99940
4710 OM 4710 OM OM1 4710 -0.550000 15.99940
4711 OM 4711 OM OM1 4711 -0.550000 15.99940
4712 OM 4712 OM OM1 4712 -0.550000 15.99940
4713 OM 4713 OM OM1 4713 -0.550000 15.99940
4714 OM 4714 OM OM1 4714 -0.550000 15.99940
4715 OM 4715 OM OM1 4715 -0.550000 15.99940
4716 OM 4716 OM OM1 4716 -0.550000 15.99940
4717 OM 4717 OM OM1 4717 -0.550000 15.99940
4718 OM 4718 OM OM1 4718 -0.550000 15.99940
4719 OM 4719 OM OM1 4719 -0.550000 15.99940
4720 OM 4720 OM OM1 4720 -0.550000 15.99940
4721 OM 4721 OM OM1 4721 -0.550000 15.99940
4722 OM 4722 OM OM1 4722 -0.550000 15.99940
4723 OM 4723 OM OM1 4723 -0.550000 15.99940
4724 OM 4724 OM OM1 4724 -0.550000 15.99940
4725 OM 4725 OM OM1 4725 -0.550000 15.99940
4726 OM 4726 OM OM1 4726 -0.550000 15.99940
4727 OM 4727 OM OM1 4727 -0.550000 15.99940
4728 OM 4728 OM OM1 4728 -0.550000 15.99940
4729 OM 4729 OM OM1 4729 -0.550000 15.99940
4730 OM 4730 OM OM1 4730 -0.550000 15.99940
4731 OM 4731 OM OM1 4731 -0.550000 15.99940
4732 OM 4732 OM OM1 4732 -0.550000 15.99940
4733 OM 4733 OM OM1 4733 -0.550000 15.99940
4734 OM 4734 OM OM1 4734 -0.550000 15.99940
4735 OM 4735 OM OM1 4735 -0.550000 15.99940
4736 OM 4736 OM OM1 4736 -0.550000 15.99940
4737 OM 4737 OM OM1 4737 -0.550000 15.99940
4738 OM 4738 OM OM1 4738 -0.550000 15.99940
4739 OM 4739 OM OM1 4739 -0.550000 15.99940
4740 OM 4740 OM OM1 4740 -0.550000 15.99940
4741 OM 4741 OM OM1 4741 -0.550000 15.99940
4742 OM 4742 OM OM1 4742 -0.550000 15.99940
4743 OM 4743 OM OM1 4743 -0.550000 15.99940
4744 OM 4744 OM OM1 4744 -0.550000 15.99940
4745 OM 4745 OM OM1 4745 -0.550000 15.99940
4746 OM 4746 OM OM1 4746 -0.550000 15.99940
4747 OM 4747 OM OM1 4747 -0.550000 15.99940
4748 OM 4748 OM OM1 4748 -0.550000 15.99940
4749 OM 4749 OM OM1 4749 -0.550000 15.99940
4750 OM 4750 OM OM1 4750 -0.550000 15.99940
4751 OM 4751 OM OM1 4751 -0.550000 15.99940
4752 OM 4752 OM OM1 4752 -0.550000 15.99940
4753 OM 4753 OM OM1 4753 -0.550000 15.99940
4754 OM 4754 OM OM1 4754 -0.550000 15.99940
4755 OM 4755 OM OM1 4755 -0.550000 15.99940
4756 OM 4756 OM OM1 4756 -0.550000 15.99940
4757 OM 4757 OM OM1 4757 -0.550000 15.99940
4758 OM 4758 OM OM1 4758 -0.550000 15.99940
4759 OM 4759 OM OM1 4759 -0.550000 15.99940
4760 OM 4760 OM OM1 4760 -0.550000 15.99940
4761 OM 4761 OM OM1 4761 -0.550000 15.99940
4762 OM 4762 OM OM1 4762 -0.550000 15.99940
4763 OM 4763 OM OM1 4763 -0.550000 15.99940
4764 OM 4764 OM OM1 4764 -0.550000 15.99940
4765 OM 4765 OM OM1 4765 -0.550000 15.99940
4766 OM 4766 OM OM1 4766 -0.550000 15.99940
4767 OM 4767 OM OM1 4767 -0.550000 15.99940
4768 OM 4768 OM OM1 4768 -0.550000 15.99940
4769 OM 4769 OM OM1 4769 -0.550000 15.99940
4770 OM 4770 OM OM1 4770 -0.550000 15.99940
4771 OM 4771 OM OM1 4771 -0.550000 15.99940
4772 OM 4772 OM OM1 4772 -0.550000 15.99940
4773 OM 4773 OM OM1 4773 -0.550000 15.99940
4774 OM 4774 OM OM1 4774 -0.550000 15.99940
4775 OM 4775 OM OM1 4775 -0.550000 15.99940
4776 OM 4776 OM OM1 4776 -0.550000 15.99940
4777 OM 4777 OM OM1 4777 -0.550000 15.99940
4778 OM 4778 OM OM1 4778 -0.550000 15.99940
4779 OM 4779 OM OM1 4779 -0.550000 15.99940
4780 OM 4780 OM OM1 4780 -0.550000 15.99940
4781 OM 4781 OM OM1 4781 -0.550000 15.99940
4782 OM 4782 OM OM1 4782 -0.550000 15.99940
4783 OM 4783 OM OM1 4783 -0.550000 15.99940
4784 OM 4784 OM OM1 4784 -0.550000 15.99940
4785 OM 4785 OM OM1 4785 -0.550000 15.99940
4786 OM 4786 OM OM1 4786 -0.550000 15.99940
4787 OM 4787 OM OM1 4787 -0.550000 15.99940
4788 OM 4788 OM OM1 4788 -0.550000 15.99940
4789 OM 4789 OM OM1 4789 -0.550000 15.99940
4790 OM 4790 OM OM1 4790 -0.550000 15.99940
4791 OM 4791 OM OM1 4791 -0.550000 15.99940
4792 OM 4792 OM OM1 4792 -0.550000 15.99940
4793 OM 4793 OM OM1 4793 -0.550000 15.99940
4794 OM 4794 OM OM1 4794 -0.550000 15.99940
4795 OM 4795 OM OM1 4795 -0.550000 15.99940
4796 OM 4796 OM OM1 4796 -0.550000 15.99940
4797 OM 4797 OM OM1 4797 -0.550000 15.99940
4798 OM 4798 OM OM1 4798 -0.550000 15.99940
4799 OM 4799 OM OM1 4799 -0.550000 15.99940
4800 OM 4800 OM OM1 4800 -0.550000 15.99940
4801 OM 4801 OM OM1 4801 -0.550000 15.99940
4802 OM 4802 OM OM1 4802 -0.550000 15.99940
4803 OM 4803 OM OM1 4803 -0.550000 15.99940
4804 OM 4804 OM OM1 4804 -0.550000 15.99940
4805 OM 4805 OM OM1 4805 -0.550000 15.99940
4806 OM 4806 OM OM1 4806 -0.550000 15.99940
4807 OM 4807 OM OM1 4807 -0.550000 15.99940
4808 OM 4808 OM OM1 4808 -0.550000 15.99940
4809 OM 4809 OM OM1 4809 -0.550000 15.99940
4810 OM 4810 OM OM1 4810 -0.550000 15.99940
4811 OM 4811 OM OM1 4811 -0.550000 15.99940
4812 OM 4812 OM OM1 4812 -0.550000 15.99940
4813 OM 4813 OM OM1 4813 -0.550000 15.99940
4814 OM 4814 OM OM1 4814 -0.550000 15.99940
4815 OM 4815 OM OM1 4815 -0.550000 15.99940
4816 OM 4816 OM OM1 4816 -0.550000 15.99940
4817 OM 4817 OM OM1 4817 -0.550000 15.99940
4818 OM 4818 OM OM1 4818 -0.550000 15.99940
4819 OM 4819 OM OM1 4819 -0.550000 15.99940
4820 OM 4820 OM OM1 4820 -0.550000 15.99940
4821 OM 4821 OM OM1 4821 -0.550000 15.99940
4822 OM 4822 OM OM1 4822 -0.550000 15.99940
4823 OM 4823 OM OM1 4823 -0.550000 15.99940
4824 OM 4824 OM OM1 4824 -0.550000 15.99940
4825 OM 4825 OM OM1 4825 -0.550000 15.99940
4826 OM 4826 OM OM1 4826 -0.550000 15.99940
4827 OM 4827 OM OM1 4827 -0.550000 15.99940
4828 OM 4828 OM OM1 4828 -0.550000 15.99940
4829 OM 4829 OM OM1 4829 -0.550000 15.99940
4830 OM 4830 OM OM1 4830 -0.550000 15.99940
4831 OM 4831 OM OM1 4831 -0.550000 15.99940
4832 OM 4832 OM OM1 4832 -0.550000 15.99940
4833 OM 4833 OM OM1 4833 -0.550000 15.99940
4834 OM 4834 OM OM1 4834 -0.550000 15.99940
4835 OM 4835 OM OM1 4835 -0.550000 15.99940
4836 OM 4836 OM OM1 4836 -0.550000 15.99940
4837 OM 4837 OM OM1 4837 -0.550000 15.99940
4838 OM 4838 OM OM1 4838 -0.550000 15.99940
4839 OM 4839 OM OM1 4839 -0.550000 15.99940
4840 OM 4840 OM OM1 4840 -0.550000 15.99940
4841 OM 4841 OM OM1 4841 -0.550000 15.99940
4842 OM 4842 OM OM1 4842 -0.550000 15.99940
4843 OM 4843 OM OM1 4843 -0.550000 15.99940
4844 OM 4844 OM OM1 4844 -0.550000 15.99940
4845 OM 4845 OM OM1 4845 -0.550000 15.99940
4846 OM 4846 OM OM1 4846 -0.550000 15.99940
4847 OM 4847 OM OM1 4847 -0.550000 15.99940
4848 OM 4848 OM OM1 4848 -0.550000 15.99940
4849 OM 4849 OM OM1 4849 -0.550000 15.99940
4850 OM 4850 OM OM1 4850 -0.550000 15.99940
4851 OM 4851 OM OM1 4851 -0.550000 15.99940
4852 OM 4852 OM OM1 4852 -0.550000 15.99940
4853 OM 4853 OM OM1 4853 -0.550000 15.99940
4854 OM 4854 OM OM1 4854 -0.550000 15.99940
4855 OM 4855 OM OM1 4855 -0.550000 15.99940
4856 OM 4856 OM OM1 4856 -0.550000 15.99940
4857 OM 4857 OM OM1 4857 -0.550000 15.99940
4858 OM 4858 OM OM1 4858 -0.550000 15.99940
4859 OM 4859 OM OM1 4859 -0.550000 15.99940
4860 OM 4860 OM OM1 4860 -0.550000 15.99940
4861 OM 4861 OM OM1 4861 -0.550000 15.99940
4862 OM 4862 OM OM1 4862 -0.550000 15.99940
4863 OM 4863 OM OM1 4863 -0.550000 15.99940
4864 OM 4864 OM OM1 4864 -0.550000 15.99940
4865 OM 4865 OM OM1 4865 -0.550000 15.99940
4866 OM 4866 OM OM1 4866 -0.550000 15.99940
4867 OM 4867 OM OM1 4867 -0.550000 15.99940
4868 OM 4868 OM OM1 4868 -0.550000 15.99940
4869 OM 4869 OM OM1 4869 -0.550000 15.99940
4870 OM 4870 OM OM1 4870 -0.550000 15.99940
4871 OM 4871 OM OM1 4871 -0.550000 15.99940
4872 OM 4872 OM OM1 4872 -0.550000 15.99940
4873 OM 4873 OM OM1 4873 -0.550000 15.99940
4874 OM 4874 OM OM1 4874 -0.550000 15.99940
4875 OM 4875 OM OM1 4875 -0.550000 15.99940
4876 OM 4876 OM OM1 4876 -0.550000 15.99940
4877 OM 4877 OM OM1 4877 -0.550000 15.99940
4878 OM 4878 OM OM1 4878 -0.550000 15.99940
4879 OM 4879 OM OM1 4879 -0.550000 15.99940
4880 OM 4880 OM OM1 4880 -0.550000 15.99940
4881 OM 4881 OM OM1 4881 -0.550000 15.99940
4882 OM 4882 OM OM1 4882 -0.550000 15.99940
4883 OM 4883 OM OM1 4883 -0.550000 15.99940
4884 OM 4884 OM OM1 4884 -0.550000 15.99940
4885 OM 4885 OM OM1 4885 -0.550000 15.99940
4886 OM 4886 OM OM1 4886 -0.550000 15.99940
4887 OM 4887 OM OM1 4887 -0.550000 15.99940
4888 OM 4888 OM OM1 4888 -0.550000 15.99940
4889 OM 4889 OM OM1 4889 -0.550000 15.99940
4890 OM 4890 OM OM1 4890 -0.550000 15.99940
4891 OM 4891 OM OM1 4891 -0.550000 15.99940
4892 OM 4892 OM OM1 4892 -0.550000 15.99940
4893 OM 4893 OM OM1 4893 -0.550000 15.99940
4894 OM 4894 OM OM1 4894 -0.550000 15.99940
4895 OM 4895 OM OM1 4895 -0.550000 15.99940
4896 OM 4896 OM OM1 4896 -0.550000 15.99940
4897 OM 4897 OM OM1 4897 -0.550000 15.99940
4898 OM 4898 OM OM1 4898 -0.550000 15.99940
4899 OM 4899 OM OM1 4899 -0.550000 15.99940
4900 OM 4900 OM OM1 4900 -0.550000 15.99940
4901 OM 4901 OM OM1 4901 -0.550000 15.99940
4902 OM 4902 OM OM1 4902 -0.550000 15.99940
4903 OM 4903 OM OM1 4903 -0.550000 15.99940
4904 OM 4904 OM OM1 4904 -0.550000 15.99940
4905 OM 4905 OM OM1 4905 -0.550000 15.99940
4906 OM 4906 OM OM1 4906 -0.550000 15.99940
4907 OM 4907 OM OM1 4907 -0.550000 15.99940
4908 OM 4908 OM OM1 4908 -0.550000 15.99940
4909 OM 4909 OM OM1 4909 -0.550000 15.99940
4910 OM 4910 OM OM1 4910 -0.550000 15.99940
4911 OM 4911 OM OM1 4911 -0.550000 15.99940
4912 OM 4912 OM OM1 4912 -0.550000 15.99940
4913 OM 4913 OM OM1 4913 -0.550000 15.99940
4914 OM 4914 OM OM1 4914 -0.550000 15.99940
4915 OM 4915 OM OM1 4915 -0.550000 15.99940
4916 OM 4916 OM OM1 4916 -0.550000 15.99940
4917 OM 4917 OM OM1 4917 -0.550000 15.99940
4918 OM 4918 OM OM1 4918 -0.550000 15.99940
4919 OM 4919 OM OM1 4919 -0.550000 15.99940
4920 OM 4920 OM OM1 4920 -0.550000 15.99940
4921 OM 4921 OM OM1 4921 -0.550000 15.99940
4922 OM 4922 OM OM1 4922 -0.550000 15.99940
4923 OM 4923 OM OM1 4923 -0.550000 15.99940
4924 OM 4924 OM OM1 4924 -0.550000 15.99940
4925 OM 4925 OM OM1 4925 -0.550000 15.99940
4926 OM 4926 OM OM1 4926 -0.550000 15.99940
4927 OM 4927 OM OM1 4927 -0.550000 15.99940
4928 OM 4928 OM OM1 4928 -0.550000 15.99940
4929 OM 4929 OM OM1 4929 -0.550000 15.99940
4930 OM 4930 OM OM1 4930 -0.550000 15.99940
4931 OM 4931 OM OM1 4931 -0.550000 15.99940
4932 OM 4932 OM OM1 4932 -0.550000 15.99940
4933 OM 4933 OM OM1 4933 -0.550000 15.99940
4934 OM 4934 OM OM1 4934 -0.550000 15.99940
4935 OM 4935 OM OM1 4935 -0.550000 15.99940
4936 OM 4936 OM OM1 4936 -0.550000 15.99940
4937 OM 4937 OM OM1 4937 -0.550000 15.99940
4938 OM 4938 OM OM1 4938 -0.550000 15.99940
4939 OM 4939 OM OM1 4939 -0.550000 15.99940
4940 OM 4940 OM OM1 4940 -0.550000 15.99940
4941 OM 4941 OM OM1 4941 -0.550000 15.99940
4942 OM 4942 OM OM1 4942 -0.550000 15.99940
4943 OM 4943 OM OM1 4943 -0.550000 15.99940
4944 OM 4944 OM OM1 4944 -0.550000 15.99940
4945 OM 4945 OM OM1 4945 -0.550000 15.99940
4946 OM 4946 OM OM1 4946 -0.550000 15.99940
4947 OM 4947 OM OM1 4947 -0.550000 15.99940
4948 OM 4948 OM OM1 4948 -0.550000 15.99940
4949 OM 4949 OM OM1 4949 -0.550000 15.99940
4950 OM 4950 OM OM1 4950 -0.550000 15.99940
4951 OM 4951 OM OM1 4951 -0.550000 15.99940
4952 OM 4952 OM OM1 4952 -0.550000 15.99940
4953 OM 4953 OM OM1 4953 -0.550000 15.99940
4954 OM 4954 OM OM1 4954 -0.550000 15.99940
4955 OM 4955 OM OM1 4955 -0.550000 15.99940
4956 OM 4956 OM OM1 4956 -0.550000 15.99940
4957 OM 4957 OM OM1 4957 -0.550000 15.99940
4958 OM 4958 OM OM1 4958 -0.550000 15.99940
4959 OM 4959 OM OM1 4959 -0.550000 15.99940
4960 OM 4960 OM OM1 4960 -0.550000 15.99940
4961 OM 4961 OM OM1 4961 -0.550000 15.99940
4962 OM 4962 OM OM1 4962 -0.550000 15.99940
4963 OM 4963 OM OM1 4963 -0.550000 15.99940
4964 OM 4964 OM OM1 4964 -0.550000 15.99940
4965 OM 4965 OM OM1 4965 -0.550000 15.99940
4966 OM 4966 OM OM1 4966 -0.550000 15.99940
4967 OM 4967 OM OM1 4967 -0.550000 15.99940
4968 OM 4968 OM OM1 4968 -0.550000 15.99940
4969 OM 4969 OM OM1 4969 -0.550000 15.99940
4970 OM 4970 OM OM1 4970 -0.550000 15.99940
4971 OM 4971 OM OM1 4971 -0.550000 15.99940
4972 OM 4972 OM OM1 4972 -0.550000 15.99940
4973 OM 4973 OM OM1 4973 -0.550000 15.99940
4974 OM 4974 OM OM1 4974 -0.550000 15.99940
4975 OM 4975 OM OM1 4975 -0.550000 15.99940
4976 OM 4976 OM OM1 4976 -0.550000 15.99940
4977 OM 4977 OM OM1 4977 -0.550000 15.99940
4978 OM 4978 OM OM1 4978 -0.550000 15.99940
4979 OM 4979 OM OM1 4979 -0.550000 15.99940
4980 OM 4980 OM OM1 4980 -0.550000 15.99940
4981 OM 4981 OM OM1 4981 -0.550000 15.99940
4982 OM 4982 OM OM1 4982 -0.550000 15.99940
4983 OM 4983 OM OM1 4983 -0.550000 15.99940
4984 OM 4984 OM OM1 4984 -0.550000 15.99940
4985 OM 4985 OM OM1 4985 -0.550000 15.99940
4986 OM 4986 OM OM1 4986 -0.550000 15.99940
4987 OM 4987 OM OM1 4987 -0.550000 15.99940
4988 OM 4988 OM OM1 4988 -0.550000 15.99940
4989 OM 4989 OM OM1 4989 -0.550000 15.99940
4990 OM 4990 OM OM1 4990 -0.550000 15.99940
4991 OM 4991 OM OM1 4991 -0.550000 15.99940
4992 OM 4992 OM OM1 4992 -0.550000 15.99940
4993 OM 4993 OM OM1 4993 -0.550000 15.99940
4994 OM 4994 OM OM1 4994 -0.550000 15.99940
4995 OM 4995 OM OM1 4995 -0.550000 15.99940
4996 OM 4996 OM OM1 4996 -0.550000 15.99940
4997 OM 4997 OM OM1 4997 -0.550000 15.99940
4998 OM 4998 OM OM1 4998 -0.550000 15.99940
4999 OM 4999 OM OM1 4999 -0.550000 15.99940
5000 OM 5000 OM OM1 5000 -0.550000 15.99940
5001 OM 5001 OM OM1 5001 -0.550000 15.99940
5002 OM 5002 OM OM1 5002 -0.550000 15.99940
5003 OM 5003 OM OM1 5003 -0.550000 15.99940
5004 OM 5004 OM OM1 5004 -0.550000 15.99940
5005 OM 5005 OM OM1 5005 -0.550000 15.99940
5006 OM 5006 OM OM1 5006 -0.550000 15.99940
5007 OM 5007 OM OM1 5007 -0.550000 15.99940
5008 OM 5008 OM OM1 5008 -0.550000 15.99940
5009 OM 5009 OM OM1 5009 -0.550000 15.99940
5010 OM 5010 OM OM1 5010 -0.550000 15.99940
5011 OM 5011 OM OM1 5011 -0.550000 15.99940
5012 OM 5012 OM OM1 5012 -0.550000 15.99940
5013 OM 5013 OM OM1 5013 -0.550000 15.99940
5014 OM 5014 OM OM1 5014 -0.550000 15.99940
5015 OM 5015 OM OM1 5015 -0.550000 15.99940
5016 OM 5016 OM OM1 5016 -0.550000 15.99940
5017 OM 5017 OM OM1 5017 -0.550000 15.99940
5018 OM 5018 OM OM1 5018 -0.550000 15.99940
5019 OM 5019 OM OM1 5019 -0.550000 15.99940
5020 OM 5020 OM OM1 5020 -0.550000 15.99940
5021 OM 5021 OM OM1 5021 -0.550000 15.99940
5022 OM 5022 OM OM1 5022 -0.550000 15.99940
5023 OM 5023 OM OM1 5023 -0.550000 15.99940
5024 OM 5024 OM OM1 5024 -0.550000 15.99940
5025 OM 5025 OM OM1 5025 -0.550000 15.99940
5026 OM 5026 OM OM1 5026 -0.550000 15.99940
5027 OM 5027 OM OM1 5027 -0.550000 15.99940
5028 OM 5028 OM OM1 5028 -0.550000 15.99940
5029 OM 5029 OM OM1 5029 -0.550000 15.99940
5030 OM 5030 OM OM1 5030 -0.550000 15.99940
5031 OM 5031 OM OM1 5031 -0.550000 15.99940
5032 OM 5032 OM OM1 5032 -0.550000 15.99940
5033 OM 5033 OM OM1 5033 -0.550000 15.99940
5034 OM 5034 OM OM1 5034 -0.550000 15.99940
5035 OM 5035 OM OM1 5035 -0.550000 15.99940
5036 OM 5036 OM OM1 5036 -0.550000 15.99940
5037 OM 5037 OM OM1 5037 -0.550000 15.99940
5038 OM 5038 OM OM1 5038 -0.550000 15.99940
5039 OM 5039 OM OM1 5039 -0.550000 15.99940
5040 OM 5040 OM OM1 5040 -0.550000 15.99940
5041 OM 5041 OM OM1 5041 -0.550000 15.99940
5042 OM 5042 OM OM1 5042 -0.550000 15.99940
5043 OM 5043 OM OM1 5043 -0.550000 15.99940
5044 OM 5044 OM OM1 5044 -0.550000 15.99940
5045 OM 5045 OM OM1 5045 -0.550000 15.99940
5046 OM 5046 OM OM1 5046 -0.550000 15.99940
5047 OM 5047 OM OM1 5047 -0.550000 15.99940
5048 OM 5048 OM OM1 5048 -0.550000 15.99940
5049 OM 5049 OM OM1 5049 -0.550000 15.99940
5050 OM 5050 OM OM1 5050 -0.550000 15.99940
5051 OM 5051 OM OM1 5051 -0.550000 15.99940
5052 OM 5052 OM OM1 5052 -0.550000 15.99940
5053 OM 5053 OM OM1 5053 -0.550000 15.99940
5054 OM 5054 OM OM1 5054 -0.550000 15.99940
5055 OM 5055 OM OM1 5055 -0.550000 15.99940
5056 OM 5056 OM OM1 5056 -0.550000 15.99940
5057 OM 5057 OM OM1 5057 -0.550000 15.99940
5058 OM 5058 OM OM1 5058 -0.550000 15.99940
5059 OM 5059 OM OM1 5059 -0.550000 15.99940
5060 OM 5060 OM OM1 5060 -0.550000 15.99940
5061 OM 5061 OM OM1 5061 -0.550000 15.99940
5062 OM 5062 OM OM1 5062 -0.550000 15.99940
5063 OM 5063 OM OM1 5063 -0.550000 15.99940
5064 OM 5064 OM OM1 5064 -0.550000 15.99940
5065 OM 5065 OM OM1 5065 -0.550000 15.99940
5066 OM 5066 OM OM1 5066 -0.550000 15.99940
5067 OM 5067 OM OM1 5067 -0.550000 15.99940
5068 OM 5068 OM OM1 5068 -0.550000 15.99940
5069 OM 5069 OM OM1 5069 -0.550000 15.99940
5070 OM 5070 OM OM1 5070 -0.550000 15.99940
5071 OM 5071 OM OM1 5071 -0.550000 15.99940
5072 OM 5072 OM OM1 5072 -0.550000 15.99940
5073 OM 5073 OM OM1 5073 -0.550000 15.99940
5074 OM 5074 OM OM1 5074 -0.550000 15.99940
5075 OM 5075 OM OM1 5075 -0.550000 15.99940
5076 OM 5076 OM OM1 5076 -0.550000 15.99940
5077 OM 5077 OM OM1 5077 -0.550000 15.99940
5078 OM 5078 OM OM1 5078 -0.550000 15.99940
5079 OM 5079 OM OM1 5079 -0.550000 15.99940
5080 OM 5080 OM OM1 5080 -0.550000 15.99940
5081 OM 5081 OM OM1 5081 -0.550000 15.99940
5082 OM 5082 OM OM1 5082 -0.550000 15.99940
5083 OM 5083 OM OM1 5083 -0.550000 15.99940
5084 OM 5084 OM OM1 5084 -0.550000 15.99940
5085 OM 5085 OM OM1 5085 -0.550000 15.99940
5086 OM 5086 OM OM1 5086 -0.550000 15.99940
5087 OM 5087 OM OM1 5087 -0.550000 15.99940
5088 OM 5088 OM OM1 5088 -0.550000 15.99940
5089 OM 5089 OM OM1 5089 -0.550000 15.99940
5090 OM 5090 OM OM1 5090 -0.550000 15.99940
5091 OM 5091 OM OM1 5091 -0.550000 15.99940
5092 OM 5092 OM OM1 5092 -0.550000 15.99940
5093 OM 5093 OM OM1 5093 -0.550000 15.99940
5094 OM 5094 OM OM1 5094 -0.550000 15.99940
5095 OM 5095 OM OM1 5095 -0.550000 15.99940
5096 OM 5096 OM OM1 5096 -0.550000 15.99940
5097 OM 5097 OM OM1 5097 -0.550000 15.99940
5098 OM 5098 OM OM1 5098 -0.550000 15.99940
5099 OM 5099 OM OM1 5099 -0.550000 15.99940
5100 OM 5100 OM OM1 5100 -0.550000 15.99940
5101 OM 5101 OM OM1 5101 -0.550000 15.99940
5102 OM 5102 OM OM1 5102 -0.550000 15.99940
5103 OM 5103 OM OM1 5103 -0.550000 15.99940
5104 OM 5104 OM OM1 5104 -0.550000 15.99940
5105 OM 5105 OM OM1 5105 -0.550000 15.99940
5106 OM 5106 OM OM1 5106 -0.550000 15.99940
5107 OM 5107 OM OM1 5107 -0.550000 15.99940
5108 OM 5108 OM OM1 5108 -0.550000 15.99940
5109 OM 5109 OM OM1 5109 -0.550000 15.99940
5110 OM 5110 OM OM1 5110 -0.550000 15.99940
5111 OM 5111 OM OM1 5111 -0.550000 15.99940
5112 OM 5112 OM OM1 5112 -0.550000 15.99940
5113 OM 5113 OM OM1 5113 -0.550000 15.99940
5114 OM 5114 OM OM1 5114 -0.550000 15.99940
5115 OM 5115 OM OM1 5115 -0.550000 15.99940
5116 OM 5116 OM OM1 5116 -0.550000 15.99940
5117 OM 5117 OM OM1 5117 -0.550000 15.99940
5118 OM 5118 OM OM1 5118 -0.550000 15.99940
5119 OM 5119 OM OM1 5119 -0.550000 15.99940
5120 OM 5120 OM OM1 5120 -0.550000 15.99940
5121 OM 5121 OM OM1 5121 -0.550000 15.99940
5122 OM 5122 OM OM1 5122 -0.550000 15.99940
5123 OM 5123 OM OM1 5123 -0.550000 15.99940
5124 OM 5124 OM OM1 5124 -0.550000 15.99940
5125 OM 5125 OM OM1 5125 -0.550000 15.99940
5126 OM 5126 OM OM1 5126 -0.550000 15.99940
5127 OM 5127 OM OM1 5127 -0.550000 15.99940
5128 OM 5128 OM OM1 5128 -0.550000 15.99940
5129 OM 5129 OM OM1 5129 -0.550000 15.99940
5130 OM 5130 OM OM1 5130 -0.550000 15.99940
5131 OM 5131 OM OM1 5131 -0.550000 15.99940
5132 OM 5132 OM OM1 5132 -0.550000 15.99940
5133 OM 5133 OM OM1 5133 -0.550000 15.99940
5134 OM 5134 OM OM1 5134 -0.550000 15.99940
5135 OM 5135 OM OM1 5135 -0.550000 15.99940
5136 OM 5136 OM OM1 5136 -0.550000 15.99940
5137 OM 5137 OM OM1 5137 -0.550000 15.99940
5138 OM 5138 OM OM1 5138 -0.550000 15.99940
5139 OM 5139 OM OM1 5139 -0.550000 15.99940
5140 OM 5140 OM OM1 5140 -0.550000 15.99940
5141 OM 5141 OM OM1 5141 -0.550000 15.99940
5142 OM 5142 OM OM1 5142 -0.550000 15.99940
5143 OM 5143 OM OM1 5143 -0.550000 15.99940
5144 OM 5144 OM OM1 5144 -0.550000 15.99940
5145 OM 5145 OM OM1 5145 -0.550000 15.99940
5146 OM 5146 OM OM1 5146 -0.550000 15.99940
5147 OM 5147 OM OM1 5147 -0.550000 15.99940
5148 OM 5148 OM OM1 5148 -0.550000 15.99940
5149 OM 5149 OM OM1 5149 -0.550000 15.99940
5150 OM 5150 OM OM1 5150 -0.550000 15.99940
5151 OM 5151 OM OM1 5151 -0.550000 15.99940
5152 OM 5152 OM OM1 5152 -0.550000 15.99940
5153 OM 5153 OM OM1 5153 -0.550000 15.99940
5154 OM 5154 OM OM1 5154 -0.550000 15.99940
5155 OM 5155 OM OM1 5155 -0.550000 15.99940
5156 OM 5156 OM OM1 5156 -0.550000 15.99940
5157 OM 5157 OM OM1 5157 -0.550000 15.99940
5158 OM 5158 OM OM1 5158 -0.550000 15.99940
5159 OM 5159 OM OM1 5159 -0.550000 15.99940
5160 OM 5160 OM OM1 5160 -0.550000 15.99940
5161 OM 5161 OM OM1 5161 -0.550000 15.99940
5162 OM 5162 OM OM1 5162 -0.550000 15.99940
5163 OM 5163 OM OM1 5163 -0.550000 15.99940
5164 OM 5164 OM OM1 5164 -0.550000 15.99940
5165 OM 5165 OM OM1 5165 -0.550000 15.99940
5166 OM 5166 OM OM1 5166 -0.550000 15.99940
5167 OM 5167 OM OM1 5167 -0.550000 15.99940
5168 OM 5168 OM OM1 5168 -0.550000 15.99940
5169 OM 5169 OM OM1 5169 -0.550000 15.99940
5170 OM 5170 OM OM1 5170 -0.550000 15.99940
5171 OM 5171 OM OM1 5171 -0.550000 15.99940
5172 OM 5172 OM OM1 5172 -0.550000 15.99940
5173 OM 5173 OM OM1 5173 -0.550000 15.99940
5174 OM 5174 OM OM1 5174 -0.550000 15.99940
5175 OM 5175 OM OM1 5175 -0.550000 15.99940
5176 OM 5176 OM OM1 5176 -0.550000 15.99940
5177 OM 5177 OM OM1 5177 -0.550000 15.99940
5178 OM 5178 OM OM1 5178 -0.550000 15.99940
5179 OM 5179 OM OM1 5179 -0.550000 15.99940
5180 OM 5180 OM OM1 5180 -0.550000 15.99940
5181 OM 5181 OM OM1 5181 -0.550000 15.99940
5182 OM 5182 OM OM1 5182 -0.550000 15.99940
5183 OM 5183 OM OM1 5183 -0.550000 15.99940
5184 OM 5184 OM OM1 5184 -0.550000 15.99940
5185 OM 5185 OM OM1 5185 -0.550000 15.99940
5186 OM 5186 OM OM1 5186 -0.550000 15.99940
5187 OM 5187 OM OM1 5187 -0.550000 15.99940
5188 OM 5188 OM OM1 5188 -0.550000 15.99940
5189 OM 5189 OM OM1 5189 -0.550000 15.99940
5190 OM 5190 OM OM1 5190 -0.550000 15.99940
5191 OM 5191 OM OM1 5191 -0.550000 15.99940
5192 OM 5192 OM OM1 5192 -0.550000 15.99940
5193 OM 5193 OM OM1 5193 -0.550000 15.99940
5194 OM 5194 OM OM1 5194 -0.550000 15.99940
5195 OM 5195 OM OM1 5195 -0.550000 15.99940
5196 OM 5196 OM OM1 5196 -0.550000 15.99940
5197 OM 5197 OM OM1 5197 -0.550000 15.99940
5198 OM 5198 OM OM1 5198 -0.550000 15.99940
5199 OM 5199 OM OM1 5199 -0.550000 15.99940
5200 OM 5200 OM OM1 5200 -0.550000 15.99940
5201 OM 5201 OM OM1 5201 -0.550000 15.99940
5202 OM 5202 OM OM1 5202 -0.550000 15.99940
5203 OM 5203 OM OM1 5203 -0.550000 15.99940
5204 OM 5204 OM OM1 5204 -0.550000 15.99940
5205 OM 5205 OM OM1 5205 -0.550000 15.99940
5206 OM 5206 OM OM1 5206 -0.550000 15.99940
5207 OM 5207 OM OM1 5207 -0.550000 15.99940
5208 OM 5208 OM OM1 5208 -0.550000 15.99940
5209 OM 5209 OM OM1 5209 -0.550000 15.99940
5210 OM 5210 OM OM1 5210 -0.550000 15.99940
5211 OM 5211 OM OM1 5211 -0.550000 15.99940
5212 OM 5212 OM OM1 5212 -0.550000 15.99940
5213 OM 5213 OM OM1 5213 -0.550000 15.99940
5214 OM 5214 OM OM1 5214 -0.550000 15.99940
5215 OM 5215 OM OM1 5215 -0.550000 15.99940
5216 OM 5216 OM OM1 5216 -0.550000 15.99940
5217 OM 5217 OM OM1 5217 -0.550000 15.99940
5218 OM 5218 OM OM1 5218 -0.550000 15.99940
5219 OM 5219 OM OM1 5219 -0.550000 15.99940
5220 OM 5220 OM OM1 5220 -0.550000 15.99940
5221 OM 5221 OM OM1 5221 -0.550000 15.99940
5222 OM 5222 OM OM1 5222 -0.550000 15.99940
5223 OM 5223 OM OM1 5223 -0.550000 15.99940
5224 OM 5224 OM OM1 5224 -0.550000 15.99940
5225 OM 5225 OM OM1 5225 -0.550000 15.99940
5226 OM 5226 OM OM1 5226 -0.550000 15.99940
5227 OM 5227 OM OM1 5227 -0.550000 15.99940
5228 OM 5228 OM OM1 5228 -0.550000 15.99940
5229 OM 5229 OM OM1 5229 -0.550000 15.99940
5230 OM 5230 OM OM1 5230 -0.550000 15.99940
5231 OM 5231 OM OM1 5231 -0.550000 15.99940
5232 OM 5232 OM OM1 5232 -0.550000 15.99940
5233 OM 5233 OM OM1 5233 -0.550000 15.99940
5234 OM 5234 OM OM1 5234 -0.550000 15.99940
5235 OM 5235 OM OM1 5235 -0.550000 15.99940
5236 OM 5236 OM OM1 5236 -0.550000 15.99940
5237 OM 5237 OM OM1 5237 -0.550000 15.99940
5238 OM 5238 OM OM1 5238 -0.550000 15.99940
5239 OM 5239 OM OM1 5239 -0.550000 15.99940
5240 OM 5240 OM OM1 5240 -0.550000 15.99940
5241 OM 5241 OM OM1 5241 -0.550000 15.99940
5242 OM 5242 OM OM1 5242 -0.550000 15.99940
5243 OM 5243 OM OM1 5243 -0.550000 15.99940
5244 OM 5244 OM OM1 5244 -0.550000 15.99940
5245 OM 5245 OM OM1 5245 -0.550000 15.99940
5246 OM 5246 OM OM1 5246 -0.550000 15.99940
5247 OM 5247 OM OM1 5247 -0.550000 15.99940
5248 OM 5248 OM OM1 5248 -0.550000 15.99940
5249 OM 5249 OM OM1 5249 -0.550000 15.99940
5250 OM 5250 OM OM1 5250 -0.550000 15.99940
5251 OM 5251 OM OM1 5251 -0.550000 15.99940
5252 OM 5252 OM OM1 5252 -0.550000 15.99940
5253 OM 5253 OM OM1 5253 -0.550000 15.99940
5254 OM 5254 OM OM1 5254 -0.550000 15.99940
5255 OM 5255 OM OM1 5255 -0.550000 15.99940
5256 OM 5256 OM OM1 5256 -0.550000 15.99940
5257 OM 5257 OM OM1 5257 -0.550000 15.99940
5258 OM 5258 OM OM1 5258 -0.550000 15.99940
5259 OM 5259 OM OM1 5259 -0.550000 15.99940
5260 OM 5260 OM OM1 5260 -0.550000 15.99940
5261 OM 5261 OM OM1 5261 -0.550000 15.99940
5262 OM 5262 OM OM1 5262 -0.550000 15.99940
5263 OM 5263 OM OM1 5263 -0.550000 15.99940
5264 OM 5264 OM OM1 5264 -0.550000 15.99940
5265 OM 5265 OM OM1 5265 -0.550000 15.99940
5266 OM 5266 OM OM1 5266 -0.550000 15.99940
5267 OM 5267 OM OM1 5267 -0.550000 15.99940
5268 OM 5268 OM OM1 5268 -0.550000 15.99940
5269 OM 5269 OM OM1 5269 -0.550000 15.99940
5270 OM 5270 OM OM1 5270 -0.550000 15.99940
5271 OM 5271 OM OM1 5271 -0.550000 15.99940
5272 OM 5272 OM OM1 5272 -0.550000 15.99940
5273 OM 5273 OM OM1 5273 -0.550000 15.99940
5274 OM 5274 OM OM1 5274 -0.550000 15.99940
5275 OM 5275 OM OM1 5275 -0.550000 15.99940
5276 OM 5276 OM OM1 5276 -0.550000 15.99940
5277 OM 5277 OM OM1 5277 -0.550000 15.99940
5278 OM 5278 OM OM1 5278 -0.550000 15.99940
5279 OM 5279 OM OM1 5279 -0.550000 15.99940
5280 OM 5280 OM OM1 5280 -0.550000 15.99940
5281 OM 5281 OM OM1 5281 -0.550000 15.99940
5282 OM 5282 OM OM1 5282 -0.550000 15.99940
5283 OM 5283 OM OM1 5283 -0.550000 15.99940
5284 OM 5284 OM OM1 5284 -0.550000 15.99940
5285 OM 5285 OM OM1 5285 -0.550000 15.99940
5286 OM 5286 OM OM1 5286 -0.550000 15.99940
5287 OM 5287 OM OM1 5287 -0.550000 15.99940
5288 OM 5288 OM OM1 5288 -0.550000 15.99940
5289 OM 5289 OM OM1 5289 -0.550000 15.99940
5290 OM 5290 OM OM1 5290 -0.550000 15.99940
5291 OM 5291 OM OM1 5291 -0.550000 15.99940
5292 OM 5292 OM OM1 5292 -0.550000 15.99940
5293 OM 5293 OM OM1 5293 -0.550000 15.99940
5294 OM 5294 OM OM1 5294 -0.550000 15.99940
5295 OM 5295 OM OM1 5295 -0.550000 15.99940
5296 OM 5296 OM OM1 5296 -0.550000 15.99940
5297 OM 5297 OM OM1 5297 -0.550000 15.99940
5298 OM 5298 OM OM1 5298 -0.550000 15.99940
5299 OM 5299 OM OM1 5299 -0.550000 15.99940
5300 OM 5300 OM OM1 5300 -0.550000 15.99940
5301 OM 5301 OM OM1 5301 -0.550000 15.99940
5302 OM 5302 OM OM1 5302 -0.550000 15.99940
5303 OM 5303 OM OM1 5303 -0.550000 15.99940
5304 OM 5304 OM OM1 5304 -0.550000 15.99940
5305 OM 5305 OM OM1 5305 -0.550000 15.99940
5306 OM 5306 OM OM1 5306 -0.550000 15.99940
5307 OM 5307 OM OM1 5307 -0.550000 15.99940
5308 OM 5308 OM OM1 5308 -0.550000 15.99940
5309 OM 5309 OM OM1 5309 -0.550000 15.99940
5310 OM 5310 OM OM1 5310 -0.550000 15.99940
5311 OM 5311 OM OM1 5311 -0.550000 15.99940
5312 OM 5312 OM OM1 5312 -0.550000 15.99940
5313 OM 5313 OM OM1 5313 -0.550000 15.99940
5314 OM 5314 OM OM1 5314 -0.550000 15.99940
5315 OM 5315 OM OM1 5315 -0.550000 15.99940
5316 OM 5316 OM OM1 5316 -0.550000 15.99940
5317 OM 5317 OM OM1 5317 -0.550000 15.99940
5318 OM 5318 OM OM1 5318 -0.550000 15.99940
5319 OM 5319 OM OM1 5319 -0.550000 15.99940
5320 OM 5320 OM OM1 5320 -0.550000 15.99940
5321 OM 5321 OM OM1 5321 -0.550000 15.99940
5322 OM 5322 OM OM1 5322 -0.550000 15.99940
5323 OM 5323 OM OM1 5323 -0.550000 15.99940
5324 OM 5324 OM OM1 5324 -0.550000 15.99940
5325 OM 5325 OM OM1 5325 -0.550000 15.99940
5326 OM 5326 OM OM1 5326 -0.550000 15.99940
5327 OM 5327 OM OM1 5327 -0.550000 15.99940
5328 OM 5328 OM OM1 5328 -0.550000 15.99940
5329 OM 5329 OM OM1 5329 -0.550000 15.99940
5330 OM 5330 OM OM1 5330 -0.550000 15.99940
5331 OM 5331 OM OM1 5331 -0.550000 15.99940
5332 OM 5332 OM OM1 5332 -0.550000 15.99940
5333 OM 5333 OM OM1 5333 -0.550000 15.99940
5334 OM 5334 OM OM1 5334 -0.550000 15.99940
5335 OM 5335 OM OM1 5335 -0.550000 15.99940
5336 OM 5336 OM OM1 5336 -0.550000 15.99940
5337 OM 5337 OM OM1 5337 -0.550000 15.99940
5338 OM 5338 OM OM1 5338 -0.550000 15.99940
5339 OM 5339 OM OM1 5339 -0.550000 15.99940
5340 OM 5340 OM OM1 5340 -0.550000 15.99940
5341 OM 5341 OM OM1 5341 -0.550000 15.99940
5342 OM 5342 OM OM1 5342 -0.550000 15.99940
5343 OM 5343 OM OM1 5343 -0.550000 15.99940
5344 OM 5344 OM OM1 5344 -0.550000 15.99940
5345 OM 5345 OM OM1 5345 -0.550000 15.99940
5346 OM 5346 OM OM1 5346 -0.550000 15.99940
5347 OM 5347 OM OM1 5347 -0.550000 15.99940
5348 OM 5348 OM OM1 5348 -0.550000 15.99940
5349 OM 5349 OM OM1 5349 -0.550000 15.99940
5350 OM 5350 OM OM1 5350 -0.550000 15.99940
5351 OM 5351 OM OM1 5351 -0.550000 15.99940
5352 OM 5352 OM OM1 5352 -0.550000 15.99940
5353 OM 5353 OM OM1 5353 -0.550000 15.99940
5354 OM 5354 OM OM1 5354 -0.550000 15.99940
5355 OM 5355 OM OM1 5355 -0.550000 15.99940
5356 OM 5356 OM OM1 5356 -0.550000 15.99940
5357 OM 5357 OM OM1 5357 -0.550000 15.99940
5358 OM 5358 OM OM1 5358 -0.550000 15.99940
5359 OM 5359 OM OM1 5359 -0.550000 15.99940
5360 OM 5360 OM OM1 5360 -0.550000 15.99940
5361 OM 5361 OM OM1 5361 -0.550000 15.99940
5362 OM 5362 OM OM1 5362 -0.550000 15.99940
5363 OM 5363 OM OM1 5363 -0.550000 15.99940
5364 OM 5364 OM OM1 5364 -0.550000 15.99940
5365 OM 5365 OM OM1 5365 -0.550000 15.99940
5366 OM 5366 OM OM1 5366 -0.550000 15.99940
5367 OM 5367 OM OM1 5367 -0.550000 15.99940
5368 OM 5368 OM OM1 5368 -0.550000 15.99940
5369 OM 5369 OM OM1 5369 -0.550000 15.99940
5370 OM 5370 OM OM1 5370 -0.550000 15.99940
5371 OM 5371 OM OM1 5371 -0.550000 15.99940
5372 OM 5372 OM OM1 5372 -0.550000 15.99940
5373 OM 5373 OM OM1 5373 -0.550000 15.99940
5374 OM 5374 OM OM1 5374 -0.550000 15.99940
5375 OM 5375 OM OM1 5375 -0.550000 15.99940
5376 OM 5376 OM OM1 5376 -0.550000 15.99940
5377 OM 5377 OM OM1 5377 -0.550000 15.99940
5378 OM 5378 OM OM1 5378 -0.550000 15.99940
5379 OM 5379 OM OM1 5379 -0.550000 15.99940
5380 OM 5380 OM OM1 5380 -0.550000 15.99940
5381 OM 5381 OM OM1 5381 -0.550000 15.99940
5382 OM 5382 OM OM1 5382 -0.550000 15.99940
5383 OM 5383 OM OM1 5383 -0.550000 15.99940
5384 OM 5384 OM OM1 5384 -0.550000 15.99940
5385 OM 5385 OM OM1 5385 -0.550000 15.99940
5386 OM 5386 OM OM1 5386 -0.550000 15.99940
5387 OM 5387 OM OM1 5387 -0.550000 15.99940
5388 OM 5388 OM OM1 5388 -0.550000 15.99940
5389 OM 5389 OM OM1 5389 -0.550000 15.99940
5390 OM 5390 OM OM1 5390 -0.550000 15.99940
5391 OM 5391 OM OM1 5391 -0.550000 15.99940
5392 OM 5392 OM OM1 5392 -0.550000 15.99940
5393 OM 5393 OM OM1 5393 -0.550000 15.99940
5394 OM 5394 OM OM1 5394 -0.550000 15.99940
5395 OM 5395 OM OM1 5395 -0.550000 15.99940
5396 OM 5396 OM OM1 5396 -0.550000 15.99940
5397 OM 5397 OM OM1 5397 -0.550000 15.99940
5398 OM 5398 OM OM1 5398 -0.550000 15.99940
5399 OM 5399 OM OM1 5399 -0.550000 15.99940
5400 OM 5400 OM OM1 5400 -0.550000 15.99940
5401 OM 5401 OM OM1 5401 -0.550000 15.99940
5402 OM 5402 OM OM1 5402 -0.550000 15.99940
5403 OM 5403 OM OM1 5403 -0.550000 15.99940
5404 OM 5404 OM OM1 5404 -0.550000 15.99940
5405 OM 5405 OM OM1 5405 -0.550000 15.99940
5406 OM 5406 OM OM1 5406 -0.550000 15.99940
5407 OM 5407 OM OM1 5407 -0.550000 15.99940
5408 OM 5408 OM OM1 5408 -0.550000 15.99940
5409 OM 5409 OM OM1 5409 -0.550000 15.99940
5410 OM 5410 OM OM1 5410 -0.550000 15.99940
5411 OM 5411 OM OM1 5411 -0.550000 15.99940
5412 OM 5412 OM OM1 5412 -0.550000 15.99940
5413 OM 5413 OM OM1 5413 -0.550000 15.99940
5414 OM 5414 OM OM1 5414 -0.550000 15.99940
5415 OM 5415 OM OM1 5415 -0.550000 15.99940
5416 OM 5416 OM OM1 5416 -0.550000 15.99940
5417 OM 5417 OM OM1 5417 -0.550000 15.99940
5418 OM 5418 OM OM1 5418 -0.550000 15.99940
5419 OM 5419 OM OM1 5419 -0.550000 15.99940
5420 OM 5420 OM OM1 5420 -0.550000 15.99940
5421 OM 5421 OM OM1 5421 -0.550000 15.99940
5422 OM 5422 OM OM1 5422 -0.550000 15.99940
5423 OM 5423 OM OM1 5423 -0.550000 15.99940
5424 OM 5424 OM OM1 5424 -0.550000 15.99940
5425 OM 5425 OM OM1 5425 -0.550000 15.99940
5426 OM 5426 OM OM1 5426 -0.550000 15.99940
5427 OM 5427 OM OM1 5427 -0.550000 15.99940
5428 OM 5428 OM OM1 5428 -0.550000 15.99940
5429 OM 5429 OM OM1 5429 -0.550000 15.99940
5430 OM 5430 OM OM1 5430 -0.550000 15.99940
5431 OM 5431 OM OM1 5431 -0.550000 15.99940
5432 OM 5432 OM OM1 5432 -0.550000 15.99940
5433 OM 5433 OM OM1 5433 -0.550000 15.99940
5434 OM 5434 OM OM1 5434 -0.550000 15.99940
5435 OM 5435 OM OM1 5435 -0.550000 15.99940
5436 OM 5436 OM OM1 5436 -0.550000 15.99940
5437 OM 5437 OM OM1 5437 -0.550000 15.99940
5438 OM 5438 OM OM1 5438 -0.550000 15.99940
5439 OM 5439 OM OM1 5439 -0.550000 15.99940
5440 OM 5440 OM OM1 5440 -0.550000 15.99940
5441 OM 5441 OM OM1 5441 -0.550000 15.99940
5442 OM 5442 OM OM1 5442 -0.550000 15.99940
5443 OM 5443 OM OM1 5443 -0.550000 15.99940
5444 OM 5444 OM OM1 5444 -0.550000 15.99940
5445 OM 5445 OM OM1 5445 -0.550000 15.99940
5446 OM 5446 OM OM1 5446 -0.550000 15.99940
5447 OM 5447 OM OM1 5447 -0.550000 15.99940
5448 OM 5448 OM OM1 5448 -0.550000 15.99940
5449 OM 5449 OM OM1 5449 -0.550000 15.99940
5450 OM 5450 OM OM1 5450 -0.550000 15.99940
5451 OM 5451 OM OM1 5451 -0.550000 15.99940
5452 OM 5452 OM OM1 5452 -0.550000 15.99940
5453 OM 5453 OM OM1 5453 -0.550000 15.99940
5454 OM 5454 OM OM1 5454 -0.550000 15.99940
5455 OM 5455 OM OM1 5455 -0.550000 15.99940
5456 OM 5456 OM OM1 5456 -0.550000 15.99940
5457 OM 5457 OM OM1 5457 -0.550000 15.99940
5458 OM 5458 OM OM1 5458 -0.550000 15.99940
5459 OM 5459 OM OM1 5459 -0.550000 15.99940
5460 OM 5460 OM OM1 5460 -0.550000 15.99940
5461 OM 5461 OM OM1 5461 -0.550000 15.99940
5462 OM 5462 OM OM1 5462 -0.550000 15.99940
5463 OM 5463 OM OM1 5463 -0.550000 15.99940
5464 OM 5464 OM OM1 5464 -0.550000 15.99940
5465 OM 5465 OM OM1 5465 -0.550000 15.99940
5466 OM 5466 OM OM1 5466 -0.550000 15.99940
5467 OM 5467 OM OM1 5467 -0.550000 15.99940
5468 OM 5468 OM OM1 5468 -0.550000 15.99940
5469 OM 5469 OM OM1 5469 -0.550000 15.99940
5470 OM 5470 OM OM1 5470 -0.550000 15.99940
5471 OM 5471 OM OM1 5471 -0.550000 15.99940
5472 OM 5472 OM OM1 5472 -0.550000 15.99940
5473 OM 5473 OM OM1 5473 -0.550000 15.99940
5474 OM 5474 OM OM1 5474 -0.550000 15.99940
5475 OM 5475 OM OM1 5475 -0.550000 15.99940
5476 OM 5476 OM OM1 5476 -0.550000 15.99940
5477 OM 5477 OM OM1 5477 -0.550000 15.99940
5478 OM 5478 OM OM1 5478 -0.550000 15.99940
5479 OM 5479 OM OM1 5479 -0.550000 15.99940
5480 OM 5480 OM OM1 5480 -0.550000 15.99940
5481 OM 5481 OM OM1 5481 -0.550000 15.99940
5482 OM 5482 OM OM1 5482 -0.550000 15.99940
5483 OM 5483 OM OM1 5483 -0.550000 15.99940
5484 OM 5484 OM OM1 5484 -0.550000 15.99940
5485 OM 5485 OM OM1 5485 -0.550000 15.99940
5486 OM 5486 OM OM1 5486 -0.550000 15.99940
5487 OM 5487 OM OM1 5487 -0.550000 15.99940
5488 OM 5488 OM OM1 5488 -0.550000 15.99940
5489 OM 5489 OM OM1 5489 -0.550000 15.99940
5490 OM 5490 OM OM1 5490 -0.550000 15.99940
5491 OM 5491 OM OM1 5491 -0.550000 15.99940
5492 OM 5492 OM OM1 5492 -0.550000 15.99940
5493 OM 5493 OM OM1 5493 -0.550000 15.99940
5494 OM 5494 OM OM1 5494 -0.550000 15.99940
5495 OM 5495 OM OM1 5495 -0.550000 15.99940
5496 OM 5496 OM OM1 5496 -0.550000 15.99940
5497 OM 5497 OM OM1 5497 -0.550000 15.99940
5498 OM 5498 OM OM1 5498 -0.550000 15.99940
5499 OM 5499 OM OM1 5499 -0.550000 15.99940
5500 OM 5500 OM OM1 5500 -0.550000 15.99940
5501 OM 5501 OM OM1 5501 -0.550000 15.99940
5502 OM 5502 OM OM1 5502 -0.550000 15.99940
5503 OM 5503 OM OM1 5503 -0.550000 15.99940
5504 OM 5504 OM OM1 5504 -0.550000 15.99940
5505 OM 5505 OM OM1 5505 -0.550000 15.99940
5506 OM 5506 OM OM1 5506 -0.550000 15.99940
5507 OM 5507 OM OM1 5507 -0.550000 15.99940
5508 OM 5508 OM OM1 5508 -0.550000 15.99940
5509 OM 5509 OM OM1 5509 -0.550000 15.99940
5510 OM 5510 OM OM1 5510 -0.550000 15.99940
5511 OM 5511 OM OM1 5511 -0.550000 15.99940
5512 OM 5512 OM OM1 5512 -0.550000 15.99940
5513 OM 5513 OM OM1 5513 -0.550000 15.99940
5514 OM 5514 OM OM1 5514 -0.550000 15.99940
5515 OM 5515 OM OM1 5515 -0.550000 15.99940
5516 OM 5516 OM OM1 5516 -0.550000 15.99940
5517 OM 5517 OM OM1 5517 -0.550000 15.99940
5518 OM 5518 OM OM1 5518 -0.550000 15.99940
5519 OM 5519 OM OM1 5519 -0.550000 15.99940
5520 OM 5520 OM OM1 5520 -0.550000 15.99940
5521 OM 5521 OM OM1 5521 -0.550000 15.99940
5522 OM 5522 OM OM1 5522 -0.550000 15.99940
5523 OM 5523 OM OM1 5523 -0.550000 15.99940
5524 OM 5524 OM OM1 5524 -0.550000 15.99940
5525 OM 5525 OM OM1 5525 -0.550000 15.99940
5526 OM 5526 OM OM1 5526 -0.550000 15.99940
5527 OM 5527 OM OM1 5527 -0.550000 15.99940
5528 OM 5528 OM OM1 5528 -0.550000 15.99940
5529 OM 5529 OM OM1 5529 -0.550000 15.99940
5530 OM 5530 OM OM1 5530 -0.550000 15.99940
5531 OM 5531 OM OM1 5531 -0.550000 15.99940
5532 OM 5532 OM OM1 5532 -0.550000 15.99940
5533 OM 5533 OM OM1 5533 -0.550000 15.99940
5534 OM 5534 OM OM1 5534 -0.550000 15.99940
5535 OM 5535 OM OM1 5535 -0.550000 15.99940
5536 OM 5536 OM OM1 5536 -0.550000 15.99940
5537 OM 5537 OM OM1 5537 -0.550000 15.99940
5538 OM 5538 OM OM1 5538 -0.550000 15.99940
5539 OM 5539 OM OM1 5539 -0.550000 15.99940
5540 OM 5540 OM OM1 5540 -0.550000 15.99940
5541 OM 5541 OM OM1 5541 -0.550000 15.99940
5542 OM 5542 OM OM1 5542 -0.550000 15.99940
5543 OM 5543 OM OM1 5543 -0.550000 15.99940
5544 OM 5544 OM OM1 5544 -0.550000 15.99940
5545 OM 5545 OM OM1 5545 -0.550000 15.99940
5546 OM 5546 OM OM1 5546 -0.550000 15.99940
5547 OM 5547 OM OM1 5547 -0.550000 15.99940
5548 OM 5548 OM OM1 5548 -0.550000 15.99940
5549 OM 5549 OM OM1 5549 -0.550000 15.99940
5550 OM 5550 OM OM1 5550 -0.550000 15.99940
5551 OM 5551 OM OM1 5551 -0.550000 15.99940
5552 OM 5552 OM OM1 5552 -0.550000 15.99940
5553 OM 5553 OM OM1 5553 -0.550000 15.99940
5554 OM 5554 OM OM1 5554 -0.550000 15.99940
5555 OM 5555 OM OM1 5555 -0.550000 15.99940
5556 OM 5556 OM OM1 5556 -0.550000 15.99940
5557 OM 5557 OM OM1 5557 -0.550000 15.99940
5558 OM 5558 OM OM1 5558 -0.550000 15.99940
5559 OM 5559 OM OM1 5559 -0.550000 15.99940
5560 OM 5560 OM OM1 5560 -0.550000 15.99940
5561 OM 5561 OM OM1 5561 -0.550000 15.99940
5562 OM 5562 OM OM1 5562 -0.550000 15.99940
5563 OM 5563 OM OM1 5563 -0.550000 15.99940
5564 OM 5564 OM OM1 5564 -0.550000 15.99940
5565 OM 5565 OM OM1 5565 -0.550000 15.99940
5566 OM 5566 OM OM1 5566 -0.550000 15.99940
5567 OM 5567 OM OM1 5567 -0.550000 15.99940
5568 OM 5568 OM OM1 5568 -0.550000 15.99940
5569 OM 5569 OM OM1 5569 -0.550000 15.99940
5570 OM 5570 OM OM1 5570 -0.550000 15.99940
5571 OM 5571 OM OM1 5571 -0.550000 15.99940
5572 OM 5572 OM OM1 5572 -0.550000 15.99940
5573 OM 5573 OM OM1 5573 -0.550000 15.99940
5574 OM 5574 OM OM1 5574 -0.550000 15.99940
5575 OM 5575 OM OM1 5575 -0.550000 15.99940
5576 OM 5576 OM OM1 5576 -0.550000 15.99940
5577 OM 5577 OM OM1 5577 -0.550000 15.99940
5578 OM 5578 OM OM1 5578 -0.550000 15.99940
5579 OM 5579 OM OM1 5579 -0.550000 15.99940
5580 OM 5580 OM OM1 5580 -0.550000 15.99940
5581 OM 5581 OM OM1 5581 -0.550000 15.99940
5582 OM 5582 OM OM1 5582 -0.550000 15.99940
5583 OM 5583 OM OM1 5583 -0.550000 15.99940
5584 OM 5584 OM OM1 5584 -0.550000 15.99940
5585 OM 5585 OM OM1 5585 -0.550000 15.99940
5586 OM 5586 OM OM1 5586 -0.550000 15.99940
5587 OM 5587 OM OM1 5587 -0.550000 15.99940
5588 OM 5588 OM OM1 5588 -0.550000 15.99940
5589 OM 5589 OM OM1 5589 -0.550000 15.99940
5590 OM 5590 OM OM1 5590 -0.550000 15.99940
5591 OM 5591 OM OM1 5591 -0.550000 15.99940
5592 OM 5592 OM OM1 5592 -0.550000 15.99940
5593 OM 5593 OM OM1 5593 -0.550000 15.99940
5594 OM 5594 OM OM1 5594 -0.550000 15.99940
5595 OM 5595 OM OM1 5595 -0.550000 15.99940
5596 OM 5596 OM OM1 5596 -0.550000 15.99940
5597 OM 5597 OM OM1 5597 -0.550000 15.99940
5598 OM 5598 OM OM1 5598 -0.550000 15.99940
5599 OM 5599 OM OM1 5599 -0.550000 15.99940
5600 OM 5600 OM OM1 5600 -0.550000 15.99940
5601 OM 5601 OM OM1 5601 -0.550000 15.99940
5602 OM 5602 OM OM1 5602 -0.550000 15.99940
5603 OM 5603 OM OM1 5603 -0.550000 15.99940
5604 OM 5604 OM OM1 5604 -0.550000 15.99940
5605 OM 5605 OM OM1 5605 -0.550000 15.99940
5606 OM 5606 OM OM1 5606 -0.550000 15.99940
5607 OM 5607 OM OM1 5607 -0.550000 15.99940
5608 OM 5608 OM OM1 5608 -0.550000 15.99940
5609 OM 5609 OM OM1 5609 -0.550000 15.99940
5610 OM 5610 OM OM1 5610 -0.550000 15.99940
5611 OM 5611 OM OM1 5611 -0.550000 15.99940
5612 OM 5612 OM OM1 5612 -0.550000 15.99940
5613 OM 5613 OM OM1 5613 -0.550000 15.99940
5614 OM 5614 OM OM1 5614 -0.550000 15.99940
5615 OM 5615 OM OM1 5615 -0.550000 15.99940
5616 OM 5616 OM OM1 5616 -0.550000 15.99940
5617 OM 5617 OM OM1 5617 -0.550000 15.99940
5618 OM 5618 OM OM1 5618 -0.550000 15.99940
5619 OM 5619 OM OM1 5619 -0.550000 15.99940
5620 OM 5620 OM OM1 5620 -0.550000 15.99940
5621 OM 5621 OM OM1 5621 -0.550000 15.99940
5622 OM 5622 OM OM1 5622 -0.550000 15.99940
5623 OM 5623 OM OM1 5623 -0.550000 15.99940
5624 OM 5624 OM OM1 5624 -0.550000 15.99940
5625 OM 5625 OM OM1 5625 -0.550000 15.99940
5626 OM 5626 OM OM1 5626 -0.550000 15.99940
5627 OM 5627 OM OM1 5627 -0.550000 15.99940
5628 OM 5628 OM OM1 5628 -0.550000 15.99940
5629 OM 5629 OM OM1 5629 -0.550000 15.99940
5630 OM 5630 OM OM1 5630 -0.550000 15.99940
5631 OM 5631 OM OM1 5631 -0.550000 15.99940
5632 OM 5632 OM OM1 5632 -0.550000 15.99940
5633 OM 5633 OM OM1 5633 -0.550000 15.99940
5634 OM 5634 OM OM1 5634 -0.550000 15.99940
5635 OM 5635 OM OM1 5635 -0.550000 15.99940
5636 OM 5636 OM OM1 5636 -0.550000 15.99940
5637 OM 5637 OM OM1 5637 -0.550000 15.99940
5638 OM 5638 OM OM1 5638 -0.550000 15.99940
5639 OM 5639 OM OM1 5639 -0.550000 15.99940
5640 OM 5640 OM OM1 5640 -0.550000 15.99940
5641 OM 5641 OM OM1 5641 -0.550000 15.99940
5642 OM 5642 OM OM1 5642 -0.550000 15.99940
5643 OM 5643 OM OM1 5643 -0.550000 15.99940
5644 OM 5644 OM OM1 5644 -0.550000 15.99940
5645 OM 5645 OM OM1 5645 -0.550000 15.99940
5646 OM 5646 OM OM1 5646 -0.550000 15.99940
5647 OM 5647 OM OM1 5647 -0.550000 15.99940
5648 OM 5648 OM OM1 5648 -0.550000 15.99940
5649 OM 5649 OM OM1 5649 -0.550000 15.99940
5650 OM 5650 OM OM1 5650 -0.550000 15.99940
5651 OM 5651 OM OM1 5651 -0.550000 15.99940
5652 OM 5652 OM OM1 5652 -0.550000 15.99940
5653 OM 5653 OM OM1 5653 -0.550000 15.99940
5654 OM 5654 OM OM1 5654 -0.550000 15.99940
5655 OM 5655 OM OM1 5655 -0.550000 15.99940
5656 OM 5656 OM OM1 5656 -0.550000 15.99940
5657 OM 5657 OM OM1 5657 -0.550000 15.99940
5658 OM 5658 OM OM1 5658 -0.550000 15.99940
5659 OM 5659 OM OM1 5659 -0.550000 15.99940
5660 OM 5660 OM OM1 5660 -0.550000 15.99940
5661 OM 5661 OM OM1 5661 -0.550000 15.99940
5662 OM 5662 OM OM1 5662 -0.550000 15.99940
5663 OM 5663 OM OM1 5663 -0.550000 15.99940
5664 OM 5664 OM OM1 5664 -0.550000 15.99940
5665 OM 5665 OM OM1 5665 -0.550000 15.99940
5666 OM 5666 OM OM1 5666 -0.550000 15.99940
5667 OM 5667 OM OM1 5667 -0.550000 15.99940
5668 OM 5668 OM OM1 5668 -0.550000 15.99940
5669 OM 5669 OM OM1 5669 -0.550000 15.99940
5670 OM 5670 OM OM1 5670 -0.550000 15.99940
5671 OM 5671 OM OM1 5671 -0.550000 15.99940
5672 OM 5672 OM OM1 5672 -0.550000 15.99940
5673 OM 5673 OM OM1 5673 -0.550000 15.99940
5674 OM 5674 OM OM1 5674 -0.550000 15.99940
5675 OM 5675 OM OM1 5675 -0.550000 15.99940
5676 OM 5676 OM OM1 5676 -0.550000 15.99940
5677 OM 5677 OM OM1 5677 -0.550000 15.99940
5678 OM 5678 OM OM1 5678 -0.550000 15.99940
5679 OM 5679 OM OM1 5679 -0.550000 15.99940
5680 OM 5680 OM OM1 5680 -0.550000 15.99940
5681 OM 5681 OM OM1 5681 -0.550000 15.99940
5682 OM 5682 OM OM1 5682 -0.550000 15.99940
5683 OM 5683 OM OM1 5683 -0.550000 15.99940
5684 OM 5684 OM OM1 5684 -0.550000 15.99940
5685 OM 5685 OM OM1 5685 -0.550000 15.99940
5686 OM 5686 OM OM1 5686 -0.550000 15.99940
5687 OM 5687 OM OM1 5687 -0.550000 15.99940
5688 OM 5688 OM OM1 5688 -0.550000 15.99940
5689 OM 5689 OM OM1 5689 -0.550000 15.99940
5690 OM 5690 OM OM1 5690 -0.550000 15.99940
5691 OM 5691 OM OM1 5691 -0.550000 15.99940
5692 OM 5692 OM OM1 5692 -0.550000 15.99940
5693 OM 5693 OM OM1 5693 -0.550000 15.99940
5694 OM 5694 OM OM1 5694 -0.550000 15.99940
5695 OM 5695 OM OM1 5695 -0.550000 15.99940
5696 OM 5696 OM OM1 5696 -0.550000 15.99940
5697 OM 5697 OM OM1 5697 -0.550000 15.99940
5698 OM 5698 OM OM1 5698 -0.550000 15.99940
5699 OM 5699 OM OM1 5699 -0.550000 15.99940
5700 OM 5700 OM OM1 5700 -0.550000 15.99940
5701 OM 5701 OM OM1 5701 -0.550000 15.99940
5702 OM 5702 OM OM1 5702 -0.550000 15.99940
5703 OM 5703 OM OM1 5703 -0.550000 15.99940
5704 OM 5704 OM OM1 5704 -0.550000 15.99940
5705 OM 5705 OM OM1 5705 -0.550000 15.99940
5706 OM 5706 OM OM1 5706 -0.550000 15.99940
5707 OM 5707 OM OM1 5707 -0.550000 15.99940
5708 OM 5708 OM OM1 5708 -0.550000 15.99940
5709 OM 5709 OM OM1 5709 -0.550000 15.99940
5710 OM 5710 OM OM1 5710 -0.550000 15.99940
5711 OM 5711 OM OM1 5711 -0.550000 15.99940
5712 OM 5712 OM OM1 5712 -0.550000 15.99940
5713 OM 5713 OM OM1 5713 -0.550000 15.99940
5714 OM 5714 OM OM1 5714 -0.550000 15.99940
5715 OM 5715 OM OM1 5715 -0.550000 15.99940
5716 OM 5716 OM OM1 5716 -0.550000 15.99940
5717 OM 5717 OM OM1 5717 -0.550000 15.99940
5718 OM 5718 OM OM1 5718 -0.550000 15.99940
5719 OM 5719 OM OM1 5719 -0.550000 15.99940
5720 OM 5720 OM OM1 5720 -0.550000 15.99940
5721 OM 5721 OM OM1 5721 -0.550000 15.99940
5722 OM 5722 OM OM1 5722 -0.550000 15.99940
5723 OM 5723 OM OM1 5723 -0.550000 15.99940
5724 OM 5724 OM OM1 5724 -0.550000 15.99940
5725 OM 5725 OM OM1 5725 -0.550000 15.99940
5726 OM 5726 OM OM1 5726 -0.550000 15.99940
5727 OM 5727 OM OM1 5727 -0.550000 15.99940
5728 OM 5728 OM OM1 5728 -0.550000 15.99940
5729 OM 5729 OM OM1 5729 -0.550000 15.99940
5730 OM 5730 OM OM1 5730 -0.550000 15.99940
5731 OM 5731 OM OM1 5731 -0.550000 15.99940
5732 OM 5732 OM OM1 5732 -0.550000 15.99940
5733 OM 5733 OM OM1 5733 -0.550000 15.99940
5734 OM 5734 OM OM1 5734 -0.550000 15.99940
5735 OM 5735 OM OM1 5735 -0.550000 15.99940
5736 OM 5736 OM OM1 5736 -0.550000 15.99940
5737 OM 5737 OM OM1 5737 -0.550000 15.99940
5738 OM 5738 OM OM1 5738 -0.550000 15.99940
5739 OM 5739 OM OM1 5739 -0.550000 15.99940
5740 OM 5740 OM OM1 5740 -0.550000 15.99940
5741 OM 5741 OM OM1 5741 -0.550000 15.99940
5742 OM 5742 OM OM1 5742 -0.550000 15.99940
5743 OM 5743 OM OM1 5743 -0.550000 15.99940
5744 OM 5744 OM OM1 5744 -0.550000 15.99940
5745 OM 5745 OM OM1 5745 -0.550000 15.99940
5746 OM 5746 OM OM1 5746 -0.550000 15.99940
5747 OM 5747 OM OM1 5747 -0.550000 15.99940
5748 OM 5748 OM OM1 5748 -0.550000 15.99940
5749 OM 5749 OM OM1 5749 -0.550000 15.99940
5750 OM 5750 OM OM1 5750 -0.550000 15.99940
5751 OM 5751 OM OM1 5751 -0.550000 15.99940
5752 OM 5752 OM OM1 5752 -0.550000 15.99940
5753 OM 5753 OM OM1 5753 -0.550000 15.99940
5754 OM 5754 OM OM1 5754 -0.550000 15.99940
5755 OM 5755 OM OM1 5755 -0.550000 15.99940
5756 OM 5756 OM OM1 5756 -0.550000 15.99940
5757 OM 5757 OM OM1 5757 -0.550000 15.99940
5758 OM 5758 OM OM1 5758 -0.550000 15.99940
5759 OM 5759 OM OM1 5759 -0.550000 15.99940
5760 OM 5760 OM OM1 5760 -0.550000 15.99940
5761 OM 5761 OM OM1 5761 -0.550000 15.99940
5762 OM 5762 OM OM1 5762 -0.550000 15.99940
5763 OM 5763 OM OM1 5763 -0.550000 15.99940
5764 OM 5764 OM OM1 5764 -0.550000 15.99940
5765 OM 5765 OM OM1 5765 -0.550000 15.99940
5766 OM 5766 OM OM1 5766 -0.550000 15.99940
5767 OM 5767 OM OM1 5767 -0.550000 15.99940
5768 OM 5768 OM OM1 5768 -0.550000 15.99940
5769 OM 5769 OM OM1 5769 -0.550000 15.99940
5770 OM 5770 OM OM1 5770 -0.550000 15.99940
5771 OM 5771 OM OM1 5771 -0.550000 15.99940
5772 OM 5772 OM OM1 5772 -0.550000 15.99940
5773 OM 5773 OM OM1 5773 -0.550000 15.99940
5774 OM 5774 OM OM1 5774 -0.550000 15.99940
5775 OM 5775 OM OM1 5775 -0.550000 15.99940
5776 OM 5776 OM OM1 5776 -0.550000 15.99940
5777 OM 5777 OM OM1 5777 -0.550000 15.99940
5778 OM 5778 OM OM1 5778 -0.550000 15.99940
5779 OM 5779 OM OM1 5779 -0.550000 15.99940
5780 OM 5780 OM OM1 5780 -0.550000 15.99940
5781 OM 5781 OM OM1 5781 -0.550000 15.99940
5782 OM 5782 OM OM1 5782 -0.550000 15.99940
5783 OM 5783 OM OM1 5783 -0.550000 15.99940
5784 OM 5784 OM OM1 5784 -0.550000 15.99940
5785 OM 5785 OM OM1 5785 -0.550000 15.99940
5786 OM 5786 OM OM1 5786 -0.550000 15.99940
5787 OM 5787 OM OM1 5787 -0.550000 15.99940
5788 OM 5788 OM OM1 5788 -0.550000 15.99940
5789 OM 5789 OM OM1 5789 -0.550000 15.99940
5790 OM 5790 OM OM1 5790 -0.550000 15.99940
5791 OM 5791 OM OM1 5791 -0.550000 15.99940
5792 OM 5792 OM OM1 5792 -0.550000 15.99940
5793 OM 5793 OM OM1 5793 -0.550000 15.99940
5794 OM 5794 OM OM1 5794 -0.550000 15.99940
5795 OM 5795 OM OM1 5795 -0.550000 15.99940
5796 OM 5796 OM OM1 5796 -0.550000 15.99940
5797 OM 5797 OM OM1 5797 -0.550000 15.99940
5798 OM 5798 OM OM1 5798 -0.550000 15.99940
5799 OM 5799 OM OM1 5799 -0.550000 15.99940
5800 OM 5800 OM OM1 5800 -0.550000 15.99940
5801 OM 5801 OM OM1 5801 -0.550000 15.99940
5802 OM 5802 OM OM1 5802 -0.550000 15.99940
5803 OM 5803 OM OM1 5803 -0.550000 15.99940
5804 OM 5804 OM OM1 5804 -0.550000 15.99940
5805 OM 5805 OM OM1 5805 -0.550000 15.99940
5806 OM 5806 OM OM1 5806 -0.550000 15.99940
5807 OM 5807 OM OM1 5807 -0.550000 15.99940
5808 OM 5808 OM OM1 5808 -0.550000 15.99940
5809 OM 5809 OM OM1 5809 -0.550000 15.99940
5810 OM 5810 OM OM1 5810 -0.550000 15.99940
5811 OM 5811 OM OM1 5811 -0.550000 15.99940
5812 OM 5812 OM OM1 5812 -0.550000 15.99940
5813 OM 5813 OM OM1 5813 -0.550000 15.99940
5814 OM 5814 OM OM1 5814 -0.550000 15.99940
5815 OM 5815 OM OM1 5815 -0.550000 15.99940
5816 OM 5816 OM OM1 5816 -0.550000 15.99940
5817 OM 5817 OM OM1 5817 -0.550000 15.99940
5818 OM 5818 OM OM1 5818 -0.550000 15.99940
5819 OM 5819 OM OM1 5819 -0.550000 15.99940
5820 OM 5820 OM OM1 5820 -0.550000 15.99940
5821 OM 5821 OM OM1 5821 -0.550000 15.99940
5822 OM 5822 OM OM1 5822 -0.550000 15.99940
5823 OM 5823 OM OM1 5823 -0.550000 15.99940
5824 OM 5824 OM OM1 5824 -0.550000 15.99940
5825 OM 5825 OM OM1 5825 -0.550000 15.99940
5826 OM 5826 OM OM1 5826 -0.550000 15.99940
5827 OM 5827 OM OM1 5827 -0.550000 15.99940
5828 OM 5828 OM OM1 5828 -0.550000 15.99940
5829 OM 5829 OM OM1 5829 -0.550000 15.99940
5830 OM 5830 OM OM1 5830 -0.550000 15.99940
5831 OM 5831 OM OM1 5831 -0.550000 15.99940
5832 OM 5832 OM OM1 5832 -0.550000 15.99940
5833 OM 5833 OM OM1 5833 -0.550000 15.99940
5834 OM 5834 OM OM1 5834 -0.550000 15.99940
5835 OM 5835 OM OM1 5835 -0.550000 15.99940
5836 OM 5836 OM OM1 5836 -0.550000 15.99940
5837 OM 5837 OM OM1 5837 -0.550000 15.99940
5838 OM 5838 OM OM1 5838 -0.550000 15.99940
5839 OM 5839 OM OM1 5839 -0.550000 15.99940
5840 OM 5840 OM OM1 5840 -0.550000 15.99940
5841 OM 5841 OM OM1 5841 -0.550000 15.99940
5842 OM 5842 OM OM1 5842 -0.550000 15.99940
5843 OM 5843 OM OM1 5843 -0.550000 15.99940
5844 OM 5844 OM OM1 5844 -0.550000 15.99940
5845 OM 5845 OM OM1 5845 -0.550000 15.99940
5846 OM 5846 OM OM1 5846 -0.550000 15.99940
5847 OM 5847 OM OM1 5847 -0.550000 15.99940
5848 OM 5848 OM OM1 5848 -0.550000 15.99940
5849 OM 5849 OM OM1 5849 -0.550000 15.99940
5850 OM 5850 OM OM1 5850 -0.550000 15.99940
5851 OM 5851 OM OM1 5851 -0.550000 15.99940
5852 OM 5852 OM OM1 5852 -0.550000 15.99940
5853 OM 5853 OM OM1 5853 -0.550000 15.99940
5854 OM 5854 OM OM1 5854 -0.550000 15.99940
5855 OM 5855 OM OM1 5855 -0.550000 15.99940
5856 OM 5856 OM OM1 5856 -0.550000 15.99940
5857 OM 5857 OM OM1 5857 -0.550000 15.99940
5858 OM 5858 OM OM1 5858 -0.550000 15.99940
5859 OM 5859 OM OM1 5859 -0.550000 15.99940
5860 OM 5860 OM OM1 5860 -0.550000 15.99940
5861 OM 5861 OM OM1 5861 -0.550000 15.99940
5862 OM 5862 OM OM1 5862 -0.550000 15.99940
5863 OM 5863 OM OM1 5863 -0.550000 15.99940
5864 OM 5864 OM OM1 5864 -0.550000 15.99940
5865 OM 5865 OM OM1 5865 -0.550000 15.99940
5866 OM 5866 OM OM1 5866 -0.550000 15.99940
5867 OM 5867 OM OM1 5867 -0.550000 15.99940
5868 OM 5868 OM OM1 5868 -0.550000 15.99940
5869 OM 5869 OM OM1 5869 -0.550000 15.99940
5870 OM 5870 OM OM1 5870 -0.550000 15.99940
5871 OM 5871 OM OM1 5871 -0.550000 15.99940
5872 OM 5872 OM OM1 5872 -0.550000 15.99940
5873 OM 5873 OM OM1 5873 -0.550000 15.99940
5874 OM 5874 OM OM1 5874 -0.550000 15.99940
5875 OM 5875 OM OM1 5875 -0.550000 15.99940
5876 OM 5876 OM OM1 5876 -0.550000 15.99940
5877 OM 5877 OM OM1 5877 -0.550000 15.99940
5878 OM 5878 OM OM1 5878 -0.550000 15.99940
5879 OM 5879 OM OM1 5879 -0.550000 15.99940
5880 OM 5880 OM OM1 5880 -0.550000 15.99940
5881 OM 5881 OM OM1 5881 -0.550000 15.99940
5882 OM 5882 OM OM1 5882 -0.550000 15.99940
5883 OM 5883 OM OM1 5883 -0.550000 15.99940
5884 OM 5884 OM OM1 5884 -0.550000 15.99940
5885 OM 5885 OM OM1 5885 -0.550000 15.99940
5886 OM 5886 OM OM1 5886 -0.550000 15.99940
5887 OM 5887 OM OM1 5887 -0.550000 15.99940
5888 OM 5888 OM OM1 5888 -0.550000 15.99940
5889 OM 5889 OM OM1 5889 -0.550000 15.99940
5890 OM 5890 OM OM1 5890 -0.550000 15.99940
5891 OM 5891 OM OM1 5891 -0.550000 15.99940
5892 OM 5892 OM OM1 5892 -0.550000 15.99940
5893 OM 5893 OM OM1 5893 -0.550000 15.99940
5894 OM 5894 OM OM1 5894 -0.550000 15.99940
5895 OM 5895 OM OM1 5895 -0.550000 15.99940
5896 OM 5896 OM OM1 5896 -0.550000 15.99940
5897 OM 5897 OM OM1 5897 -0.550000 15.99940
5898 OM 5898 OM OM1 5898 -0.550000 15.99940
5899 OM 5899 OM OM1 5899 -0.550000 15.99940
5900 OM 5900 OM OM1 5900 -0.550000 15.99940
5901 OM 5901 OM OM1 5901 -0.550000 15.99940
5902 OM 5902 OM OM1 5902 -0.550000 15.99940
5903 OM 5903 OM OM1 5903 -0.550000 15.99940
5904 OM 5904 OM OM1 5904 -0.550000 15.99940
5905 OM 5905 OM OM1 5905 -0.550000 15.99940
5906 OM 5906 OM OM1 5906 -0.550000 15.99940
5907 OM 5907 OM OM1 5907 -0.550000 15.99940
5908 OM 5908 OM OM1 5908 -0.550000 15.99940
5909 OM 5909 OM OM1 5909 -0.550000 15.99940
5910 OM 5910 OM OM1 5910 -0.550000 15.99940
5911 OM 5911 OM OM1 5911 -0.550000 15.99940
5912 OM 5912 OM OM1 5912 -0.550000 15.99940
5913 OM 5913 OM OM1 5913 -0.550000 15.99940
5914 OM 5914 OM OM1 5914 -0.550000 15.99940
5915 OM 5915 OM OM1 5915 -0.550000 15.99940
5916 OM 5916 OM OM1 5916 -0.550000 15.99940
5917 OM 5917 OM OM1 5917 -0.550000 15.99940
5918 OM 5918 OM OM1 5918 -0.550000 15.99940
5919 OM 5919 OM OM1 5919 -0.550000 15.99940
5920 OM 5920 OM OM1 5920 -0.550000 15.99940
5921 OM 5921 OM OM1 5921 -0.550000 15.99940
5922 OM 5922 OM OM1 5922 -0.550000 15.99940
5923 OM 5923 OM OM1 5923 -0.550000 15.99940
5924 OM 5924 OM OM1 5924 -0.550000 15.99940
5925 OM 5925 OM OM1 5925 -0.550000 15.99940
5926 OM 5926 OM OM1 5926 -0.550000 15.99940
5927 OM 5927 OM OM1 5927 -0.550000 15.99940
5928 OM 5928 OM OM1 5928 -0.550000 15.99940
5929 OM 5929 OM OM1 5929 -0.550000 15.99940
5930 OM 5930 OM OM1 5930 -0.550000 15.99940
5931 OM 5931 OM OM1 5931 -0.550000 15.99940
5932 OM 5932 OM OM1 5932 -0.550000 15.99940
5933 OM 5933 OM OM1 5933 -0.550000 15.99940
5934 OM 5934 OM OM1 5934 -0.550000 15.99940
5935 OM 5935 OM OM1 5935 -0.550000 15.99940
5936 OM 5936 OM OM1 5936 -0.550000 15.99940
5937 OM 5937 OM OM1 5937 -0.550000 15.99940
5938 OM 5938 OM OM1 5938 -0.550000 15.99940
5939 OM 5939 OM OM1 5939 -0.550000 15.99940
5940 OM 5940 OM OM1 5940 -0.550000 15.99940
5941 OM 5941 OM OM1 5941 -0.550000 15.99940
5942 OM 5942 OM OM1 5942 -0.550000 15.99940
5943 OM 5943 OM OM1 5943 -0.550000 15.99940
5944 OM 5944 OM OM1 5944 -0.550000 15.99940
5945 OM 5945 OM OM1 5945 -0.550000 15.99940
5946 OM 5946 OM OM1 5946 -0.550000 15.99940
5947 OM 5947 OM OM1 5947 -0.550000 15.99940
5948 OM 5948 OM OM1 5948 -0.550000 15.99940
5949 OM 5949 OM OM1 5949 -0.550000 15.99940
5950 OM 5950 OM OM1 5950 -0.550000 15.99940
5951 OM 5951 OM OM1 5951 -0.550000 15.99940
5952 OM 5952 OM OM1 5952 -0.550000 15.99940
5953 OM 5953 OM OM1 5953 -0.550000 15.99940
5954 OM 5954 OM OM1 5954 -0.550000 15.99940
5955 OM 5955 OM OM1 5955 -0.550000 15.99940
5956 OM 5956 OM OM1 5956 -0.550000 15.99940
5957 OM 5957 OM OM1 5957 -0.550000 15.99940
5958 OM 5958 OM OM1 5958 -0.550000 15.99940
5959 OM 5959 OM OM1 5959 -0.550000 15.99940
5960 OM 5960 OM OM1 5960 -0.550000 15.99940
5961 OM 5961 OM OM1 5961 -0.550000 15.99940
5962 OM 5962 OM OM1 5962 -0.550000 15.99940
5963 OM 5963 OM OM1 5963 -0.550000 15.99940
5964 OM 5964 OM OM1 5964 -0.550000 15.99940
5965 OM 5965 OM OM1 5965 -0.550000 15.99940
5966 OM 5966 OM OM1 5966 -0.550000 15.99940
5967 OM 5967 OM OM1 5967 -0.550000 15.99940
5968 OM 5968 OM OM1 5968 -0.550000 15.99940
5969 OM 5969 OM OM1 5969 -0.550000 15.99940
5970 OM 5970 OM OM1 5970 -0.550000 15.99940
5971 OM 5971 OM OM1 5971 -0.550000 15.99940
5972 OM 5972 OM OM1 5972 -0.550000 15.99940
5973 OM 5973 OM OM1 5973 -0.550000 15.99940
5974 OM 5974 OM OM1 5974 -0.550000 15.99940
5975 OM 5975 OM OM1 5975 -0.550000 15.99940
5976 OM 5976 OM OM1 5976 -0.550000 15.99940
5977 OM 5977 OM OM1 5977 -0.550000 15.99940
5978 OM 5978 OM OM1 5978 -0.550000 15.99940
5979 OM 5979 OM OM1 5979 -0.550000 15.99940
5980 OM 5980 OM OM1 5980 -0.550000 15.99940
5981 OM 5981 OM OM1 5981 -0.550000 15.99940
5982 OM 5982 OM OM1 5982 -0.550000 15.99940
5983 OM 5983 OM OM1 5983 -0.550000 15.99940
5984 OM 5984 OM OM1 5984 -0.550000 15.99940
5985 OM 5985 OM OM1 5985 -0.550000 15.99940
5986 OM 5986 OM OM1 5986 -0.550000 15.99940
5987 OM 5987 OM OM1 5987 -0.550000 15.99940
5988 OM 5988 OM OM1 5988 -0.550000 15.99940
5989 OM 5989 OM OM1 5989 -0.550000 15.99940
5990 OM 5990 OM OM1 5990 -0.550000 15.99940
5991 OM 5991 OM OM1 5991 -0.550000 15.99940
5992 OM 5992 OM OM1 5992 -0.550000 15.99940
5993 OM 5993 OM OM1 5993 -0.550000 15.99940
5994 OM 5994 OM OM1 5994 -0.550000 15.99940
5995 OM 5995 OM OM1 5995 -0.550000 15.99940
5996 OM 5996 OM OM1 5996 -0.550000 15.99940
5997 OM 5997 OM OM1 5997 -0.550000 15.99940
5998 OM 5998 OM OM1 5998 -0.550000 15.99940
5999 OM 5999 OM OM1 5999 -0.550000 15.99940
6000 OM 6000 OM OM1 6000 -0.550000 15.99940
6001 OM 6001 OM OM1 6001 -0.550000 15.99940
6002 OM 6002 OM OM1 6002 -0.550000 15.99940
6003 OM 6003 OM OM1 6003 -0.550000 15.99940
6004 OM 6004 OM OM1 6004 -0.550000 15.99940
6005 OM 6005 OM OM1 6005 -0.550000 15.99940
6006 OM 6006 OM OM1 6006 -0.550000 15.99940
6007 OM 6007 OM OM1 6007 -0.550000 15.99940
6008 OM 6008 OM OM1 6008 -0.550000 15.99940
6009 OM 6009 OM OM1 6009 -0.550000 15.99940
6010 OM 6010 OM OM1 6010 -0.550000 15.99940
6011 OM 6011 OM OM1 6011 -0.550000 15.99940
6012 OM 6012 OM OM1 6012 -0.550000 15.99940
6013 OM 6013 OM OM1 6013 -0.550000 15.99940
6014 OM 6014 OM OM1 6014 -0.550000 15.99940
6015 OM 6015 OM OM1 6015 -0.550000 15.99940
6016 OM 6016 OM OM1 6016 -0.550000 15.99940
6017 OM 6017 OM OM1 6017 -0.550000 15.99940
6018 OM 6018 OM OM1 6018 -0.550000 15.99940
6019 OM 6019 OM OM1 6019 -0.550000 15.99940
6020 OM 6020 OM OM1 6020 -0.550000 15.99940
6021 OM 6021 OM OM1 6021 -0.550000 15.99940
6022 OM 6022 OM OM1 6022 -0.550000 15.99940
6023 OM 6023 OM OM1 6023 -0.550000 15.99940
6024 OM 6024 OM OM1 6024 -0.550000 15.99940
6025 OM 6025 OM OM1 6025 -0.550000 15.99940
6026 OM 6026 OM OM1 6026 -0.550000 15.99940
6027 OM 6027 OM OM1 6027 -0.550000 15.99940
6028 OM 6028 OM OM1 6028 -0.550000 15.99940
6029 OM 6029 OM OM1 6029 -0.550000 15.99940
6030 OM 6030 OM OM1 6030 -0.550000 15.99940
6031 OM 6031 OM OM1 6031 -0.550000 15.99940
6032 OM 6032 OM OM1 6032 -0.550000 15.99940
6033 OM 6033 OM OM1 6033 -0.550000 15.99940
6034 OM 6034 OM OM1 6034 -0.550000 15.99940
6035 OM 6035 OM OM1 6035 -0.550000 15.99940
6036 OM 6036 OM OM1 6036 -0.550000 15.99940
6037 OM 6037 OM OM1 6037 -0.550000 15.99940
6038 OM 6038 OM OM1 6038 -0.550000 15.99940
6039 OM 6039 OM OM1 6039 -0.550000 15.99940
6040 OM 6040 OM OM1 6040 -0.550000 15.99940
6041 OM 6041 OM OM1 6041 -0.550000 15.99940
6042 OM 6042 OM OM1 6042 -0.550000 15.99940
6043 OM 6043 OM OM1 6043 -0.550000 15.99940
6044 OM 6044 OM OM1 6044 -0.550000 15.99940
6045 OM 6045 OM OM1 6045 -0.550000 15.99940
6046 OM 6046 OM OM1 6046 -0.550000 15.99940
6047 OM 6047 OM OM1 6047 -0.550000 15.99940
6048 OM 6048 OM OM1 6048 -0.550000 15.99940
6049 OM 6049 OM OM1 6049 -0.550000 15.99940
6050 OM 6050 OM OM1 6050 -0.550000 15.99940
6051 OM 6051 OM OM1 6051 -0.550000 15.99940
6052 OM 6052 OM OM1 6052 -0.550000 15.99940
6053 OM 6053 OM OM1 6053 -0.550000 15.99940
6054 OM 6054 OM OM1 6054 -0.550000 15.99940
6055 OM 6055 OM OM1 6055 -0.550000 15.99940
6056 OM 6056 OM OM1 6056 -0.550000 15.99940
6057 OM 6057 OM OM1 6057 -0.550000 15.99940
6058 OM 6058 OM OM1 6058 -0.550000 15.99940
6059 OM 6059 OM OM1 6059 -0.550000 15.99940
6060 OM 6060 OM OM1 6060 -0.550000 15.99940
6061 OM 6061 OM OM1 6061 -0.550000 15.99940
6062 OM 6062 OM OM1 6062 -0.550000 15.99940
6063 OM 6063 OM OM1 6063 -0.550000 15.99940
6064 OM 6064 OM OM1 6064 -0.550000 15.99940
6065 OM 6065 OM OM1 6065 -0.550000 15.99940
6066 OM 6066 OM OM1 6066 -0.550000 15.99940
6067 OM 6067 OM OM1 6067 -0.550000 15.99940
6068 OM 6068 OM OM1 6068 -0.550000 15.99940
6069 OM 6069 OM OM1 6069 -0.550000 15.99940
6070 OM 6070 OM OM1 6070 -0.550000 15.99940
6071 OM 6071 OM OM1 6071 -0.550000 15.99940
6072 OM 6072 OM OM1 6072 -0.550000 15.99940
6073 OM 6073 OM OM1 6073 -0.550000 15.99940
6074 OM 6074 OM OM1 6074 -0.550000 15.99940
6075 OM 6075 OM OM1 6075 -0.550000 15.99940
6076 OM 6076 OM OM1 6076 -0.550000 15.99940
6077 OM 6077 OM OM1 6077 -0.550000 15.99940
6078 OM 6078 OM OM1 6078 -0.550000 15.99940
6079 OM 6079 OM OM1 6079 -0.550000 15.99940
6080 OM 6080 OM OM1 6080 -0.550000 15.99940
6081 OM 6081 OM OM1 6081 -0.550000 15.99940
6082 OM 6082 OM OM1 6082 -0.550000 15.99940
6083 OM 6083 OM OM1 6083 -0.550000 15.99940
6084 OM 6084 OM OM1 6084 -0.550000 15.99940
6085 OM 6085 OM OM1 6085 -0.550000 15.99940
6086 OM 6086 OM OM1 6086 -0.550000 15.99940
6087 OM 6087 OM OM1 6087 -0.550000 15.99940
6088 OM 6088 OM OM1 6088 -0.550000 15.99940
6089 OM 6089 OM OM1 6089 -0.550000 15.99940
6090 OM 6090 OM OM1 6090 -0.550000 15.99940
6091 OM 6091 OM OM1 6091 -0.550000 15.99940
6092 OM 6092 OM OM1 6092 -0.550000 15.99940
6093 OM 6093 OM OM1 6093 -0.550000 15.99940
6094 OM 6094 OM OM1 6094 -0.550000 15.99940
6095 OM 6095 OM OM1 6095 -0.550000 15.99940
6096 OM 6096 OM OM1 6096 -0.550000 15.99940
6097 OM 6097 OM OM1 6097 -0.550000 15.99940
6098 OM 6098 OM OM1 6098 -0.550000 15.99940
6099 OM 6099 OM OM1 6099 -0.550000 15.99940
6100 OM 6100 OM OM1 6100 -0.550000 15.99940
6101 OM 6101 OM OM1 6101 -0.550000 15.99940
6102 OM 6102 OM OM1 6102 -0.550000 15.99940
6103 OM 6103 OM OM1 6103 -0.550000 15.99940
6104 OM 6104 OM OM1 6104 -0.550000 15.99940
6105 OM 6105 OM OM1 6105 -0.550000 15.99940
6106 OM 6106 OM OM1 6106 -0.550000 15.99940
6107 OM 6107 OM OM1 6107 -0.550000 15.99940
6108 OM 6108 OM OM1 6108 -0.550000 15.99940
6109 OM 6109 OM OM1 6109 -0.550000 15.99940
6110 OM 6110 OM OM1 6110 -0.550000 15.99940
6111 OM 6111 OM OM1 6111 -0.550000 15.99940
6112 OM 6112 OM OM1 6112 -0.550000 15.99940
6113 OM 6113 OM OM1 6113 -0.550000 15.99940
6114 OM 6114 OM OM1 6114 -0.550000 15.99940
6115 OM 6115 OM OM1 6115 -0.550000 15.99940
6116 OM 6116 OM OM1 6116 -0.550000 15.99940
6117 OM 6117 OM OM1 6117 -0.550000 15.99940
6118 OM 6118 OM OM1 6118 -0.550000 15.99940
6119 OM 6119 OM OM1 6119 -0.550000 15.99940
6120 OM 6120 OM OM1 6120 -0.550000 15.99940
6121 OM 6121 OM OM1 6121 -0.550000 15.99940
6122 OM 6122 OM OM1 6122 -0.550000 15.99940
6123 OM 6123 OM OM1 6123 -0.550000 15.99940
6124 OM 6124 OM OM1 6124 -0.550000 15.99940
6125 OM 6125 OM OM1 6125 -0.550000 15.99940
6126 OM 6126 OM OM1 6126 -0.550000 15.99940
6127 OM 6127 OM OM1 6127 -0.550000 15.99940
6128 OM 6128 OM OM1 6128 -0.550000 15.99940
6129 OM 6129 OM OM1 6129 -0.550000 15.99940
6130 OM 6130 OM OM1 6130 -0.550000 15.99940
6131 OM 6131 OM OM1 6131 -0.550000 15.99940
6132 OM 6132 OM OM1 6132 -0.550000 15.99940
6133 OM 6133 OM OM1 6133 -0.550000 15.99940
6134 OM 6134 OM OM1 6134 -0.550000 15.99940
6135 OM 6135 OM OM1 6135 -0.550000 15.99940
6136 OM 6136 OM OM1 6136 -0.550000 15.99940
6137 OM 6137 OM OM1 6137 -0.550000 15.99940
6138 OM 6138 OM OM1 6138 -0.550000 15.99940
6139 OM 6139 OM OM1 6139 -0.550000 15.99940
6140 OM 6140 OM OM1 6140 -0.550000 15.99940
6141 OM 6141 OM OM1 6141 -0.550000 15.99940
6142 OM 6142 OM OM1 6142 -0.550000 15.99940
6143 OM 6143 OM OM1 6143 -0.550000 15.99940
6144 OM 6144 OM OM1 6144 -0.550000 15.99940
6145 OM 6145 OM OM1 6145 -0.550000 15.99940
6146 OM 6146 OM OM1 6146 -0.550000 15.99940
6147 OM 6147 OM OM1 6147 -0.550000 15.99940
6148 OM 6148 OM OM1 6148 -0.550000 15.99940
6149 OM 6149 OM OM1 6149 -0.550000 15.99940
6150 OM 6150 OM OM1 6150 -0.550000 15.99940
6151 OM 6151 OM OM1 6151 -0.550000 15.99940
6152 OM 6152 OM OM1 6152 -0.550000 15.99940
6153 OM 6153 OM OM1 6153 -0.550000 15.99940
6154 OM 6154 OM OM1 6154 -0.550000 15.99940
6155 OM 6155 OM OM1 6155 -0.550000 15.99940
6156 OM 6156 OM OM1 6156 -0.550000 15.99940
6157 OM 6157 OM OM1 6157 -0.550000 15.99940
6158 OM 6158 OM OM1 6158 -0.550000 15.99940
6159 OM 6159 OM OM1 6159 -0.550000 15.99940
6160 OM 6160 OM OM1 6160 -0.550000 15.99940
6161 OM 6161 OM OM1 6161 -0.550000 15.99940
6162 OM 6162 OM OM1 6162 -0.550000 15.99940
6163 OM 6163 OM OM1 6163 -0.550000 15.99940
6164 OM 6164 OM OM1 6164 -0.550000 15.99940
6165 OM 6165 OM OM1 6165 -0.550000 15.99940
6166 OM 6166 OM OM1 6166 -0.550000 15.99940
6167 OM 6167 OM OM1 6167 -0.550000 15.99940
6168 OM 6168 OM OM1 6168 -0.550000 15.99940
6169 OM 6169 OM OM1 6169 -0.550000 15.99940
6170 OM 6170 OM OM1 6170 -0.550000 15.99940
6171 OM 6171 OM OM1 6171 -0.550000 15.99940
6172 OM 6172 OM OM1 6172 -0.550000 15.99940
6173 OM 6173 OM OM1 6173 -0.550000 15.99940
6174 OM 6174 OM OM1 6174 -0.550000 15.99940
6175 OM 6175 OM OM1 6175 -0.550000 15.99940
6176 OM 6176 OM OM1 6176 -0.550000 15.99940
6177 OM 6177 OM OM1 6177 -0.550000 15.99940
6178 OM 6178 OM OM1 6178 -0.550000 15.99940
6179 OM 6179 OM OM1 6179 -0.550000 15.99940
6180 OM 6180 OM OM1 6180 -0.550000 15.99940
6181 OM 6181 OM OM1 6181 -0.550000 15.99940
6182 OM 6182 OM OM1 6182 -0.550000 15.99940
6183 OM 6183 OM OM1 6183 -0.550000 15.99940
6184 OM 6184 OM OM1 6184 -0.550000 15.99940
6185 OM 6185 OM OM1 6185 -0.550000 15.99940
6186 OM 6186 OM OM1 6186 -0.550000 15.99940
6187 OM 6187 OM OM1 6187 -0.550000 15.99940
6188 OM 6188 OM OM1 6188 -0.550000 15.99940
6189 OM 6189 OM OM1 6189 -0.550000 15.99940
6190 OM 6190 OM OM1 6190 -0.550000 15.99940
6191 OM 6191 OM OM1 6191 -0.550000 15.99940
6192 OM 6192 OM OM1 6192 -0.550000 15.99940
6193 OM 6193 OM OM1 6193 -0.550000 15.99940
6194 OM 6194 OM OM1 6194 -0.550000 15.99940
6195 OM 6195 OM OM1 6195 -0.550000 15.99940
6196 OM 6196 OM OM1 6196 -0.550000 15.99940
6197 OM 6197 OM OM1 6197 -0.550000 15.99940
6198 OM 6198 OM OM1 6198 -0.550000 15.99940
6199 OM 6199 OM OM1 6199 -0.550000 15.99940
6200 OM 6200 OM OM1 6200 -0.550000 15.99940
6201 OM 6201 OM OM1 6201 -0.550000 15.99940
6202 OM 6202 OM OM1 6202 -0.550000 15.99940
6203 OM 6203 OM OM1 6203 -0.550000 15.99940
6204 OM 6204 OM OM1 6204 -0.550000 15.99940
6205 OM 6205 OM OM1 6205 -0.550000 15.99940
6206 OM 6206 OM OM1 6206 -0.550000 15.99940
6207 OM 6207 OM OM1 6207 -0.550000 15.99940
6208 OM 6208 OM OM1 6208 -0.550000 15.99940
6209 OM 6209 OM OM1 6209 -0.550000 15.99940
6210 OM 6210 OM OM1 6210 -0.550000 15.99940
6211 OM 6211 OM OM1 6211 -0.550000 15.99940
6212 OM 6212 OM OM1 6212 -0.550000 15.99940
6213 OM 6213 OM OM1 6213 -0.550000 15.99940
6214 OM 6214 OM OM1 6214 -0.550000 15.99940
6215 OM 6215 OM OM1 6215 -0.550000 15.99940
6216 OM 6216 OM OM1 6216 -0.550000 15.99940
6217 OM 6217 OM OM1 6217 -0.550000 15.99940
6218 OM 6218 OM OM1 6218 -0.550000 15.99940
6219 OM 6219 OM OM1 6219 -0.550000 15.99940
6220 OM 6220 OM OM1 6220 -0.550000 15.99940
6221 OM 6221 OM OM1 6221 -0.550000 15.99940
6222 OM 6222 OM OM1 6222 -0.550000 15.99940
6223 OM 6223 OM OM1 6223 -0.550000 15.99940
6224 OM 6224 OM OM1 6224 -0.550000 15.99940
6225 OM 6225 OM OM1 6225 -0.550000 15.99940
6226 OM 6226 OM OM1 6226 -0.550000 15.99940
6227 OM 6227 OM OM1 6227 -0.550000 15.99940
6228 OM 6228 OM OM1 6228 -0.550000 15.99940
6229 OM 6229 OM OM1 6229 -0.550000 15.99940
6230 OM 6230 OM OM1 6230 -0.550000 15.99940
6231 OM 6231 OM OM1 6231 -0.550000 15.99940
6232 OM 6232 OM OM1 6232 -0.550000 15.99940
6233 OM 6233 OM OM1 6233 -0.550000 15.99940
6234 OM 6234 OM OM1 6234 -0.550000 15.99940
6235 OM 6235 OM OM1 6235 -0.550000 15.99940
6236 OM 6236 OM OM1 6236 -0.550000 15.99940
6237 OM 6237 OM OM1 6237 -0.550000 15.99940
6238 OM 6238 OM OM1 6238 -0.550000 15.99940
6239 OM 6239 OM OM1 6239 -0.550000 15.99940
6240 OM 6240 OM OM1 6240 -0.550000 15.99940
6241 OM 6241 OM OM1 6241 -0.550000 15.99940
6242 OM 6242 OM OM1 6242 -0.550000 15.99940
6243 OM 6243 OM OM1 6243 -0.550000 15.99940
6244 OM 6244 OM OM1 6244 -0.550000 15.99940
6245 OM 6245 OM OM1 6245 -0.550000 15.99940
6246 OM 6246 OM OM1 6246 -0.550000 15.99940
6247 OM 6247 OM OM1 6247 -0.550000 15.99940
6248 OM 6248 OM OM1 6248 -0.550000 15.99940
6249 OM 6249 OM OM1 6249 -0.550000 15.99940
6250 OM 6250 OM OM1 6250 -0.550000 15.99940
6251 OM 6251 OM OM1 6251 -0.550000 15.99940
6252 OM 6252 OM OM1 6252 -0.550000 15.99940
6253 OM 6253 OM OM1 6253 -0.550000 15.99940
6254 OM 6254 OM OM1 6254 -0.550000 15.99940
6255 OM 6255 OM OM1 6255 -0.550000 15.99940
6256 OM 6256 OM OM1 6256 -0.550000 15.99940
6257 OM 6257 OM OM1 6257 -0.550000 15.99940
6258 OM 6258 OM OM1 6258 -0.550000 15.99940
6259 OM 6259 OM OM1 6259 -0.550000 15.99940
6260 OM 6260 OM OM1 6260 -0.550000 15.99940
6261 OM 6261 OM OM1 6261 -0.550000 15.99940
6262 OM 6262 OM OM1 6262 -0.550000 15.99940
6263 OM 6263 OM OM1 6263 -0.550000 15.99940
6264 OM 6264 OM OM1 6264 -0.550000 15.99940
6265 OM 6265 OM OM1 6265 -0.550000 15.99940
6266 OM 6266 OM OM1 6266 -0.550000 15.99940
6267 OM 6267 OM OM1 6267 -0.550000 15.99940
6268 OM 6268 OM OM1 6268 -0.550000 15.99940
6269 OM 6269 OM OM1 6269 -0.550000 15.99940
6270 OM 6270 OM OM1 6270 -0.550000 15.99940
6271 OM 6271 OM OM1 6271 -0.550000 15.99940
6272 OM 6272 OM OM1 6272 -0.550000 15.99940
6273 OM 6273 OM OM1 6273 -0.550000 15.99940
6274 OM 6274 OM OM1 6274 -0.550000 15.99940
6275 OM 6275 OM OM1 6275 -0.550000 15.99940
6276 OM 6276 OM OM1 6276 -0.550000 15.99940
6277 OM 6277 OM OM1 6277 -0.550000 15.99940
6278 OM 6278 OM OM1 6278 -0.550000 15.99940
6279 OM 6279 OM OM1 6279 -0.550000 15.99940
6280 OM 6280 OM OM1 6280 -0.550000 15.99940
6281 OM 6281 OM OM1 6281 -0.550000 15.99940
6282 OM 6282 OM OM1 6282 -0.550000 15.99940
6283 OM 6283 OM OM1 6283 -0.550000 15.99940
6284 OM 6284 OM OM1 6284 -0.550000 15.99940
6285 OM 6285 OM OM1 6285 -0.550000 15.99940
6286 OM 6286 OM OM1 6286 -0.550000 15.99940
6287 OM 6287 OM OM1 6287 -0.550000 15.99940
6288 OM 6288 OM OM1 6288 -0.550000 15.99940
6289 OM 6289 OM OM1 6289 -0.550000 15.99940
6290 OM 6290 OM OM1 6290 -0.550000 15.99940
6291 OM 6291 OM OM1 6291 -0.550000 15.99940
6292 OM 6292 OM OM1 6292 -0.550000 15.99940
6293 OM 6293 OM OM1 6293 -0.550000 15.99940
6294 OM 6294 OM OM1 6294 -0.550000 15.99940
6295 OM 6295 OM OM1 6295 -0.550000 15.99940
6296 OM 6296 OM OM1 6296 -0.550000 15.99940
6297 OM 6297 OM OM1 6297 -0.550000 15.99940
6298 OM 6298 OM OM1 6298 -0.550000 15.99940
6299 OM 6299 OM OM1 6299 -0.550000 15.99940
6300 OM 6300 OM OM1 6300 -0.550000 15.99940
6301 OM 6301 OM OM1 6301 -0.550000 15.99940
6302 OM 6302 OM OM1 6302 -0.550000 15.99940
6303 OM 6303 OM OM1 6303 -0.550000 15.99940
6304 OM 6304 OM OM1 6304 -0.550000 15.99940
6305 OM 6305 OM OM1 6305 -0.550000 15.99940
6306 OM 6306 OM OM1 6306 -0.550000 15.99940
6307 OM 6307 OM OM1 6307 -0.550000 15.99940
6308 OM 6308 OM OM1 6308 -0.550000 15.99940
6309 OM 6309 OM OM1 6309 -0.550000 15.99940
6310 OM 6310 OM OM1 6310 -0.550000 15.99940
6311 OM 6311 OM OM1 6311 -0.550000 15.99940
6312 OM 6312 OM OM1 6312 -0.550000 15.99940
6313 OM 6313 OM OM1 6313 -0.550000 15.99940
6314 OM 6314 OM OM1 6314 -0.550000 15.99940
6315 OM 6315 OM OM1 6315 -0.550000 15.99940
6316 OM 6316 OM OM1 6316 -0.550000 15.99940
6317 OM 6317 OM OM1 6317 -0.550000 15.99940
6318 OM 6318 OM OM1 6318 -0.550000 15.99940
6319 OM 6319 OM OM1 6319 -0.550000 15.99940
6320 OM 6320 OM OM1 6320 -0.550000 15.99940
6321 OM 6321 OM OM1 6321 -0.550000 15.99940
6322 OM 6322 OM OM1 6322 -0.550000 15.99940
6323 OM 6323 OM OM1 6323 -0.550000 15.99940
6324 OM 6324 OM OM1 6324 -0.550000 15.99940
6325 OM 6325 OM OM1 6325 -0.550000 15.99940
6326 OM 6326 OM OM1 6326 -0.550000 15.99940
6327 OM 6327 OM OM1 6327 -0.550000 15.99940
6328 OM 6328 OM OM1 6328 -0.550000 15.99940
6329 OM 6329 OM OM1 6329 -0.550000 15.99940
6330 OM 6330 OM OM1 6330 -0.550000 15.99940
6331 OM 6331 OM OM1 6331 -0.550000 15.99940
6332 OM 6332 OM OM1 6332 -0.550000 15.99940
6333 OM 6333 OM OM1 6333 -0.550000 15.99940
6334 OM 6334 OM OM1 6334 -0.550000 15.99940
6335 OM 6335 OM OM1 6335 -0.550000 15.99940
6336 OM 6336 OM OM1 6336 -0.550000 15.99940
6337 OM 6337 OM OM1 6337 -0.550000 15.99940
6338 OM 6338 OM OM1 6338 -0.550000 15.99940
6339 OM 6339 OM OM1 6339 -0.550000 15.99940
6340 OM 6340 OM OM1 6340 -0.550000 15.99940
6341 OM 6341 OM OM1 6341 -0.550000 15.99940
6342 OM 6342 OM OM1 6342 -0.550000 15.99940
6343 OM 6343 OM OM1 6343 -0.550000 15.99940
6344 OM 6344 OM OM1 6344 -0.550000 15.99940
6345 OM 6345 OM OM1 6345 -0.550000 15.99940
6346 OM 6346 OM OM1 6346 -0.550000 15.99940
6347 OM 6347 OM OM1 6347 -0.550000 15.99940
6348 OM 6348 OM OM1 6348 -0.550000 15.99940
6349 OM 6349 OM OM1 6349 -0.550000 15.99940
6350 OM 6350 OM OM1 6350 -0.550000 15.99940
6351 OM 6351 OM OM1 6351 -0.550000 15.99940
6352 OM 6352 OM OM1 6352 -0.550000 15.99940
6353 OM 6353 OM OM1 6353 -0.550000 15.99940
6354 OM 6354 OM OM1 6354 -0.550000 15.99940
6355 OM 6355 OM OM1 6355 -0.550000 15.99940
6356 OM 6356 OM OM1 6356 -0.550000 15.99940
6357 OM 6357 OM OM1 6357 -0.550000 15.99940
6358 OM 6358 OM OM1 6358 -0.550000 15.99940
6359 OM 6359 OM OM1 6359 -0.550000 15.99940
6360 OM 6360 OM OM1 6360 -0.550000 15.99940
6361 OM 6361 OM OM1 6361 -0.550000 15.99940
6362 OM 6362 OM OM1 6362 -0.550000 15.99940
6363 OM 6363 OM OM1 6363 -0.550000 15.99940
6364 OM 6364 OM OM1 6364 -0.550000 15.99940
6365 OM 6365 OM OM1 6365 -0.550000 15.99940
6366 OM 6366 OM OM1 6366 -0.550000 15.99940
6367 OM 6367 OM OM1 6367 -0.550000 15.99940
6368 OM 6368 OM OM1 6368 -0.550000 15.99940
6369 OM 6369 OM OM1 6369 -0.550000 15.99940
6370 OM 6370 OM OM1 6370 -0.550000 15.99940
6371 OM 6371 OM OM1 6371 -0.550000 15.99940
6372 OM 6372 OM OM1 6372 -0.550000 15.99940
6373 OM 6373 OM OM1 6373 -0.550000 15.99940
6374 OM 6374 OM OM1 6374 -0.550000 15.99940
6375 OM 6375 OM OM1 6375 -0.550000 15.99940
6376 OM 6376 OM OM1 6376 -0.550000 15.99940
6377 OM 6377 OM OM1 6377 -0.550000 15.99940
6378 OM 6378 OM OM1 6378 -0.550000 15.99940
6379 OM 6379 OM OM1 6379 -0.550000 15.99940
6380 OM 6380 OM OM1 6380 -0.550000 15.99940
6381 OM 6381 OM OM1 6381 -0.550000 15.99940
6382 OM 6382 OM OM1 6382 -0.550000 15.99940
6383 OM 6383 OM OM1 6383 -0.550000 15.99940
6384 OM 6384 OM OM1 6384 -0.550000 15.99940
6385 OM 6385 OM OM1 6385 -0.550000 15.99940
6386 OM 6386 OM OM1 6386 -0.550000 15.99940
6387 OM 6387 OM OM1 6387 -0.550000 15.99940
6388 OM 6388 OM OM1 6388 -0.550000 15.99940
6389 OM 6389 OM OM1 6389 -0.550000 15.99940
6390 OM 6390 OM OM1 6390 -0.550000 15.99940
6391 OM 6391 OM OM1 6391 -0.550000 15.99940
6392 OM 6392 OM OM1 6392 -0.550000 15.99940
6393 OM 6393 OM OM1 6393 -0.550000 15.99940
6394 OM 6394 OM OM1 6394 -0.550000 15.99940
6395 OM 6395 OM OM1 6395 -0.550000 15.99940
6396 OM 6396 OM OM1 6396 -0.550000 15.99940
6397 OM 6397 OM OM1 6397 -0.550000 15.99940
6398 OM 6398 OM OM1 6398 -0.550000 15.99940
6399 OM 6399 OM OM1 6399 -0.550000 15.99940
6400 OM 6400 OM OM1 6400 -0.550000 15.99940
6401 OM 6401 OM OM1 6401 -0.550000 15.99940
6402 OM 6402 OM OM1 6402 -0.550000 15.99940
6403 OM 6403 OM OM1 6403 -0.550000 15.99940
6404 OM 6404 OM OM1 6404 -0.550000 15.99940
6405 OM 6405 OM OM1 6405 -0.550000 15.99940
6406 OM 6406 OM OM1 6406 -0.550000 15.99940
6407 OM 6407 OM OM1 6407 -0.550000 15.99940
6408 OM 6408 OM OM1 6408 -0.550000 15.99940
6409 OM 6409 OM OM1 6409 -0.550000 15.99940
6410 OM 6410 OM OM1 6410 -0.550000 15.99940
6411 OM 6411 OM OM1 6411 -0.550000 15.99940
6412 OM 6412 OM OM1 6412 -0.550000 15.99940
6413 OM 6413 OM OM1 6413 -0.550000 15.99940
6414 OM 6414 OM OM1 6414 -0.550000 15.99940
6415 OM 6415 OM OM1 6415 -0.550000 15.99940
6416 OM 6416 OM OM1 6416 -0.550000 15.99940
6417 OM 6417 OM OM1 6417 -0.550000 15.99940
6418 OM 6418 OM OM1 6418 -0.550000 15.99940
6419 OM 6419 OM OM1 6419 -0.550000 15.99940
6420 OM 6420 OM OM1 6420 -0.550000 15.99940
6421 OM 6421 OM OM1 6421 -0.550000 15.99940
6422 OM 6422 OM OM1 6422 -0.550000 15.99940
6423 OM 6423 OM OM1 6423 -0.550000 15.99940
6424 OM 6424 OM OM1 6424 -0.550000 15.99940
6425 OM 6425 OM OM1 6425 -0.550000 15.99940
6426 OM 6426 OM OM1 6426 -0.550000 15.99940
6427 OM 6427 OM OM1 6427 -0.550000 15.99940
6428 OM 6428 OM OM1 6428 -0.550000 15.99940
6429 OM 6429 OM OM1 6429 -0.550000 15.99940
6430 OM 6430 OM OM1 6430 -0.550000 15.99940
6431 OM 6431 OM OM1 6431 -0.550000 15.99940
6432 OM 6432 OM OM1 6432 -0.550000 15.99940
6433 OM 6433 OM OM1 6433 -0.550000 15.99940
6434 OM 6434 OM OM1 6434 -0.550000 15.99940
6435 OM 6435 OM OM1 6435 -0.550000 15.99940
6436 OM 6436 OM OM1 6436 -0.550000 15.99940
6437 OM 6437 OM OM1 6437 -0.550000 15.99940
6438 OM 6438 OM OM1 6438 -0.550000 15.99940
6439 OM 6439 OM OM1 6439 -0.550000 15.99940
6440 OM 6440 OM OM1 6440 -0.550000 15.99940
6441 OM 6441 OM OM1 6441 -0.550000 15.99940
6442 OM 6442 OM OM1 6442 -0.550000 15.99940
6443 OM 6443 OM OM1 6443 -0.550000 15.99940
6444 OM 6444 OM OM1 6444 -0.550000 15.99940
6445 OM 6445 OM OM1 6445 -0.550000 15.99940
6446 OM 6446 OM OM1 6446 -0.550000 15.99940
6447 OM 6447 OM OM1 6447 -0.550000 15.99940
6448 OM 6448 OM OM1 6448 -0.550000 15.99940
6449 OM 6449 OM OM1 6449 -0.550000 15.99940
6450 OM 6450 OM OM1 6450 -0.550000 15.99940
6451 OM 6451 OM OM1 6451 -0.550000 15.99940
6452 OM 6452 OM OM1 6452 -0.550000 15.99940
6453 OM 6453 OM OM1 6453 -0.550000 15.99940
6454 OM 6454 OM OM1 6454 -0.550000 15.99940
6455 OM 6455 OM OM1 6455 -0.550000 15.99940
6456 OM 6456 OM OM1 6456 -0.550000 15.99940
6457 OM 6457 OM OM1 6457 -0.550000 15.99940
6458 OM 6458 OM OM1 6458 -0.550000 15.99940
6459 OM 6459 OM OM1 6459 -0.550000 15.99940
6460 OM 6460 OM OM1 6460 -0.550000 15.99940
6461 OM 6461 OM OM1 6461 -0.550000 15.99940
6462 OM 6462 OM OM1 6462 -0.550000 15.99940
6463 OM 6463 OM OM1 6463 -0.550000 15.99940
6464 OM 6464 OM OM1 6464 -0.550000 15.99940
6465 OM 6465 OM OM1 6465 -0.550000 15.99940
6466 OM 6466 OM OM1 6466 -0.550000 15.99940
6467 OM 6467 OM OM1 6467 -0.550000 15.99940
6468 OM 6468 OM OM1 6468 -0.550000 15.99940
6469 OM 6469 OM OM1 6469 -0.550000 15.99940
6470 OM 6470 OM OM1 6470 -0.550000 15.99940
6471 OM 6471 OM OM1 6471 -0.550000 15.99940
6472 OM 6472 OM OM1 6472 -0.550000 15.99940
6473 OM 6473 OM OM1 6473 -0.550000 15.99940
6474 OM 6474 OM OM1 6474 -0.550000 15.99940
6475 OM 6475 OM OM1 6475 -0.550000 15.99940
6476 OM 6476 OM OM1 6476 -0.550000 15.99940
6477 OM 6477 OM OM1 6477 -0.550000 15.99940
6478 OM 6478 OM OM1 6478 -0.550000 15.99940
6479 OM 6479 OM OM1 6479 -0.550000 15.99940
6480 OM 6480 OM OM1 6480 -0.550000 15.99940
6481 OM 6481 OM OM1 6481 -0.550000 15.99940
6482 OM 6482 OM OM1 6482 -0.550000 15.99940
6483 OM 6483 OM OM1 6483 -0.550000 15.99940
6484 OM 6484 OM OM1 6484 -0.550000 15.99940
6485 OM 6485 OM OM1 6485 -0.550000 15.99940
6486 OM 6486 OM OM1 6486 -0.550000 15.99940
6487 OM 6487 OM OM1 6487 -0.550000 15.99940
6488 OM 6488 OM OM1 6488 -0.550000 15.99940
6489 OM 6489 OM OM1 6489 -0.550000 15.99940
6490 OM 6490 OM OM1 6490 -0.550000 15.99940
6491 OM 6491 OM OM1 6491 -0.550000 15.99940
6492 OM 6492 OM OM1 6492 -0.550000 15.99940
6493 OM 6493 OM OM1 6493 -0.550000 15.99940
6494 OM 6494 OM OM1 6494 -0.550000 15.99940
6495 OM 6495 OM OM1 6495 -0.550000 15.99940
6496 OM 6496 OM OM1 6496 -0.550000 15.99940
6497 OM 6497 OM OM1 6497 -0.550000 15.99940
6498 OM 6498 OM OM1 6498 -0.550000 15.99940
6499 OM 6499 OM OM1 6499 -0.550000 15.99940
6500 OM 6500 OM OM1 6500 -0.550000 15.99940
6501 OM 6501 OM OM1 6501 -0.550000 15.99940
6502 OM 6502 OM OM1 6502 -0.550000 15.99940
6503 OM 6503 OM OM1 6503 -0.550000 15.99940
6504 OM 6504 OM OM1 6504 -0.550000 15.99940
6505 OM 6505 OM OM1 6505 -0.550000 15.99940
6506 OM 6506 OM OM1 6506 -0.550000 15.99940
6507 OM 6507 OM OM1 6507 -0.550000 15.99940
6508 OM 6508 OM OM1 6508 -0.550000 15.99940
6509 OM 6509 OM OM1 6509 -0.550000 15.99940
6510 OM 6510 OM OM1 6510 -0.550000 15.99940
6511 OM 6511 OM OM1 6511 -0.550000 15.99940
6512 OM 6512 OM OM1 6512 -0.550000 15.99940
6513 OM 6513 OM OM1 6513 -0.550000 15.99940
6514 OM 6514 OM OM1 6514 -0.550000 15.99940
6515 OM 6515 OM OM1 6515 -0.550000 15.99940
6516 OM 6516 OM OM1 6516 -0.550000 15.99940
6517 OM 6517 OM OM1 6517 -0.550000 15.99940
6518 OM 6518 OM OM1 6518 -0.550000 15.99940
6519 OM 6519 OM OM1 6519 -0.550000 15.99940
6520 OM 6520 OM OM1 6520 -0.550000 15.99940
6521 OM 6521 OM OM1 6521 -0.550000 15.99940
6522 OM 6522 OM OM1 6522 -0.550000 15.99940
6523 OM 6523 OM OM1 6523 -0.550000 15.99940
6524 OM 6524 OM OM1 6524 -0.550000 15.99940
6525 OM 6525 OM OM1 6525 -0.550000 15.99940
6526 OM 6526 OM OM1 6526 -0.550000 15.99940
6527 OM 6527 OM OM1 6527 -0.550000 15.99940
6528 OM 6528 OM OM1 6528 -0.550000 15.99940
6529 OM 6529 OM OM1 6529 -0.550000 15.99940
6530 OM 6530 OM OM1 6530 -0.550000 15.99940
6531 OM 6531 OM OM1 6531 -0.550000 15.99940
6532 OM 6532 OM OM1 6532 -0.550000 15.99940
6533 OM 6533 OM OM1 6533 -0.550000 15.99940
6534 OM 6534 OM OM1 6534 -0.550000 15.99940
6535 OM 6535 OM OM1 6535 -0.550000 15.99940
6536 OM 6536 OM OM1 6536 -0.550000 15.99940
6537 OM 6537 OM OM1 6537 -0.550000 15.99940
6538 OM 6538 OM OM1 6538 -0.550000 15.99940
6539 OM 6539 OM OM1 6539 -0.550000 15.99940
6540 OM 6540 OM OM1 6540 -0.550000 15.99940
6541 OM 6541 OM OM1 6541 -0.550000 15.99940
6542 OM 6542 OM OM1 6542 -0.550000 15.99940
6543 OM 6543 OM OM1 6543 -0.550000 15.99940
6544 OM 6544 OM OM1 6544 -0.550000 15.99940
6545 OM 6545 OM OM1 6545 -0.550000 15.99940
6546 OM 6546 OM OM1 6546 -0.550000 15.99940
6547 OM 6547 OM OM1 6547 -0.550000 15.99940
6548 OM 6548 OM OM1 6548 -0.550000 15.99940
6549 OM 6549 OM OM1 6549 -0.550000 15.99940
6550 OM 6550 OM OM1 6550 -0.550000 15.99940
6551 OM 6551 OM OM1 6551 -0.550000 15.99940
6552 OM 6552 OM OM1 6552 -0.550000 15.99940
6553 OM 6553 OM OM1 6553 -0.550000 15.99940
6554 OM 6554 OM OM1 6554 -0.550000 15.99940
6555 OM 6555 OM OM1 6555 -0.550000 15.99940
6556 OM 6556 OM OM1 6556 -0.550000 15.99940
6557 OM 6557 OM OM1 6557 -0.550000 15.99940
6558 OM 6558 OM OM1 6558 -0.550000 15.99940
6559 OM 6559 OM OM1 6559 -0.550000 15.99940
6560 OM 6560 OM OM1 6560 -0.550000 15.99940
6561 OM 6561 OM OM1 6561 -0.550000 15.99940
6562 OM 6562 OM OM1 6562 -0.550000 15.99940
6563 OM 6563 OM OM1 6563 -0.550000 15.99940
6564 OM 6564 OM OM1 6564 -0.550000 15.99940
6565 OM 6565 OM OM1 6565 -0.550000 15.99940
6566 OM 6566 OM OM1 6566 -0.550000 15.99940
6567 OM 6567 OM OM1 6567 -0.550000 15.99940
6568 OM 6568 OM OM1 6568 -0.550000 15.99940
6569 OM 6569 OM OM1 6569 -0.550000 15.99940
6570 OM 6570 OM OM1 6570 -0.550000 15.99940
6571 OM 6571 OM OM1 6571 -0.550000 15.99940
6572 OM 6572 OM OM1 6572 -0.550000 15.99940
6573 OM 6573 OM OM1 6573 -0.550000 15.99940
6574 OM 6574 OM OM1 6574 -0.550000 15.99940
6575 OM 6575 OM OM1 6575 -0.550000 15.99940
6576 OM 6576 OM OM1 6576 -0.550000 15.99940
6577 OM 6577 OM OM1 6577 -0.550000 15.99940
6578 OM 6578 OM OM1 6578 -0.550000 15.99940
6579 OM 6579 OM OM1 6579 -0.550000 15.99940
6580 OM 6580 OM OM1 6580 -0.550000 15.99940
6581 OM 6581 OM OM1 6581 -0.550000 15.99940
6582 OM 6582 OM OM1 6582 -0.550000 15.99940
6583 OM 6583 OM OM1 6583 -0.550000 15.99940
6584 OM 6584 OM OM1 6584 -0.550000 15.99940
6585 OM 6585 OM OM1 6585 -0.550000 15.99940
6586 OM 6586 OM OM1 6586 -0.550000 15.99940
6587 OM 6587 OM OM1 6587 -0.550000 15.99940
6588 OM 6588 OM OM1 6588 -0.550000 15.99940
6589 OM 6589 OM OM1 6589 -0.550000 15.99940
6590 OM 6590 OM OM1 6590 -0.550000 15.99940
6591 OM 6591 OM OM1 6591 -0.550000 15.99940
6592 OM 6592 OM OM1 6592 -0.550000 15.99940
6593 OM 6593 OM OM1 6593 -0.550000 15.99940
6594 OM 6594 OM OM1 6594 -0.550000 15.99940
6595 OM 6595 OM OM1 6595 -0.550000 15.99940
6596 OM 6596 OM OM1 6596 -0.550000 15.99940
6597 OM 6597 OM OM1 6597 -0.550000 15.99940
6598 OM 6598 OM OM1 6598 -0.550000 15.99940
6599 OM 6599 OM OM1 6599 -0.550000 15.99940
6600 OM 6600 OM OM1 6600 -0.550000 15.99940
6601 OM 6601 OM OM1 6601 -0.550000 15.99940
6602 OM 6602 OM OM1 6602 -0.550000 15.99940
6603 OM 6603 OM OM1 6603 -0.550000 15.99940
6604 OM 6604 OM OM1 6604 -0.550000 15.99940
6605 OM 6605 OM OM1 6605 -0.550000 15.99940
6606 OM 6606 OM OM1 6606 -0.550000 15.99940
6607 OM 6607 OM OM1 6607 -0.550000 15.99940
6608 OM 6608 OM OM1 6608 -0.550000 15.99940
6609 OM 6609 OM OM1 6609 -0.550000 15.99940
6610 OM 6610 OM OM1 6610 -0.550000 15.99940
6611 OM 6611 OM OM1 6611 -0.550000 15.99940
6612 OM 6612 OM OM1 6612 -0.550000 15.99940
6613 OM 6613 OM OM1 6613 -0.550000 15.99940
6614 OM 6614 OM OM1 6614 -0.550000 15.99940
6615 OM 6615 OM OM1 6615 -0.550000 15.99940
6616 OM 6616 OM OM1 6616 -0.550000 15.99940
6617 OM 6617 OM OM1 6617 -0.550000 15.99940
6618 OM 6618 OM OM1 6618 -0.550000 15.99940
6619 OM 6619 OM OM1 6619 -0.550000 15.99940
6620 OM 6620 OM OM1 6620 -0.550000 15.99940
6621 OM 6621 OM OM1 6621 -0.550000 15.99940
6622 OM 6622 OM OM1 6622 -0.550000 15.99940
6623 OM 6623 OM OM1 6623 -0.550000 15.99940
6624 OM 6624 OM OM1 6624 -0.550000 15.99940
6625 OM 6625 OM OM1 6625 -0.550000 15.99940
6626 OM 6626 OM OM1 6626 -0.550000 15.99940
6627 OM 6627 OM OM1 6627 -0.550000 15.99940
6628 OM 6628 OM OM1 6628 -0.550000 15.99940
6629 OM 6629 OM OM1 6629 -0.550000 15.99940
6630 OM 6630 OM OM1 6630 -0.550000 15.99940
6631 OM 6631 OM OM1 6631 -0.550000 15.99940
6632 OM 6632 OM OM1 6632 -0.550000 15.99940
6633 OM 6633 OM OM1 6633 -0.550000 15.99940
6634 OM 6634 OM OM1 6634 -0.550000 15.99940
6635 OM 6635 OM OM1 6635 -0.550000 15.99940
6636 OM 6636 OM OM1 6636 -0.550000 15.99940
6637 OM 6637 OM OM1 6637 -0.550000 15.99940
6638 OM 6638 OM OM1 6638 -0.550000 15.99940
6639 OM 6639 OM OM1 6639 -0.550000 15.99940
6640 OM 6640 OM OM1 6640 -0.550000 15.99940
6641 OM 6641 OM OM1 6641 -0.550000 15.99940
6642 OM 6642 OM OM1 6642 -0.550000 15.99940
6643 OM 6643 OM OM1 6643 -0.550000 15.99940
6644 OM 6644 OM OM1 6644 -0.550000 15.99940
6645 OM 6645 OM OM1 6645 -0.550000 15.99940
6646 OM 6646 OM OM1 6646 -0.550000 15.99940
6647 OM 6647 OM OM1 6647 -0.550000 15.99940
6648 OM 6648 OM OM1 6648 -0.550000 15.99940
6649 OM 6649 OM OM1 6649 -0.550000 15.99940
6650 OM 6650 OM OM1 6650 -0.550000 15.99940
6651 OM 6651 OM OM1 6651 -0.550000 15.99940
6652 OM 6652 OM OM1 6652 -0.550000 15.99940
6653 OM 6653 OM OM1 6653 -0.550000 15.99940
6654 OM 6654 OM OM1 6654 -0.550000 15.99940
6655 OM 6655 OM OM1 6655 -0.550000 15.99940
6656 OM 6656 OM OM1 6656 -0.550000 15.99940
6657 OM 6657 OM OM1 6657 -0.550000 15.99940
6658 OM 6658 OM OM1 6658 -0.550000 15.99940
6659 OM 6659 OM OM1 6659 -0.550000 15.99940
6660 OM 6660 OM OM1 6660 -0.550000 15.99940
6661 OM 6661 OM OM1 6661 -0.550000 15.99940
6662 OM 6662 OM OM1 6662 -0.550000 15.99940
6663 OM 6663 OM OM1 6663 -0.550000 15.99940
6664 OM 6664 OM OM1 6664 -0.550000 15.99940
6665 OM 6665 OM OM1 6665 -0.550000 15.99940
6666 OM 6666 OM OM1 6666 -0.550000 15.99940
6667 OM 6667 OM OM1 6667 -0.550000 15.99940
6668 OM 6668 OM OM1 6668 -0.550000 15.99940
6669 OM 6669 OM OM1 6669 -0.550000 15.99940
6670 OM 6670 OM OM1 6670 -0.550000 15.99940
6671 OM 6671 OM OM1 6671 -0.550000 15.99940
6672 OM 6672 OM OM1 6672 -0.550000 15.99940
6673 OM 6673 OM OM1 6673 -0.550000 15.99940
6674 OM 6674 OM OM1 6674 -0.550000 15.99940
6675 OM 6675 OM OM1 6675 -0.550000 15.99940
6676 OM 6676 OM OM1 6676 -0.550000 15.99940
6677 OM 6677 OM OM1 6677 -0.550000 15.99940
6678 OM 6678 OM OM1 6678 -0.550000 15.99940
6679 OM 6679 OM OM1 6679 -0.550000 15.99940
6680 OM 6680 OM OM1 6680 -0.550000 15.99940
6681 OM 6681 OM OM1 6681 -0.550000 15.99940
6682 OM 6682 OM OM1 6682 -0.550000 15.99940
6683 OM 6683 OM OM1 6683 -0.550000 15.99940
6684 OM 6684 OM OM1 6684 -0.550000 15.99940
6685 OM 6685 OM OM1 6685 -0.550000 15.99940
6686 OM 6686 OM OM1 6686 -0.550000 15.99940
6687 OM 6687 OM OM1 6687 -0.550000 15.99940
6688 OM 6688 OM OM1 6688 -0.550000 15.99940
6689 OM 6689 OM OM1 6689 -0.550000 15.99940
6690 OM 6690 OM OM1 6690 -0.550000 15.99940
6691 OM 6691 OM OM1 6691 -0.550000 15.99940
6692 OM 6692 OM OM1 6692 -0.550000 15.99940
6693 OM 6693 OM OM1 6693 -0.550000 15.99940
6694 OM 6694 OM OM1 6694 -0.550000 15.99940
6695 OM 6695 OM OM1 6695 -0.550000 15.99940
6696 OM 6696 OM OM1 6696 -0.550000 15.99940
6697 OM 6697 OM OM1 6697 -0.550000 15.99940
6698 OM 6698 OM OM1 6698 -0.550000 15.99940
6699 OM 6699 OM OM1 6699 -0.550000 15.99940
6700 OM 6700 OM OM1 6700 -0.550000 15.99940
6701 OM 6701 OM OM1 6701 -0.550000 15.99940
6702 OM 6702 OM OM1 6702 -0.550000 15.99940
6703 OM 6703 OM OM1 6703 -0.550000 15.99940
6704 OM 6704 OM OM1 6704 -0.550000 15.99940
6705 OM 6705 OM OM1 6705 -0.550000 15.99940
6706 OM 6706 OM OM1 6706 -0.550000 15.99940
6707 OM 6707 OM OM1 6707 -0.550000 15.99940
6708 OM 6708 OM OM1 6708 -0.550000 15.99940
6709 OM 6709 OM OM1 6709 -0.550000 15.99940
6710 OM 6710 OM OM1 6710 -0.550000 15.99940
6711 OM 6711 OM OM1 6711 -0.550000 15.99940
6712 OM 6712 OM OM1 6712 -0.550000 15.99940
6713 OM 6713 OM OM1 6713 -0.550000 15.99940
6714 OM 6714 OM OM1 6714 -0.550000 15.99940
6715 OM 6715 OM OM1 6715 -0.550000 15.99940
6716 OM 6716 OM OM1 6716 -0.550000 15.99940
6717 OM 6717 OM OM1 6717 -0.550000 15.99940
6718 OM 6718 OM OM1 6718 -0.550000 15.99940
6719 OM 6719 OM OM1 6719 -0.550000 15.99940
6720 OM 6720 OM OM1 6720 -0.550000 15.99940
6721 OM 6721 OM OM1 6721 -0.550000 15.99940
6722 OM 6722 OM OM1 6722 -0.550000 15.99940
6723 OM 6723 OM OM1 6723 -0.550000 15.99940
6724 OM 6724 OM OM1 6724 -0.550000 15.99940
6725 OM 6725 OM OM1 6725 -0.550000 15.99940
6726 OM 6726 OM OM1 6726 -0.550000 15.99940
6727 OM 6727 OM OM1 6727 -0.550000 15.99940
6728 OM 6728 OM OM1 6728 -0.550000 15.99940
6729 OM 6729 OM OM1 6729 -0.550000 15.99940
6730 OM 6730 OM OM1 6730 -0.550000 15.99940
6731 OM 6731 OM OM1 6731 -0.550000 15.99940
6732 OM 6732 OM OM1 6732 -0.550000 15.99940
6733 OM 6733 OM OM1 6733 -0.550000 15.99940
6734 OM 6734 OM OM1 6734 -0.550000 15.99940
6735 OM 6735 OM OM1 6735 -0.550000 15.99940
6736 OM 6736 OM OM1 6736 -0.550000 15.99940
6737 OM 6737 OM OM1 6737 -0.550000 15.99940
6738 OM 6738 OM OM1 6738 -0.550000 15.99940
6739 OM 6739 OM OM1 6739 -0.550000 15.99940
6740 OM 6740 OM OM1 6740 -0.550000 15.99940
6741 OM 6741 OM OM1 6741 -0.550000 15.99940
6742 OM 6742 OM OM1 6742 -0.550000 15.99940
6743 OM 6743 OM OM1 6743 -0.550000 15.99940
6744 OM 6744 OM OM1 6744 -0.550000 15.99940
6745 OM 6745 OM OM1 6745 -0.550000 15.99940
6746 OM 6746 OM OM1 6746 -0.550000 15.99940
6747 OM 6747 OM OM1 6747 -0.550000 15.99940
6748 OM 6748 OM OM1 6748 -0.550000 15.99940
6749 OM 6749 OM OM1 6749 -0.550000 15.99940
6750 OM 6750 OM OM1 6750 -0.550000 15.99940
6751 OM 6751 OM OM1 6751 -0.550000 15.99940
6752 OM 6752 OM OM1 6752 -0.550000 15.99940
6753 OM 6753 OM OM1 6753 -0.550000 15.99940
6754 OM 6754 OM OM1 6754 -0.550000 15.99940
6755 OM 6755 OM OM1 6755 -0.550000 15.99940
6756 OM 6756 OM OM1 6756 -0.550000 15.99940
6757 OM 6757 OM OM1 6757 -0.550000 15.99940
6758 OM 6758 OM OM1 6758 -0.550000 15.99940
6759 OM 6759 OM OM1 6759 -0.550000 15.99940
6760 OM 6760 OM OM1 6760 -0.550000 15.99940
6761 OM 6761 OM OM1 6761 -0.550000 15.99940
6762 OM 6762 OM OM1 6762 -0.550000 15.99940
6763 OM 6763 OM OM1 6763 -0.550000 15.99940
6764 OM 6764 OM OM1 6764 -0.550000 15.99940
6765 OM 6765 OM OM1 6765 -0.550000 15.99940
6766 OM 6766 OM OM1 6766 -0.550000 15.99940
6767 OM 6767 OM OM1 6767 -0.550000 15.99940
6768 OM 6768 OM OM1 6768 -0.550000 15.99940
6769 OM 6769 OM OM1 6769 -0.550000 15.99940
6770 OM 6770 OM OM1 6770 -0.550000 15.99940
6771 OM 6771 OM OM1 6771 -0.550000 15.99940
6772 OM 6772 OM OM1 6772 -0.550000 15.99940
6773 OM 6773 OM OM1 6773 -0.550000 15.99940
6774 OM 6774 OM OM1 6774 -0.550000 15.99940
6775 OM 6775 OM OM1 6775 -0.550000 15.99940
6776 OM 6776 OM OM1 6776 -0.550000 15.99940
6777 OM 6777 OM OM1 6777 -0.550000 15.99940
6778 OM 6778 OM OM1 6778 -0.550000 15.99940
6779 OM 6779 OM OM1 6779 -0.550000 15.99940
6780 OM 6780 OM OM1 6780 -0.550000 15.99940
6781 OM 6781 OM OM1 6781 -0.550000 15.99940
6782 OM 6782 OM OM1 6782 -0.550000 15.99940
6783 OM 6783 OM OM1 6783 -0.550000 15.99940
6784 OM 6784 OM OM1 6784 -0.550000 15.99940
6785 OM 6785 OM OM1 6785 -0.550000 15.99940
6786 OM 6786 OM OM1 6786 -0.550000 15.99940
6787 OM 6787 OM OM1 6787 -0.550000 15.99940
6788 OM 6788 OM OM1 6788 -0.550000 15.99940
6789 OM 6789 OM OM1 6789 -0.550000 15.99940
6790 OM 6790 OM OM1 6790 -0.550000 15.99940
6791 OM 6791 OM OM1 6791 -0.550000 15.99940
6792 OM 6792 OM OM1 6792 -0.550000 15.99940
6793 OM 6793 OM OM1 6793 -0.550000 15.99940
6794 OM 6794 OM OM1 6794 -0.550000 15.99940
6795 OM 6795 OM OM1 6795 -0.550000 15.99940
6796 OM 6796 OM OM1 6796 -0.550000 15.99940
6797 OM 6797 OM OM1 6797 -0.550000 15.99940
6798 OM 6798 OM OM1 6798 -0.550000 15.99940
6799 OM 6799 OM OM1 6799 -0.550000 15.99940
6800 OM 6800 OM OM1 6800 -0.550000 15.99940
6801 OM 6801 OM OM1 6801 -0.550000 15.99940
6802 OM 6802 OM OM1 6802 -0.550000 15.99940
6803 OM 6803 OM OM1 6803 -0.550000 15.99940
6804 OM 6804 OM OM1 6804 -0.550000 15.99940
6805 OM 6805 OM OM1 6805 -0.550000 15.99940
6806 OM 6806 OM OM1 6806 -0.550000 15.99940
6807 OM 6807 OM OM1 6807 -0.550000 15.99940
6808 OM 6808 OM OM1 6808 -0.550000 15.99940
6809 OM 6809 OM OM1 6809 -0.550000 15.99940
6810 OM 6810 OM OM1 6810 -0.550000 15.99940
6811 OM 6811 OM OM1 6811 -0.550000 15.99940
6812 OM 6812 OM OM1 6812 -0.550000 15.99940
6813 OM 6813 OM OM1 6813 -0.550000 15.99940
6814 OM 6814 OM OM1 6814 -0.550000 15.99940
6815 OM 6815 OM OM1 6815 -0.550000 15.99940
6816 OM 6816 OM OM1 6816 -0.550000 15.99940
6817 OM 6817 OM OM1 6817 -0.550000 15.99940
6818 OM 6818 OM OM1 6818 -0.550000 15.99940
6819 OM 6819 OM OM1 6819 -0.550000 15.99940
6820 OM 6820 OM OM1 6820 -0.550000 15.99940
6821 OM 6821 OM OM1 6821 -0.550000 15.99940
6822 OM 6822 OM OM1 6822 -0.550000 15.99940
6823 OM 6823 OM OM1 6823 -0.550000 15.99940
6824 OM 6824 OM OM1 6824 -0.550000 15.99940
6825 OM 6825 OM OM1 6825 -0.550000 15.99940
6826 OM 6826 OM OM1 6826 -0.550000 15.99940
6827 OM 6827 OM OM1 6827 -0.550000 15.99940
6828 OM 6828 OM OM1 6828 -0.550000 15.99940
6829 OM 6829 OM OM1 6829 -0.550000 15.99940
6830 OM 6830 OM OM1 6830 -0.550000 15.99940
6831 OM 6831 OM OM1 6831 -0.550000 15.99940
6832 OM 6832 OM OM1 6832 -0.550000 15.99940
6833 OM 6833 OM OM1 6833 -0.550000 15.99940
6834 OM 6834 OM OM1 6834 -0.550000 15.99940
6835 OM 6835 OM OM1 6835 -0.550000 15.99940
6836 OM 6836 OM OM1 6836 -0.550000 15.99940
6837 OM 6837 OM OM1 6837 -0.550000 15.99940
6838 OM 6838 OM OM1 6838 -0.550000 15.99940
6839 OM 6839 OM OM1 6839 -0.550000 15.99940
6840 OM 6840 OM OM1 6840 -0.550000 15.99940
6841 OM 6841 OM OM1 6841 -0.550000 15.99940
6842 OM 6842 OM OM1 6842 -0.550000 15.99940
6843 OM 6843 OM OM1 6843 -0.550000 15.99940
6844 OM 6844 OM OM1 6844 -0.550000 15.99940
6845 OM 6845 OM OM1 6845 -0.550000 15.99940
6846 OM 6846 OM OM1 6846 -0.550000 15.99940
6847 OM 6847 OM OM1 6847 -0.550000 15.99940
6848 OM 6848 OM OM1 6848 -0.550000 15.99940
6849 OM 6849 OM OM1 6849 -0.550000 15.99940
6850 OM 6850 OM OM1 6850 -0.550000 15.99940
6851 OM 6851 OM OM1 6851 -0.550000 15.99940
6852 OM 6852 OM OM1 6852 -0.550000 15.99940
6853 OM 6853 OM OM1 6853 -0.550000 15.99940
6854 OM 6854 OM OM1 6854 -0.550000 15.99940
6855 OM 6855 OM OM1 6855 -0.550000 15.99940
6856 OM 6856 OM OM1 6856 -0.550000 15.99940
6857 OM 6857 OM OM1 6857 -0.550000 15.99940
6858 OM 6858 OM OM1 6858 -0.550000 15.99940
6859 OM 6859 OM OM1 6859 -0.550000 15.99940
6860 OM 6860 OM OM1 6860 -0.550000 15.99940
6861 OM 6861 OM OM1 6861 -0.550000 15.99940
6862 OM 6862 OM OM1 6862 -0.550000 15.99940
6863 OM 6863 OM OM1 6863 -0.550000 15.99940
6864 OM 6864 OM OM1 6864 -0.550000 15.99940
6865 OM 6865 OM OM1 6865 -0.550000 15.99940
6866 OM 6866 OM OM1 6866 -0.550000 15.99940
6867 OM 6867 OM OM1 6867 -0.550000 15.99940
6868 OM 6868 OM OM1 6868 -0.550000 15.99940
6869 OM 6869 OM OM1 6869 -0.550000 15.99940
6870 OM 6870 OM OM1 6870 -0.550000 15.99940
6871 OM 6871 OM OM1 6871 -0.550000 15.99940
6872 OM 6872 OM OM1 6872 -0.550000 15.99940
6873 OM 6873 OM OM1 6873 -0.550000 15.99940
6874 OM 6874 OM OM1 6874 -0.550000 15.99940
6875 OM 6875 OM OM1 6875 -0.550000 15.99940
6876 OM 6876 OM OM1 6876 -0.550000 15.99940
6877 OM 6877 OM OM1 6877 -0.550000 15.99940
6878 OM 6878 OM OM1 6878 -0.550000 15.99940
6879 OM 6879 OM OM1 6879 -0.550000 15.99940
6880 OM 6880 OM OM1 6880 -0.550000 15.99940
6881 OM 6881 OM OM1 6881 -0.550000 15.99940
6882 OM 6882 OM OM1 6882 -0.550000 15.99940
6883 OM 6883 OM OM1 6883 -0.550000 15.99940
6884 OM 6884 OM OM1 6884 -0.550000 15.99940
6885 OM 6885 OM OM1 6885 -0.550000 15.99940
6886 OM 6886 OM OM1 6886 -0.550000 15.99940
6887 OM 6887 OM OM1 6887 -0.550000 15.99940
6888 OM 6888 OM OM1 6888 -0.550000 15.99940
6889 OM 6889 OM OM1 6889 -0.550000 15.99940
6890 OM 6890 OM OM1 6890 -0.550000 15.99940
6891 OM 6891 OM OM1 6891 -0.550000 15.99940
6892 OM 6892 OM OM1 6892 -0.550000 15.99940
6893 OM 6893 OM OM1 6893 -0.550000 15.99940
6894 OM 6894 OM OM1 6894 -0.550000 15.99940
6895 OM 6895 OM OM1 6895 -0.550000 15.99940
6896 OM 6896 OM OM1 6896 -0.550000 15.99940
6897 OM 6897 OM OM1 6897 -0.550000 15.99940
6898 OM 6898 OM OM1 6898 -0.550000 15.99940
6899 OM 6899 OM OM1 6899 -0.550000 15.99940
6900 OM 6900 OM OM1 6900 -0.550000 15.99940
6901 OM 6901 OM OM1 6901 -0.550000 15.99940
6902 OM 6902 OM OM1 6902 -0.550000 15.99940
6903 OM 6903 OM OM1 6903 -0.550000 15.99940
6904 OM 6904 OM OM1 6904 -0.550000 15.99940
6905 OM 6905 OM OM1 6905 -0.550000 15.99940
6906 OM 6906 OM OM1 6906 -0.550000 15.99940
6907 OM 6907 OM OM1 6907 -0.550000 15.99940
6908 OM 6908 OM OM1 6908 -0.550000 15.99940
6909 OM 6909 OM OM1 6909 -0.550000 15.99940
6910 OM 6910 OM OM1 6910 -0.550000 15.99940
6911 OM 6911 OM OM1 6911 -0.550000 15.99940
6912 OM 6912 OM OM1 6912 -0.550000 15.99940
6913 OM 6913 OM OM1 6913 -0.550000 15.99940
6914 OM 6914 OM OM1 6914 -0.550000 15.99940
6915 OM 6915 OM OM1 6915 -0.550000 15.99940
6916 OM 6916 OM OM1 6916 -0.550000 15.99940
6917 OM 6917 OM OM1 6917 -0.550000 15.99940
6918 OM 6918 OM OM1 6918 -0.550000 15.99940
6919 OM 6919 OM OM1 6919 -0.550000 15.99940
6920 OM 6920 OM OM1 6920 -0.550000 15.99940
6921 OM 6921 OM OM1 6921 -0.550000 15.99940
6922 OM 6922 OM OM1 6922 -0.550000 15.99940
6923 OM 6923 OM OM1 6923 -0.550000 15.99940
6924 OM 6924 OM OM1 6924 -0.550000 15.99940
6925 OM 6925 OM OM1 6925 -0.550000 15.99940
6926 OM 6926 OM OM1 6926 -0.550000 15.99940
6927 OM 6927 OM OM1 6927 -0.550000 15.99940
6928 OM 6928 OM OM1 6928 -0.550000 15.99940
6929 OM 6929 OM OM1 6929 -0.550000 15.99940
6930 OM 6930 OM OM1 6930 -0.550000 15.99940
6931 OM 6931 OM OM1 6931 -0.550000 15.99940
6932 OM 6932 OM OM1 6932 -0.550000 15.99940
6933 OM 6933 OM OM1 6933 -0.550000 15.99940
6934 OM 6934 OM OM1 6934 -0.550000 15.99940
6935 OM 6935 OM OM1 6935 -0.550000 15.99940
6936 OM 6936 OM OM1 6936 -0.550000 15.99940
6937 OM 6937 OM OM1 6937 -0.550000 15.99940
6938 OM 6938 OM OM1 6938 -0.550000 15.99940
6939 OM 6939 OM OM1 6939 -0.550000 15.99940
6940 OM 6940 OM OM1 6940 -0.550000 15.99940
6941 OM 6941 OM OM1 6941 -0.550000 15.99940
6942 OM 6942 OM OM1 6942 -0.550000 15.99940
6943 OM 6943 OM OM1 6943 -0.550000 15.99940
6944 OM 6944 OM OM1 6944 -0.550000 15.99940
6945 OM 6945 OM OM1 6945 -0.550000 15.99940
6946 OM 6946 OM OM1 6946 -0.550000 15.99940
6947 OM 6947 OM OM1 6947 -0.550000 15.99940
6948 OM 6948 OM OM1 6948 -0.550000 15.99940
6949 OM 6949 OM OM1 6949 -0.550000 15.99940
6950 OM 6950 OM OM1 6950 -0.550000 15.99940
6951 OM 6951 OM OM1 6951 -0.550000 15.99940
6952 OM 6952 OM OM1 6952 -0.550000 15.99940
6953 OM 6953 OM OM1 6953 -0.550000 15.99940
6954 OM 6954 OM OM1 6954 -0.550000 15.99940
6955 OM 6955 OM OM1 6955 -0.550000 15.99940
6956 OM 6956 OM OM1 6956 -0.550000 15.99940
6957 OM 6957 OM OM1 6957 -0.550000 15.99940
6958 OM 6958 OM OM1 6958 -0.550000 15.99940
6959 OM 6959 OM OM1 6959 -0.550000 15.99940
6960 OM 6960 OM OM1 6960 -0.550000 15.99940
6961 OM 6961 OM OM1 6961 -0.550000 15.99940
6962 OM 6962 OM OM1 6962 -0.550000 15.99940
6963 OM 6963 OM OM1 6963 -0.550000 15.99940
6964 OM 6964 OM OM1 6964 -0.550000 15.99940
6965 OM 6965 OM OM1 6965 -0.550000 15.99940
6966 OM 6966 OM OM1 6966 -0.550000 15.99940
6967 OM 6967 OM OM1 6967 -0.550000 15.99940
6968 OM 6968 OM OM1 6968 -0.550000 15.99940
6969 OM 6969 OM OM1 6969 -0.550000 15.99940
6970 OM 6970 OM OM1 6970 -0.550000 15.99940
6971 OM 6971 OM OM1 6971 -0.550000 15.99940
6972 OM 6972 OM OM1 6972 -0.550000 15.99940
6973 OM 6973 OM OM1 6973 -0.550000 15.99940
6974 OM 6974 OM OM1 6974 -0.550000 15.99940
6975 OM 6975 OM OM1 6975 -0.550000 15.99940
6976 OM 6976 OM OM1 6976 -0.550000 15.99940
6977 OM 6977 OM OM1 6977 -0.550000 15.99940
6978 OM 6978 OM OM1 6978 -0.550000 15.99940
6979 OM 6979 OM OM1 6979 -0.550000 15.99940
6980 OM 6980 OM OM1 6980 -0.550000 15.99940
6981 OM 6981 OM OM1 6981 -0.550000 15.99940
6982 OM 6982 OM OM1 6982 -0.550000 15.99940
6983 OM 6983 OM OM1 6983 -0.550000 15.99940
6984 OM 6984 OM OM1 6984 -0.550000 15.99940
6985 OM 6985 OM OM1 6985 -0.550000 15.99940
6986 OM 6986 OM OM1 6986 -0.550000 15.99940
6987 OM 6987 OM OM1 6987 -0.550000 15.99940
6988 OM 6988 OM OM1 6988 -0.550000 15.99940
6989 OM 6989 OM OM1 6989 -0.550000 15.99940
6990 OM 6990 OM OM1 6990 -0.550000 15.99940
6991 OM 6991 OM OM1 6991 -0.550000 15.99940
6992 OM 6992 OM OM1 6992 -0.550000 15.99940
6993 OM 6993 OM OM1 6993 -0.550000 15.99940
6994 OM 6994 OM OM1 6994 -0.550000 15.99940
6995 OM 6995 OM OM1 6995 -0.550000 15.99940
6996 OM 6996 OM OM1 6996 -0.550000 15.99940
6997 OM 6997 OM OM1 6997 -0.550000 15.99940
6998 OM 6998 OM OM1 6998 -0.550000 15.99940
6999 OM 6999 OM OM1 6999 -0.550000 15.99940
7000 OM 7000 OM OM1 7000 -0.550000 15.99940
7001 OM 7001 OM OM1 7001 -0.550000 15.99940
7002 OM 7002 OM OM1 7002 -0.550000 15.99940
7003 OM 7003 OM OM1 7003 -0.550000 15.99940
7004 OM 7004 OM OM1 7004 -0.550000 15.99940
7005 OM 7005 OM OM1 7005 -0.550000 15.99940
7006 OM 7006 OM OM1 7006 -0.550000 15.99940
7007 OM 7007 OM OM1 7007 -0.550000 15.99940
7008 OM 7008 OM OM1 7008 -0.550000 15.99940
7009 OM 7009 OM OM1 7009 -0.550000 15.99940
7010 OM 7010 OM OM1 7010 -0.550000 15.99940
7011 OM 7011 OM OM1 7011 -0.550000 15.99940
7012 OM 7012 OM OM1 7012 -0.550000 15.99940
7013 OM 7013 OM OM1 7013 -0.550000 15.99940
7014 OM 7014 OM OM1 7014 -0.550000 15.99940
7015 OM 7015 OM OM1 7015 -0.550000 15.99940
7016 OM 7016 OM OM1 7016 -0.550000 15.99940
7017 OM 7017 OM OM1 7017 -0.550000 15.99940
7018 OM 7018 OM OM1 7018 -0.550000 15.99940
7019 OM 7019 OM OM1 7019 -0.550000 15.99940
7020 OM 7020 OM OM1 7020 -0.550000 15.99940
7021 OM 7021 OM OM1 7021 -0.550000 15.99940
7022 OM 7022 OM OM1 7022 -0.550000 15.99940
7023 OM 7023 OM OM1 7023 -0.550000 15.99940
7024 OM 7024 OM OM1 7024 -0.550000 15.99940
7025 OM 7025 OM OM1 7025 -0.550000 15.99940
7026 OM 7026 OM OM1 7026 -0.550000 15.99940
7027 OM 7027 OM OM1 7027 -0.550000 15.99940
7028 OM 7028 OM OM1 7028 -0.550000 15.99940
7029 OM 7029 OM OM1 7029 -0.550000 15.99940
7030 OM 7030 OM OM1 7030 -0.550000 15.99940
7031 OM 7031 OM OM1 7031 -0.550000 15.99940
7032 OM 7032 OM OM1 7032 -0.550000 15.99940
7033 OM 7033 OM OM1 7033 -0.550000 15.99940
7034 OM 7034 OM OM1 7034 -0.550000 15.99940
7035 OM 7035 OM OM1 7035 -0.550000 15.99940
7036 OM 7036 OM OM1 7036 -0.550000 15.99940
7037 OM 7037 OM OM1 7037 -0.550000 15.99940
7038 OM 7038 OM OM1 7038 -0.550000 15.99940
7039 OM 7039 OM OM1 7039 -0.550000 15.99940
7040 OM 7040 OM OM1 7040 -0.550000 15.99940
7041 OM 7041 OM OM1 7041 -0.550000 15.99940
7042 OM 7042 OM OM1 7042 -0.550000 15.99940
7043 OM 7043 OM OM1 7043 -0.550000 15.99940
7044 OM 7044 OM OM1 7044 -0.550000 15.99940
7045 OM 7045 OM OM1 7045 -0.550000 15.99940
7046 OM 7046 OM OM1 7046 -0.550000 15.99940
7047 OM 7047 OM OM1 7047 -0.550000 15.99940
7048 OM 7048 OM OM1 7048 -0.550000 15.99940
7049 OM 7049 OM OM1 7049 -0.550000 15.99940
7050 OM 7050 OM OM1 7050 -0.550000 15.99940
7051 OM 7051 OM OM1 7051 -0.550000 15.99940
7052 OM 7052 OM OM1 7052 -0.550000 15.99940
7053 OM 7053 OM OM1 7053 -0.550000 15.99940
7054 OM 7054 OM OM1 7054 -0.550000 15.99940
7055 OM 7055 OM OM1 7055 -0.550000 15.99940
7056 OM 7056 OM OM1 7056 -0.550000 15.99940
7057 OM 7057 OM OM1 7057 -0.550000 15.99940
7058 OM 7058 OM OM1 7058 -0.550000 15.99940
7059 OM 7059 OM OM1 7059 -0.550000 15.99940
7060 OM 7060 OM OM1 7060 -0.550000 15.99940
7061 OM 7061 OM OM1 7061 -0.550000 15.99940
7062 OM 7062 OM OM1 7062 -0.550000 15.99940
7063 OM 7063 OM OM1 7063 -0.550000 15.99940
7064 OM 7064 OM OM1 7064 -0.550000 15.99940
7065 OM 7065 OM OM1 7065 -0.550000 15.99940
7066 OM 7066 OM OM1 7066 -0.550000 15.99940
7067 OM 7067 OM OM1 7067 -0.550000 15.99940
7068 OM 7068 OM OM1 7068 -0.550000 15.99940
7069 OM 7069 OM OM1 7069 -0.550000 15.99940
7070 OM 7070 OM OM1 7070 -0.550000 15.99940
7071 OM 7071 OM OM1 7071 -0.550000 15.99940
7072 OM 7072 OM OM1 7072 -0.550000 15.99940
7073 OM 7073 OM OM1 7073 -0.550000 15.99940
7074 OM 7074 OM OM1 7074 -0.550000 15.99940
7075 OM 7075 OM OM1 7075 -0.550000 15.99940
7076 OM 7076 OM OM1 7076 -0.550000 15.99940
7077 OM 7077 OM OM1 7077 -0.550000 15.99940
7078 OM 7078 OM OM1 7078 -0.550000 15.99940
7079 OM 7079 OM OM1 7079 -0.550000 15.99940
7080 OM 7080 OM OM1 7080 -0.550000 15.99940
7081 OM 7081 OM OM1 7081 -0.550000 15.99940
7082 OM 7082 OM OM1 7082 -0.550000 15.99940
7083 OM 7083 OM OM1 7083 -0.550000 15.99940
7084 OM 7084 OM OM1 7084 -0.550000 15.99940
7085 OM 7085 OM OM1 7085 -0.550000 15.99940
7086 OM 7086 OM OM1 7086 -0.550000 15.99940
7087 OM 7087 OM OM1 7087 -0.550000 15.99940
7088 OM 7088 OM OM1 7088 -0.550000 15.99940
7089 OM 7089 OM OM1 7089 -0.550000 15.99940
7090 OM 7090 OM OM1 7090 -0.550000 15.99940
7091 OM 7091 OM OM1 7091 -0.550000 15.99940
7092 OM 7092 OM OM1 7092 -0.550000 15.99940
7093 OM 7093 OM OM1 7093 -0.550000 15.99940
7094 OM 7094 OM OM1 7094 -0.550000 15.99940
7095 OM 7095 OM OM1 7095 -0.550000 15.99940
7096 OM 7096 OM OM1 7096 -0.550000 15.99940
7097 OM 7097 OM OM1 7097 -0.550000 15.99940
7098 OM 7098 OM OM1 7098 -0.550000 15.99940
7099 OM 7099 OM OM1 7099 -0.550000 15.99940
7100 OM 7100 OM OM1 7100 -0.550000 15.99940
7101 OM 7101 OM OM1 7101 -0.550000 15.99940
7102 OM 7102 OM OM1 7102 -0.550000 15.99940
7103 OM 7103 OM OM1 7103 -0.550000 15.99940
7104 OM 7104 OM OM1 7104 -0.550000 15.99940
7105 OM 7105 OM OM1 7105 -0.550000 15.99940
7106 OM 7106 OM OM1 7106 -0.550000 15.99940
7107 OM 7107 OM OM1 7107 -0.550000 15.99940
7108 OM 7108 OM OM1 7108 -0.550000 15.99940
7109 OM 7109 OM OM1 7109 -0.550000 15.99940
7110 OM 7110 OM OM1 7110 -0.550000 15.99940
7111 OM 7111 OM OM1 7111 -0.550000 15.99940
7112 OM 7112 OM OM1 7112 -0.550000 15.99940
7113 OM 7113 OM OM1 7113 -0.550000 15.99940
7114 OM 7114 OM OM1 7114 -0.550000 15.99940
7115 OM 7115 OM OM1 7115 -0.550000 15.99940
7116 OM 7116 OM OM1 7116 -0.550000 15.99940
7117 OM 7117 OM OM1 7117 -0.550000 15.99940
7118 OM 7118 OM OM1 7118 -0.550000 15.99940
7119 OM 7119 OM OM1 7119 -0.550000 15.99940
7120 OM 7120 OM OM1 7120 -0.550000 15.99940
7121 OM 7121 OM OM1 7121 -0.550000 15.99940
7122 OM 7122 OM OM1 7122 -0.550000 15.99940
7123 OM 7123 OM OM1 7123 -0.550000 15.99940
7124 OM 7124 OM OM1 7124 -0.550000 15.99940
7125 OM 7125 OM OM1 7125 -0.550000 15.99940
7126 OM 7126 OM OM1 7126 -0.550000 15.99940
7127 OM 7127 OM OM1 7127 -0.550000 15.99940
7128 OM 7128 OM OM1 7128 -0.550000 15.99940
7129 OM 7129 OM OM1 7129 -0.550000 15.99940
7130 OM 7130 OM OM1 7130 -0.550000 15.99940
7131 OM 7131 OM OM1 7131 -0.550000 15.99940
7132 OM 7132 OM OM1 7132 -0.550000 15.99940
7133 OM 7133 OM OM1 7133 -0.550000 15.99940
7134 OM 7134 OM OM1 7134 -0.550000 15.99940
7135 OM 7135 OM OM1 7135 -0.550000 15.99940
7136 OM 7136 OM OM1 7136 -0.550000 15.99940
7137 OM 7137 OM OM1 7137 -0.550000 15.99940
7138 OM 7138 OM OM1 7138 -0.550000 15.99940
7139 OM 7139 OM OM1 7139 -0.550000 15.99940
7140 OM 7140 OM OM1 7140 -0.550000 15.99940
7141 OM 7141 OM OM1 7141 -0.550000 15.99940
7142 OM 7142 OM OM1 7142 -0.550000 15.99940
7143 OM 7143 OM OM1 7143 -0.550000 15.99940
7144 OM 7144 OM OM1 7144 -0.550000 15.99940
7145 OM 7145 OM OM1 7145 -0.550000 15.99940
7146 OM 7146 OM OM1 7146 -0.550000 15.99940
7147 OM 7147 OM OM1 7147 -0.550000 15.99940
7148 OM 7148 OM OM1 7148 -0.550000 15.99940
7149 OM 7149 OM OM1 7149 -0.550000 15.99940
7150 OM 7150 OM OM1 7150 -0.550000 15.99940
7151 OM 7151 OM OM1 7151 -0.550000 15.99940
7152 OM 7152 OM OM1 7152 -0.550000 15.99940
7153 OM 7153 OM OM1 7153 -0.550000 15.99940
7154 OM 7154 OM OM1 7154 -0.550000 15.99940
7155 OM 7155 OM OM1 7155 -0.550000 15.99940
7156 OM 7156 OM OM1 7156 -0.550000 15.99940
7157 OM 7157 OM OM1 7157 -0.550000 15.99940
7158 OM 7158 OM OM1 7158 -0.550000 15.99940
7159 OM 7159 OM OM1 7159 -0.550000 15.99940
7160 OM 7160 OM OM1 7160 -0.550000 15.99940
7161 OM 7161 OM OM1 7161 -0.550000 15.99940
7162 OM 7162 OM OM1 7162 -0.550000 15.99940
7163 OM 7163 OM OM1 7163 -0.550000 15.99940
7164 OM 7164 OM OM1 7164 -0.550000 15.99940
7165 OM 7165 OM OM1 7165 -0.550000 15.99940
7166 OM 7166 OM OM1 7166 -0.550000 15.99940
7167 OM 7167 OM OM1 7167 -0.550000 15.99940
7168 OM 7168 OM OM1 7168 -0.550000 15.99940
7169 OM 7169 OM OM1 7169 -0.550000 15.99940
7170 OM 7170 OM OM1 7170 -0.550000 15.99940
7171 OM 7171 OM OM1 7171 -0.550000 15.99940
7172 OM 7172 OM OM1 7172 -0.550000 15.99940
7173 OM 7173 OM OM1 7173 -0.550000 15.99940
7174 OM 7174 OM OM1 7174 -0.550000 15.99940
7175 OM 7175 OM OM1 7175 -0.550000 15.99940
7176 OM 7176 OM OM1 7176 -0.550000 15.99940
7177 OM 7177 OM OM1 7177 -0.550000 15.99940
7178 OM 7178 OM OM1 7178 -0.550000 15.99940
7179 OM 7179 OM OM1 7179 -0.550000 15.99940
7180 OM 7180 OM OM1 7180 -0.550000 15.99940
7181 OM 7181 OM OM1 7181 -0.550000 15.99940
7182 OM 7182 OM OM1 7182 -0.550000 15.99940
7183 OM 7183 OM OM1 7183 -0.550000 15.99940
7184 OM 7184 OM OM1 7184 -0.550000 15.99940
7185 OM 7185 OM OM1 7185 -0.550000 15.99940
7186 OM 7186 OM OM1 7186 -0.550000 15.99940
7187 OM 7187 OM OM1 7187 -0.550000 15.99940
7188 OM 7188 OM OM1 7188 -0.550000 15.99940
7189 OM 7189 OM OM1 7189 -0.550000 15.99940
7190 OM 7190 OM OM1 7190 -0.550000 15.99940
7191 OM 7191 OM OM1 7191 -0.550000 15.99940
7192 OM 7192 OM OM1 7192 -0.550000 15.99940
7193 OM 7193 OM OM1 7193 -0.550000 15.99940
7194 OM 7194 OM OM1 7194 -0.550000 15.99940
7195 OM 7195 OM OM1 7195 -0.550000 15.99940
7196 OM 7196 OM OM1 7196 -0.550000 15.99940
7197 OM 7197 OM OM1 7197 -0.550000 15.99940
7198 OM 7198 OM OM1 7198 -0.550000 15.99940
7199 OM 7199 OM OM1 7199 -0.550000 15.99940
7200 OM 7200 OM OM1 7200 -0.550000 15.99940
7201 OM 7201 OM OM1 7201 -0.550000 15.99940
7202 OM 7202 OM OM1 7202 -0.550000 15.99940
7203 OM 7203 OM OM1 7203 -0.550000 15.99940
7204 OM 7204 OM OM1 7204 -0.550000 15.99940
7205 OM 7205 OM OM1 7205 -0.550000 15.99940
7206 OM 7206 OM OM1 7206 -0.550000 15.99940
7207 OM 7207 OM OM1 7207 -0.550000 15.99940
7208 OM 7208 OM OM1 7208 -0.550000 15.99940
7209 OM 7209 OM OM1 7209 -0.550000 15.99940
7210 OM 7210 OM OM1 7210 -0.550000 15.99940
7211 OM 7211 OM OM1 7211 -0.550000 15.99940
7212 OM 7212 OM OM1 7212 -0.550000 15.99940
7213 OM 7213 OM OM1 7213 -0.550000 15.99940
7214 OM 7214 OM OM1 7214 -0.550000 15.99940
7215 OM 7215 OM OM1 7215 -0.550000 15.99940
7216 OM 7216 OM OM1 7216 -0.550000 15.99940
7217 OM 7217 OM OM1 7217 -0.550000 15.99940
7218 OM 7218 OM OM1 7218 -0.550000 15.99940
7219 OM 7219 OM OM1 7219 -0.550000 15.99940
7220 OM 7220 OM OM1 7220 -0.550000 15.99940
7221 OM 7221 OM OM1 7221 -0.550000 15.99940
7222 OM 7222 OM OM1 7222 -0.550000 15.99940
7223 OM 7223 OM OM1 7223 -0.550000 15.99940
7224 OM 7224 OM OM1 7224 -0.550000 15.99940
7225 OM 7225 OM OM1 7225 -0.550000 15.99940
7226 OM 7226 OM OM1 7226 -0.550000 15.99940
7227 OM 7227 OM OM1 7227 -0.550000 15.99940
7228 OM 7228 OM OM1 7228 -0.550000 15.99940
7229 OM 7229 OM OM1 7229 -0.550000 15.99940
7230 OM 7230 OM OM1 7230 -0.550000 15.99940
7231 OM 7231 OM OM1 7231 -0.550000 15.99940
7232 OM 7232 OM OM1 7232 -0.550000 15.99940
7233 OM 7233 OM OM1 7233 -0.550000 15.99940
7234 OM 7234 OM OM1 7234 -0.550000 15.99940
7235 OM 7235 OM OM1 7235 -0.550000 15.99940
7236 OM 7236 OM OM1 7236 -0.550000 15.99940
7237 OM 7237 OM OM1 7237 -0.550000 15.99940
7238 OM 7238 OM OM1 7238 -0.550000 15.99940
7239 OM 7239 OM OM1 7239 -0.550000 15.99940
7240 OM 7240 OM OM1 7240 -0.550000 15.99940
7241 OM 7241 OM OM1 7241 -0.550000 15.99940
7242 OM 7242 OM OM1 7242 -0.550000 15.99940
7243 OM 7243 OM OM1 7243 -0.550000 15.99940
7244 OM 7244 OM OM1 7244 -0.550000 15.99940
7245 OM 7245 OM OM1 7245 -0.550000 15.99940
7246 OM 7246 OM OM1 7246 -0.550000 15.99940
7247 OM 7247 OM OM1 7247 -0.550000 15.99940
7248 OM 7248 OM OM1 7248 -0.550000 15.99940
7249 OM 7249 OM OM1 7249 -0.550000 15.99940
7250 OM 7250 OM OM1 7250 -0.550000 15.99940
7251 OM 7251 OM OM1 7251 -0.550000 15.99940
7252 OM 7252 OM OM1 7252 -0.550000 15.99940
7253 OM 7253 OM OM1 7253 -0.550000 15.99940
7254 OM 7254 OM OM1 7254 -0.550000 15.99940
7255 OM 7255 OM OM1 7255 -0.550000 15.99940
7256 OM 7256 OM OM1 7256 -0.550000 15.99940
7257 OM 7257 OM OM1 7257 -0.550000 15.99940
7258 OM 7258 OM OM1 7258 -0.550000 15.99940
7259 OM 7259 OM OM1 7259 -0.550000 15.99940
7260 OM 7260 OM OM1 7260 -0.550000 15.99940
7261 OM 7261 OM OM1 7261 -0.550000 15.99940
7262 OM 7262 OM OM1 7262 -0.550000 15.99940
7263 OM 7263 OM OM1 7263 -0.550000 15.99940
7264 OM 7264 OM OM1 7264 -0.550000 15.99940
7265 OM 7265 OM OM1 7265 -0.550000 15.99940
7266 OM 7266 OM OM1 7266 -0.550000 15.99940
7267 OM 7267 OM OM1 7267 -0.550000 15.99940
7268 OM 7268 OM OM1 7268 -0.550000 15.99940
7269 OM 7269 OM OM1 7269 -0.550000 15.99940
7270 OM 7270 OM OM1 7270 -0.550000 15.99940
7271 OM 7271 OM OM1 7271 -0.550000 15.99940
7272 OM 7272 OM OM1 7272 -0.550000 15.99940
7273 OM 7273 OM OM1 7273 -0.550000 15.99940
7274 OM 7274 OM OM1 7274 -0.550000 15.99940
7275 OM 7275 OM OM1 7275 -0.550000 15.99940
7276 OM 7276 OM OM1 7276 -0.550000 15.99940
7277 OM 7277 OM OM1 7277 -0.550000 15.99940
7278 OM 7278 OM OM1 7278 -0.550000 15.99940
7279 OM 7279 OM OM1 7279 -0.550000 15.99940
7280 OM 7280 OM OM1 7280 -0.550000 15.99940
7281 OM 7281 OM OM1 7281 -0.550000 15.99940
7282 OM 7282 OM OM1 7282 -0.550000 15.99940
7283 OM 7283 OM OM1 7283 -0.550000 15.99940
7284 OM 7284 OM OM1 7284 -0.550000 15.99940
7285 OM 7285 OM OM1 7285 -0.550000 15.99940
7286 OM 7286 OM OM1 7286 -0.550000 15.99940
7287 OM 7287 OM OM1 7287 -0.550000 15.99940
7288 OM 7288 OM OM1 7288 -0.550000 15.99940
7289 OM 7289 OM OM1 7289 -0.550000 15.99940
7290 OM 7290 OM OM1 7290 -0.550000 15.99940
7291 OM 7291 OM OM1 7291 -0.550000 15.99940
7292 OM 7292 OM OM1 7292 -0.550000 15.99940
7293 OM 7293 OM OM1 7293 -0.550000 15.99940
7294 OM 7294 OM OM1 7294 -0.550000 15.99940
7295 OM 7295 OM OM1 7295 -0.550000 15.99940
7296 OM 7296 OM OM1 7296 -0.550000 15.99940
7297 OM 7297 OM OM1 7297 -0.550000 15.99940
7298 OM 7298 OM OM1 7298 -0.550000 15.99940
7299 OM 7299 OM OM1 7299 -0.550000 15.99940
7300 OM 7300 OM OM1 7300 -0.550000 15.99940
7301 OM 7301 OM OM1 7301 -0.550000 15.99940
7302 OM 7302 OM OM1 7302 -0.550000 15.99940
7303 OM 7303 OM OM1 7303 -0.550000 15.99940
7304 OM 7304 OM OM1 7304 -0.550000 15.99940
7305 OM 7305 OM OM1 7305 -0.550000 15.99940
7306 OM 7306 OM OM1 7306 -0.550000 15.99940
7307 OM 7307 OM OM1 7307 -0.550000 15.99940
7308 OM 7308 OM OM1 7308 -0.550000 15.99940
7309 OM 7309 OM OM1 7309 -0.550000 15.99940
7310 OM 7310 OM OM1 7310 -0.550000 15.99940
7311 OM 7311 OM OM1 7311 -0.550000 15.99940
7312 OM 7312 OM OM1 7312 -0.550000 15.99940
7313 OM 7313 OM OM1 7313 -0.550000 15.99940
7314 OM 7314 OM OM1 7314 -0.550000 15.99940
7315 OM 7315 OM OM1 7315 -0.550000 15.99940
7316 OM 7316 OM OM1 7316 -0.550000 15.99940
7317 OM 7317 OM OM1 7317 -0.550000 15.99940
7318 OM 7318 OM OM1 7318 -0.550000 15.99940
7319 OM 7319 OM OM1 7319 -0.550000 15.99940
7320 OM 7320 OM OM1 7320 -0.550000 15.99940
7321 OM 7321 OM OM1 7321 -0.550000 15.99940
7322 OM 7322 OM OM1 7322 -0.550000 15.99940
7323 OM 7323 OM OM1 7323 -0.550000 15.99940
7324 OM 7324 OM OM1 7324 -0.550000 15.99940
7325 OM 7325 OM OM1 7325 -0.550000 15.99940
7326 OM 7326 OM OM1 7326 -0.550000 15.99940
7327 OM 7327 OM OM1 7327 -0.550000 15.99940
7328 OM 7328 OM OM1 7328 -0.550000 15.99940
7329 OM 7329 OM OM1 7329 -0.550000 15.99940
7330 OM 7330 OM OM1 7330 -0.550000 15.99940
7331 OM 7331 OM OM1 7331 -0.550000 15.99940
7332 OM 7332 OM OM1 7332 -0.550000 15.99940
7333 OM 7333 OM OM1 7333 -0.550000 15.99940
7334 OM 7334 OM OM1 7334 -0.550000 15.99940
7335 OM 7335 OM OM1 7335 -0.550000 15.99940
7336 OM 7336 OM OM1 7336 -0.550000 15.99940
7337 OM 7337 OM OM1 7337 -0.550000 15.99940
7338 OM 7338 OM OM1 7338 -0.550000 15.99940
7339 OM 7339 OM OM1 7339 -0.550000 15.99940
7340 OM 7340 OM OM1 7340 -0.550000 15.99940
7341 OM 7341 OM OM1 7341 -0.550000 15.99940
7342 OM 7342 OM OM1 7342 -0.550000 15.99940
7343 OM 7343 OM OM1 7343 -0.550000 15.99940
7344 OM 7344 OM OM1 7344 -0.550000 15.99940
7345 OM 7345 OM OM1 7345 -0.550000 15.99940
7346 OM 7346 OM OM1 7346 -0.550000 15.99940
7347 OM 7347 OM OM1 7347 -0.550000 15.99940
7348 OM 7348 OM OM1 7348 -0.550000 15.99940
7349 OM 7349 OM OM1 7349 -0.550000 15.99940
7350 OM 7350 OM OM1 7350 -0.550000 15.99940
7351 OM 7351 OM OM1 7351 -0.550000 15.99940
7352 OM 7352 OM OM1 7352 -0.550000 15.99940
7353 OM 7353 OM OM1 7353 -0.550000 15.99940
7354 OM 7354 OM OM1 7354 -0.550000 15.99940
7355 OM 7355 OM OM1 7355 -0.550000 15.99940
7356 OM 7356 OM OM1 7356 -0.550000 15.99940
7357 OM 7357 OM OM1 7357 -0.550000 15.99940
7358 OM 7358 OM OM1 7358 -0.550000 15.99940
7359 OM 7359 OM OM1 7359 -0.550000 15.99940
7360 OM 7360 OM OM1 7360 -0.550000 15.99940
7361 OM 7361 OM OM1 7361 -0.550000 15.99940
7362 OM 7362 OM OM1 7362 -0.550000 15.99940
7363 OM 7363 OM OM1 7363 -0.550000 15.99940
7364 OM 7364 OM OM1 7364 -0.550000 15.99940
7365 OM 7365 OM OM1 7365 -0.550000 15.99940
7366 OM 7366 OM OM1 7366 -0.550000 15.99940
7367 OM 7367 OM OM1 7367 -0.550000 15.99940
7368 OM 7368 OM OM1 7368 -0.550000 15.99940
7369 OM 7369 OM OM1 7369 -0.550000 15.99940
7370 OM 7370 OM OM1 7370 -0.550000 15.99940
7371 OM 7371 OM OM1 7371 -0.550000 15.99940
7372 OM 7372 OM OM1 7372 -0.550000 15.99940
7373 OM 7373 OM OM1 7373 -0.550000 15.99940
7374 OM 7374 OM OM1 7374 -0.550000 15.99940
7375 OM 7375 OM OM1 7375 -0.550000 15.99940
7376 OM 7376 OM OM1 7376 -0.550000 15.99940
7377 OM 7377 OM OM1 7377 -0.550000 15.99940
7378 OM 7378 OM OM1 7378 -0.550000 15.99940
7379 OM 7379 OM OM1 7379 -0.550000 15.99940
7380 OM 7380 OM OM1 7380 -0.550000 15.99940
7381 OM 7381 OM OM1 7381 -0.550000 15.99940
7382 OM 7382 OM OM1 7382 -0.550000 15.99940
7383 OM 7383 OM OM1 7383 -0.550000 15.99940
7384 OM 7384 OM OM1 7384 -0.550000 15.99940
7385 OM 7385 OM OM1 7385 -0.550000 15.99940
7386 OM 7386 OM OM1 7386 -0.550000 15.99940
7387 OM 7387 OM OM1 7387 -0.550000 15.99940
7388 OM 7388 OM OM1 7388 -0.550000 15.99940
7389 OM 7389 OM OM1 7389 -0.550000 15.99940
7390 OM 7390 OM OM1 7390 -0.550000 15.99940
7391 OM 7391 OM OM1 7391 -0.550000 15.99940
7392 OM 7392 OM OM1 7392 -0.550000 15.99940
7393 OM 7393 OM OM1 7393 -0.550000 15.99940
7394 OM 7394 OM OM1 7394 -0.550000 15.99940
7395 OM 7395 OM OM1 7395 -0.550000 15.99940
7396 OM 7396 OM OM1 7396 -0.550000 15.99940
7397 OM 7397 OM OM1 7397 -0.550000 15.99940
7398 OM 7398 OM OM1 7398 -0.550000 15.99940
7399 OM 7399 OM OM1 7399 -0.550000 15.99940
7400 OM 7400 OM OM1 7400 -0.550000 15.99940
7401 OM 7401 OM OM1 7401 -0.550000 15.99940
7402 OM 7402 OM OM1 7402 -0.550000 15.99940
7403 OM 7403 OM OM1 7403 -0.550000 15.99940
7404 OM 7404 OM OM1 7404 -0.550000 15.99940
7405 OM 7405 OM OM1 7405 -0.550000 15.99940
7406 OM 7406 OM OM1 7406 -0.550000 15.99940
7407 OM 7407 OM OM1 7407 -0.550000 15.99940
7408 OM 7408 OM OM1 7408 -0.550000 15.99940
7409 OM 7409 OM OM1 7409 -0.550000 15.99940
7410 OM 7410 OM OM1 7410 -0.550000 15.99940
7411 OM 7411 OM OM1 7411 -0.550000 15.99940
7412 OM 7412 OM OM1 7412 -0.550000 15.99940
7413 OM 7413 OM OM1 7413 -0.550000 15.99940
7414 OM 7414 OM OM1 7414 -0.550000 15.99940
7415 OM 7415 OM OM1 7415 -0.550000 15.99940
7416 OM 7416 OM OM1 7416 -0.550000 15.99940
7417 OM 7417 OM OM1 7417 -0.550000 15.99940
7418 OM 7418 OM OM1 7418 -0.550000 15.99940
7419 OM 7419 OM OM1 7419 -0.550000 15.99940
7420 OM 7420 OM OM1 7420 -0.550000 15.99940
7421 OM 7421 OM OM1 7421 -0.550000 15.99940
7422 OM 7422 OM OM1 7422 -0.550000 15.99940
7423 OM 7423 OM OM1 7423 -0.550000 15.99940
7424 OM 7424 OM OM1 7424 -0.550000 15.99940
7425 OM 7425 OM OM1 7425 -0.550000 15.99940
7426 OM 7426 OM OM1 7426 -0.550000 15.99940
7427 OM 7427 OM OM1 7427 -0.550000 15.99940
7428 OM 7428 OM OM1 7428 -0.550000 15.99940
7429 OM 7429 OM OM1 7429 -0.550000 15.99940
7430 OM 7430 OM OM1 7430 -0.550000 15.99940
7431 OM 7431 OM OM1 7431 -0.550000 15.99940
7432 OM 7432 OM OM1 7432 -0.550000 15.99940
7433 OM 7433 OM OM1 7433 -0.550000 15.99940
7434 OM 7434 OM OM1 7434 -0.550000 15.99940
7435 OM 7435 OM OM1 7435 -0.550000 15.99940
7436 OM 7436 OM OM1 7436 -0.550000 15.99940
7437 OM 7437 OM OM1 7437 -0.550000 15.99940
7438 OM 7438 OM OM1 7438 -0.550000 15.99940
7439 OM 7439 OM OM1 7439 -0.550000 15.99940
7440 OM 7440 OM OM1 7440 -0.550000 15.99940
7441 OM 7441 OM OM1 7441 -0.550000 15.99940
7442 OM 7442 OM OM1 7442 -0.550000 15.99940
7443 OM 7443 OM OM1 7443 -0.550000 15.99940
7444 OM 7444 OM OM1 7444 -0.550000 15.99940
7445 OM 7445 OM OM1 7445 -0.550000 15.99940
7446 OM 7446 OM OM1 7446 -0.550000 15.99940
7447 OM 7447 OM OM1 7447 -0.550000 15.99940
7448 OM 7448 OM OM1 7448 -0.550000 15.99940
7449 OM 7449 OM OM1 7449 -0.550000 15.99940
7450 OM 7450 OM OM1 7450 -0.550000 15.99940
7451 OM 7451 OM OM1 7451 -0.550000 15.99940
7452 OM 7452 OM OM1 7452 -0.550000 15.99940
7453 OM 7453 OM OM1 7453 -0.550000 15.99940
7454 OM 7454 OM OM1 7454 -0.550000 15.99940
7455 OM 7455 OM OM1 7455 -0.550000 15.99940
7456 OM 7456 OM OM1 7456 -0.550000 15.99940
7457 OM 7457 OM OM1 7457 -0.550000 15.99940
7458 OM 7458 OM OM1 7458 -0.550000 15.99940
7459 OM 7459 OM OM1 7459 -0.550000 15.99940
7460 OM 7460 OM OM1 7460 -0.550000 15.99940
7461 OM 7461 OM OM1 7461 -0.550000 15.99940
7462 OM 7462 OM OM1 7462 -0.550000 15.99940
7463 OM 7463 OM OM1 7463 -0.550000 15.99940
7464 OM 7464 OM OM1 7464 -0.550000 15.99940
7465 OM 7465 OM OM1 7465 -0.550000 15.99940
7466 OM 7466 OM OM1 7466 -0.550000 15.99940
7467 OM 7467 OM OM1 7467 -0.550000 15.99940
7468 OM 7468 OM OM1 7468 -0.550000 15.99940
7469 OM 7469 OM OM1 7469 -0.550000 15.99940
7470 OM 7470 OM OM1 7470 -0.550000 15.99940
7471 OM 7471 OM OM1 7471 -0.550000 15.99940
7472 OM 7472 OM OM1 7472 -0.550000 15.99940
7473 OM 7473 OM OM1 7473 -0.550000 15.99940
7474 OM 7474 OM OM1 7474 -0.550000 15.99940
7475 OM 7475 OM OM1 7475 -0.550000 15.99940
7476 OM 7476 OM OM1 7476 -0.550000 15.99940
7477 OM 7477 OM OM1 7477 -0.550000 15.99940
7478 OM 7478 OM OM1 7478 -0.550000 15.99940
7479 OM 7479 OM OM1 7479 -0.550000 15.99940
7480 OM 7480 OM OM1 7480 -0.550000 15.99940
7481 OM 7481 OM OM1 7481 -0.550000 15.99940
7482 OM 7482 OM OM1 7482 -0.550000 15.99940
7483 OM 7483 OM OM1 7483 -0.550000 15.99940
7484 OM 7484 OM OM1 7484 -0.550000 15.99940
7485 OM 7485 OM OM1 7485 -0.550000 15.99940
7486 OM 7486 OM OM1 7486 -0.550000 15.99940
7487 OM 7487 OM OM1 7487 -0.550000 15.99940
7488 OM 7488 OM OM1 7488 -0.550000 15.99940
7489 OM 7489 OM OM1 7489 -0.550000 15.99940
7490 OM 7490 OM OM1 7490 -0.550000 15.99940
7491 OM 7491 OM OM1 7491 -0.550000 15.99940
7492 OM 7492 OM OM1 7492 -0.550000 15.99940
7493 OM 7493 OM OM1 7493 -0.550000 15.99940
7494 OM 7494 OM OM1 7494 -0.550000 15.99940
7495 OM 7495 OM OM1 7495 -0.550000 15.99940
7496 OM 7496 OM OM1 7496 -0.550000 15.99940
7497 OM 7497 OM OM1 7497 -0.550000 15.99940
7498 OM 7498 OM OM1 7498 -0.550000 15.99940
7499 OM 7499 OM OM1 7499 -0.550000 15.99940
7500 OM 7500 OM OM1 7500 -0.550000 15.99940
7501 OM 7501 OM OM1 7501 -0.550000 15.99940
7502 OM 7502 OM OM1 7502 -0.550000 15.99940
7503 OM 7503 OM OM1 7503 -0.550000 15.99940
7504 OM 7504 OM OM1 7504 -0.550000 15.99940
7505 OM 7505 OM OM1 7505 -0.550000 15.99940
7506 OM 7506 OM OM1 7506 -0.550000 15.99940
7507 OM 7507 OM OM1 7507 -0.550000 15.99940
7508 OM 7508 OM OM1 7508 -0.550000 15.99940
7509 OM 7509 OM OM1 7509 -0.550000 15.99940
7510 OM 7510 OM OM1 7510 -0.550000 15.99940
7511 OM 7511 OM OM1 7511 -0.550000 15.99940
7512 OM 7512 OM OM1 7512 -0.550000 15.99940
7513 OM 7513 OM OM1 7513 -0.550000 15.99940
7514 OM 7514 OM OM1 7514 -0.550000 15.99940
7515 OM 7515 OM OM1 7515 -0.550000 15.99940
7516 OM 7516 OM OM1 7516 -0.550000 15.99940
7517 OM 7517 OM OM1 7517 -0.550000 15.99940
7518 OM 7518 OM OM1 7518 -0.550000 15.99940
7519 OM 7519 OM OM1 7519 -0.550000 15.99940
7520 OM 7520 OM OM1 7520 -0.550000 15.99940
7521 OM 7521 OM OM1 7521 -0.550000 15.99940
7522 OM 7522 OM OM1 7522 -0.550000 15.99940
7523 OM 7523 OM OM1 7523 -0.550000 15.99940
7524 OM 7524 OM OM1 7524 -0.550000 15.99940
7525 OM 7525 OM OM1 7525 -0.550000 15.99940
7526 OM 7526 OM OM1 7526 -0.550000 15.99940
7527 OM 7527 OM OM1 7527 -0.550000 15.99940
7528 OM 7528 OM OM1 7528 -0.550000 15.99940
7529 OM 7529 OM OM1 7529 -0.550000 15.99940
7530 OM 7530 OM OM1 7530 -0.550000 15.99940
7531 OM 7531 OM OM1 7531 -0.550000 15.99940
7532 OM 7532 OM OM1 7532 -0.550000 15.99940
7533 OM 7533 OM OM1 7533 -0.550000 15.99940
7534 OM 7534 OM OM1 7534 -0.550000 15.99940
7535 OM 7535 OM OM1 7535 -0.550000 15.99940
7536 OM 7536 OM OM1 7536 -0.550000 15.99940
7537 OM 7537 OM OM1 7537 -0.550000 15.99940
7538 OM 7538 OM OM1 7538 -0.550000 15.99940
7539 OM 7539 OM OM1 7539 -0.550000 15.99940
7540 OM 7540 OM OM1 7540 -0.550000 15.99940
7541 OM 7541 OM OM1 7541 -0.550000 15.99940
7542 OM 7542 OM OM1 7542 -0.550000 15.99940
7543 OM 7543 OM OM1 7543 -0.550000 15.99940
7544 OM 7544 OM OM1 7544 -0.550000 15.99940
7545 OM 7545 OM OM1 7545 -0.550000 15.99940
7546 OM 7546 OM OM1 7546 -0.550000 15.99940
7547 OM 7547 OM OM1 7547 -0.550000 15.99940
7548 OM 7548 OM OM1 7548 -0.550000 15.99940
7549 OM 7549 OM OM1 7549 -0.550000 15.99940
7550 OM 7550 OM OM1 7550 -0.550000 15.99940
7551 OM 7551 OM OM1 7551 -0.550000 15.99940
7552 OM 7552 OM OM1 7552 -0.550000 15.99940
7553 OM 7553 OM OM1 7553 -0.550000 15.99940
7554 OM 7554 OM OM1 7554 -0.550000 15.99940
7555 OM 7555 OM OM1 7555 -0.550000 15.99940
7556 OM 7556 OM OM1 7556 -0.550000 15.99940
7557 OM 7557 OM OM1 7557 -0.550000 15.99940
7558 OM 7558 OM OM1 7558 -0.550000 15.99940
7559 OM 7559 OM OM1 7559 -0.550000 15.99940
7560 OM 7560 OM OM1 7560 -0.550000 15.99940
7561 OM 7561 OM OM1 7561 -0.550000 15.99940
7562 OM 7562 OM OM1 7562 -0.550000 15.99940
7563 OM 7563 OM OM1 7563 -0.550000 15.99940
7564 OM 7564 OM OM1 7564 -0.550000 15.99940
7565 OM 7565 OM OM1 7565 -0.550000 15.99940
7566 OM 7566 OM OM1 7566 -0.550000 15.99940
7567 OM 7567 OM OM1 7567 -0.550000 15.99940
7568 OM 7568 OM OM1 7568 -0.550000 15.99940
7569 OM 7569 OM OM1 7569 -0.550000 15.99940
7570 OM 7570 OM OM1 7570 -0.550000 15.99940
7571 OM 7571 OM OM1 7571 -0.550000 15.99940
7572 OM 7572 OM OM1 7572 -0.550000 15.99940
7573 OM 7573 OM OM1 7573 -0.550000 15.99940
7574 OM 7574 OM OM1 7574 -0.550000 15.99940
7575 OM 7575 OM OM1 7575 -0.550000 15.99940
7576 OM 7576 OM OM1 7576 -0.550000 15.99940
7577 OM 7577 OM OM1 7577 -0.550000 15.99940
7578 OM 7578 OM OM1 7578 -0.550000 15.99940
7579 OM 7579 OM OM1 7579 -0.550000 15.99940
7580 OM 7580 OM OM1 7580 -0.550000 15.99940
7581 OM 7581 OM OM1 7581 -0.550000 15.99940
7582 OM 7582 OM OM1 7582 -0.550000 15.99940
7583 OM 7583 OM OM1 7583 -0.550000 15.99940
7584 OM 7584 OM OM1 7584 -0.550000 15.99940
7585 OM 7585 OM OM1 7585 -0.550000 15.99940
7586 OM 7586 OM OM1 7586 -0.550000 15.99940
7587 OM 7587 OM OM1 7587 -0.550000 15.99940
7588 OM 7588 OM OM1 7588 -0.550000 15.99940
7589 OM 7589 OM OM1 7589 -0.550000 15.99940
7590 OM 7590 OM OM1 7590 -0.550000 15.99940
7591 OM 7591 OM OM1 7591 -0.550000 15.99940
7592 OM 7592 OM OM1 7592 -0.550000 15.99940
7593 OM 7593 OM OM1 7593 -0.550000 15.99940
7594 OM 7594 OM OM1 7594 -0.550000 15.99940
7595 OM 7595 OM OM1 7595 -0.550000 15.99940
7596 OM 7596 OM OM1 7596 -0.550000 15.99940
7597 OM 7597 OM OM1 7597 -0.550000 15.99940
7598 OM 7598 OM OM1 7598 -0.550000 15.99940
7599 OM 7599 OM OM1 7599 -0.550000 15.99940
7600 OM 7600 OM OM1 7600 -0.550000 15.99940
7601 OM 7601 OM OM1 7601 -0.550000 15.99940
7602 OM 7602 OM OM1 7602 -0.550000 15.99940
7603 OM 7603 OM OM1 7603 -0.550000 15.99940
7604 OM 7604 OM OM1 7604 -0.550000 15.99940
7605 OM 7605 OM OM1 7605 -0.550000 15.99940
7606 OM 7606 OM OM1 7606 -0.550000 15.99940
7607 OM 7607 OM OM1 7607 -0.550000 15.99940
7608 OM 7608 OM OM1 7608 -0.550000 15.99940
7609 OM 7609 OM OM1 7609 -0.550000 15.99940
7610 OM 7610 OM OM1 7610 -0.550000 15.99940
7611 OM 7611 OM OM1 7611 -0.550000 15.99940
7612 OM 7612 OM OM1 7612 -0.550000 15.99940
7613 OM 7613 OM OM1 7613 -0.550000 15.99940
7614 OM 7614 OM OM1 7614 -0.550000 15.99940
7615 OM 7615 OM OM1 7615 -0.550000 15.99940
7616 OM 7616 OM OM1 7616 -0.550000 15.99940
7617 OM 7617 OM OM1 7617 -0.550000 15.99940
7618 OM 7618 OM OM1 7618 -0.550000 15.99940
7619 OM 7619 OM OM1 7619 -0.550000 15.99940
7620 OM 7620 OM OM1 7620 -0.550000 15.99940
7621 OM 7621 OM OM1 7621 -0.550000 15.99940
7622 OM 7622 OM OM1 7622 -0.550000 15.99940
7623 OM 7623 OM OM1 7623 -0.550000 15.99940
7624 OM 7624 OM OM1 7624 -0.550000 15.99940
7625 OM 7625 OM OM1 7625 -0.550000 15.99940
7626 OM 7626 OM OM1 7626 -0.550000 15.99940
7627 OM 7627 OM OM1 7627 -0.550000 15.99940
7628 OM 7628 OM OM1 7628 -0.550000 15.99940
7629 OM 7629 OM OM1 7629 -0.550000 15.99940
7630 OM 7630 OM OM1 7630 -0.550000 15.99940
7631 OM 7631 OM OM1 7631 -0.550000 15.99940
7632 OM 7632 OM OM1 7632 -0.550000 15.99940
7633 OM 7633 OM OM1 7633 -0.550000 15.99940
7634 OM 7634 OM OM1 7634 -0.550000 15.99940
7635 OM 7635 OM OM1 7635 -0.550000 15.99940
7636 OM 7636 OM OM1 7636 -0.550000 15.99940
7637 OM 7637 OM OM1 7637 -0.550000 15.99940
7638 OM 7638 OM OM1 7638 -0.550000 15.99940
7639 OM 7639 OM OM1 7639 -0.550000 15.99940
7640 OM 7640 OM OM1 7640 -0.550000 15.99940
7641 OM 7641 OM OM1 7641 -0.550000 15.99940
7642 OM 7642 OM OM1 7642 -0.550000 15.99940
7643 OM 7643 OM OM1 7643 -0.550000 15.99940
7644 OM 7644 OM OM1 7644 -0.550000 15.99940
7645 OM 7645 OM OM1 7645 -0.550000 15.99940
7646 OM 7646 OM OM1 7646 -0.550000 15.99940
7647 OM 7647 OM OM1 7647 -0.550000 15.99940
7648 OM 7648 OM OM1 7648 -0.550000 15.99940
7649 OM 7649 OM OM1 7649 -0.550000 15.99940
7650 OM 7650 OM OM1 7650 -0.550000 15.99940
7651 OM 7651 OM OM1 7651 -0.550000 15.99940
7652 OM 7652 OM OM1 7652 -0.550000 15.99940
7653 OM 7653 OM OM1 7653 -0.550000 15.99940
7654 OM 7654 OM OM1 7654 -0.550000 15.99940
7655 OM 7655 OM OM1 7655 -0.550000 15.99940
7656 OM 7656 OM OM1 7656 -0.550000 15.99940
7657 OM 7657 OM OM1 7657 -0.550000 15.99940
7658 OM 7658 OM OM1 7658 -0.550000 15.99940
7659 OM 7659 OM OM1 7659 -0.550000 15.99940
7660 OM 7660 OM OM1 7660 -0.550000 15.99940
7661 OM 7661 OM OM1 7661 -0.550000 15.99940
7662 OM 7662 OM OM1 7662 -0.550000 15.99940
7663 OM 7663 OM OM1 7663 -0.550000 15.99940
7664 OM 7664 OM OM1 7664 -0.550000 15.99940
7665 OM 7665 OM OM1 7665 -0.550000 15.99940
7666 OM 7666 OM OM1 7666 -0.550000 15.99940
7667 OM 7667 OM OM1 7667 -0.550000 15.99940
7668 OM 7668 OM OM1 7668 -0.550000 15.99940
7669 OM 7669 OM OM1 7669 -0.550000 15.99940
7670 OM 7670 OM OM1 7670 -0.550000 15.99940
7671 OM 7671 OM OM1 7671 -0.550000 15.99940
7672 OM 7672 OM OM1 7672 -0.550000 15.99940
7673 OM 7673 OM OM1 7673 -0.550000 15.99940
7674 OM 7674 OM OM1 7674 -0.550000 15.99940
7675 OM 7675 OM OM1 7675 -0.550000 15.99940
7676 OM 7676 OM OM1 7676 -0.550000 15.99940
7677 OM 7677 OM OM1 7677 -0.550000 15.99940
7678 OM 7678 OM OM1 7678 -0.550000 15.99940
7679 OM 7679 OM OM1 7679 -0.550000 15.99940
7680 OM 7680 OM OM1 7680 -0.550000 15.99940
7681 OM 7681 OM OM1 7681 -0.550000 15.99940
7682 OM 7682 OM OM1 7682 -0.550000 15.99940
7683 OM 7683 OM OM1 7683 -0.550000 15.99940
7684 OM 7684 OM OM1 7684 -0.550000 15.99940
7685 OM 7685 OM OM1 7685 -0.550000 15.99940
7686 OM 7686 OM OM1 7686 -0.550000 15.99940
7687 OM 7687 OM OM1 7687 -0.550000 15.99940
7688 OM 7688 OM OM1 7688 -0.550000 15.99940
7689 OM 7689 OM OM1 7689 -0.550000 15.99940
7690 OM 7690 OM OM1 7690 -0.550000 15.99940
7691 OM 7691 OM OM1 7691 -0.550000 15.99940
7692 OM 7692 OM OM1 7692 -0.550000 15.99940
7693 OM 7693 OM OM1 7693 -0.550000 15.99940
7694 OM 7694 OM OM1 7694 -0.550000 15.99940
7695 OM 7695 OM OM1 7695 -0.550000 15.99940
7696 OM 7696 OM OM1 7696 -0.550000 15.99940
7697 OM 7697 OM OM1 7697 -0.550000 15.99940
7698 OM 7698 OM OM1 7698 -0.550000 15.99940
7699 OM 7699 OM OM1 7699 -0.550000 15.99940
7700 OM 7700 OM OM1 7700 -0.550000 15.99940
7701 OM 7701 OM OM1 7701 -0.550000 15.99940
7702 OM 7702 OM OM1 7702 -0.550000 15.99940
7703 OM 7703 OM OM1 7703 -0.550000 15.99940
7704 OM 7704 OM OM1 7704 -0.550000 15.99940
7705 OM 7705 OM OM1 7705 -0.550000 15.99940
7706 OM 7706 OM OM1 7706 -0.550000 15.99940
7707 OM 7707 OM OM1 7707 -0.550000 15.99940
7708 OM 7708 OM OM1 7708 -0.550000 15.99940
7709 OM 7709 OM OM1 7709 -0.550000 15.99940
7710 OM 7710 OM OM1 7710 -0.550000 15.99940
7711 OM 7711 OM OM1 7711 -0.550000 15.99940
7712 OM 7712 OM OM1 7712 -0.550000 15.99940
7713 OM 7713 OM OM1 7713 -0.550000 15.99940
7714 OM 7714 OM OM1 7714 -0.550000 15.99940
7715 OM 7715 OM OM1 7715 -0.550000 15.99940
7716 OM 7716 OM OM1 7716 -0.550000 15.99940
7717 OM 7717 OM OM1 7717 -0.550000 15.99940
7718 OM 7718 OM OM1 7718 -0.550000 15.99940
7719 OM 7719 OM OM1 7719 -0.550000 15.99940
7720 OM 7720 OM OM1 7720 -0.550000 15.99940
7721 OM 7721 OM OM1 7721 -0.550000 15.99940
7722 OM 7722 OM OM1 7722 -0.550000 15.99940
7723 OM 7723 OM OM1 7723 -0.550000 15.99940
7724 OM 7724 OM OM1 7724 -0.550000 15.99940
7725 OM 7725 OM OM1 7725 -0.550000 15.99940
7726 OM 7726 OM OM1 7726 -0.550000 15.99940
7727 OM 7727 OM OM1 7727 -0.550000 15.99940
7728 OM 7728 OM OM1 7728 -0.550000 15.99940
7729 OM 7729 OM OM1 7729 -0.550000 15.99940
7730 OM 7730 OM OM1 7730 -0.550000 15.99940
7731 OM 7731 OM OM1 7731 -0.550000 15.99940
7732 OM 7732 OM OM1 7732 -0.550000 15.99940
7733 OM 7733 OM OM1 7733 -0.550000 15.99940
7734 OM 7734 OM OM1 7734 -0.550000 15.99940
7735 OM 7735 OM OM1 7735 -0.550000 15.99940
7736 OM 7736 OM OM1 7736 -0.550000 15.99940
7737 OM 7737 OM OM1 7737 -0.550000 15.99940
7738 OM 7738 OM OM1 7738 -0.550000 15.99940
7739 OM 7739 OM OM1 7739 -0.550000 15.99940
7740 OM 7740 OM OM1 7740 -0.550000 15.99940
7741 OM 7741 OM OM1 7741 -0.550000 15.99940
7742 OM 7742 OM OM1 7742 -0.550000 15.99940
7743 OM 7743 OM OM1 7743 -0.550000 15.99940
7744 OM 7744 OM OM1 7744 -0.550000 15.99940
7745 OM 7745 OM OM1 7745 -0.550000 15.99940
7746 OM 7746 OM OM1 7746 -0.550000 15.99940
7747 OM 7747 OM OM1 7747 -0.550000 15.99940
7748 OM 7748 OM OM1 7748 -0.550000 15.99940
7749 OM 7749 OM OM1 7749 -0.550000 15.99940
7750 OM 7750 OM OM1 7750 -0.550000 15.99940
7751 OM 7751 OM OM1 7751 -0.550000 15.99940
7752 OM 7752 OM OM1 7752 -0.550000 15.99940
7753 OM 7753 OM OM1 7753 -0.550000 15.99940
7754 OM 7754 OM OM1 7754 -0.550000 15.99940
7755 OM 7755 OM OM1 7755 -0.550000 15.99940
7756 OM 7756 OM OM1 7756 -0.550000 15.99940
7757 OM 7757 OM OM1 7757 -0.550000 15.99940
7758 OM 7758 OM OM1 7758 -0.550000 15.99940
7759 OM 7759 OM OM1 7759 -0.550000 15.99940
7760 OM 7760 OM OM1 7760 -0.550000 15.99940
7761 OM 7761 OM OM1 7761 -0.550000 15.99940
7762 OM 7762 OM OM1 7762 -0.550000 15.99940
7763 OM 7763 OM OM1 7763 -0.550000 15.99940
7764 OM 7764 OM OM1 7764 -0.550000 15.99940
7765 OM 7765 OM OM1 7765 -0.550000 15.99940
7766 OM 7766 OM OM1 7766 -0.550000 15.99940
7767 OM 7767 OM OM1 7767 -0.550000 15.99940
7768 OM 7768 OM OM1 7768 -0.550000 15.99940
7769 OM 7769 OM OM1 7769 -0.550000 15.99940
7770 OM 7770 OM OM1 7770 -0.550000 15.99940
7771 OM 7771 OM OM1 7771 -0.550000 15.99940
7772 OM 7772 OM OM1 7772 -0.550000 15.99940
7773 OM 7773 OM OM1 7773 -0.550000 15.99940
7774 OM 7774 OM OM1 7774 -0.550000 15.99940
7775 OM 7775 OM OM1 7775 -0.550000 15.99940
7776 OM 7776 OM OM1 7776 -0.550000 15.99940
7777 OM 7777 OM OM1 7777 -0.550000 15.99940
7778 OM 7778 OM OM1 7778 -0.550000 15.99940
7779 OM 7779 OM OM1 7779 -0.550000 15.99940
7780 OM 7780 OM OM1 7780 -0.550000 15.99940
7781 OM 7781 OM OM1 7781 -0.550000 15.99940
7782 OM 7782 OM OM1 7782 -0.550000 15.99940
7783 OM 7783 OM OM1 7783 -0.550000 15.99940
7784 OM 7784 OM OM1 7784 -0.550000 15.99940
7785 OM 7785 OM OM1 7785 -0.550000 15.99940
7786 OM 7786 OM OM1 7786 -0.550000 15.99940
7787 OM 7787 OM OM1 7787 -0.550000 15.99940
7788 OM 7788 OM OM1 7788 -0.550000 15.99940
7789 OM 7789 OM OM1 7789 -0.550000 15.99940
7790 OM 7790 OM OM1 7790 -0.550000 15.99940
7791 OM 7791 OM OM1 7791 -0.550000 15.99940
7792 OM 7792 OM OM1 7792 -0.550000 15.99940
7793 OM 7793 OM OM1 7793 -0.550000 15.99940
7794 OM 7794 OM OM1 7794 -0.550000 15.99940
7795 OM 7795 OM OM1 7795 -0.550000 15.99940
7796 OM 7796 OM OM1 7796 -0.550000 15.99940
7797 OM 7797 OM OM1 7797 -0.550000 15.99940
7798 OM 7798 OM OM1 7798 -0.550000 15.99940
7799 OM 7799 OM OM1 7799 -0.550000 15.99940
7800 OM 7800 OM OM1 7800 -0.550000 15.99940
7801 OM 7801 OM OM1 7801 -0.550000 15.99940
7802 OM 7802 OM OM1 7802 -0.550000 15.99940
7803 OM 7803 OM OM1 7803 -0.550000 15.99940
7804 OM 7804 OM OM1 7804 -0.550000 15.99940
7805 OM 7805 OM OM1 7805 -0.550000 15.99940
7806 OM 7806 OM OM1 7806 -0.550000 15.99940
7807 OM 7807 OM OM1 7807 -0.550000 15.99940
7808 OM 7808 OM OM1 7808 -0.550000 15.99940
7809 OM 7809 OM OM1 7809 -0.550000 15.99940
7810 OM 7810 OM OM1 7810 -0.550000 15.99940
7811 OM 7811 OM OM1 7811 -0.550000 15.99940
7812 OM 7812 OM OM1 7812 -0.550000 15.99940
7813 OM 7813 OM OM1 7813 -0.550000 15.99940
7814 OM 7814 OM OM1 7814 -0.550000 15.99940
7815 OM 7815 OM OM1 7815 -0.550000 15.99940
7816 OM 7816 OM OM1 7816 -0.550000 15.99940
7817 OM 7817 OM OM1 7817 -0.550000 15.99940
7818 OM 7818 OM OM1 7818 -0.550000 15.99940
7819 OM 7819 OM OM1 7819 -0.550000 15.99940
7820 OM 7820 OM OM1 7820 -0.550000 15.99940
7821 OM 7821 OM OM1 7821 -0.550000 15.99940
7822 OM 7822 OM OM1 7822 -0.550000 15.99940
7823 OM 7823 OM OM1 7823 -0.550000 15.99940
7824 OM 7824 OM OM1 7824 -0.550000 15.99940
7825 OM 7825 OM OM1 7825 -0.550000 15.99940
7826 OM 7826 OM OM1 7826 -0.550000 15.99940
7827 OM 7827 OM OM1 7827 -0.550000 15.99940
7828 OM 7828 OM OM1 7828 -0.550000 15.99940
7829 OM 7829 OM OM1 7829 -0.550000 15.99940
7830 OM 7830 OM OM1 7830 -0.550000 15.99940
7831 OM 7831 OM OM1 7831 -0.550000 15.99940
7832 OM 7832 OM OM1 7832 -0.550000 15.99940
7833 OM 7833 OM OM1 7833 -0.550000 15.99940
7834 OM 7834 OM OM1 7834 -0.550000 15.99940
7835 OM 7835 OM OM1 7835 -0.550000 15.99940
7836 OM 7836 OM OM1 7836 -0.550000 15.99940
7837 OM 7837 OM OM1 7837 -0.550000 15.99940
7838 OM 7838 OM OM1 7838 -0.550000 15.99940
7839 OM 7839 OM OM1 7839 -0.550000 15.99940
7840 OM 7840 OM OM1 7840 -0.550000 15.99940
7841 OM 7841 OM OM1 7841 -0.550000 15.99940
7842 OM 7842 OM OM1 7842 -0.550000 15.99940
7843 OM 7843 OM OM1 7843 -0.550000 15.99940
7844 OM 7844 OM OM1 7844 -0.550000 15.99940
7845 OM 7845 OM OM1 7845 -0.550000 15.99940
7846 OM 7846 OM OM1 7846 -0.550000 15.99940
7847 OM 7847 OM OM1 7847 -0.550000 15.99940
7848 OM 7848 OM OM1 7848 -0.550000 15.99940
7849 OM 7849 OM OM1 7849 -0.550000 15.99940
7850 OM 7850 OM OM1 7850 -0.550000 15.99940
7851 OM 7851 OM OM1 7851 -0.550000 15.99940
7852 OM 7852 OM OM1 7852 -0.550000 15.99940
7853 OM 7853 OM OM1 7853 -0.550000 15.99940
7854 OM 7854 OM OM1 7854 -0.550000 15.99940
7855 OM 7855 OM OM1 7855 -0.550000 15.99940
7856 OM 7856 OM OM1 7856 -0.550000 15.99940
7857 OM 7857 OM OM1 7857 -0.550000 15.99940
7858 OM 7858 OM OM1 7858 -0.550000 15.99940
7859 OM 7859 OM OM1 7859 -0.550000 15.99940
7860 OM 7860 OM OM1 7860 -0.550000 15.99940
7861 OM 7861 OM OM1 7861 -0.550000 15.99940
7862 OM 7862 OM OM1 7862 -0.550000 15.99940
7863 OM 7863 OM OM1 7863 -0.550000 15.99940
7864 OM 7864 OM OM1 7864 -0.550000 15.99940
7865 OM 7865 OM OM1 7865 -0.550000 15.99940
7866 OM 7866 OM OM1 7866 -0.550000 15.99940
7867 OM 7867 OM OM1 7867 -0.550000 15.99940
7868 OM 7868 OM OM1 7868 -0.550000 15.99940
7869 OM 7869 OM OM1 7869 -0.550000 15.99940
7870 OM 7870 OM OM1 7870 -0.550000 15.99940
7871 OM 7871 OM OM1 7871 -0.550000 15.99940
7872 OM 7872 OM OM1 7872 -0.550000 15.99940
7873 OM 7873 OM OM1 7873 -0.550000 15.99940
7874 OM 7874 OM OM1 7874 -0.550000 15.99940
7875 OM 7875 OM OM1 7875 -0.550000 15.99940
7876 OM 7876 OM OM1 7876 -0.550000 15.99940
7877 OM 7877 OM OM1 7877 -0.550000 15.99940
7878 OM 7878 OM OM1 7878 -0.550000 15.99940
7879 OM 7879 OM OM1 7879 -0.550000 15.99940
7880 OM 7880 OM OM1 7880 -0.550000 15.99940
7881 OM 7881 OM OM1 7881 -0.550000 15.99940
7882 OM 7882 OM OM1 7882 -0.550000 15.99940
7883 OM 7883 OM OM1 7883 -0.550000 15.99940
7884 OM 7884 OM OM1 7884 -0.550000 15.99940
7885 OM 7885 OM OM1 7885 -0.550000 15.99940
7886 OM 7886 OM OM1 7886 -0.550000 15.99940
7887 OM 7887 OM OM1 7887 -0.550000 15.99940
7888 OM 7888 OM OM1 7888 -0.550000 15.99940
7889 OM 7889 OM OM1 7889 -0.550000 15.99940
7890 OM 7890 OM OM1 7890 -0.550000 15.99940
7891 OM 7891 OM OM1 7891 -0.550000 15.99940
7892 OM 7892 OM OM1 7892 -0.550000 15.99940
7893 OM 7893 OM OM1 7893 -0.550000 15.99940
7894 OM 7894 OM OM1 7894 -0.550000 15.99940
7895 OM 7895 OM OM1 7895 -0.550000 15.99940
7896 OM 7896 OM OM1 7896 -0.550000 15.99940
7897 OM 7897 OM OM1 7897 -0.550000 15.99940
7898 OM 7898 OM OM1 7898 -0.550000 15.99940
7899 OM 7899 OM OM1 7899 -0.550000 15.99940
7900 OM 7900 OM OM1 7900 -0.550000 15.99940
7901 OM 7901 OM OM1 7901 -0.550000 15.99940
7902 OM 7902 OM OM1 7902 -0.550000 15.99940
7903 OM 7903 OM OM1 7903 -0.550000 15.99940
7904 OM 7904 OM OM1 7904 -0.550000 15.99940
7905 OM 7905 OM OM1 7905 -0.550000 15.99940
7906 OM 7906 OM OM1 7906 -0.550000 15.99940
7907 OM 7907 OM OM1 7907 -0.550000 15.99940
7908 OM 7908 OM OM1 7908 -0.550000 15.99940
7909 OM 7909 OM OM1 7909 -0.550000 15.99940
7910 OM 7910 OM OM1 7910 -0.550000 15.99940
7911 OM 7911 OM OM1 7911 -0.550000 15.99940
7912 OM 7912 OM OM1 7912 -0.550000 15.99940
7913 OM 7913 OM OM1 7913 -0.550000 15.99940
7914 OM 7914 OM OM1 7914 -0.550000 15.99940
7915 OM 7915 OM OM1 7915 -0.550000 15.99940
7916 OM 7916 OM OM1 7916 -0.550000 15.99940
7917 OM 7917 OM OM1 7917 -0.550000 15.99940
7918 OM 7918 OM OM1 7918 -0.550000 15.99940
7919 OM 7919 OM OM1 7919 -0.550000 15.99940
7920 OM 7920 OM OM1 7920 -0.550000 15.99940
7921 OM 7921 OM OM1 7921 -0.550000 15.99940
7922 OM 7922 OM OM1 7922 -0.550000 15.99940
7923 OM 7923 OM OM1 7923 -0.550000 15.99940
7924 OM 7924 OM OM1 7924 -0.550000 15.99940
7925 OM 7925 OM OM1 7925 -0.550000 15.99940
7926 OM 7926 OM OM1 7926 -0.550000 15.99940
7927 OM 7927 OM OM1 7927 -0.550000 15.99940
7928 OM 7928 OM OM1 7928 -0.550000 15.99940
7929 OM 7929 OM OM1 7929 -0.550000 15.99940
7930 OM 7930 OM OM1 7930 -0.550000 15.99940
7931 OM 7931 OM OM1 7931 -0.550000 15.99940
7932 OM 7932 OM OM1 7932 -0.550000 15.99940
7933 OM 7933 OM OM1 7933 -0.550000 15.99940
7934 OM 7934 OM OM1 7934 -0.550000 15.99940
7935 OM 7935 OM OM1 7935 -0.550000 15.99940
7936 OM 7936 OM OM1 7936 -0.550000 15.99940
7937 OM 7937 OM OM1 7937 -0.550000 15.99940
7938 OM 7938 OM OM1 7938 -0.550000 15.99940
7939 OM 7939 OM OM1 7939 -0.550000 15.99940
7940 OM 7940 OM OM1 7940 -0.550000 15.99940
7941 OM 7941 OM OM1 7941 -0.550000 15.99940
7942 OM 7942 OM OM1 7942 -0.550000 15.99940
7943 OM 7943 OM OM1 7943 -0.550000 15.99940
7944 OM 7944 OM OM1 7944 -0.550000 15.99940
7945 OM 7945 OM OM1 7945 -0.550000 15.99940
7946 OM 7946 OM OM1 7946 -0.550000 15.99940
7947 OM 7947 OM OM1 7947 -0.550000 15.99940
7948 OM 7948 OM OM1 7948 -0.550000 15.99940
7949 OM 7949 OM OM1 7949 -0.550000 15.99940
7950 OM 7950 OM OM1 7950 -0.550000 15.99940
7951 OM 7951 OM OM1 7951 -0.550000 15.99940
7952 OM 7952 OM OM1 7952 -0.550000 15.99940
7953 OM 7953 OM OM1 7953 -0.550000 15.99940
7954 OM 7954 OM OM1 7954 -0.550000 15.99940
7955 OM 7955 OM OM1 7955 -0.550000 15.99940
7956 OM 7956 OM OM1 7956 -0.550000 15.99940
7957 OM 7957 OM OM1 7957 -0.550000 15.99940
7958 OM 7958 OM OM1 7958 -0.550000 15.99940
7959 OM 7959 OM OM1 7959 -0.550000 15.99940
7960 OM 7960 OM OM1 7960 -0.550000 15.99940
7961 OM 7961 OM OM1 7961 -0.550000 15.99940
7962 OM 7962 OM OM1 7962 -0.550000 15.99940
7963 OM 7963 OM OM1 7963 -0.550000 15.99940
7964 OM 7964 OM OM1 7964 -0.550000 15.99940
7965 OM 7965 OM OM1 7965 -0.550000 15.99940
7966 OM 7966 OM OM1 7966 -0.550000 15.99940
7967 OM 7967 OM OM1 7967 -0.550000 15.99940
7968 OM 7968 OM OM1 7968 -0.550000 15.99940
7969 OM 7969 OM OM1 7969 -0.550000 15.99940
7970 OM 7970 OM OM1 7970 -0.550000 15.99940
7971 OM 7971 OM OM1 7971 -0.550000 15.99940
7972 OM 7972 OM OM1 7972 -0.550000 15.99940
7973 OM 7973 OM OM1 7973 -0.550000 15.99940
7974 OM 7974 OM OM1 7974 -0.550000 15.99940
7975 OM 7975 OM OM1 7975 -0.550000 15.99940
7976 OM 7976 OM OM1 7976 -0.550000 15.99940
7977 OM 7977 OM OM1 7977 -0.550000 15.99940
7978 OM 7978 OM OM1 7978 -0.550000 15.99940
7979 OM 7979 OM OM1 7979 -0.550000 15.99940
7980 OM 7980 OM OM1 7980 -0.550000 15.99940
7981 OM 7981 OM OM1 7981 -0.550000 15.99940
7982 OM 7982 OM OM1 7982 -0.550000 15.99940
7983 OM 7983 OM OM1 7983 -0.550000 15.99940
7984 OM 7984 OM OM1 7984 -0.550000 15.99940
7985 OM 7985 OM OM1 7985 -0.550000 15.99940
7986 OM 7986 OM OM1 7986 -0.550000 15.99940
7987 OM 7987 OM OM1 7987 -0.550000 15.99940
7988 OM 7988 OM OM1 7988 -0.550000 15.99940
7989 OM 7989 OM OM1 7989 -0.550000 15.99940
7990 OM 7990 OM OM1 7990 -0.550000 15.99940
7991 OM 7991 OM OM1 7991 -0.550000 15.99940
7992 OM 7992 OM OM1 7992 -0.550000 15.99940
7993 OM 7993 OM OM1 7993 -0.550000 15.99940
7994 OM 7994 OM OM1 7994 -0.550000 15.99940
7995 OM 7995 OM OM1 7995 -0.550000 15.99940
7996 OM 7996 OM OM1 7996 -0.550000 15.99940
7997 OM 7997 OM OM1 7997 -0.550000 15.99940
7998 OM 7998 OM OM1 7998 -0.550000 15.99940
7999 OM 7999 OM OM1 7999 -0.550000 15.99940
8000 OM 8000 OM OM1 8000 -0.550000 15.99940
8001 OM 8001 OM OM1 8001 -0.550000 15.99940
8002 OM 8002 OM OM1 8002 -0.550000 15.99940
8003 OM 8003 OM OM1 8003 -0.550000 15.99940
8004 OM 8004 OM OM1 8004 -0.550000 15.99940
8005 OM 8005 OM OM1 8005 -0.550000 15.99940
8006 OM 8006 OM OM1 8006 -0.550000 15.99940
8007 OM 8007 OM OM1 8007 -0.550000 15.99940
8008 OM 8008 OM OM1 8008 -0.550000 15.99940
8009 OM 8009 OM OM1 8009 -0.550000 15.99940
8010 OM 8010 OM OM1 8010 -0.550000 15.99940
8011 OM 8011 OM OM1 8011 -0.550000 15.99940
8012 OM 8012 OM OM1 8012 -0.550000 15.99940
8013 OM 8013 OM OM1 8013 -0.550000 15.99940
8014 OM 8014 OM OM1 8014 -0.550000 15.99940
8015 OM 8015 OM OM1 8015 -0.550000 15.99940
8016 OM 8016 OM OM1 8016 -0.550000 15.99940
8017 OM 8017 OM OM1 8017 -0.550000 15.99940
8018 OM 8018 OM OM1 8018 -0.550000 15.99940
8019 OM 8019 OM OM1 8019 -0.550000 15.99940
8020 OM 8020 OM OM1 8020 -0.550000 15.99940
8021 OM 8021 OM OM1 8021 -0.550000 15.99940
8022 OM 8022 OM OM1 8022 -0.550000 15.99940
8023 OM 8023 OM OM1 8023 -0.550000 15.99940
8024 OM 8024 OM OM1 8024 -0.550000 15.99940
8025 OM 8025 OM OM1 8025 -0.550000 15.99940
8026 OM 8026 OM OM1 8026 -0.550000 15.99940
8027 OM 8027 OM OM1 8027 -0.550000 15.99940
8028 OM 8028 OM OM1 8028 -0.550000 15.99940
8029 OM 8029 OM OM1 8029 -0.550000 15.99940
8030 OM 8030 OM OM1 8030 -0.550000 15.99940
8031 OM 8031 OM OM1 8031 -0.550000 15.99940
8032 OM 8032 OM OM1 8032 -0.550000 15.99940
8033 OM 8033 OM OM1 8033 -0.550000 15.99940
8034 OM 8034 OM OM1 8034 -0.550000 15.99940
8035 OM 8035 OM OM1 8035 -0.550000 15.99940
8036 OM 8036 OM OM1 8036 -0.550000 15.99940
8037 OM 8037 OM OM1 8037 -0.550000 15.99940
8038 OM 8038 OM OM1 8038 -0.550000 15.99940
8039 OM 8039 OM OM1 8039 -0.550000 15.99940
8040 OM 8040 OM OM1 8040 -0.550000 15.99940
8041 OM 8041 OM OM1 8041 -0.550000 15.99940
8042 OM 8042 OM OM1 8042 -0.550000 15.99940
8043 OM 8043 OM OM1 8043 -0.550000 15.99940
8044 OM 8044 OM OM1 8044 -0.550000 15.99940
8045 OM 8045 OM OM1 8045 -0.550000 15.99940
8046 OM 8046 OM OM1 8046 -0.550000 15.99940
8047 OM 8047 OM OM1 8047 -0.550000 15.99940
8048 OM 8048 OM OM1 8048 -0.550000 15.99940
8049 OM 8049 OM OM1 8049 -0.550000 15.99940
8050 OM 8050 OM OM1 8050 -0.550000 15.99940
8051 OM 8051 OM OM1 8051 -0.550000 15.99940
8052 OM 8052 OM OM1 8052 -0.550000 15.99940
8053 OM 8053 OM OM1 8053 -0.550000 15.99940
8054 OM 8054 OM OM1 8054 -0.550000 15.99940
8055 OM 8055 OM OM1 8055 -0.550000 15.99940
8056 OM 8056 OM OM1 8056 -0.550000 15.99940
8057 OM 8057 OM OM1 8057 -0.550000 15.99940
8058 OM 8058 OM OM1 8058 -0.550000 15.99940
8059 OM 8059 OM OM1 8059 -0.550000 15.99940
8060 OM 8060 OM OM1 8060 -0.550000 15.99940
8061 OM 8061 OM OM1 8061 -0.550000 15.99940
8062 OM 8062 OM OM1 8062 -0.550000 15.99940
8063 OM 8063 OM OM1 8063 -0.550000 15.99940
8064 OM 8064 OM OM1 8064 -0.550000 15.99940
8065 OM 8065 OM OM1 8065 -0.550000 15.99940
8066 OM 8066 OM OM1 8066 -0.550000 15.99940
8067 OM 8067 OM OM1 8067 -0.550000 15.99940
8068 OM 8068 OM OM1 8068 -0.550000 15.99940
8069 OM 8069 OM OM1 8069 -0.550000 15.99940
8070 OM 8070 OM OM1 8070 -0.550000 15.99940
8071 OM 8071 OM OM1 8071 -0.550000 15.99940
8072 OM 8072 OM OM1 8072 -0.550000 15.99940
8073 OM 8073 OM OM1 8073 -0.550000 15.99940
8074 OM 8074 OM OM1 8074 -0.550000 15.99940
8075 OM 8075 OM OM1 8075 -0.550000 15.99940
8076 OM 8076 OM OM1 8076 -0.550000 15.99940
8077 OM 8077 OM OM1 8077 -0.550000 15.99940
8078 OM 8078 OM OM1 8078 -0.550000 15.99940
8079 OM 8079 OM OM1 8079 -0.550000 15.99940
8080 OM 8080 OM OM1 8080 -0.550000 15.99940
8081 OM 8081 OM OM1 8081 -0.550000 15.99940
8082 OM 8082 OM OM1 8082 -0.550000 15.99940
8083 OM 8083 OM OM1 8083 -0.550000 15.99940
8084 OM 8084 OM OM1 8084 -0.550000 15.99940
8085 OM 8085 OM OM1 8085 -0.550000 15.99940
8086 OM 8086 OM OM1 8086 -0.550000 15.99940
8087 OM 8087 OM OM1 8087 -0.550000 15.99940
8088 OM 8088 OM OM1 8088 -0.550000 15.99940
8089 OM 8089 OM OM1 8089 -0.550000 15.99940
8090 OM 8090 OM OM1 8090 -0.550000 15.99940
8091 OM 8091 OM OM1 8091 -0.550000 15.99940
8092 OM 8092 OM OM1 8092 -0.550000 15.99940
8093 OM 8093 OM OM1 8093 -0.550000 15.99940
8094 OM 8094 OM OM1 8094 -0.550000 15.99940
8095 OM 8095 OM OM1 8095 -0.550000 15.99940
8096 OM 8096 OM OM1 8096 -0.550000 15.99940
8097 OM 8097 OM OM1 8097 -0.550000 15.99940
8098 OM 8098 OM OM1 8098 -0.550000 15.99940
8099 OM 8099 OM OM1 8099 -0.550000 15.99940
8100 OM 8100 OM OM1 8100 -0.550000 15.99940
8101 OM 8101 OM OM1 8101 -0.550000 15.99940
8102 OM 8102 OM OM1 8102 -0.550000 15.99940
8103 OM 8103 OM OM1 8103 -0.550000 15.99940
8104 OM 8104 OM OM1 8104 -0.550000 15.99940
8105 OM 8105 OM OM1 8105 -0.550000 15.99940
8106 OM 8106 OM OM1 8106 -0.550000 15.99940
8107 OM 8107 OM OM1 8107 -0.550000 15.99940
8108 OM 8108 OM OM1 8108 -0.550000 15.99940
8109 OM 8109 OM OM1 8109 -0.550000 15.99940
8110 OM 8110 OM OM1 8110 -0.550000 15.99940
8111 OM 8111 OM OM1 8111 -0.550000 15.99940
8112 OM 8112 OM OM1 8112 -0.550000 15.99940
8113 OM 8113 OM OM1 8113 -0.550000 15.99940
8114 OM 8114 OM OM1 8114 -0.550000 15.99940
8115 OM 8115 OM OM1 8115 -0.550000 15.99940
8116 OM 8116 OM OM1 8116 -0.550000 15.99940
8117 OM 8117 OM OM1 8117 -0.550000 15.99940
8118 OM 8118 OM OM1 8118 -0.550000 15.99940
8119 OM 8119 OM OM1 8119 -0.550000 15.99940
8120 OM 8120 OM OM1 8120 -0.550000 15.99940
8121 OM 8121 OM OM1 8121 -0.550000 15.99940
8122 OM 8122 OM OM1 8122 -0.550000 15.99940
8123 OM 8123 OM OM1 8123 -0.550000 15.99940
8124 OM 8124 OM OM1 8124 -0.550000 15.99940
8125 OM 8125 OM OM1 8125 -0.550000 15.99940
8126 OM 8126 OM OM1 8126 -0.550000 15.99940
8127 OM 8127 OM OM1 8127 -0.550000 15.99940
8128 OM 8128 OM OM1 8128 -0.550000 15.99940
8129 OM 8129 OM OM1 8129 -0.550000 15.99940
8130 OM 8130 OM OM1 8130 -0.550000 15.99940
8131 OM 8131 OM OM1 8131 -0.550000 15.99940
8132 OM 8132 OM OM1 8132 -0.550000 15.99940
8133 OM 8133 OM OM1 8133 -0.550000 15.99940
8134 OM 8134 OM OM1 8134 -0.550000 15.99940
8135 OM 8135 OM OM1 8135 -0.550000 15.99940
8136 OM 8136 OM OM1 8136 -0.550000 15.99940
8137 OM 8137 OM OM1 8137 -0.550000 15.99940
8138 OM 8138 OM OM1 8138 -0.550000 15.99940
8139 OM 8139 OM OM1 8139 -0.550000 15.99940
8140 OM 8140 OM OM1 8140 -0.550000 15.99940
8141 OM 8141 OM OM1 8141 -0.550000 15.99940
8142 OM 8142 OM OM1 8142 -0.550000 15.99940
8143 OM 8143 OM OM1 8143 -0.550000 15.99940
8144 OM 8144 OM OM1 8144 -0.550000 15.99940
8145 OM 8145 OM OM1 8145 -0.550000 15.99940
8146 OM 8146 OM OM1 8146 -0.550000 15.99940
8147 OM 8147 OM OM1 8147 -0.550000 15.99940
8148 OM 8148 OM OM1 8148 -0.550000 15.99940
8149 OM 8149 OM OM1 8149 -0.550000 15.99940
8150 OM 8150 OM OM1 8150 -0.550000 15.99940
8151 OM 8151 OM OM1 8151 -0.550000 15.99940
8152 OM 8152 OM OM1 8152 -0.550000 15.99940
8153 OM 8153 OM OM1 8153 -0.550000 15.99940
8154 OM 8154 OM OM1 8154 -0.550000 15.99940
8155 OM 8155 OM OM1 8155 -0.550000 15.99940
8156 OM 8156 OM OM1 8156 -0.550000 15.99940
8157 OM 8157 OM OM1 8157 -0.550000 15.99940
8158 OM 8158 OM OM1 8158 -0.550000 15.99940
8159 OM 8159 OM OM1 8159 -0.550000 15.99940
8160 OM 8160 OM OM1 8160 -0.550000 15.99940
8161 OM 8161 OM OM1 8161 -0.550000 15.99940
8162 OM 8162 OM OM1 8162 -0.550000 15.99940
8163 OM 8163 OM OM1 8163 -0.550000 15.99940
8164 OM 8164 OM OM1 8164 -0.550000 15.99940
8165 OM 8165 OM OM1 8165 -0.550000 15.99940
8166 OM 8166 OM OM1 8166 -0.550000 15.99940
8167 OM 8167 OM OM1 8167 -0.550000 15.99940
8168 OM 8168 OM OM1 8168 -0.550000 15.99940
8169 OM 8169 OM OM1 8169 -0.550000 15.99940
8170 OM 8170 OM OM1 8170 -0.550000 15.99940
8171 OM 8171 OM OM1 8171 -0.550000 15.99940
8172 OM 8172 OM OM1 8172 -0.550000 15.99940
8173 OM 8173 OM OM1 8173 -0.550000 15.99940
8174 OM 8174 OM OM1 8174 -0.550000 15.99940
8175 OM 8175 OM OM1 8175 -0.550000 15.99940
8176 OM 8176 OM OM1 8176 -0.550000 15.99940
8177 OM 8177 OM OM1 8177 -0.550000 15.99940
8178 OM 8178 OM OM1 8178 -0.550000 15.99940
8179 OM 8179 OM OM1 8179 -0.550000 15.99940
8180 OM 8180 OM OM1 8180 -0.550000 15.99940
8181 OM 8181 OM OM1 8181 -0.550000 15.99940
8182 OM 8182 OM OM1 8182 -0.550000 15.99940
8183 OM 8183 OM OM1 8183 -0.550000 15.99940
8184 OM 8184 OM OM1 8184 -0.550000 15.99940
8185 OM 8185 OM OM1 8185 -0.550000 15.99940
8186 OM 8186 OM OM1 8186 -0.550000 15.99940
8187 OM 8187 OM OM1 8187 -0.550000 15.99940
8188 OM 8188 OM OM1 8188 -0.550000 15.99940
8189 OM 8189 OM OM1 8189 -0.550000 15.99940
8190 OM 8190 OM OM1 8190 -0.550000 15.99940
8191 OM 8191 OM OM1 8191 -0.550000 15.99940
8192 OM 8192 OM OM1 8192 -0.550000 15.99940
8193 OM 8193 OM OM1 8193 -0.550000 15.99940
8194 OM 8194 OM OM1 8194 -0.550000 15.99940
8195 OM 8195 OM OM1 8195 -0.550000 15.99940
8196 OM 8196 OM OM1 8196 -0.550000 15.99940
8197 OM 8197 OM OM1 8197 -0.550000 15.99940
8198 OM 8198 OM OM1 8198 -0.550000 15.99940
8199 OM 8199 OM OM1 8199 -0.550000 15.99940
8200 OM 8200 OM OM1 8200 -0.550000 15.99940
8201 OM 8201 OM OM1 8201 -0.550000 15.99940
8202 OM 8202 OM OM1 8202 -0.550000 15.99940
8203 OM 8203 OM OM1 8203 -0.550000 15.99940
8204 OM 8204 OM OM1 8204 -0.550000 15.99940
8205 OM 8205 OM OM1 8205 -0.550000 15.99940
8206 OM 8206 OM OM1 8206 -0.550000 15.99940
8207 OM 8207 OM OM1 8207 -0.550000 15.99940
8208 OM 8208 OM OM1 8208 -0.550000 15.99940
8209 OM 8209 OM OM1 8209 -0.550000 15.99940
8210 OM 8210 OM OM1 8210 -0.550000 15.99940
8211 OM 8211 OM OM1 8211 -0.550000 15.99940
8212 OM 8212 OM OM1 8212 -0.550000 15.99940
8213 OM 8213 OM OM1 8213 -0.550000 15.99940
8214 OM 8214 OM OM1 8214 -0.550000 15.99940
8215 OM 8215 OM OM1 8215 -0.550000 15.99940
8216 OM 8216 OM OM1 8216 -0.550000 15.99940
8217 OM 8217 OM OM1 8217 -0.550000 15.99940
8218 OM 8218 OM OM1 8218 -0.550000 15.99940
8219 OM 8219 OM OM1 8219 -0.550000 15.99940
8220 OM 8220 OM OM1 8220 -0.550000 15.99940
8221 OM 8221 OM OM1 8221 -0.550000 15.99940
8222 OM 8222 OM OM1 8222 -0.550000 15.99940
8223 OM 8223 OM OM1 8223 -0.550000 15.99940
8224 OM 8224 OM OM1 8224 -0.550000 15.99940
8225 OM 8225 OM OM1 8225 -0.550000 15.99940
8226 OM 8226 OM OM1 8226 -0.550000 15.99940
8227 OM 8227 OM OM1 8227 -0.550000 15.99940
8228 OM 8228 OM OM1 8228 -0.550000 15.99940
8229 OM 8229 OM OM1 8229 -0.550000 15.99940
8230 OM 8230 OM OM1 8230 -0.550000 15.99940
8231 OM 8231 OM OM1 8231 -0.550000 15.99940
8232 OM 8232 OM OM1 8232 -0.550000 15.99940
8233 OM 8233 OM OM1 8233 -0.550000 15.99940
8234 OM 8234 OM OM1 8234 -0.550000 15.99940
8235 OM 8235 OM OM1 8235 -0.550000 15.99940
8236 OM 8236 OM OM1 8236 -0.550000 15.99940
8237 OM 8237 OM OM1 8237 -0.550000 15.99940
8238 OM 8238 OM OM1 8238 -0.550000 15.99940
8239 OM 8239 OM OM1 8239 -0.550000 15.99940
8240 OM 8240 OM OM1 8240 -0.550000 15.99940
8241 OM 8241 OM OM1 8241 -0.550000 15.99940
8242 OM 8242 OM OM1 8242 -0.550000 15.99940
8243 OM 8243 OM OM1 8243 -0.550000 15.99940
8244 OM 8244 OM OM1 8244 -0.550000 15.99940
8245 OM 8245 OM OM1 8245 -0.550000 15.99940
8246 OM 8246 OM OM1 8246 -0.550000 15.99940
8247 OM 8247 OM OM1 8247 -0.550000 15.99940
8248 OM 8248 OM OM1 8248 -0.550000 15.99940
8249 OM 8249 OM OM1 8249 -0.550000 15.99940
8250 OM 8250 OM OM1 8250 -0.550000 15.99940
8251 OM 8251 OM OM1 8251 -0.550000 15.99940
8252 OM 8252 OM OM1 8252 -0.550000 15.99940
8253 OM 8253 OM OM1 8253 -0.550000 15.99940
8254 OM 8254 OM OM1 8254 -0.550000 15.99940
8255 OM 8255 OM OM1 8255 -0.550000 15.99940
8256 OM 8256 OM OM1 8256 -0.550000 15.99940
8257 OM 8257 OM OM1 8257 -0.550000 15.99940
8258 OM 8258 OM OM1 8258 -0.550000 15.99940
8259 OM 8259 OM OM1 8259 -0.550000 15.99940
8260 OM 8260 OM OM1 8260 -0.550000 15.99940
8261 OM 8261 OM OM1 8261 -0.550000 15.99940
8262 OM 8262 OM OM1 8262 -0.550000 15.99940
8263 OM 8263 OM OM1 8263 -0.550000 15.99940
8264 OM 8264 OM OM1 8264 -0.550000 15.99940
8265 OM 8265 OM OM1 8265 -0.550000 15.99940
8266 OM 8266 OM OM1 8266 -0.550000 15.99940
8267 OM 8267 OM OM1 8267 -0.550000 15.99940
8268 OM 8268 OM OM1 8268 -0.550000 15.99940
8269 OM 8269 OM OM1 8269 -0.550000 15.99940
8270 OM 8270 OM OM1 8270 -0.550000 15.99940
8271 OM 8271 OM OM1 8271 -0.550000 15.99940
8272 OM 8272 OM OM1 8272 -0.550000 15.99940
8273 OM 8273 OM OM1 8273 -0.550000 15.99940
8274 OM 8274 OM OM1 8274 -0.550000 15.99940
8275 OM 8275 OM OM1 8275 -0.550000 15.99940
8276 OM 8276 OM OM1 8276 -0.550000 15.99940
8277 OM 8277 OM OM1 8277 -0.550000 15.99940
8278 OM 8278 OM OM1 8278 -0.550000 15.99940
8279 OM 8279 OM OM1 8279 -0.550000 15.99940
8280 OM 8280 OM OM1 8280 -0.550000 15.99940
8281 OM 8281 OM OM1 8281 -0.550000 15.99940
8282 OM 8282 OM OM1 8282 -0.550000 15.99940
8283 OM 8283 OM OM1 8283 -0.550000 15.99940
8284 OM 8284 OM OM1 8284 -0.550000 15.99940
8285 OM 8285 OM OM1 8285 -0.550000 15.99940
8286 OM 8286 OM OM1 8286 -0.550000 15.99940
8287 OM 8287 OM OM1 8287 -0.550000 15.99940
8288 OM 8288 OM OM1 8288 -0.550000 15.99940
8289 OM 8289 OM OM1 8289 -0.550000 15.99940
8290 OM 8290 OM OM1 8290 -0.550000 15.99940
8291 OM 8291 OM OM1 8291 -0.550000 15.99940
8292 OM 8292 OM OM1 8292 -0.550000 15.99940
8293 OM 8293 OM OM1 8293 -0.550000 15.99940
8294 OM 8294 OM OM1 8294 -0.550000 15.99940
8295 OM 8295 OM OM1 8295 -0.550000 15.99940
8296 OM 8296 OM OM1 8296 -0.550000 15.99940
8297 OM 8297 OM OM1 8297 -0.550000 15.99940
8298 OM 8298 OM OM1 8298 -0.550000 15.99940
8299 OM 8299 OM OM1 8299 -0.550000 15.99940
8300 OM 8300 OM OM1 8300 -0.550000 15.99940
8301 OM 8301 OM OM1 8301 -0.550000 15.99940
8302 OM 8302 OM OM1 8302 -0.550000 15.99940
8303 OM 8303 OM OM1 8303 -0.550000 15.99940
8304 OM 8304 OM OM1 8304 -0.550000 15.99940
8305 OM 8305 OM OM1 8305 -0.550000 15.99940
8306 OM 8306 OM OM1 8306 -0.550000 15.99940
8307 OM 8307 OM OM1 8307 -0.550000 15.99940
8308 OM 8308 OM OM1 8308 -0.550000 15.99940
8309 OM 8309 OM OM1 8309 -0.550000 15.99940
8310 OM 8310 OM OM1 8310 -0.550000 15.99940
8311 OM 8311 OM OM1 8311 -0.550000 15.99940
8312 OM 8312 OM OM1 8312 -0.550000 15.99940
8313 OM 8313 OM OM1 8313 -0.550000 15.99940
8314 OM 8314 OM OM1 8314 -0.550000 15.99940
8315 OM 8315 OM OM1 8315 -0.550000 15.99940
8316 OM 8316 OM OM1 8316 -0.550000 15.99940
8317 OM 8317 OM OM1 8317 -0.550000 15.99940
8318 OM 8318 OM OM1 8318 -0.550000 15.99940
8319 OM 8319 OM OM1 8319 -0.550000 15.99940
8320 OM 8320 OM OM1 8320 -0.550000 15.99940
8321 OM 8321 OM OM1 8321 -0.550000 15.99940
8322 OM 8322 OM OM1 8322 -0.550000 15.99940
8323 OM 8323 OM OM1 8323 -0.550000 15.99940
8324 OM 8324 OM OM1 8324 -0.550000 15.99940
8325 OM 8325 OM OM1 8325 -0.550000 15.99940
8326 OM 8326 OM OM1 8326 -0.550000 15.99940
8327 OM 8327 OM OM1 8327 -0.550000 15.99940
8328 OM 8328 OM OM1 8328 -0.550000 15.99940
8329 OM 8329 OM OM1 8329 -0.550000 15.99940
8330 OM 8330 OM OM1 8330 -0.550000 15.99940
8331 OM 8331 OM OM1 8331 -0.550000 15.99940
8332 OM 8332 OM OM1 8332 -0.550000 15.99940
8333 OM 8333 OM OM1 8333 -0.550000 15.99940
8334 OM 8334 OM OM1 8334 -0.550000 15.99940
8335 OM 8335 OM OM1 8335 -0.550000 15.99940
8336 OM 8336 OM OM1 8336 -0.550000 15.99940
8337 OM 8337 OM OM1 8337 -0.550000 15.99940
8338 OM 8338 OM OM1 8338 -0.550000 15.99940
8339 OM 8339 OM OM1 8339 -0.550000 15.99940
8340 OM 8340 OM OM1 8340 -0.550000 15.99940
8341 OM 8341 OM OM1 8341 -0.550000 15.99940
8342 OM 8342 OM OM1 8342 -0.550000 15.99940
8343 OM 8343 OM OM1 8343 -0.550000 15.99940
8344 OM 8344 OM OM1 8344 -0.550000 15.99940
8345 OM 8345 OM OM1 8345 -0.550000 15.99940
8346 OM 8346 OM OM1 8346 -0.550000 15.99940
8347 OM 8347 OM OM1 8347 -0.550000 15.99940
8348 OM 8348 OM OM1 8348 -0.550000 15.99940
8349 OM 8349 OM OM1 8349 -0.550000 15.99940
8350 OM 8350 OM OM1 8350 -0.550000 15.99940
8351 OM 8351 OM OM1 8351 -0.550000 15.99940
8352 OM 8352 OM OM1 8352 -0.550000 15.99940
8353 OM 8353 OM OM1 8353 -0.550000 15.99940
8354 OM 8354 OM OM1 8354 -0.550000 15.99940
8355 OM 8355 OM OM1 8355 -0.550000 15.99940
8356 OM 8356 OM OM1 8356 -0.550000 15.99940
8357 OM 8357 OM OM1 8357 -0.550000 15.99940
8358 OM 8358 OM OM1 8358 -0.550000 15.99940
8359 OM 8359 OM OM1 8359 -0.550000 15.99940
8360 OM 8360 OM OM1 8360 -0.550000 15.99940
8361 OM 8361 OM OM1 8361 -0.550000 15.99940
8362 OM 8362 OM OM1 8362 -0.550000 15.99940
8363 OM 8363 OM OM1 8363 -0.550000 15.99940
8364 OM 8364 OM OM1 8364 -0.550000 15.99940
8365 OM 8365 OM OM1 8365 -0.550000 15.99940
8366 OM 8366 OM OM1 8366 -0.550000 15.99940
8367 OM 8367 OM OM1 8367 -0.550000 15.99940
8368 OM 8368 OM OM1 8368 -0.550000 15.99940
8369 OM 8369 OM OM1 8369 -0.550000 15.99940
8370 OM 8370 OM OM1 8370 -0.550000 15.99940
8371 OM 8371 OM OM1 8371 -0.550000 15.99940
8372 OM 8372 OM OM1 8372 -0.550000 15.99940
8373 OM 8373 OM OM1 8373 -0.550000 15.99940
8374 OM 8374 OM OM1 8374 -0.550000 15.99940
8375 OM 8375 OM OM1 8375 -0.550000 15.99940
8376 OM 8376 OM OM1 8376 -0.550000 15.99940
8377 OM 8377 OM OM1 8377 -0.550000 15.99940
8378 OM 8378 OM OM1 8378 -0.550000 15.99940
8379 OM 8379 OM OM1 8379 -0.550000 15.99940
8380 OM 8380 OM OM1 8380 -0.550000 15.99940
8381 OM 8381 OM OM1 8381 -0.550000 15.99940
8382 OM 8382 OM OM1 8382 -0.550000 15.99940
8383 OM 8383 OM OM1 8383 -0.550000 15.99940
8384 OM 8384 OM OM1 8384 -0.550000 15.99940
8385 OM 8385 OM OM1 8385 -0.550000 15.99940
8386 OM 8386 OM OM1 8386 -0.550000 15.99940
8387 OM 8387 OM OM1 8387 -0.550000 15.99940
8388 OM 8388 OM OM1 8388 -0.550000 15.99940
8389 OM 8389 OM OM1 8389 -0.550000 15.99940
8390 OM 8390 OM OM1 8390 -0.550000 15.99940
8391 OM 8391 OM OM1 8391 -0.550000 15.99940
8392 OM 8392 OM OM1 8392 -0.550000 15.99940
8393 OM 8393 OM OM1 8393 -0.550000 15.99940
8394 OM 8394 OM OM1 8394 -0.550000 15.99940
8395 OM 8395 OM OM1 8395 -0.550000 15.99940
8396 OM 8396 OM OM1 8396 -0.550000 15.99940
8397 OM 8397 OM OM1 8397 -0.550000 15.99940
8398 OM 8398 OM OM1 8398 -0.550000 15.99940
8399 OM 8399 OM OM1 8399 -0.550000 15.99940
8400 OM 8400 OM OM1 8400 -0.550000 15.99940
8401 OM 8401 OM OM1 8401 -0.550000 15.99940
8402 OM 8402 OM OM1 8402 -0.550000 15.99940
8403 OM 8403 OM OM1 8403 -0.550000 15.99940
8404 OM 8404 OM OM1 8404 -0.550000 15.99940
8405 OM 8405 OM OM1 8405 -0.550000 15.99940
8406 OM 8406 OM OM1 8406 -0.550000 15.99940
8407 OM 8407 OM OM1 8407 -0.550000 15.99940
8408 OM 8408 OM OM1 8408 -0.550000 15.99940
8409 OM 8409 OM OM1 8409 -0.550000 15.99940
8410 OM 8410 OM OM1 8410 -0.550000 15.99940
8411 OM 8411 OM OM1 8411 -0.550000 15.99940
8412 OM 8412 OM OM1 8412 -0.550000 15.99940
8413 OM 8413 OM OM1 8413 -0.550000 15.99940
8414 OM 8414 OM OM1 8414 -0.550000 15.99940
8415 OM 8415 OM OM1 8415 -0.550000 15.99940
8416 OM 8416 OM OM1 8416 -0.550000 15.99940
8417 OM 8417 OM OM1 8417 -0.550000 15.99940
8418 OM 8418 OM OM1 8418 -0.550000 15.99940
8419 OM 8419 OM OM1 8419 -0.550000 15.99940
8420 OM 8420 OM OM1 8420 -0.550000 15.99940
8421 OM 8421 OM OM1 8421 -0.550000 15.99940
8422 OM 8422 OM OM1 8422 -0.550000 15.99940
8423 OM 8423 OM OM1 8423 -0.550000 15.99940
8424 OM 8424 OM OM1 8424 -0.550000 15.99940
8425 OM 8425 OM OM1 8425 -0.550000 15.99940
8426 OM 8426 OM OM1 8426 -0.550000 15.99940
8427 OM 8427 OM OM1 8427 -0.550000 15.99940
8428 OM 8428 OM OM1 8428 -0.550000 15.99940
8429 OM 8429 OM OM1 8429 -0.550000 15.99940
8430 OM 8430 OM OM1 8430 -0.550000 15.99940
8431 OM 8431 OM OM1 8431 -0.550000 15.99940
8432 OM 8432 OM OM1 8432 -0.550000 15.99940
8433 OM 8433 OM OM1 8433 -0.550000 15.99940
8434 OM 8434 OM OM1 8434 -0.550000 15.99940
8435 OM 8435 OM OM1 8435 -0.550000 15.99940
8436 OM 8436 OM OM1 8436 -0.550000 15.99940
8437 OM 8437 OM OM1 8437 -0.550000 15.99940
8438 OM 8438 OM OM1 8438 -0.550000 15.99940
8439 OM 8439 OM OM1 8439 -0.550000 15.99940
8440 OM 8440 OM OM1 8440 -0.550000 15.99940
8441 OM 8441 OM OM1 8441 -0.550000 15.99940
8442 OM 8442 OM OM1 8442 -0.550000 15.99940
8443 OM 8443 OM OM1 8443 -0.550000 15.99940
8444 OM 8444 OM OM1 8444 -0.550000 15.99940
8445 OM 8445 OM OM1 8445 -0.550000 15.99940
8446 OM 8446 OM OM1 8446 -0.550000 15.99940
8447 OM 8447 OM OM1 8447 -0.550000 15.99940
8448 OM 8448 OM OM1 8448 -0.550000 15.99940
8449 OM 8449 OM OM1 8449 -0.550000 15.99940
8450 OM 8450 OM OM1 8450 -0.550000 15.99940
8451 OM 8451 OM OM1 8451 -0.550000 15.99940
8452 OM 8452 OM OM1 8452 -0.550000 15.99940
8453 OM 8453 OM OM1 8453 -0.550000 15.99940
8454 OM 8454 OM OM1 8454 -0.550000 15.99940
8455 OM 8455 OM OM1 8455 -0.550000 15.99940
8456 OM 8456 OM OM1 8456 -0.550000 15.99940
8457 OM 8457 OM OM1 8457 -0.550000 15.99940
8458 OM 8458 OM OM1 8458 -0.550000 15.99940
8459 OM 8459 OM OM1 8459 -0.550000 15.99940
8460 OM 8460 OM OM1 8460 -0.550000 15.99940
8461 OM 8461 OM OM1 8461 -0.550000 15.99940
8462 OM 8462 OM OM1 8462 -0.550000 15.99940
8463 OM 8463 OM OM1 8463 -0.550000 15.99940
8464 OM 8464 OM OM1 8464 -0.550000 15.99940
8465 OM 8465 OM OM1 8465 -0.550000 15.99940
8466 OM 8466 OM OM1 8466 -0.550000 15.99940
8467 OM 8467 OM OM1 8467 -0.550000 15.99940
8468 OM 8468 OM OM1 8468 -0.550000 15.99940
8469 OM 8469 OM OM1 8469 -0.550000 15.99940
8470 OM 8470 OM OM1 8470 -0.550000 15.99940
8471 OM 8471 OM OM1 8471 -0.550000 15.99940
8472 OM 8472 OM OM1 8472 -0.550000 15.99940
8473 OM 8473 OM OM1 8473 -0.550000 15.99940
8474 OM 8474 OM OM1 8474 -0.550000 15.99940
8475 OM 8475 OM OM1 8475 -0.550000 15.99940
8476 OM 8476 OM OM1 8476 -0.550000 15.99940
8477 OM 8477 OM OM1 8477 -0.550000 15.99940
8478 OM 8478 OM OM1 8478 -0.550000 15.99940
8479 OM 8479 OM OM1 8479 -0.550000 15.99940
8480 OM 8480 OM OM1 8480 -0.550000 15.99940
8481 OM 8481 OM OM1 8481 -0.550000 15.99940
8482 OM 8482 OM OM1 8482 -0.550000 15.99940
8483 OM 8483 OM OM1 8483 -0.550000 15.99940
8484 OM 8484 OM OM1 8484 -0.550000 15.99940
8485 OM 8485 OM OM1 8485 -0.550000 15.99940
8486 OM 8486 OM OM1 8486 -0.550000 15.99940
8487 OM 8487 OM OM1 8487 -0.550000 15.99940
8488 OM 8488 OM OM1 8488 -0.550000 15.99940
8489 OM 8489 OM OM1 8489 -0.550000 15.99940
8490 OM 8490 OM OM1 8490 -0.550000 15.99940
8491 OM 8491 OM OM1 8491 -0.550000 15.99940
8492 OM 8492 OM OM1 8492 -0.550000 15.99940
8493 OM 8493 OM OM1 8493 -0.550000 15.99940
8494 OM 8494 OM OM1 8494 -0.550000 15.99940
8495 OM 8495 OM OM1 8495 -0.550000 15.99940
8496 OM 8496 OM OM1 8496 -0.550000 15.99940
8497 OM 8497 OM OM1 8497 -0.550000 15.99940
8498 OM 8498 OM OM1 8498 -0.550000 15.99940
8499 OM 8499 OM OM1 8499 -0.550000 15.99940
8500 OM 8500 OM OM1 8500 -0.550000 15.99940
8501 OM 8501 OM OM1 8501 -0.550000 15.99940
8502 OM 8502 OM OM1 8502 -0.550000 15.99940
8503 OM 8503 OM OM1 8503 -0.550000 15.99940
8504 OM 8504 OM OM1 8504 -0.550000 15.99940
8505 OM 8505 OM OM1 8505 -0.550000 15.99940
8506 OM 8506 OM OM1 8506 -0.550000 15.99940
8507 OM 8507 OM OM1 8507 -0.550000 15.99940
8508 OM 8508 OM OM1 8508 -0.550000 15.99940
8509 OM 8509 OM OM1 8509 -0.550000 15.99940
8510 OM 8510 OM OM1 8510 -0.550000 15.99940
8511 OM 8511 OM OM1 8511 -0.550000 15.99940
8512 OM 8512 OM OM1 8512 -0.550000 15.99940
8513 OM 8513 OM OM1 8513 -0.550000 15.99940
8514 OM 8514 OM OM1 8514 -0.550000 15.99940
8515 OM 8515 OM OM1 8515 -0.550000 15.99940
8516 OM 8516 OM OM1 8516 -0.550000 15.99940
8517 OM 8517 OM OM1 8517 -0.550000 15.99940
8518 OM 8518 OM OM1 8518 -0.550000 15.99940
8519 OM 8519 OM OM1 8519 -0.550000 15.99940
8520 OM 8520 OM OM1 8520 -0.550000 15.99940
8521 OM 8521 OM OM1 8521 -0.550000 15.99940
8522 OM 8522 OM OM1 8522 -0.550000 15.99940
8523 OM 8523 OM OM1 8523 -0.550000 15.99940
8524 OM 8524 OM OM1 8524 -0.550000 15.99940
8525 OM 8525 OM OM1 8525 -0.550000 15.99940
8526 OM 8526 OM OM1 8526 -0.550000 15.99940
8527 OM 8527 OM OM1 8527 -0.550000 15.99940
8528 OM 8528 OM OM1 8528 -0.550000 15.99940
8529 OM 8529 OM OM1 8529 -0.550000 15.99940
8530 OM 8530 OM OM1 8530 -0.550000 15.99940
8531 OM 8531 OM OM1 8531 -0.550000 15.99940
8532 OM 8532 OM OM1 8532 -0.550000 15.99940
8533 OM 8533 OM OM1 8533 -0.550000 15.99940
8534 OM 8534 OM OM1 8534 -0.550000 15.99940
8535 OM 8535 OM OM1 8535 -0.550000 15.99940
8536 OM 8536 OM OM1 8536 -0.550000 15.99940
8537 OM 8537 OM OM1 8537 -0.550000 15.99940
8538 OM 8538 OM OM1 8538 -0.550000 15.99940
8539 OM 8539 OM OM1 8539 -0.550000 15.99940
8540 OM 8540 OM OM1 8540 -0.550000 15.99940
8541 OM 8541 OM OM1 8541 -0.550000 15.99940
8542 OM 8542 OM OM1 8542 -0.550000 15.99940
8543 OM 8543 OM OM1 8543 -0.550000 15.99940
8544 OM 8544 OM OM1 8544 -0.550000 15.99940
8545 OM 8545 OM OM1 8545 -0.550000 15.99940
8546 OM 8546 OM OM1 8546 -0.550000 15.99940
8547 OM 8547 OM OM1 8547 -0.550000 15.99940
8548 OM 8548 OM OM1 8548 -0.550000 15.99940
8549 OM 8549 OM OM1 8549 -0.550000 15.99940
8550 OM 8550 OM OM1 8550 -0.550000 15.99940
8551 OM 8551 OM OM1 8551 -0.550000 15.99940
8552 OM 8552 OM OM1 8552 -0.550000 15.99940
8553 OM 8553 OM OM1 8553 -0.550000 15.99940
8554 OM 8554 OM OM1 8554 -0.550000 15.99940
8555 OM 8555 OM OM1 8555 -0.550000 15.99940
8556 OM 8556 OM OM1 8556 -0.550000 15.99940
8557 OM 8557 OM OM1 8557 -0.550000 15.99940
8558 OM 8558 OM OM1 8558 -0.550000 15.99940
8559 OM 8559 OM OM1 8559 -0.550000 15.99940
8560 OM 8560 OM OM1 8560 -0.550000 15.99940
8561 OM 8561 OM OM1 8561 -0.550000 15.99940
8562 OM 8562 OM OM1 8562 -0.550000 15.99940
8563 OM 8563 OM OM1 8563 -0.550000 15.99940
8564 OM 8564 OM OM1 8564 -0.550000 15.99940
8565 OM 8565 OM OM1 8565 -0.550000 15.99940
8566 OM 8566 OM OM1 8566 -0.550000 15.99940
8567 OM 8567 OM OM1 8567 -0.550000 15.99940
8568 OM 8568 OM OM1 8568 -0.550000 15.99940
8569 OM 8569 OM OM1 8569 -0.550000 15.99940
8570 OM 8570 OM OM1 8570 -0.550000 15.99940
8571 OM 8571 OM OM1 8571 -0.550000 15.99940
8572 OM 8572 OM OM1 8572 -0.550000 15.99940
8573 OM 8573 OM OM1 8573 -0.550000 15.99940
8574 OM 8574 OM OM1 8574 -0.550000 15.99940
8575 OM 8575 OM OM1 8575 -0.550000 15.99940
8576 OM 8576 OM OM1 8576 -0.550000 15.99940
8577 OM 8577 OM OM1 8577 -0.550000 15.99940
8578 OM 8578 OM OM1 8578 -0.550000 15.99940
8579 OM 8579 OM OM1 8579 -0.550000 15.99940
8580 OM 8580 OM OM1 8580 -0.550000 15.99940
8581 OM 8581 OM OM1 8581 -0.550000 15.99940
8582 OM 8582 OM OM1 8582 -0.550000 15.99940
8583 OM 8583 OM OM1 8583 -0.550000 15.99940
8584 OM 8584 OM OM1 8584 -0.550000 15.99940
8585 OM 8585 OM OM1 8585 -0.550000 15.99940
8586 OM 8586 OM OM1 8586 -0.550000 15.99940
8587 OM 8587 OM OM1 8587 -0.550000 15.99940
8588 OM 8588 OM OM1 8588 -0.550000 15.99940
8589 OM 8589 OM OM1 8589 -0.550000 15.99940
8590 OM 8590 OM OM1 8590 -0.550000 15.99940
8591 OM 8591 OM OM1 8591 -0.550000 15.99940
8592 OM 8592 OM OM1 8592 -0.550000 15.99940
8593 OM 8593 OM OM1 8593 -0.550000 15.99940
8594 OM 8594 OM OM1 8594 -0.550000 15.99940
8595 OM 8595 OM OM1 8595 -0.550000 15.99940
8596 OM 8596 OM OM1 8596 -0.550000 15.99940
8597 OM 8597 OM OM1 8597 -0.550000 15.99940
8598 OM 8598 OM OM1 8598 -0.550000 15.99940
8599 OM 8599 OM OM1 8599 -0.550000 15.99940
8600 OM 8600 OM OM1 8600 -0.550000 15.99940
8601 OM 8601 OM OM1 8601 -0.550000 15.99940
8602 OM 8602 OM OM1 8602 -0.550000 15.99940
8603 OM 8603 OM OM1 8603 -0.550000 15.99940
8604 OM 8604 OM OM1 8604 -0.550000 15.99940
8605 OM 8605 OM OM1 8605 -0.550000 15.99940
8606 OM 8606 OM OM1 8606 -0.550000 15.99940
8607 OM 8607 OM OM1 8607 -0.550000 15.99940
8608 OM 8608 OM OM1 8608 -0.550000 15.99940
8609 OM 8609 OM OM1 8609 -0.550000 15.99940
8610 OM 8610 OM OM1 8610 -0.550000 15.99940
8611 OM 8611 OM OM1 8611 -0.550000 15.99940
8612 OM 8612 OM OM1 8612 -0.550000 15.99940
8613 OM 8613 OM OM1 8613 -0.550000 15.99940
8614 OM 8614 OM OM1 8614 -0.550000 15.99940
8615 OM 8615 OM OM1 8615 -0.550000 15.99940
8616 OM 8616 OM OM1 8616 -0.550000 15.99940
8617 OM 8617 OM OM1 8617 -0.550000 15.99940
8618 OM 8618 OM OM1 8618 -0.550000 15.99940
8619 OM 8619 OM OM1 8619 -0.550000 15.99940
8620 OM 8620 OM OM1 8620 -0.550000 15.99940
8621 OM 8621 OM OM1 8621 -0.550000 15.99940
8622 OM 8622 OM OM1 8622 -0.550000 15.99940
8623 OM 8623 OM OM1 8623 -0.550000 15.99940
8624 OM 8624 OM OM1 8624 -0.550000 15.99940
8625 OM 8625 OM OM1 8625 -0.550000 15.99940
8626 OM 8626 OM OM1 8626 -0.550000 15.99940
8627 OM 8627 OM OM1 8627 -0.550000 15.99940
8628 OM 8628 OM OM1 8628 -0.550000 15.99940
8629 OM 8629 OM OM1 8629 -0.550000 15.99940
8630 OM 8630 OM OM1 8630 -0.550000 15.99940
8631 OM 8631 OM OM1 8631 -0.550000 15.99940
8632 OM 8632 OM OM1 8632 -0.550000 15.99940
8633 OM 8633 OM OM1 8633 -0.550000 15.99940
8634 OM 8634 OM OM1 8634 -0.550000 15.99940
8635 OM 8635 OM OM1 8635 -0.550000 15.99940
8636 OM 8636 OM OM1 8636 -0.550000 15.99940
8637 OM 8637 OM OM1 8637 -0.550000 15.99940
8638 OM 8638 OM OM1 8638 -0.550000 15.99940
8639 OM 8639 OM OM1 8639 -0.550000 15.99940
8640 OM 8640 OM OM1 8640 -0.550000 15.99940
8641 OM 8641 OM OM1 8641 -0.550000 15.99940
8642 OM 8642 OM OM1 8642 -0.550000 15.99940
8643 OM 8643 OM OM1 8643 -0.550000 15.99940
8644 OM 8644 OM OM1 8644 -0.550000 15.99940
8645 OM 8645 OM OM1 8645 -0.550000 15.99940
8646 OM 8646 OM OM1 8646 -0.550000 15.99940
8647 OM 8647 OM OM1 8647 -0.550000 15.99940
8648 OM 8648 OM OM1 8648 -0.550000 15.99940
8649 OM 8649 OM OM1 8649 -0.550000 15.99940
8650 OM 8650 OM OM1 8650 -0.550000 15.99940
8651 OM 8651 OM OM1 8651 -0.550000 15.99940
8652 OM 8652 OM OM1 8652 -0.550000 15.99940
8653 OM 8653 OM OM1 8653 -0.550000 15.99940
8654 OM 8654 OM OM1 8654 -0.550000 15.99940
8655 OM 8655 OM OM1 8655 -0.550000 15.99940
8656 OM 8656 OM OM1 8656 -0.550000 15.99940
8657 OM 8657 OM OM1 8657 -0.550000 15.99940
8658 OM 8658 OM OM1 8658 -0.550000 15.99940
8659 OM 8659 OM OM1 8659 -0.550000 15.99940
8660 OM 8660 OM OM1 8660 -0.550000 15.99940
8661 OM 8661 OM OM1 8661 -0.550000 15.99940
8662 OM 8662 OM OM1 8662 -0.550000 15.99940
8663 OM 8663 OM OM1 8663 -0.550000 15.99940
8664 OM 8664 OM OM1 8664 -0.550000 15.99940
8665 OM 8665 OM OM1 8665 -0.550000 15.99940
8666 OM 8666 OM OM1 8666 -0.550000 15.99940
8667 OM 8667 OM OM1 8667 -0.550000 15.99940
8668 OM 8668 OM OM1 8668 -0.550000 15.99940
8669 OM 8669 OM OM1 8669 -0.550000 15.99940
8670 OM 8670 OM OM1 8670 -0.550000 15.99940
8671 OM 8671 OM OM1 8671 -0.550000 15.99940
8672 OM 8672 OM OM1 8672 -0.550000 15.99940
8673 OM 8673 OM OM1 8673 -0.550000 15.99940
8674 OM 8674 OM OM1 8674 -0.550000 15.99940
8675 OM 8675 OM OM1 8675 -0.550000 15.99940
8676 OM 8676 OM OM1 8676 -0.550000 15.99940
8677 OM 8677 OM OM1 8677 -0.550000 15.99940
8678 OM 8678 OM OM1 8678 -0.550000 15.99940
8679 OM 8679 OM OM1 8679 -0.550000 15.99940
8680 OM 8680 OM OM1 8680 -0.550000 15.99940
8681 OM 8681 OM OM1 8681 -0.550000 15.99940
8682 OM 8682 OM OM1 8682 -0.550000 15.99940
8683 OM 8683 OM OM1 8683 -0.550000 15.99940
8684 OM 8684 OM OM1 8684 -0.550000 15.99940
8685 OM 8685 OM OM1 8685 -0.550000 15.99940
8686 OM 8686 OM OM1 8686 -0.550000 15.99940
8687 OM 8687 OM OM1 8687 -0.550000 15.99940
8688 OM 8688 OM OM1 8688 -0.550000 15.99940
8689 OM 8689 OM OM1 8689 -0.550000 15.99940
8690 OM 8690 OM OM1 8690 -0.550000 15.99940
8691 OM 8691 OM OM1 8691 -0.550000 15.99940
8692 OM 8692 OM OM1 8692 -0.550000 15.99940
8693 OM 8693 OM OM1 8693 -0.550000 15.99940
8694 OM 8694 OM OM1 8694 -0.550000 15.99940
8695 OM 8695 OM OM1 8695 -0.550000 15.99940
8696 OM 8696 OM OM1 8696 -0.550000 15.99940
8697 OM 8697 OM OM1 8697 -0.550000 15.99940
8698 OM 8698 OM OM1 8698 -0.550000 15.99940
8699 OM 8699 OM OM1 8699 -0.550000 15.99940
8700 OM 8700 OM OM1 8700 -0.550000 15.99940
8701 OM 8701 OM OM1 8701 -0.550000 15.99940
8702 OM 8702 OM OM1 8702 -0.550000 15.99940
8703 OM 8703 OM OM1 8703 -0.550000 15.99940
8704 OM 8704 OM OM1 8704 -0.550000 15.99940
8705 OM 8705 OM OM1 8705 -0.550000 15.99940
8706 OM 8706 OM OM1 8706 -0.550000 15.99940
8707 OM 8707 OM OM1 8707 -0.550000 15.99940
8708 OM 8708 OM OM1 8708 -0.550000 15.99940
8709 OM 8709 OM OM1 8709 -0.550000 15.99940
8710 OM 8710 OM OM1 8710 -0.550000 15.99940
8711 OM 8711 OM OM1 8711 -0.550000 15.99940
8712 OM 8712 OM OM1 8712 -0.550000 15.99940
8713 OM 8713 OM OM1 8713 -0.550000 15.99940
8714 OM 8714 OM OM1 8714 -0.550000 15.99940
8715 OM 8715 OM OM1 8715 -0.550000 15.99940
8716 OM 8716 OM OM1 8716 -0.550000 15.99940
8717 OM 8717 OM OM1 8717 -0.550000 15.99940
8718 OM 8718 OM OM1 8718 -0.550000 15.99940
8719 OM 8719 OM OM1 8719 -0.550000 15.99940
8720 OM 8720 OM OM1 8720 -0.550000 15.99940
8721 OM 8721 OM OM1 8721 -0.550000 15.99940
8722 OM 8722 OM OM1 8722 -0.550000 15.99940
8723 OM 8723 OM OM1 8723 -0.550000 15.99940
8724 OM 8724 OM OM1 8724 -0.550000 15.99940
8725 OM 8725 OM OM1 8725 -0.550000 15.99940
8726 OM 8726 OM OM1 8726 -0.550000 15.99940
8727 OM 8727 OM OM1 8727 -0.550000 15.99940
8728 OM 8728 OM OM1 8728 -0.550000 15.99940
8729 OM 8729 OM OM1 8729 -0.550000 15.99940
8730 OM 8730 OM OM1 8730 -0.550000 15.99940
8731 OM 8731 OM OM1 8731 -0.550000 15.99940
8732 OM 8732 OM OM1 8732 -0.550000 15.99940
8733 OM 8733 OM OM1 8733 -0.550000 15.99940
8734 OM 8734 OM OM1 8734 -0.550000 15.99940
8735 OM 8735 OM OM1 8735 -0.550000 15.99940
8736 OM 8736 OM OM1 8736 -0.550000 15.99940
8737 OM 8737 OM OM1 8737 -0.550000 15.99940
8738 OM 8738 OM OM1 8738 -0.550000 15.99940
8739 OM 8739 OM OM1 8739 -0.550000 15.99940
8740 OM 8740 OM OM1 8740 -0.550000 15.99940
8741 OM 8741 OM OM1 8741 -0.550000 15.99940
8742 OM 8742 OM OM1 8742 -0.550000 15.99940
8743 OM 8743 OM OM1 8743 -0.550000 15.99940
8744 OM 8744 OM OM1 8744 -0.550000 15.99940
8745 OM 8745 OM OM1 8745 -0.550000 15.99940
8746 OM 8746 OM OM1 8746 -0.550000 15.99940
8747 OM 8747 OM OM1 8747 -0.550000 15.99940
8748 OM 8748 OM OM1 8748 -0.550000 15.99940
8749 OM 8749 OM OM1 8749 -0.550000 15.99940
8750 OM 8750 OM OM1 8750 -0.550000 15.99940
8751 OM 8751 OM OM1 8751 -0.550000 15.99940
8752 OM 8752 OM OM1 8752 -0.550000 15.99940
8753 OM 8753 OM OM1 8753 -0.550000 15.99940
8754 OM 8754 OM OM1 8754 -0.550000 15.99940
8755 OM 8755 OM OM1 8755 -0.550000 15.99940
8756 OM 8756 OM OM1 8756 -0.550000 15.99940
8757 OM 8757 OM OM1 8757 -0.550000 15.99940
8758 OM 8758 OM OM1 8758 -0.550000 15.99940
8759 OM 8759 OM OM1 8759 -0.550000 15.99940
8760 OM 8760 OM OM1 8760 -0.550000 15.99940
8761 OM 8761 OM OM1 8761 -0.550000 15.99940
8762 OM 8762 OM OM1 8762 -0.550000 15.99940
8763 OM 8763 OM OM1 8763 -0.550000 15.99940
8764 OM 8764 OM OM1 8764 -0.550000 15.99940
8765 OM 8765 OM OM1 8765 -0.550000 15.99940
8766 OM 8766 OM OM1 8766 -0.550000 15.99940
8767 OM 8767 OM OM1 8767 -0.550000 15.99940
8768 OM 8768 OM OM1 8768 -0.550000 15.99940
8769 OM 8769 OM OM1 8769 -0.550000 15.99940
8770 OM 8770 OM OM1 8770 -0.550000 15.99940
8771 OM 8771 OM OM1 8771 -0.550000 15.99940
8772 OM 8772 OM OM1 8772 -0.550000 15.99940
8773 OM 8773 OM OM1 8773 -0.550000 15.99940
8774 OM 8774 OM OM1 8774 -0.550000 15.99940
8775 OM 8775 OM OM1 8775 -0.550000 15.99940
8776 OM 8776 OM OM1 8776 -0.550000 15.99940
8777 OM 8777 OM OM1 8777 -0.550000 15.99940
8778 OM 8778 OM OM1 8778 -0.550000 15.99940
8779 OM 8779 OM OM1 8779 -0.550000 15.99940
8780 OM 8780 OM OM1 8780 -0.550000 15.99940
8781 OM 8781 OM OM1 8781 -0.550000 15.99940
8782 OM 8782 OM OM1 8782 -0.550000 15.99940
8783 OM 8783 OM OM1 8783 -0.550000 15.99940
8784 OM 8784 OM OM1 8784 -0.550000 15.99940
8785 OM 8785 OM OM1 8785 -0.550000 15.99940
8786 OM 8786 OM OM1 8786 -0.550000 15.99940
8787 OM 8787 OM OM1 8787 -0.550000 15.99940
8788 OM 8788 OM OM1 8788 -0.550000 15.99940
8789 OM 8789 OM OM1 8789 -0.550000 15.99940
8790 OM 8790 OM OM1 8790 -0.550000 15.99940
8791 OM 8791 OM OM1 8791 -0.550000 15.99940
8792 OM 8792 OM OM1 8792 -0.550000 15.99940
8793 OM 8793 OM OM1 8793 -0.550000 15.99940
8794 OM 8794 OM OM1 8794 -0.550000 15.99940
8795 OM 8795 OM OM1 8795 -0.550000 15.99940
8796 OM 8796 OM OM1 8796 -0.550000 15.99940
8797 OM 8797 OM OM1 8797 -0.550000 15.99940
8798 OM 8798 OM OM1 8798 -0.550000 15.99940
8799 OM 8799 OM OM1 8799 -0.550000 15.99940
8800 OM 8800 OM OM1 8800 -0.550000 15.99940
8801 OM 8801 OM OM1 8801 -0.550000 15.99940
8802 OM 8802 OM OM1 8802 -0.550000 15.99940
8803 OM 8803 OM OM1 8803 -0.550000 15.99940
8804 OM 8804 OM OM1 8804 -0.550000 15.99940
8805 OM 8805 OM OM1 8805 -0.550000 15.99940
8806 OM 8806 OM OM1 8806 -0.550000 15.99940
8807 OM 8807 OM OM1 8807 -0.550000 15.99940
8808 OM 8808 OM OM1 8808 -0.550000 15.99940
8809 OM 8809 OM OM1 8809 -0.550000 15.99940
8810 OM 8810 OM OM1 8810 -0.550000 15.99940
8811 OM 8811 OM OM1 8811 -0.550000 15.99940
8812 OM 8812 OM OM1 8812 -0.550000 15.99940
8813 OM 8813 OM OM1 8813 -0.550000 15.99940
8814 OM 8814 OM OM1 8814 -0.550000 15.99940
8815 OM 8815 OM OM1 8815 -0.550000 15.99940
8816 OM 8816 OM OM1 8816 -0.550000 15.99940
8817 OM 8817 OM OM1 8817 -0.550000 15.99940
8818 OM 8818 OM OM1 8818 -0.550000 15.99940
8819 OM 8819 OM OM1 8819 -0.550000 15.99940
8820 OM 8820 OM OM1 8820 -0.550000 15.99940
8821 OM 8821 OM OM1 8821 -0.550000 15.99940
8822 OM 8822 OM OM1 8822 -0.550000 15.99940
8823 OM 8823 OM OM1 8823 -0.550000 15.99940
8824 OM 8824 OM OM1 8824 -0.550000 15.99940
8825 OM 8825 OM OM1 8825 -0.550000 15.99940
8826 OM 8826 OM OM1 8826 -0.550000 15.99940
8827 OM 8827 OM OM1 8827 -0.550000 15.99940
8828 OM 8828 OM OM1 8828 -0.550000 15.99940
8829 OM 8829 OM OM1 8829 -0.550000 15.99940
8830 OM 8830 OM OM1 8830 -0.550000 15.99940
8831 OM 8831 OM OM1 8831 -0.550000 15.99940
8832 OM 8832 OM OM1 8832 -0.550000 15.99940
8833 OM 8833 OM OM1 8833 -0.550000 15.99940
8834 OM 8834 OM OM1 8834 -0.550000 15.99940
8835 OM 8835 OM OM1 8835 -0.550000 15.99940
8836 OM 8836 OM OM1 8836 -0.550000 15.99940
8837 OM 8837 OM OM1 8837 -0.550000 15.99940
8838 OM 8838 OM OM1 8838 -0.550000 15.99940
8839 OM 8839 OM OM1 8839 -0.550000 15.99940
8840 OM 8840 OM OM1 8840 -0.550000 15.99940
8841 OM 8841 OM OM1 8841 -0.550000 15.99940
8842 OM 8842 OM OM1 8842 -0.550000 15.99940
8843 OM 8843 OM OM1 8843 -0.550000 15.99940
8844 OM 8844 OM OM1 8844 -0.550000 15.99940
8845 OM 8845 OM OM1 8845 -0.550000 15.99940
8846 OM 8846 OM OM1 8846 -0.550000 15.99940
8847 OM 8847 OM OM1 8847 -0.550000 15.99940
8848 OM 8848 OM OM1 8848 -0.550000 15.99940
8849 OM 8849 OM OM1 8849 -0.550000 15.99940
8850 OM 8850 OM OM1 8850 -0.550000 15.99940
8851 OM 8851 OM OM1 8851 -0.550000 15.99940
8852 OM 8852 OM OM1 8852 -0.550000 15.99940
8853 OM 8853 OM OM1 8853 -0.550000 15.99940
8854 OM 8854 OM OM1 8854 -0.550000 15.99940
8855 OM 8855 OM OM1 8855 -0.550000 15.99940
8856 OM 8856 OM OM1 8856 -0.550000 15.99940
8857 OM 8857 OM OM1 8857 -0.550000 15.99940
8858 OM 8858 OM OM1 8858 -0.550000 15.99940
8859 OM 8859 OM OM1 8859 -0.550000 15.99940
8860 OM 8860 OM OM1 8860 -0.550000 15.99940
8861 OM 8861 OM OM1 8861 -0.550000 15.99940
8862 OM 8862 OM OM1 8862 -0.550000 15.99940
8863 OM 8863 OM OM1 8863 -0.550000 15.99940
8864 OM 8864 OM OM1 8864 -0.550000 15.99940
8865 OM 8865 OM OM1 8865 -0.550000 15.99940
8866 OM 8866 OM OM1 8866 -0.550000 15.99940
8867 OM 8867 OM OM1 8867 -0.550000 15.99940
8868 OM 8868 OM OM1 8868 -0.550000 15.99940
8869 OM 8869 OM OM1 8869 -0.550000 15.99940
8870 OM 8870 OM OM1 8870 -0.550000 15.99940
8871 OM 8871 OM OM1 8871 -0.550000 15.99940
8872 OM 8872 OM OM1 8872 -0.550000 15.99940
8873 OM 8873 OM OM1 8873 -0.550000 15.99940
8874 OM 8874 OM OM1 8874 -0.550000 15.99940
8875 OM 8875 OM OM1 8875 -0.550000 15.99940
8876 OM 8876 OM OM1 8876 -0.550000 15.99940
8877 OM 8877 OM OM1 8877 -0.550000 15.99940
8878 OM 8878 OM OM1 8878 -0.550000 15.99940
8879 OM 8879 OM OM1 8879 -0.550000 15.99940
8880 OM 8880 OM OM1 8880 -0.550000 15.99940
8881 OM 8881 OM OM1 8881 -0.550000 15.99940
8882 OM 8882 OM OM1 8882 -0.550000 15.99940
8883 OM 8883 OM OM1 8883 -0.550000 15.99940
8884 OM 8884 OM OM1 8884 -0.550000 15.99940
8885 OM 8885 OM OM1 8885 -0.550000 15.99940
8886 OM 8886 OM OM1 8886 -0.550000 15.99940
8887 OM 8887 OM OM1 8887 -0.550000 15.99940
8888 OM 8888 OM OM1 8888 -0.550000 15.99940
8889 OM 8889 OM OM1 8889 -0.550000 15.99940
8890 OM 8890 OM OM1 8890 -0.550000 15.99940
8891 OM 8891 OM OM1 8891 -0.550000 15.99940
8892 OM 8892 OM OM1 8892 -0.550000 15.99940
8893 OM 8893 OM OM1 8893 -0.550000 15.99940
8894 OM 8894 OM OM1 8894 -0.550000 15.99940
8895 OM 8895 OM OM1 8895 -0.550000 15.99940
8896 OM 8896 OM OM1 8896 -0.550000 15.99940
8897 OM 8897 OM OM1 8897 -0.550000 15.99940
8898 OM 8898 OM OM1 8898 -0.550000 15.99940
8899 OM 8899 OM OM1 8899 -0.550000 15.99940
8900 OM 8900 OM OM1 8900 -0.550000 15.99940
8901 OM 8901 OM OM1 8901 -0.550000 15.99940
8902 OM 8902 OM OM1 8902 -0.550000 15.99940
8903 OM 8903 OM OM1 8903 -0.550000 15.99940
8904 OM 8904 OM OM1 8904 -0.550000 15.99940
8905 OM 8905 OM OM1 8905 -0.550000 15.99940
8906 OM 8906 OM OM1 8906 -0.550000 15.99940
8907 OM 8907 OM OM1 8907 -0.550000 15.99940
8908 OM 8908 OM OM1 8908 -0.550000 15.99940
8909 OM 8909 OM OM1 8909 -0.550000 15.99940
8910 OM 8910 OM OM1 8910 -0.550000 15.99940
8911 OM 8911 OM OM1 8911 -0.550000 15.99940
8912 OM 8912 OM OM1 8912 -0.550000 15.99940
8913 OM 8913 OM OM1 8913 -0.550000 15.99940
8914 OM 8914 OM OM1 8914 -0.550000 15.99940
8915 OM 8915 OM OM1 8915 -0.550000 15.99940
8916 OM 8916 OM OM1 8916 -0.550000 15.99940
8917 OM 8917 OM OM1 8917 -0.550000 15.99940
8918 OM 8918 OM OM1 8918 -0.550000 15.99940
8919 OM 8919 OM OM1 8919 -0.550000 15.99940
8920 OM 8920 OM OM1 8920 -0.550000 15.99940
8921 OM 8921 OM OM1 8921 -0.550000 15.99940
8922 OM 8922 OM OM1 8922 -0.550000 15.99940
8923 OM 8923 OM OM1 8923 -0.550000 15.99940
8924 OM 8924 OM OM1 8924 -0.550000 15.99940
8925 OM 8925 OM OM1 8925 -0.550000 15.99940
8926 OM 8926 OM OM1 8926 -0.550000 15.99940
8927 OM 8927 OM OM1 8927 -0.550000 15.99940
8928 OM 8928 OM OM1 8928 -0.550000 15.99940
8929 OM 8929 OM OM1 8929 -0.550000 15.99940
8930 OM 8930 OM OM1 8930 -0.550000 15.99940
8931 OM 8931 OM OM1 8931 -0.550000 15.99940
8932 OM 8932 OM OM1 8932 -0.550000 15.99940
8933 OM 8933 OM OM1 8933 -0.550000 15.99940
8934 OM 8934 OM OM1 8934 -0.550000 15.99940
8935 OM 8935 OM OM1 8935 -0.550000 15.99940
8936 OM 8936 OM OM1 8936 -0.550000 15.99940
8937 OM 8937 OM OM1 8937 -0.550000 15.99940
8938 OM 8938 OM OM1 8938 -0.550000 15.99940
8939 OM 8939 OM OM1 8939 -0.550000 15.99940
8940 OM 8940 OM OM1 8940 -0.550000 15.99940
8941 OM 8941 OM OM1 8941 -0.550000 15.99940
8942 OM 8942 OM OM1 8942 -0.550000 15.99940
8943 OM 8943 OM OM1 8943 -0.550000 15.99940
8944 OM 8944 OM OM1 8944 -0.550000 15.99940
8945 OM 8945 OM OM1 8945 -0.550000 15.99940
8946 OM 8946 OM OM1 8946 -0.550000 15.99940
8947 OM 8947 OM OM1 8947 -0.550000 15.99940
8948 OM 8948 OM OM1 8948 -0.550000 15.99940
8949 OM 8949 OM OM1 8949 -0.550000 15.99940
8950 OM 8950 OM OM1 8950 -0.550000 15.99940
8951 OM 8951 OM OM1 8951 -0.550000 15.99940
8952 OM 8952 OM OM1 8952 -0.550000 15.99940
8953 OM 8953 OM OM1 8953 -0.550000 15.99940
8954 OM 8954 OM OM1 8954 -0.550000 15.99940
8955 OM 8955 OM OM1 8955 -0.550000 15.99940
8956 OM 8956 OM OM1 8956 -0.550000 15.99940
8957 OM 8957 OM OM1 8957 -0.550000 15.99940
8958 OM 8958 OM OM1 8958 -0.550000 15.99940
8959 OM 8959 OM OM1 8959 -0.550000 15.99940
8960 OM 8960 OM OM1 8960 -0.550000 15.99940
8961 OM 8961 OM OM1 8961 -0.550000 15.99940
8962 OM 8962 OM OM1 8962 -0.550000 15.99940
8963 OM 8963 OM OM1 8963 -0.550000 15.99940
8964 OM 8964 OM OM1 8964 -0.550000 15.99940
8965 OM 8965 OM OM1 8965 -0.550000 15.99940
8966 OM 8966 OM OM1 8966 -0.550000 15.99940
8967 OM 8967 OM OM1 8967 -0.550000 15.99940
8968 OM 8968 OM OM1 8968 -0.550000 15.99940
8969 OM 8969 OM OM1 8969 -0.550000 15.99940
8970 OM 8970 OM OM1 8970 -0.550000 15.99940
8971 OM 8971 OM OM1 8971 -0.550000 15.99940
8972 OM 8972 OM OM1 8972 -0.550000 15.99940
8973 OM 8973 OM OM1 8973 -0.550000 15.99940
8974 OM 8974 OM OM1 8974 -0.550000 15.99940
8975 OM 8975 OM OM1 8975 -0.550000 15.99940
8976 OM 8976 OM OM1 8976 -0.550000 15.99940
8977 OM 8977 OM OM1 8977 -0.550000 15.99940
8978 OM 8978 OM OM1 8978 -0.550000 15.99940
8979 OM 8979 OM OM1 8979 -0.550000 15.99940
8980 OM 8980 OM OM1 8980 -0.550000 15.99940
8981 OM 8981 OM OM1 8981 -0.550000 15.99940
8982 OM 8982 OM OM1 8982 -0.550000 15.99940
8983 OM 8983 OM OM1 8983 -0.550000 15.99940
8984 OM 8984 OM OM1 8984 -0.550000 15.99940
8985 OM 8985 OM OM1 8985 -0.550000 15.99940
8986 OM 8986 OM OM1 8986 -0.550000 15.99940
8987 OM 8987 OM OM1 8987 -0.550000 15.99940
8988 OM 8988 OM OM1 8988 -0.550000 15.99940
8989 OM 8989 OM OM1 8989 -0.550000 15.99940
8990 OM 8990 OM OM1 8990 -0.550000 15.99940
8991 OM 8991 OM OM1 8991 -0.550000 15.99940
8992 OM 8992 OM OM1 8992 -0.550000 15.99940
8993 OM 8993 OM OM1 8993 -0.550000 15.99940
8994 OM 8994 OM OM1 8994 -0.550000 15.99940
8995 OM 8995 OM OM1 8995 -0.550000 15.99940
8996 OM 8996 OM OM1 8996 -0.550000 15.99940
8997 OM 8997 OM OM1 8997 -0.550000 15.99940
8998 OM 8998 OM OM1 8998 -0.550000 15.99940
8999 OM 8999 OM OM1 8999 -0.550000 15.99940
9000 OM 9000 OM OM1 9000 -0.550000 15.99940
9001 OM 9001 OM OM1 9001 -0.550000 15.99940
9002 OM 9002 OM OM1 9002 -0.550000 15.99940
9003 OM 9003 OM OM1 9003 -0.550000 15.99940
9004 OM 9004 OM OM1 9004 -0.550000 15.99940
9005 OM 9005 OM OM1 9005 -0.550000 15.99940
9006 OM 9006 OM OM1 9006 -0.550000 15.99940
9007 OM 9007 OM OM1 9007 -0.550000 15.99940
9008 OM 9008 OM OM1 9008 -0.550000 15.99940
9009 OM 9009 OM OM1 9009 -0.550000 15.99940
9010 OM 9010 OM OM1 9010 -0.550000 15.99940
9011 OM 9011 OM OM1 9011 -0.550000 15.99940
9012 OM 9012 OM OM1 9012 -0.550000 15.99940
9013 OM 9013 OM OM1 9013 -0.550000 15.99940
9014 OM 9014 OM OM1 9014 -0.550000 15.99940
9015 OM 9015 OM OM1 9015 -0.550000 15.99940
9016 OM 9016 OM OM1 9016 -0.550000 15.99940
9017 OM 9017 OM OM1 9017 -0.550000 15.99940
9018 OM 9018 OM OM1 9018 -0.550000 15.99940
9019 OM 9019 OM OM1 9019 -0.550000 15.99940
9020 OM 9020 OM OM1 9020 -0.550000 15.99940
9021 OM 9021 OM OM1 9021 -0.550000 15.99940
9022 OM 9022 OM OM1 9022 -0.550000 15.99940
9023 OM 9023 OM OM1 9023 -0.550000 15.99940
9024 OM 9024 OM OM1 9024 -0.550000 15.99940
9025 OM 9025 OM OM1 9025 -0.550000 15.99940
9026 OM 9026 OM OM1 9026 -0.550000 15.99940
9027 OM 9027 OM OM1 9027 -0.550000 15.99940
9028 OM 9028 OM OM1 9028 -0.550000 15.99940
9029 OM 9029 OM OM1 9029 -0.550000 15.99940
9030 OM 9030 OM OM1 9030 -0.550000 15.99940
9031 OM 9031 OM OM1 9031 -0.550000 15.99940
9032 OM 9032 OM OM1 9032 -0.550000 15.99940
9033 OM 9033 OM OM1 9033 -0.550000 15.99940
9034 OM 9034 OM OM1 9034 -0.550000 15.99940
9035 OM 9035 OM OM1 9035 -0.550000 15.99940
9036 OM 9036 OM OM1 9036 -0.550000 15.99940
9037 OM 9037 OM OM1 9037 -0.550000 15.99940
9038 OM 9038 OM OM1 9038 -0.550000 15.99940
9039 OM 9039 OM OM1 9039 -0.550000 15.99940
9040 OM 9040 OM OM1 9040 -0.550000 15.99940
9041 OM 9041 OM OM1 9041 -0.550000 15.99940
9042 OM 9042 OM OM1 9042 -0.550000 15.99940
9043 OM 9043 OM OM1 9043 -0.550000 15.99940
9044 OM 9044 OM OM1 9044 -0.550000 15.99940
9045 OM 9045 OM OM1 9045 -0.550000 15.99940
9046 OM 9046 OM OM1 9046 -0.550000 15.99940
9047 OM 9047 OM OM1 9047 -0.550000 15.99940
9048 OM 9048 OM OM1 9048 -0.550000 15.99940
9049 OM 9049 OM OM1 9049 -0.550000 15.99940
9050 OM 9050 OM OM1 9050 -0.550000 15.99940
9051 OM 9051 OM OM1 9051 -0.550000 15.99940
9052 OM 9052 OM OM1 9052 -0.550000 15.99940
9053 OM 9053 OM OM1 9053 -0.550000 15.99940
9054 OM 9054 OM OM1 9054 -0.550000 15.99940
9055 OM 9055 OM OM1 9055 -0.550000 15.99940
9056 OM 9056 OM OM1 9056 -0.550000 15.99940
9057 OM 9057 OM OM1 9057 -0.550000 15.99940
9058 OM 9058 OM OM1 9058 -0.550000 15.99940
9059 OM 9059 OM OM1 9059 -0.550000 15.99940
9060 OM 9060 OM OM1 9060 -0.550000 15.99940
9061 OM 9061 OM OM1 9061 -0.550000 15.99940
9062 OM 9062 OM OM1 9062 -0.550000 15.99940
9063 OM 9063 OM OM1 9063 -0.550000 15.99940
9064 OM 9064 OM OM1 9064 -0.550000 15.99940
9065 OM 9065 OM OM1 9065 -0.550000 15.99940
9066 OM 9066 OM OM1 9066 -0.550000 15.99940
9067 OM 9067 OM OM1 9067 -0.550000 15.99940
9068 OM 9068 OM OM1 9068 -0.550000 15.99940
9069 OM 9069 OM OM1 9069 -0.550000 15.99940
9070 OM 9070 OM OM1 9070 -0.550000 15.99940
9071 OM 9071 OM OM1 9071 -0.550000 15.99940
9072 OM 9072 OM OM1 9072 -0.550000 15.99940
9073 OM 9073 OM OM1 9073 -0.550000 15.99940
9074 OM 9074 OM OM1 9074 -0.550000 15.99940
9075 OM 9075 OM OM1 9075 -0.550000 15.99940
9076 OM 9076 OM OM1 9076 -0.550000 15.99940
9077 OM 9077 OM OM1 9077 -0.550000 15.99940
9078 OM 9078 OM OM1 9078 -0.550000 15.99940
9079 OM 9079 OM OM1 9079 -0.550000 15.99940
9080 OM 9080 OM OM1 9080 -0.550000 15.99940
9081 OM 9081 OM OM1 9081 -0.550000 15.99940
9082 OM 9082 OM OM1 9082 -0.550000 15.99940
9083 OM 9083 OM OM1 9083 -0.550000 15.99940
9084 OM 9084 OM OM1 9084 -0.550000 15.99940
9085 OM 9085 OM OM1 9085 -0.550000 15.99940
9086 OM 9086 OM OM1 9086 -0.550000 15.99940
9087 OM 9087 OM OM1 9087 -0.550000 15.99940
9088 OM 9088 OM OM1 9088 -0.550000 15.99940
9089 OM 9089 OM OM1 9089 -0.550000 15.99940
9090 OM 9090 OM OM1 9090 -0.550000 15.99940
9091 OM 9091 OM OM1 9091 -0.550000 15.99940
9092 OM 9092 OM OM1 9092 -0.550000 15.99940
9093 OM 9093 OM OM1 9093 -0.550000 15.99940
9094 OM 9094 OM OM1 9094 -0.550000 15.99940
9095 OM 9095 OM OM1 9095 -0.550000 15.99940
9096 OM 9096 OM OM1 9096 -0.550000 15.99940
9097 OM 9097 OM OM1 9097 -0.550000 15.99940
9098 OM 9098 OM OM1 9098 -0.550000 15.99940
9099 OM 9099 OM OM1 9099 -0.550000 15.99940
9100 OM 9100 OM OM1 9100 -0.550000 15.99940
9101 OM 9101 OM OM1 9101 -0.550000 15.99940
9102 OM 9102 OM OM1 9102 -0.550000 15.99940
9103 OM 9103 OM OM1 9103 -0.550000 15.99940
9104 OM 9104 OM OM1 9104 -0.550000 15.99940
9105 OM 9105 OM OM1 9105 -0.550000 15.99940
9106 OM 9106 OM OM1 9106 -0.550000 15.99940
9107 OM 9107 OM OM1 9107 -0.550000 15.99940
9108 OM 9108 OM OM1 9108 -0.550000 15.99940
9109 OM 9109 OM OM1 9109 -0.550000 15.99940
9110 OM 9110 OM OM1 9110 -0.550000 15.99940
9111 OM 9111 OM OM1 9111 -0.550000 15.99940
9112 OM 9112 OM OM1 9112 -0.550000 15.99940
9113 OM 9113 OM OM1 9113 -0.550000 15.99940
9114 OM 9114 OM OM1 9114 -0.550000 15.99940
9115 OM 9115 OM OM1 9115 -0.550000 15.99940
9116 OM 9116 OM OM1 9116 -0.550000 15.99940
9117 OM 9117 OM OM1 9117 -0.550000 15.99940
9118 OM 9118 OM OM1 9118 -0.550000 15.99940
9119 OM 9119 OM OM1 9119 -0.550000 15.99940
9120 OM 9120 OM OM1 9120 -0.550000 15.99940
9121 OM 9121 OM OM1 9121 -0.550000 15.99940
9122 OM 9122 OM OM1 9122 -0.550000 15.99940
9123 OM 9123 OM OM1 9123 -0.550000 15.99940
9124 OM 9124 OM OM1 9124 -0.550000 15.99940
9125 OM 9125 OM OM1 9125 -0.550000 15.99940
9126 OM 9126 OM OM1 9126 -0.550000 15.99940
9127 OM 9127 OM OM1 9127 -0.550000 15.99940
9128 OM 9128 OM OM1 9128 -0.550000 15.99940
9129 OM 9129 OM OM1 9129 -0.550000 15.99940
9130 OM 9130 OM OM1 9130 -0.550000 15.99940
9131 OM 9131 OM OM1 9131 -0.550000 15.99940
9132 OM 9132 OM OM1 9132 -0.550000 15.99940
9133 OM 9133 OM OM1 9133 -0.550000 15.99940
9134 OM 9134 OM OM1 9134 -0.550000 15.99940
9135 OM 9135 OM OM1 9135 -0.550000 15.99940
9136 OM 9136 OM OM1 9136 -0.550000 15.99940
9137 OM 9137 OM OM1 9137 -0.550000 15.99940
9138 OM 9138 OM OM1 9138 -0.550000 15.99940
9139 OM 9139 OM OM1 9139 -0.550000 15.99940
9140 OM 9140 OM OM1 9140 -0.550000 15.99940
9141 OM 9141 OM OM1 9141 -0.550000 15.99940
9142 OM 9142 OM OM1 9142 -0.550000 15.99940
9143 OM 9143 OM OM1 9143 -0.550000 15.99940
9144 OM 9144 OM OM1 9144 -0.550000 15.99940
9145 OM 9145 OM OM1 9145 -0.550000 15.99940
9146 OM 9146 OM OM1 9146 -0.550000 15.99940
9147 OM 9147 OM OM1 9147 -0.550000 15.99940
9148 OM 9148 OM OM1 9148 -0.550000 15.99940
9149 OM 9149 OM OM1 9149 -0.550000 15.99940
9150 OM 9150 OM OM1 9150 -0.550000 15.99940
9151 OM 9151 OM OM1 9151 -0.550000 15.99940
9152 OM 9152 OM OM1 9152 -0.550000 15.99940
9153 OM 9153 OM OM1 9153 -0.550000 15.99940
9154 OM 9154 OM OM1 9154 -0.550000 15.99940
9155 OM 9155 OM OM1 9155 -0.550000 15.99940
9156 OM 9156 OM OM1 9156 -0.550000 15.99940
9157 OM 9157 OM OM1 9157 -0.550000 15.99940
9158 OM 9158 OM OM1 9158 -0.550000 15.99940
9159 OM 9159 OM OM1 9159 -0.550000 15.99940
9160 OM 9160 OM OM1 9160 -0.550000 15.99940
9161 OM 9161 OM OM1 9161 -0.550000 15.99940
9162 OM 9162 OM OM1 9162 -0.550000 15.99940
9163 OM 9163 OM OM1 9163 -0.550000 15.99940
9164 OM 9164 OM OM1 9164 -0.550000 15.99940
9165 OM 9165 OM OM1 9165 -0.550000 15.99940
9166 OM 9166 OM OM1 9166 -0.550000 15.99940
9167 OM 9167 OM OM1 9167 -0.550000 15.99940
9168 OM 9168 OM OM1 9168 -0.550000 15.99940
9169 OM 9169 OM OM1 9169 -0.550000 15.99940
9170 OM 9170 OM OM1 9170 -0.550000 15.99940
9171 OM 9171 OM OM1 9171 -0.550000 15.99940
9172 OM 9172 OM OM1 9172 -0.550000 15.99940
9173 OM 9173 OM OM1 9173 -0.550000 15.99940
9174 OM 9174 OM OM1 9174 -0.550000 15.99940
9175 OM 9175 OM OM1 9175 -0.550000 15.99940
9176 OM 9176 OM OM1 9176 -0.550000 15.99940
9177 OM 9177 OM OM1 9177 -0.550000 15.99940
9178 OM 9178 OM OM1 9178 -0.550000 15.99940
9179 OM 9179 OM OM1 9179 -0.550000 15.99940
9180 OM 9180 OM OM1 9180 -0.550000 15.99940
9181 OM 9181 OM OM1 9181 -0.550000 15.99940
9182 OM 9182 OM OM1 9182 -0.550000 15.99940
9183 OM 9183 OM OM1 9183 -0.550000 15.99940
9184 OM 9184 OM OM1 9184 -0.550000 15.99940
9185 OM 9185 OM OM1 9185 -0.550000 15.99940
9186 OM 9186 OM OM1 9186 -0.550000 15.99940
9187 OM 9187 OM OM1 9187 -0.550000 15.99940
9188 OM 9188 OM OM1 9188 -0.550000 15.99940
9189 OM 9189 OM OM1 9189 -0.550000 15.99940
9190 OM 9190 OM OM1 9190 -0.550000 15.99940
9191 OM 9191 OM OM1 9191 -0.550000 15.99940
9192 OM 9192 OM OM1 9192 -0.550000 15.99940
9193 OM 9193 OM OM1 9193 -0.550000 15.99940
9194 OM 9194 OM OM1 9194 -0.550000 15.99940
9195 OM 9195 OM OM1 9195 -0.550000 15.99940
9196 OM 9196 OM OM1 9196 -0.550000 15.99940
9197 OM 9197 OM OM1 9197 -0.550000 15.99940
9198 OM 9198 OM OM1 9198 -0.550000 15.99940
9199 OM 9199 OM OM1 9199 -0.550000 15.99940
9200 OM 9200 OM OM1 9200 -0.550000 15.99940
9201 OM 9201 OM OM1 9201 -0.550000 15.99940
9202 OM 9202 OM OM1 9202 -0.550000 15.99940
9203 OM 9203 OM OM1 9203 -0.550000 15.99940
9204 OM 9204 OM OM1 9204 -0.550000 15.99940
9205 OM 9205 OM OM1 9205 -0.550000 15.99940
9206 OM 9206 OM OM1 9206 -0.550000 15.99940
9207 OM 9207 OM OM1 9207 -0.550000 15.99940
9208 OM 9208 OM OM1 9208 -0.550000 15.99940
9209 OM 9209 OM OM1 9209 -0.550000 15.99940
9210 OM 9210 OM OM1 9210 -0.550000 15.99940
9211 OM 9211 OM OM1 9211 -0.550000 15.99940
9212 OM 9212 OM OM1 9212 -0.550000 15.99940
9213 OM 9213 OM OM1 9213 -0.550000 15.99940
9214 OM 9214 OM OM1 9214 -0.550000 15.99940
9215 OM 9215 OM OM1 9215 -0.550000 15.99940
9216 OM 9216 OM OM1 9216 -0.550000 15.99940
9217 OM 9217 OM OM1 9217 -0.550000 15.99940
9218 OM 9218 OM OM1 9218 -0.550000 15.99940
9219 OM 9219 OM OM1 9219 -0.550000 15.99940
9220 OM 9220 OM OM1 9220 -0.550000 15.99940
9221 OM 9221 OM OM1 9221 -0.550000 15.99940
9222 OM 9222 OM OM1 9222 -0.550000 15.99940
9223 OM 9223 OM OM1 9223 -0.550000 15.99940
9224 OM 9224 OM OM1 9224 -0.550000 15.99940
9225 OM 9225 OM OM1 9225 -0.550000 15.99940
9226 OM 9226 OM OM1 9226 -0.550000 15.99940
9227 OM 9227 OM OM1 9227 -0.550000 15.99940
9228 OM 9228 OM OM1 9228 -0.550000 15.99940
9229 OM 9229 OM OM1 9229 -0.550000 15.99940
9230 OM 9230 OM OM1 9230 -0.550000 15.99940
9231 OM 9231 OM OM1 9231 -0.550000 15.99940
9232 OM 9232 OM OM1 9232 -0.550000 15.99940
9233 OM 9233 OM OM1 9233 -0.550000 15.99940
9234 OM 9234 OM OM1 9234 -0.550000 15.99940
9235 OM 9235 OM OM1 9235 -0.550000 15.99940
9236 OM 9236 OM OM1 9236 -0.550000 15.99940
9237 OM 9237 OM OM1 9237 -0.550000 15.99940
9238 OM 9238 OM OM1 9238 -0.550000 15.99940
9239 OM 9239 OM OM1 9239 -0.550000 15.99940
9240 OM 9240 OM OM1 9240 -0.550000 15.99940
9241 OM 9241 OM OM1 9241 -0.550000 15.99940
9242 OM 9242 OM OM1 9242 -0.550000 15.99940
9243 OM 9243 OM OM1 9243 -0.550000 15.99940
9244 OM 9244 OM OM1 9244 -0.550000 15.99940
9245 OM 9245 OM OM1 9245 -0.550000 15.99940
9246 OM 9246 OM OM1 9246 -0.550000 15.99940
9247 OM 9247 OM OM1 9247 -0.550000 15.99940
9248 OM 9248 OM OM1 9248 -0.550000 15.99940
9249 OM 9249 OM OM1 9249 -0.550000 15.99940
9250 OM 9250 OM OM1 9250 -0.550000 15.99940
9251 OM 9251 OM OM1 9251 -0.550000 15.99940
9252 OM 9252 OM OM1 9252 -0.550000 15.99940
9253 OM 9253 OM OM1 9253 -0.550000 15.99940
9254 OM 9254 OM OM1 9254 -0.550000 15.99940
9255 OM 9255 OM OM1 9255 -0.550000 15.99940
9256 OM 9256 OM OM1 9256 -0.550000 15.99940
9257 OM 9257 OM OM1 9257 -0.550000 15.99940
9258 OM 9258 OM OM1 9258 -0.550000 15.99940
9259 OM 9259 OM OM1 9259 -0.550000 15.99940
9260 OM 9260 OM OM1 9260 -0.550000 15.99940
9261 OM 9261 OM OM1 9261 -0.550000 15.99940
9262 OM 9262 OM OM1 9262 -0.550000 15.99940
9263 OM 9263 OM OM1 9263 -0.550000 15.99940
9264 OM 9264 OM OM1 9264 -0.550000 15.99940
9265 OM 9265 OM OM1 9265 -0.550000 15.99940
9266 OM 9266 OM OM1 9266 -0.550000 15.99940
9267 OM 9267 OM OM1 9267 -0.550000 15.99940
9268 OM 9268 OM OM1 9268 -0.550000 15.99940
9269 OM 9269 OM OM1 9269 -0.550000 15.99940
9270 OM 9270 OM OM1 9270 -0.550000 15.99940
9271 OM 9271 OM OM1 9271 -0.550000 15.99940
9272 OM 9272 OM OM1 9272 -0.550000 15.99940
9273 OM 9273 OM OM1 9273 -0.550000 15.99940
9274 OM 9274 OM OM1 9274 -0.550000 15.99940
9275 OM 9275 OM OM1 9275 -0.550000 15.99940
9276 OM 9276 OM OM1 9276 -0.550000 15.99940
9277 OM 9277 OM OM1 9277 -0.550000 15.99940
9278 OM 9278 OM OM1 9278 -0.550000 15.99940
9279 OM 9279 OM OM1 9279 -0.550000 15.99940
9280 OM 9280 OM OM1 9280 -0.550000 15.99940
9281 OM 9281 OM OM1 9281 -0.550000 15.99940
9282 OM 9282 OM OM1 9282 -0.550000 15.99940
9283 OM 9283 OM OM1 9283 -0.550000 15.99940
9284 OM 9284 OM OM1 9284 -0.550000 15.99940
9285 OM 9285 OM OM1 9285 -0.550000 15.99940
9286 OM 9286 OM OM1 9286 -0.550000 15.99940
9287 OM 9287 OM OM1 9287 -0.550000 15.99940
9288 OM 9288 OM OM1 9288 -0.550000 15.99940
9289 OM 9289 OM OM1 9289 -0.550000 15.99940
9290 OM 9290 OM OM1 9290 -0.550000 15.99940
9291 OM 9291 OM OM1 9291 -0.550000 15.99940
9292 OM 9292 OM OM1 9292 -0.550000 15.99940
9293 OM 9293 OM OM1 9293 -0.550000 15.99940
9294 OM 9294 OM OM1 9294 -0.550000 15.99940
9295 OM 9295 OM OM1 9295 -0.550000 15.99940
9296 OM 9296 OM OM1 9296 -0.550000 15.99940
9297 OM 9297 OM OM1 9297 -0.550000 15.99940
9298 OM 9298 OM OM1 9298 -0.550000 15.99940
9299 OM 9299 OM OM1 9299 -0.550000 15.99940
9300 OM 9300 OM OM1 9300 -0.550000 15.99940
9301 OM 9301 OM OM1 9301 -0.550000 15.99940
9302 OM 9302 OM OM1 9302 -0.550000 15.99940
9303 OM 9303 OM OM1 9303 -0.550000 15.99940
9304 OM 9304 OM OM1 9304 -0.550000 15.99940
9305 OM 9305 OM OM1 9305 -0.550000 15.99940
9306 OM 9306 OM OM1 9306 -0.550000 15.99940
9307 OM 9307 OM OM1 9307 -0.550000 15.99940
9308 OM 9308 OM OM1 9308 -0.550000 15.99940
9309 OM 9309 OM OM1 9309 -0.550000 15.99940
9310 OM 9310 OM OM1 9310 -0.550000 15.99940
9311 OM 9311 OM OM1 9311 -0.550000 15.99940
9312 OM 9312 OM OM1 9312 -0.550000 15.99940
9313 OM 9313 OM OM1 9313 -0.550000 15.99940
9314 OM 9314 OM OM1 9314 -0.550000 15.99940
9315 OM 9315 OM OM1 9315 -0.550000 15.99940
9316 OM 9316 OM OM1 9316 -0.550000 15.99940
9317 OM 9317 OM OM1 9317 -0.550000 15.99940
9318 OM 9318 OM OM1 9318 -0.550000 15.99940
9319 OM 9319 OM OM1 9319 -0.550000 15.99940
9320 OM 9320 OM OM1 9320 -0.550000 15.99940
9321 OM 9321 OM OM1 9321 -0.550000 15.99940
9322 OM 9322 OM OM1 9322 -0.550000 15.99940
9323 OM 9323 OM OM1 9323 -0.550000 15.99940
9324 OM 9324 OM OM1 9324 -0.550000 15.99940
9325 OM 9325 OM OM1 9325 -0.550000 15.99940
9326 OM 9326 OM OM1 9326 -0.550000 15.99940
9327 OM 9327 OM OM1 9327 -0.550000 15.99940
9328 OM 9328 OM OM1 9328 -0.550000 15.99940
9329 OM 9329 OM OM1 9329 -0.550000 15.99940
9330 OM 9330 OM OM1 9330 -0.550000 15.99940
9331 OM 9331 OM OM1 9331 -0.550000 15.99940
9332 OM 9332 OM OM1 9332 -0.550000 15.99940
9333 OM 9333 OM OM1 9333 -0.550000 15.99940
9334 OM 9334 OM OM1 9334 -0.550000 15.99940
9335 OM 9335 OM OM1 9335 -0.550000 15.99940
9336 OM 9336 OM OM1 9336 -0.550000 15.99940
9337 OM 9337 OM OM1 9337 -0.550000 15.99940
9338 OM 9338 OM OM1 9338 -0.550000 15.99940
9339 OM 9339 OM OM1 9339 -0.550000 15.99940
9340 OM 9340 OM OM1 9340 -0.550000 15.99940
9341 OM 9341 OM OM1 9341 -0.550000 15.99940
9342 OM 9342 OM OM1 9342 -0.550000 15.99940
9343 OM 9343 OM OM1 9343 -0.550000 15.99940
9344 OM 9344 OM OM1 9344 -0.550000 15.99940
9345 OM 9345 OM OM1 9345 -0.550000 15.99940
9346 OM 9346 OM OM1 9346 -0.550000 15.99940
9347 OM 9347 OM OM1 9347 -0.550000 15.99940
9348 OM 9348 OM OM1 9348 -0.550000 15.99940
9349 OM 9349 OM OM1 9349 -0.550000 15.99940
9350 OM 9350 OM OM1 9350 -0.550000 15.99940
9351 OM 9351 OM OM1 9351 -0.550000 15.99940
9352 OM 9352 OM OM1 9352 -0.550000 15.99940
9353 OM 9353 OM OM1 9353 -0.550000 15.99940
9354 OM 9354 OM OM1 9354 -0.550000 15.99940
9355 OM 9355 OM OM1 9355 -0.550000 15.99940
9356 OM 9356 OM OM1 9356 -0.550000 15.99940
9357 OM 9357 OM OM1 9357 -0.550000 15.99940
9358 OM 9358 OM OM1 9358 -0.550000 15.99940
9359 OM 9359 OM OM1 9359 -0.550000 15.99940
9360 OM 9360 OM OM1 9360 -0.550000 15.99940
9361 OM 9361 OM OM1 9361 -0.550000 15.99940
9362 OM 9362 OM OM1 9362 -0.550000 15.99940
9363 OM 9363 OM OM1 9363 -0.550000 15.99940
9364 OM 9364 OM OM1 9364 -0.550000 15.99940
9365 OM 9365 OM OM1 9365 -0.550000 15.99940
9366 OM 9366 OM OM1 9366 -0.550000 15.99940
9367 OM 9367 OM OM1 9367 -0.550000 15.99940
9368 OM 9368 OM OM1 9368 -0.550000 15.99940
9369 OM 9369 OM OM1 9369 -0.550000 15.99940
9370 OM 9370 OM OM1 9370 -0.550000 15.99940
9371 OM 9371 OM OM1 9371 -0.550000 15.99940
9372 OM 9372 OM OM1 9372 -0.550000 15.99940
9373 OM 9373 OM OM1 9373 -0.550000 15.99940
9374 OM 9374 OM OM1 9374 -0.550000 15.99940
9375 OM 9375 OM OM1 9375 -0.550000 15.99940
9376 OM 9376 OM OM1 9376 -0.550000 15.99940
9377 OM 9377 OM OM1 9377 -0.550000 15.99940
9378 OM 9378 OM OM1 9378 -0.550000 15.99940
9379 OM 9379 OM OM1 9379 -0.550000 15.99940
9380 OM 9380 OM OM1 9380 -0.550000 15.99940
9381 OM 9381 OM OM1 9381 -0.550000 15.99940
9382 OM 9382 OM OM1 9382 -0.550000 15.99940
9383 OM 9383 OM OM1 9383 -0.550000 15.99940
9384 OM 9384 OM OM1 9384 -0.550000 15.99940
9385 OM 9385 OM OM1 9385 -0.550000 15.99940
9386 OM 9386 OM OM1 9386 -0.550000 15.99940
9387 OM 9387 OM OM1 9387 -0.550000 15.99940
9388 OM 9388 OM OM1 9388 -0.550000 15.99940
9389 OM 9389 OM OM1 9389 -0.550000 15.99940
9390 OM 9390 OM OM1 9390 -0.550000 15.99940
9391 OM 9391 OM OM1 9391 -0.550000 15.99940
9392 OM 9392 OM OM1 9392 -0.550000 15.99940
9393 OM 9393 OM OM1 9393 -0.550000 15.99940
9394 OM 9394 OM OM1 9394 -0.550000 15.99940
9395 OM 9395 OM OM1 9395 -0.550000 15.99940
9396 OM 9396 OM OM1 9396 -0.550000 15.99940
9397 OM 9397 OM OM1 9397 -0.550000 15.99940
9398 OM 9398 OM OM1 9398 -0.550000 15.99940
9399 OM 9399 OM OM1 9399 -0.550000 15.99940
9400 OM 9400 OM OM1 9400 -0.550000 15.99940
9401 OM 9401 OM OM1 9401 -0.550000 15.99940
9402 OM 9402 OM OM1 9402 -0.550000 15.99940
9403 OM 9403 OM OM1 9403 -0.550000 15.99940
9404 OM 9404 OM OM1 9404 -0.550000 15.99940
9405 OM 9405 OM OM1 9405 -0.550000 15.99940
9406 OM 9406 OM OM1 9406 -0.550000 15.99940
9407 OM 9407 OM OM1 9407 -0.550000 15.99940
9408 OM 9408 OM OM1 9408 -0.550000 15.99940
9409 OM 9409 OM OM1 9409 -0.550000 15.99940
9410 OM 9410 OM OM1 9410 -0.550000 15.99940
9411 OM 9411 OM OM1 9411 -0.550000 15.99940
9412 OM 9412 OM OM1 9412 -0.550000 15.99940
9413 OM 9413 OM OM1 9413 -0.550000 15.99940
9414 OM 9414 OM OM1 9414 -0.550000 15.99940
9415 OM 9415 OM OM1 9415 -0.550000 15.99940
9416 OM 9416 OM OM1 9416 -0.550000 15.99940
9417 OM 9417 OM OM1 9417 -0.550000 15.99940
9418 OM 9418 OM OM1 9418 -0.550000 15.99940
9419 OM 9419 OM OM1 9419 -0.550000 15.99940
9420 OM 9420 OM OM1 9420 -0.550000 15.99940
9421 OM 9421 OM OM1 9421 -0.550000 15.99940
9422 OM 9422 OM OM1 9422 -0.550000 15.99940
9423 OM 9423 OM OM1 9423 -0.550000 15.99940
9424 OM 9424 OM OM1 9424 -0.550000 15.99940
9425 OM 9425 OM OM1 9425 -0.550000 15.99940
9426 OM 9426 OM OM1 9426 -0.550000 15.99940
9427 OM 9427 OM OM1 9427 -0.550000 15.99940
9428 OM 9428 OM OM1 9428 -0.550000 15.99940
9429 OM 9429 OM OM1 9429 -0.550000 15.99940
9430 OM 9430 OM OM1 9430 -0.550000 15.99940
9431 OM 9431 OM OM1 9431 -0.550000 15.99940
9432 OM 9432 OM OM1 9432 -0.550000 15.99940
9433 OM 9433 OM OM1 9433 -0.550000 15.99940
9434 OM 9434 OM OM1 9434 -0.550000 15.99940
9435 OM 9435 OM OM1 9435 -0.550000 15.99940
9436 OM 9436 OM OM1 9436 -0.550000 15.99940
9437 OM 9437 OM OM1 9437 -0.550000 15.99940
9438 OM 9438 OM OM1 9438 -0.550000 15.99940
9439 OM 9439 OM OM1 9439 -0.550000 15.99940
9440 OM 9440 OM OM1 9440 -0.550000 15.99940
9441 OM 9441 OM OM1 9441 -0.550000 15.99940
9442 OM 9442 OM OM1 9442 -0.550000 15.99940
9443 OM 9443 OM OM1 9443 -0.550000 15.99940
9444 OM 9444 OM OM1 9444 -0.550000 15.99940
9445 OM 9445 OM OM1 9445 -0.550000 15.99940
9446 OM 9446 OM OM1 9446 -0.550000 15.99940
9447 OM 9447 OM OM1 9447 -0.550000 15.99940
9448 OM 9448 OM OM1 9448 -0.550000 15.99940
9449 OM 9449 OM OM1 9449 -0.550000 15.99940
9450 OM 9450 OM OM1 9450 -0.550000 15.99940
9451 OM 9451 OM OM1 9451 -0.550000 15.99940
9452 OM 9452 OM OM1 9452 -0.550000 15.99940
9453 OM 9453 OM OM1 9453 -0.550000 15.99940
9454 OM 9454 OM OM1 9454 -0.550000 15.99940
9455 OM 9455 OM OM1 9455 -0.550000 15.99940
9456 OM 9456 OM OM1 9456 -0.550000 15.99940
9457 OM 9457 OM OM1 9457 -0.550000 15.99940
9458 OM 9458 OM OM1 9458 -0.550000 15.99940
9459 OM 9459 OM OM1 9459 -0.550000 15.99940
9460 OM 9460 OM OM1 9460 -0.550000 15.99940
9461 OM 9461 OM OM1 9461 -0.550000 15.99940
9462 OM 9462 OM OM1 9462 -0.550000 15.99940
9463 OM 9463 OM OM1 9463 -0.550000 15.99940
9464 OM 9464 OM OM1 9464 -0.550000 15.99940
9465 OM 9465 OM OM1 9465 -0.550000 15.99940
9466 OM 9466 OM OM1 9466 -0.550000 15.99940
9467 OM 9467 OM OM1 9467 -0.550000 15.99940
9468 OM 9468 OM OM1 9468 -0.550000 15.99940
9469 OM 9469 OM OM1 9469 -0.550000 15.99940
9470 OM 9470 OM OM1 9470 -0.550000 15.99940
9471 OM 9471 OM OM1 9471 -0.550000 15.99940
9472 OM 9472 OM OM1 9472 -0.550000 15.99940
9473 OM 9473 OM OM1 9473 -0.550000 15.99940
9474 OM 9474 OM OM1 9474 -0.550000 15.99940
9475 OM 9475 OM OM1 9475 -0.550000 15.99940
9476 OM 9476 OM OM1 9476 -0.550000 15.99940
9477 OM 9477 OM OM1 9477 -0.550000 15.99940
9478 OM 9478 OM OM1 9478 -0.550000 15.99940
9479 OM 9479 OM OM1 9479 -0.550000 15.99940
9480 OM 9480 OM OM1 9480 -0.550000 15.99940
9481 OM 9481 OM OM1 9481 -0.550000 15.99940
9482 OM 9482 OM OM1 9482 -0.550000 15.99940
9483 OM 9483 OM OM1 9483 -0.550000 15.99940
9484 OM 9484 OM OM1 9484 -0.550000 15.99940
9485 OM 9485 OM OM1 9485 -0.550000 15.99940
9486 OM 9486 OM OM1 9486 -0.550000 15.99940
9487 OM 9487 OM OM1 9487 -0.550000 15.99940
9488 OM 9488 OM OM1 9488 -0.550000 15.99940
9489 OM 9489 OM OM1 9489 -0.550000 15.99940
9490 OM 9490 OM OM1 9490 -0.550000 15.99940
9491 OM 9491 OM OM1 9491 -0.550000 15.99940
9492 OM 9492 OM OM1 9492 -0.550000 15.99940
9493 OM 9493 OM OM1 9493 -0.550000 15.99940
9494 OM 9494 OM OM1 9494 -0.550000 15.99940
9495 OM 9495 OM OM1 9495 -0.550000 15.99940
9496 OM 9496 OM OM1 9496 -0.550000 15.99940
9497 OM 9497 OM OM1 9497 -0.550000 15.99940
9498 OM 9498 OM OM1 9498 -0.550000 15.99940
9499 OM 9499 OM OM1 9499 -0.550000 15.99940
9500 OM 9500 OM OM1 9500 -0.550000 15.99940
9501 OM 9501 OM OM1 9501 -0.550000 15.99940
9502 OM 9502 OM OM1 9502 -0.550000 15.99940
9503 OM 9503 OM OM1 9503 -0.550000 15.99940
9504 OM 9504 OM OM1 9504 -0.550000 15.99940
9505 OM 9505 OM OM1 9505 -0.550000 15.99940
9506 OM 9506 OM OM1 9506 -0.550000 15.99940
9507 OM 9507 OM OM1 9507 -0.550000 15.99940
9508 OM 9508 OM OM1 9508 -0.550000 15.99940
9509 OM 9509 OM OM1 9509 -0.550000 15.99940
9510 OM 9510 OM OM1 9510 -0.550000 15.99940
9511 OM 9511 OM OM1 9511 -0.550000 15.99940
9512 OM 9512 OM OM1 9512 -0.550000 15.99940
9513 OM 9513 OM OM1 9513 -0.550000 15.99940
9514 OM 9514 OM OM1 9514 -0.550000 15.99940
9515 OM 9515 OM OM1 9515 -0.550000 15.99940
9516 OM 9516 OM OM1 9516 -0.550000 15.99940
9517 OM 9517 OM OM1 9517 -0.550000 15.99940
9518 OM 9518 OM OM1 9518 -0.550000 15.99940
9519 OM 9519 OM OM1 9519 -0.550000 15.99940
9520 OM 9520 OM OM1 9520 -0.550000 15.99940
9521 OM 9521 OM OM1 9521 -0.550000 15.99940
9522 OM 9522 OM OM1 9522 -0.550000 15.99940
9523 OM 9523 OM OM1 9523 -0.550000 15.99940
9524 OM 9524 OM OM1 9524 -0.550000 15.99940
9525 OM 9525 OM OM1 9525 -0.550000 15.99940
9526 OM 9526 OM OM1 9526 -0.550000 15.99940
9527 OM 9527 OM OM1 9527 -0.550000 15.99940
9528 OM 9528 OM OM1 9528 -0.550000 15.99940
9529 OM 9529 OM OM1 9529 -0.550000 15.99940
9530 OM 9530 OM OM1 9530 -0.550000 15.99940
9531 OM 9531 OM OM1 9531 -0.550000 15.99940
9532 OM 9532 OM OM1 9532 -0.550000 15.99940
9533 OM 9533 OM OM1 9533 -0.550000 15.99940
9534 OM 9534 OM OM1 9534 -0.550000 15.99940
9535 OM 9535 OM OM1 9535 -0.550000 15.99940
9536 OM 9536 OM OM1 9536 -0.550000 15.99940
9537 OM 9537 OM OM1 9537 -0.550000 15.99940
9538 OM 9538 OM OM1 9538 -0.550000 15.99940
9539 OM 9539 OM OM1 9539 -0.550000 15.99940
9540 OM 9540 OM OM1 9540 -0.550000 15.99940
9541 OM 9541 OM OM1 9541 -0.550000 15.99940
9542 OM 9542 OM OM1 9542 -0.550000 15.99940
9543 OM 9543 OM OM1 9543 -0.550000 15.99940
9544 OM 9544 OM OM1 9544 -0.550000 15.99940
9545 OM 9545 OM OM1 9545 -0.550000 15.99940
9546 OM 9546 OM OM1 9546 -0.550000 15.99940
9547 OM 9547 OM OM1 9547 -0.550000 15.99940
9548 OM 9548 OM OM1 9548 -0.550000 15.99940
9549 OM 9549 OM OM1 9549 -0.550000 15.99940
9550 OM 9550 OM OM1 9550 -0.550000 15.99940
9551 OM 9551 OM OM1 9551 -0.550000 15.99940
9552 OM 9552 OM OM1 9552 -0.550000 15.99940
9553 OM 9553 OM OM1 9553 -0.550000 15.99940
9554 OM 9554 OM OM1 9554 -0.550000 15.99940
9555 OM 9555 OM OM1 9555 -0.550000 15.99940
9556 OM 9556 OM OM1 9556 -0.550000 15.99940
9557 OM 9557 OM OM1 9557 -0.550000 15.99940
9558 OM 9558 OM OM1 9558 -0.550000 15.99940
9559 OM 9559 OM OM1 9559 -0.550000 15.99940
9560 OM 9560 OM OM1 9560 -0.550000 15.99940
9561 OM 9561 OM OM1 9561 -0.550000 15.99940
9562 OM 9562 OM OM1 9562 -0.550000 15.99940
9563 OM 9563 OM OM1 9563 -0.550000 15.99940
9564 OM 9564 OM OM1 9564 -0.550000 15.99940
9565 OM 9565 OM OM1 9565 -0.550000 15.99940
9566 OM 9566 OM OM1 9566 -0.550000 15.99940
9567 OM 9567 OM OM1 9567 -0.550000 15.99940
9568 OM 9568 OM OM1 9568 -0.550000 15.99940
9569 OM 9569 OM OM1 9569 -0.550000 15.99940
9570 OM 9570 OM OM1 9570 -0.550000 15.99940
9571 OM 9571 OM OM1 9571 -0.550000 15.99940
9572 OM 9572 OM OM1 9572 -0.550000 15.99940
9573 OM 9573 OM OM1 9573 -0.550000 15.99940
9574 OM 9574 OM OM1 9574 -0.550000 15.99940
9575 OM 9575 OM OM1 9575 -0.550000 15.99940
9576 OM 9576 OM OM1 9576 -0.550000 15.99940
9577 OM 9577 OM OM1 9577 -0.550000 15.99940
9578 OM 9578 OM OM1 9578 -0.550000 15.99940
9579 OM 9579 OM OM1 9579 -0.550000 15.99940
9580 OM 9580 OM OM1 9580 -0.550000 15.99940
9581 OM 9581 OM OM1 9581 -0.550000 15.99940
9582 OM 9582 OM OM1 9582 -0.550000 15.99940
9583 OM 9583 OM OM1 9583 -0.550000 15.99940
9584 OM 9584 OM OM1 9584 -0.550000 15.99940
9585 OM 9585 OM OM1 9585 -0.550000 15.99940
9586 OM 9586 OM OM1 9586 -0.550000 15.99940
9587 OM 9587 OM OM1 9587 -0.550000 15.99940
9588 OM 9588 OM OM1 9588 -0.550000 15.99940
9589 OM 9589 OM OM1 9589 -0.550000 15.99940
9590 OM 9590 OM OM1 9590 -0.550000 15.99940
9591 OM 9591 OM OM1 9591 -0.550000 15.99940
9592 OM 9592 OM OM1 9592 -0.550000 15.99940
9593 OM 9593 OM OM1 9593 -0.550000 15.99940
9594 OM 9594 OM OM1 9594 -0.550000 15.99940
9595 OM 9595 OM OM1 9595 -0.550000 15.99940
9596 OM 9596 OM OM1 9596 -0.550000 15.99940
9597 OM 9597 OM OM1 9597 -0.550000 15.99940
9598 OM 9598 OM OM1 9598 -0.550000 15.99940
9599 OM 9599 OM OM1 9599 -0.550000 15.99940
9600 OM 9600 OM OM1 9600 -0.550000 15.99940
9601 OM 9601 OM OM1 9601 -0.550000 15.99940
9602 OM 9602 OM OM1 9602 -0.550000 15.99940
9603 OM 9603 OM OM1 9603 -0.550000 15.99940
9604 OM 9604 OM OM1 9604 -0.550000 15.99940
9605 OM 9605 OM OM1 9605 -0.550000 15.99940
9606 OM 9606 OM OM1 9606 -0.550000 15.99940
9607 OM 9607 OM OM1 9607 -0.550000 15.99940
9608 OM 9608 OM OM1 9608 -0.550000 15.99940
9609 OM 9609 OM OM1 9609 -0.550000 15.99940
9610 OM 9610 OM OM1 9610 -0.550000 15.99940
9611 OM 9611 OM OM1 9611 -0.550000 15.99940
9612 OM 9612 OM OM1 9612 -0.550000 15.99940
9613 OM 9613 OM OM1 9613 -0.550000 15.99940
9614 OM 9614 OM OM1 9614 -0.550000 15.99940
9615 OM 9615 OM OM1 9615 -0.550000 15.99940
9616 OM 9616 OM OM1 9616 -0.550000 15.99940
9617 OM 9617 OM OM1 9617 -0.550000 15.99940
9618 OM 9618 OM OM1 9618 -0.550000 15.99940
9619 OM 9619 OM OM1 9619 -0.550000 15.99940
9620 OM 9620 OM OM1 9620 -0.550000 15.99940
9621 OM 9621 OM OM1 9621 -0.550000 15.99940
9622 OM 9622 OM OM1 9622 -0.550000 15.99940
9623 OM 9623 OM OM1 9623 -0.550000 15.99940
9624 OM 9624 OM OM1 9624 -0.550000 15.99940
9625 OM 9625 OM OM1 9625 -0.550000 15.99940
9626 OM 9626 OM OM1 9626 -0.550000 15.99940
9627 OM 9627 OM OM1 9627 -0.550000 15.99940
9628 OM 9628 OM OM1 9628 -0.550000 15.99940
9629 OM 9629 OM OM1 9629 -0.550000 15.99940
9630 OM 9630 OM OM1 9630 -0.550000 15.99940
9631 OM 9631 OM OM1 9631 -0.550000 15.99940
9632 OM 9632 OM OM1 9632 -0.550000 15.99940
9633 OM 9633 OM OM1 9633 -0.550000 15.99940
9634 OM 9634 OM OM1 9634 -0.550000 15.99940
9635 OM 9635 OM OM1 9635 -0.550000 15.99940
9636 OM 9636 OM OM1 9636 -0.550000 15.99940
9637 OM 9637 OM OM1 9637 -0.550000 15.99940
9638 OM 9638 OM OM1 9638 -0.550000 15.99940
9639 OM 9639 OM OM1 9639 -0.550000 15.99940
9640 OM 9640 OM OM1 9640 -0.550000 15.99940
9641 OM 9641 OM OM1 9641 -0.550000 15.99940
9642 OM 9642 OM OM1 9642 -0.550000 15.99940
9643 OM 9643 OM OM1 9643 -0.550000 15.99940
9644 OM 9644 OM OM1 9644 -0.550000 15.99940
9645 OM 9645 OM OM1 9645 -0.550000 15.99940
9646 OM 9646 OM OM1 9646 -0.550000 15.99940
9647 OM 9647 OM OM1 9647 -0.550000 15.99940
9648 OM 9648 OM OM1 9648 -0.550000 15.99940
9649 OM 9649 OM OM1 9649 -0.550000 15.99940
9650 OM 9650 OM OM1 9650 -0.550000 15.99940
9651 OM 9651 OM OM1 9651 -0.550000 15.99940
9652 OM 9652 OM OM1 9652 -0.550000 15.99940
9653 OM 9653 OM OM1 9653 -0.550000 15.99940
9654 OM 9654 OM OM1 9654 -0.550000 15.99940
9655 OM 9655 OM OM1 9655 -0.550000 15.99940
9656 OM 9656 OM OM1 9656 -0.550000 15.99940
9657 OM 9657 OM OM1 9657 -0.550000 15.99940
9658 OM 9658 OM OM1 9658 -0.550000 15.99940
9659 OM 9659 OM OM1 9659 -0.550000 15.99940
9660 OM 9660 OM OM1 9660 -0.550000 15.99940
9661 OM 9661 OM OM1 9661 -0.550000 15.99940
9662 OM 9662 OM OM1 9662 -0.550000 15.99940
9663 OM 9663 OM OM1 9663 -0.550000 15.99940
9664 OM 9664 OM OM1 9664 -0.550000 15.99940
9665 OM 9665 OM OM1 9665 -0.550000 15.99940
9666 OM 9666 OM OM1 9666 -0.550000 15.99940
9667 OM 9667 OM OM1 9667 -0.550000 15.99940
9668 OM 9668 OM OM1 9668 -0.550000 15.99940
9669 OM 9669 OM OM1 9669 -0.550000 15.99940
9670 OM 9670 OM OM1 9670 -0.550000 15.99940
9671 OM 9671 OM OM1 9671 -0.550000 15.99940
9672 OM 9672 OM OM1 9672 -0.550000 15.99940
9673 OM 9673 OM OM1 9673 -0.550000 15.99940
9674 OM 9674 OM OM1 9674 -0.550000 15.99940
9675 OM 9675 OM OM1 9675 -0.550000 15.99940
9676 OM 9676 OM OM1 9676 -0.550000 15.99940
9677 OM 9677 OM OM1 9677 -0.550000 15.99940
9678 OM 9678 OM OM1 9678 -0.550000 15.99940
9679 OM 9679 OM OM1 9679 -0.550000 15.99940
9680 OM 9680 OM OM1 9680 -0.550000 15.99940
9681 OM 9681 OM OM1 9681 -0.550000 15.99940
9682 OM 9682 OM OM1 9682 -0.550000 15.99940
9683 OM 9683 OM OM1 9683 -0.550000 15.99940
9684 OM 9684 OM OM1 9684 -0.550000 15.99940
9685 OM 9685 OM OM1 9685 -0.550000 15.99940
9686 OM 9686 OM OM1 9686 -0.550000 15.99940
9687 OM 9687 OM OM1 9687 -0.550000 15.99940
9688 OM 9688 OM OM1 9688 -0.550000 15.99940
9689 OM 9689 OM OM1 9689 -0.550000 15.99940
9690 OM 9690 OM OM1 9690 -0.550000 15.99940
9691 OM 9691 OM OM1 9691 -0.550000 15.99940
9692 OM 9692 OM OM1 9692 -0.550000 15.99940
9693 OM 9693 OM OM1 9693 -0.550000 15.99940
9694 OM 9694 OM OM1 9694 -0.550000 15.99940
9695 OM 9695 OM OM1 9695 -0.550000 15.99940
9696 OM 9696 OM OM1 9696 -0.550000 15.99940
9697 OM 9697 OM OM1 9697 -0.550000 15.99940
9698 OM 9698 OM OM1 9698 -0.550000 15.99940
9699 OM 9699 OM OM1 9699 -0.550000 15.99940
9700 OM 9700 OM OM1 9700 -0.550000 15.99940
9701 OM 9701 OM OM1 9701 -0.550000 15.99940
9702 OM 9702 OM OM1 9702 -0.550000 15.99940
9703 OM 9703 OM OM1 9703 -0.550000 15.99940
9704 OM 9704 OM OM1 9704 -0.550000 15.99940
9705 OM 9705 OM OM1 9705 -0.550000 15.99940
9706 OM 9706 OM OM1 9706 -0.550000 15.99940
9707 OM 9707 OM OM1 9707 -0.550000 15.99940
9708 OM 9708 OM OM1 9708 -0.550000 15.99940
9709 OM 9709 OM OM1 9709 -0.550000 15.99940
9710 OM 9710 OM OM1 9710 -0.550000 15.99940
9711 OM 9711 OM OM1 9711 -0.550000 15.99940
9712 OM 9712 OM OM1 9712 -0.550000 15.99940
9713 OM 9713 OM OM1 9713 -0.550000 15.99940
9714 OM 9714 OM OM1 9714 -0.550000 15.99940
9715 OM 9715 OM OM1 9715 -0.550000 15.99940
9716 OM 9716 OM OM1 9716 -0.550000 15.99940
9717 OM 9717 OM OM1 9717 -0.550000 15.99940
9718 OM 9718 OM OM1 9718 -0.550000 15.99940
9719 OM 9719 OM OM1 9719 -0.550000 15.99940
9720 OM 9720 OM OM1 9720 -0.550000 15.99940
9721 OM 9721 OM OM1 9721 -0.550000 15.99940
9722 OM 9722 OM OM1 9722 -0.550000 15.99940
9723 OM 9723 OM OM1 9723 -0.550000 15.99940
9724 OM 9724 OM OM1 9724 -0.550000 15.99940
9725 OM 9725 OM OM1 9725 -0.550000 15.99940
9726 OM 9726 OM OM1 9726 -0.550000 15.99940
9727 OM 9727 OM OM1 9727 -0.550000 15.99940
9728 OM 9728 OM OM1 9728 -0.550000 15.99940
9729 OM 9729 OM OM1 9729 -0.550000 15.99940
9730 OM 9730 OM OM1 9730 -0.550000 15.99940
9731 OM 9731 OM OM1 9731 -0.550000 15.99940
9732 OM 9732 OM OM1 9732 -0.550000 15.99940
9733 OM 9733 OM OM1 9733 -0.550000 15.99940
9734 OM 9734 OM OM1 9734 -0.550000 15.99940
9735 OM 9735 OM OM1 9735 -0.550000 15.99940
9736 OM 9736 OM OM1 9736 -0.550000 15.99940
9737 OM 9737 OM OM1 9737 -0.550000 15.99940
9738 OM 9738 OM OM1 9738 -0.550000 15.99940
9739 OM 9739 OM OM1 9739 -0.550000 15.99940
9740 OM 9740 OM OM1 9740 -0.550000 15.99940
9741 OM 9741 OM OM1 9741 -0.550000 15.99940
9742 OM 9742 OM OM1 9742 -0.550000 15.99940
9743 OM 9743 OM OM1 9743 -0.550000 15.99940
9744 OM 9744 OM OM1 9744 -0.550000 15.99940
9745 OM 9745 OM OM1 9745 -0.550000 15.99940
9746 OM 9746 OM OM1 9746 -0.550000 15.99940
9747 OM 9747 OM OM1 9747 -0.550000 15.99940
9748 OM 9748 OM OM1 9748 -0.550000 15.99940
9749 OM 9749 OM OM1 9749 -0.550000 15.99940
9750 OM 9750 OM OM1 9750 -0.550000 15.99940
9751 OM 9751 OM OM1 9751 -0.550000 15.99940
9752 OM 9752 OM OM1 9752 -0.550000 15.99940
9753 OM 9753 OM OM1 9753 -0.550000 15.99940
9754 OM 9754 OM OM1 9754 -0.550000 15.99940
9755 OM 9755 OM OM1 9755 -0.550000 15.99940
9756 OM 9756 OM OM1 9756 -0.550000 15.99940
9757 OM 9757 OM OM1 9757 -0.550000 15.99940
9758 OM 9758 OM OM1 9758 -0.550000 15.99940
9759 OM 9759 OM OM1 9759 -0.550000 15.99940
9760 OM 9760 OM OM1 9760 -0.550000 15.99940
9761 OM 9761 OM OM1 9761 -0.550000 15.99940
9762 OM 9762 OM OM1 9762 -0.550000 15.99940
9763 OM 9763 OM OM1 9763 -0.550000 15.99940
9764 OM 9764 OM OM1 9764 -0.550000 15.99940
9765 OM 9765 OM OM1 9765 -0.550000 15.99940
9766 OM 9766 OM OM1 9766 -0.550000 15.99940
9767 OM 9767 OM OM1 9767 -0.550000 15.99940
9768 OM 9768 OM OM1 9768 -0.550000 15.99940
9769 OM 9769 OM OM1 9769 -0.550000 15.99940
9770 OM 9770 OM OM1 9770 -0.550000 15.99940
9771 OM 9771 OM OM1 9771 -0.550000 15.99940
9772 OM 9772 OM OM1 9772 -0.550000 15.99940
9773 OM 9773 OM OM1 9773 -0.550000 15.99940
9774 OM 9774 OM OM1 9774 -0.550000 15.99940
9775 OM 9775 OM OM1 9775 -0.550000 15.99940
9776 OM 9776 OM OM1 9776 -0.550000 15.99940
9777 OM 9777 OM OM1 9777 -0.550000 15.99940
9778 OM 9778 OM OM1 9778 -0.550000 15.99940
9779 OM 9779 OM OM1 9779 -0.550000 15.99940
9780 OM 9780 OM OM1 9780 -0.550000 15.99940
9781 OM 9781 OM OM1 9781 -0.550000 15.99940
9782 OM 9782 OM OM1 9782 -0.550000 15.99940
9783 OM 9783 OM OM1 9783 -0.550000 15.99940
9784 OM 9784 OM OM1 9784 -0.550000 15.99940
9785 OM 9785 OM OM1 9785 -0.550000 15.99940
9786 OM 9786 OM OM1 9786 -0.550000 15.99940
9787 OM 9787 OM OM1 9787 -0.550000 15.99940
9788 OM 9788 OM OM1 9788 -0.550000 15.99940
9789 OM 9789 OM OM1 9789 -0.550000 15.99940
9790 OM 9790 OM OM1 9790 -0.550000 15.99940
9791 OM 9791 OM OM1 9791 -0.550000 15.99940
9792 OM 9792 OM OM1 9792 -0.550000 15.99940
9793 OM 9793 OM OM1 9793 -0.550000 15.99940
9794 OM 9794 OM OM1 9794 -0.550000 15.99940
9795 OM 9795 OM OM1 9795 -0.550000 15.99940
9796 OM 9796 OM OM1 9796 -0.550000 15.99940
9797 OM 9797 OM OM1 9797 -0.550000 15.99940
9798 OM 9798 OM OM1 9798 -0.550000 15.99940
9799 OM 9799 OM OM1 9799 -0.550000 15.99940
9800 OM 9800 OM OM1 9800 -0.550000 15.99940
9801 OM 9801 OM OM1 9801 -0.550000 15.99940
9802 OM 9802 OM OM1 9802 -0.550000 15.99940
9803 OM 9803 OM OM1 9803 -0.550000 15.99940
9804 OM 9804 OM OM1 9804 -0.550000 15.99940
9805 OM 9805 OM OM1 9805 -0.550000 15.99940
9806 OM 9806 OM OM1 9806 -0.550000 15.99940
9807 OM 9807 OM OM1 9807 -0.550000 15.99940
9808 OM 9808 OM OM1 9808 -0.550000 15.99940
9809 OM 9809 OM OM1 9809 -0.550000 15.99940
9810 OM 9810 OM OM1 9810 -0.550000 15.99940
9811 OM 9811 OM OM1 9811 -0.550000 15.99940
9812 OM 9812 OM OM1 9812 -0.550000 15.99940
9813 OM 9813 OM OM1 9813 -0.550000 15.99940
9814 OM 9814 OM OM1 9814 -0.550000 15.99940
9815 OM 9815 OM OM1 9815 -0.550000 15.99940
9816 OM 9816 OM OM1 9816 -0.550000 15.99940
9817 OM 9817 OM OM1 9817 -0.550000 15.99940
9818 OM 9818 OM OM1 9818 -0.550000 15.99940
9819 OM 9819 OM OM1 9819 -0.550000 15.99940
9820 OM 9820 OM OM1 9820 -0.550000 15.99940
9821 OM 9821 OM OM1 9821 -0.550000 15.99940
9822 OM 9822 OM OM1 9822 -0.550000 15.99940
9823 OM 9823 OM OM1 9823 -0.550000 15.99940
9824 OM 9824 OM OM1 9824 -0.550000 15.99940
9825 OM 9825 OM OM1 9825 -0.550000 15.99940
9826 OM 9826 OM OM1 9826 -0.550000 15.99940
9827 OM 9827 OM OM1 9827 -0.550000 15.99940
9828 OM 9828 OM OM1 9828 -0.550000 15.99940
9829 OM 9829 OM OM1 9829 -0.550000 15.99940
9830 OM 9830 OM OM1 9830 -0.550000 15.99940
9831 OM 9831 OM OM1 9831 -0.550000 15.99940
9832 OM 9832 OM OM1 9832 -0.550000 15.99940
9833 OM 9833 OM OM1 9833 -0.550000 15.99940
9834 OM 9834 OM OM1 9834 -0.550000 15.99940
9835 OM 9835 OM OM1 9835 -0.550000 15.99940
9836 OM 9836 OM OM1 9836 -0.550000 15.99940
9837 OM 9837 OM OM1 9837 -0.550000 15.99940
9838 OM 9838 OM OM1 9838 -0.550000 15.99940
9839 OM 9839 OM OM1 9839 -0.550000 15.99940
9840 OM 9840 OM OM1 9840 -0.550000 15.99940
9841 OM 9841 OM OM1 9841 -0.550000 15.99940
9842 OM 9842 OM OM1 9842 -0.550000 15.99940
9843 OM 9843 OM OM1 9843 -0.550000 15.99940
9844 OM 9844 OM OM1 9844 -0.550000 15.99940
9845 OM 9845 OM OM1 9845 -0.550000 15.99940
9846 OM 9846 OM OM1 9846 -0.550000 15.99940
9847 OM 9847 OM OM1 9847 -0.550000 15.99940
9848 OM 9848 OM OM1 9848 -0.550000 15.99940
9849 OM 9849 OM OM1 9849 -0.550000 15.99940
9850 OM 9850 OM OM1 9850 -0.550000 15.99940
9851 OM 9851 OM OM1 9851 -0.550000 15.99940
9852 OM 9852 OM OM1 9852 -0.550000 15.99940
9853 OM 9853 OM OM1 9853 -0.550000 15.99940
9854 OM 9854 OM OM1 9854 -0.550000 15.99940
9855 OM 9855 OM OM1 9855 -0.550000 15.99940
9856 OM 9856 OM OM1 9856 -0.550000 15.99940
9857 OM 9857 OM OM1 9857 -0.550000 15.99940
9858 OM 9858 OM OM1 9858 -0.550000 15.99940
9859 OM 9859 OM OM1 9859 -0.550000 15.99940
9860 OM 9860 OM OM1 9860 -0.550000 15.99940
9861 OM 9861 OM OM1 9861 -0.550000 15.99940
9862 OM 9862 OM OM1 9862 -0.550000 15.99940
9863 OM 9863 OM OM1 9863 -0.550000 15.99940
9864 OM 9864 OM OM1 9864 -0.550000 15.99940
9865 OM 9865 OM OM1 9865 -0.550000 15.99940
9866 OM 9866 OM OM1 9866 -0.550000 15.99940
9867 OM 9867 OM OM1 9867 -0.550000 15.99940
9868 OM 9868 OM OM1 9868 -0.550000 15.99940
9869 OM 9869 OM OM1 9869 -0.550000 15.99940
9870 OM 9870 OM OM1 9870 -0.550000 15.99940
9871 OM 9871 OM OM1 9871 -0.550000 15.99940
9872 OM 9872 OM OM1 9872 -0.550000 15.99940
9873 OM 9873 OM OM1 9873 -0.550000 15.99940
9874 OM 9874 OM OM1 9874 -0.550000 15.99940
9875 OM 9875 OM OM1 9875 -0.550000 15.99940
9876 OM 9876 OM OM1 9876 -0.550000 15.99940
9877 OM 9877 OM OM1 9877 -0.550000 15.99940
9878 OM 9878 OM OM1 9878 -0.550000 15.99940
9879 OM 9879 OM OM1 9879 -0.550000 15.99940
9880 OM 9880 OM OM1 9880 -0.550000 15.99940
9881 OM 9881 OM OM1 9881 -0.550000 15.99940
9882 OM 9882 OM OM1 9882 -0.550000 15.99940
9883 OM 9883 OM OM1 9883 -0.550000 15.99940
9884 OM 9884 OM OM1 9884 -0.550000 15.99940
9885 OM 9885 OM OM1 9885 -0.550000 15.99940
9886 OM 9886 OM OM1 9886 -0.550000 15.99940
9887 OM 9887 OM OM1 9887 -0.550000 15.99940
9888 OM 9888 OM OM1 9888 -0.550000 15.99940
9889 OM 9889 OM OM1 9889 -0.550000 15.99940
9890 OM 9890 OM OM1 9890 -0.550000 15.99940
9891 OM 9891 OM OM1 9891 -0.550000 15.99940
9892 OM 9892 OM OM1 9892 -0.550000 15.99940
9893 OM 9893 OM OM1 9893 -0.550000 15.99940
9894 OM 9894 OM OM1 9894 -0.550000 15.99940
9895 OM 9895 OM OM1 9895 -0.550000 15.99940
9896 OM 9896 OM OM1 9896 -0.550000 15.99940
9897 OM 9897 OM OM1 9897 -0.550000 15.99940
9898 OM 9898 OM OM1 9898 -0.550000 15.99940
9899 OM 9899 OM OM1 9899 -0.550000 15.99940
9900 OM 9900 OM OM1 9900 -0.550000 15.99940
9901 OM 9901 OM OM1 9901 -0.550000 15.99940
9902 OM 9902 OM OM1 9902 -0.550000 15.99940
9903 OM 9903 OM OM1 9903 -0.550000 15.99940
9904 OM 9904 OM OM1 9904 -0.550000 15.99940
9905 OM 9905 OM OM1 9905 -0.550000 15.99940
9906 OM 9906 OM OM1 9906 -0.550000 15.99940
9907 OM 9907 OM OM1 9907 -0.550000 15.99940
9908 OM 9908 OM OM1 9908 -0.550000 15.99940
9909 OM 9909 OM OM1 9909 -0.550000 15.99940
9910 OM 9910 OM OM1 9910 -0.550000 15.99940
9911 OM 9911 OM OM1 9911 -0.550000 15.99940
9912 OM 9912 OM OM1 9912 -0.550000 15.99940
9913 OM 9913 OM OM1 9913 -0.550000 15.99940
9914 OM 9914 OM OM1 9914 -0.550000 15.99940
9915 OM 9915 OM OM1 9915 -0.550000 15.99940
9916 OM 9916 OM OM1 9916 -0.550000 15.99940
9917 OM 9917 OM OM1 9917 -0.550000 15.99940
9918 OM 9918 OM OM1 9918 -0.550000 15.99940
9919 OM 9919 OM OM1 9919 -0.550000 15.99940
9920 OM 9920 OM OM1 9920 -0.550000 15.99940
9921 OM 9921 OM OM1 9921 -0.550000 15.99940
9922 OM 9922 OM OM1 9922 -0.550000 15.99940
9923 OM 9923 OM OM1 9923 -0.550000 15.99940
9924 OM 9924 OM OM1 9924 -0.550000 15.99940
9925 OM 9925 OM OM1 9925 -0.550000 15.99940
9926 OM 9926 OM OM1 9926 -0.550000 15.99940
9927 OM 9927 OM OM1 9927 -0.550000 15.99940
9928 OM 9928 OM OM1 9928 -0.550000 15.99940
9929 OM 9929 OM OM1 9929 -0.550000 15.99940
9930 OM 9930 OM OM1 9930 -0.550000 15.99940
9931 OM 9931 OM OM1 9931 -0.550000 15.99940
9932 OM 9932 OM OM1 9932 -0.550000 15.99940
9933 OM 9933 OM OM1 9933 -0.550000 15.99940
9934 OM 9934 OM OM1 9934 -0.550000 15.99940
9935 OM 9935 OM OM1 9935 -0.550000 15.99940
9936 OM 9936 OM OM1 9936 -0.550000 15.99940
9937 OM 9937 OM OM1 9937 -0.550000 15.99940
9938 OM 9938 OM OM1 9938 -0.550000 15.99940
9939 OM 9939 OM OM1 9939 -0.550000 15.99940
9940 OM 9940 OM OM1 9940 -0.550000 15.99940
9941 OM 9941 OM OM1 9941 -0.550000 15.99940
9942 OM 9942 OM OM1 9942 -0.550000 15.99940
9943 OM 9943 OM OM1 9943 -0.550000 15.99940
9944 OM 9944 OM OM1 9944 -0.550000 15.99940
9945 OM 9945 OM OM1 9945 -0.550000 15.99940
9946 OM 9946 OM OM1 9946 -0.550000 15.99940
9947 OM 9947 OM OM1 9947 -0.550000 15.99940
9948 OM 9948 OM OM1 9948 -0.550000 15.99940
9949 OM 9949 OM OM1 9949 -0.550000 15.99940
9950 OM 9950 OM OM1 9950 -0.550000 15.99940
9951 OM 9951 OM OM1 9951 -0.550000 15.99940
9952 OM 9952 OM OM1 9952 -0.550000 15.99940
9953 OM 9953 OM OM1 9953 -0.550000 15.99940
9954 OM 9954 OM OM1 9954 -0.550000 15.99940
9955 OM 9955 OM OM1 9955 -0.550000 15.99940
9956 OM 9956 OM OM1 9956 -0.550000 15.99940
9957 OM 9957 OM OM1 9957 -0.550000 15.99940
9958 OM 9958 OM OM1 9958 -0.550000 15.99940
9959 OM 9959 OM OM1 9959 -0.550000 15.99940
9960 OM 9960 OM OM1 9960 -0.550000 15.99940
9961 OM 9961 OM OM1 9961 -0.550000 15.99940
9962 OM 9962 OM OM1 9962 -0.550000 15.99940
9963 OM 9963 OM OM1 9963 -0.550000 15.99940
9964 OM 9964 OM OM1 9964 -0.550000 15.99940
9965 OM 9965 OM OM1 9965 -0.550000 15.99940
9966 OM 9966 OM OM1 9966 -0.550000 15.99940
9967 OM 9967 OM OM1 9967 -0.550000 15.99940
9968 OM 9968 OM OM1 9968 -0.550000 15.99940
9969 OM 9969 OM OM1 9969 -0.550000 15.99940
9970 OM 9970 OM OM1 9970 -0.550000 15.99940
9971 OM 9971 OM OM1 9971 -0.550000 15.99940
9972 OM 9972 OM OM1 9972 -0.550000 15.99940
9973 OM 9973 OM OM1 9973 -0.550000 15.99940
9974 OM 9974 OM OM1 9974 -0.550000 15.99940
9975 OM 9975 OM OM1 9975 -0.550000 15.99940
9976 OM 9976 OM OM1 9976 -0.550000 15.99940
9977 OM 9977 OM OM1 9977 -0.550000 15.99940
9978 OM 9978 OM OM1 9978 -0.550000 15.99940
9979 OM 9979 OM OM1 9979 -0.550000 15.99940
9980 OM 9980 OM OM1 9980 -0.550000 15.99940
9981 OM 9981 OM OM1 9981 -0.550000 15.99940
9982 OM 9982 OM OM1 9982 -0.550000 15.99940
9983 OM 9983 OM OM1 9983 -0.550000 15.99940
9984 OM 9984 OM OM1 9984 -0.550000 15.99940
9985 OM 9985 OM OM1 9985 -0.550000 15.99940
9986 OM 9986 OM OM1 9986 -0.550000 15.99940
9987 OM 9987 OM OM1 9987 -0.550000 15.99940
9988 OM 9988 OM OM1 9988 -0.550000 15.99940
9989 OM 9989 OM OM1 9989 -0.550000 15.99940
9990 OM 9990 OM OM1 9990 -0.550000 15.99940
9991 OM 9991 OM OM1 9991 -0.550000 15.99940
9992 OM 9992 OM OM1 9992 -0.550000 15.99940
9993 OM 9993 OM OM1 9993 -0.550000 15.99940
9994 OM 9994 OM OM1 9994 -0.550000 15.99940
9995 OM 9995 OM OM1 9995 -0.550000 15.99940
9996 OM 9996 OM OM1 9996 -0.550000 15.99940
9997 OM 9997 OM OM1 9997 -0.550000 15.99940
9998 OM 9998 OM OM1 9998 -0.550000 15.99940
9999 OM 9999 OM OM1 9999 -0.550000 15.99940
10000 OM 10000 OM OM1 10000 -0.550000 15.99940
10001 OM 10001 OM OM1 10001 -0.550000 15.99940
10002 OM 10002 OM OM1 10002 -0.550000 15.99940
10003 OM 10003 OM OM1 10003 -0.550000 15.99940
10004 OM 10004 OM OM1 10004 -0.550000 15.99940
10005 OM 10005 OM OM1 10005 -0.550000 15.99940
10006 OM 10006 OM OM1 10006 -0.550000 15.99940
10007 OM 10007 OM OM1 10007 -0.550000 15.99940
10008 OM 10008 OM OM1 10008 -0.550000 15.99940
10009 OM 10009 OM OM1 10009 -0.550000 15.99940
10010 OM 10010 OM OM1 10010 -0.550000 15.99940
10011 OM 10011 OM OM1 10011 -0.550000 15.99940
10012 OM 10012 OM OM1 10012 -0.550000 15.99940
10013 OM 10013 OM OM1 10013 -0.550000 15.99940
10014 OM 10014 OM OM1 10014 -0.550000 15.99940
10015 OM 10015 OM OM1 10015 -0.550000 15.99940
10016 OM 10016 OM OM1 10016 -0.550000 15.99940
10017 OM 10017 OM OM1 10017 -0.550000 15.99940
10018 OM 10018 OM OM1 10018 -0.550000 15.99940
10019 OM 10019 OM OM1 10019 -0.550000 15.99940
10020 OM 10020 OM OM1 10020 -0.550000 15.99940
10021 OM 10021 OM OM1 10021 -0.550000 15.99940
10022 OM 10022 OM OM1 10022 -0.550000 15.99940
10023 OM 10023 OM OM1 10023 -0.550000 15.99940
10024 OM 10024 OM OM1 10024 -0.550000 15.99940
10025 OM 10025 OM OM1 10025 -0.550000 15.99940
10026 OM 10026 OM OM1 10026 -0.550000 15.99940
10027 OM 10027 OM OM1 10027 -0.550000 15.99940
10028 OM 10028 OM OM1 10028 -0.550000 15.99940
10029 OM 10029 OM OM1 10029 -0.550000 15.99940
10030 OM 10030 OM OM1 10030 -0.550000 15.99940
10031 OM 10031 OM OM1 10031 -0.550000 15.99940
10032 OM 10032 OM OM1 10032 -0.550000 15.99940
10033 OM 10033 OM OM1 10033 -0.550000 15.99940
10034 OM 10034 OM OM1 10034 -0.550000 15.99940
10035 OM 10035 OM OM1 10035 -0.550000 15.99940
10036 OM 10036 OM OM1 10036 -0.550000 15.99940
10037 OM 10037 OM OM1 10037 -0.550000 15.99940
10038 OM 10038 OM OM1 10038 -0.550000 15.99940
10039 OM 10039 OM OM1 10039 -0.550000 15.99940
10040 OM 10040 OM OM1 10040 -0.550000 15.99940
10041 OM 10041 OM OM1 10041 -0.550000 15.99940
10042 OM 10042 OM OM1 10042 -0.550000 15.99940
10043 OM 10043 OM OM1 10043 -0.550000 15.99940
10044 OM 10044 OM OM1 10044 -0.550000 15.99940
10045 OM 10045 OM OM1 10045 -0.550000 15.99940
10046 OM 10046 OM OM1 10046 -0.550000 15.99940
10047 OM 10047 OM OM1 10047 -0.550000 15.99940
10048 OM 10048 OM OM1 10048 -0.550000 15.99940
10049 OM 10049 OM OM1 10049 -0.550000 15.99940
10050 OM 10050 OM OM1 10050 -0.550000 15.99940
10051 OM 10051 OM OM1 10051 -0.550000 15.99940
10052 OM 10052 OM OM1 10052 -0.550000 15.99940
10053 OM 10053 OM OM1 10053 -0.550000 15.99940
10054 OM 10054 OM OM1 10054 -0.550000 15.99940
10055 OM 10055 OM OM1 10055 -0.550000 15.99940
10056 OM 10056 OM OM1 10056 -0.550000 15.99940
10057 OM 10057 OM OM1 10057 -0.550000 15.99940
10058 OM 10058 OM OM1 10058 -0.550000 15.99940
10059 OM 10059 OM OM1 10059 -0.550000 15.99940
10060 OM 10060 OM OM1 10060 -0.550000 15.99940
10061 OM 10061 OM OM1 10061 -0.550000 15.99940
10062 OM 10062 OM OM1 10062 -0.550000 15.99940
10063 OM 10063 OM OM1 10063 -0.550000 15.99940
10064 OM 10064 OM OM1 10064 -0.550000 15.99940
10065 OM 10065 OM OM1 10065 -0.550000 15.99940
10066 OM 10066 OM OM1 10066 -0.550000 15.99940
10067 OM 10067 OM OM1 10067 -0.550000 15.99940
10068 OM 10068 OM OM1 10068 -0.550000 15.99940
10069 OM 10069 OM OM1 10069 -0.550000 15.99940
10070 OM 10070 OM OM1 10070 -0.550000 15.99940
10071 OM 10071 OM OM1 10071 -0.550000 15.99940
10072 OM 10072 OM OM1 10072 -0.550000 15.99940
10073 OM 10073 OM OM1 10073 -0.550000 15.99940
10074 OM 10074 OM OM1 10074 -0.550000 15.99940
10075 OM 10075 OM OM1 10075 -0.550000 15.99940
10076 OM 10076 OM OM1 10076 -0.550000 15.99940
10077 OM 10077 OM OM1 10077 -0.550000 15.99940
10078 OM 10078 OM OM1 10078 -0.550000 15.99940
10079 OM 10079 OM OM1 10079 -0.550000 15.99940
10080 OM 10080 OM OM1 10080 -0.550000 15.99940
10081 OM 10081 OM OM1 10081 -0.550000 15.99940
10082 OM 10082 OM OM1 10082 -0.550000 15.99940
10083 OM 10083 OM OM1 10083 -0.550000 15.99940
10084 OM 10084 OM OM1 10084 -0.550000 15.99940
10085 OM 10085 OM OM1 10085 -0.550000 15.99940
10086 OM 10086 OM OM1 10086 -0.550000 15.99940
10087 OM 10087 OM OM1 10087 -0.550000 15.99940
10088 OM 10088 OM OM1 10088 -0.550000 15.99940
10089 OM 10089 OM OM1 10089 -0.550000 15.99940
10090 OM 10090 OM OM1 10090 -0.550000 15.99940
10091 OM 10091 OM OM1 10091 -0.550000 15.99940
10092 OM 10092 OM OM1 10092 -0.550000 15.99940
10093 OM 10093 OM OM1 10093 -0.550000 15.99940
10094 OM 10094 OM OM1 10094 -0.550000 15.99940
10095 OM 10095 OM OM1 10095 -0.550000 15.99940
10096 OM 10096 OM OM1 10096 -0.550000 15.99940
10097 OM 10097 OM OM1 10097 -0.550000 15.99940
10098 OM 10098 OM OM1 10098 -0.550000 15.99940
10099 OM 10099 OM OM1 10099 -0.550000 15.99940
10100 OM 10100 OM OM1 10100 -0.550000 15.99940
10101 OM 10101 OM OM1 10101 -0.550000 15.99940
10102 OM 10102 OM OM1 10102 -0.550000 15.99940
10103 OM 10103 OM OM1 10103 -0.550000 15.99940
10104 OM 10104 OM OM1 10104 -0.550000 15.99940
10105 OM 10105 OM OM1 10105 -0.550000 15.99940
10106 OM 10106 OM OM1 10106 -0.550000 15.99940
10107 OM 10107 OM OM1 10107 -0.550000 15.99940
10108 OM 10108 OM OM1 10108 -0.550000 15.99940
10109 OM 10109 OM OM1 10109 -0.550000 15.99940
10110 OM 10110 OM OM1 10110 -0.550000 15.99940
10111 OM 10111 OM OM1 10111 -0.550000 15.99940
10112 OM 10112 OM OM1 10112 -0.550000 15.99940
10113 OM 10113 OM OM1 10113 -0.550000 15.99940
10114 OM 10114 OM OM1 10114 -0.550000 15.99940
10115 OM 10115 OM OM1 10115 -0.550000 15.99940
10116 OM 10116 OM OM1 10116 -0.550000 15.99940
10117 OM 10117 OM OM1 10117 -0.550000 15.99940
10118 OM 10118 OM OM1 10118 -0.550000 15.99940
10119 OM 10119 OM OM1 10119 -0.550000 15.99940
10120 OM 10120 OM OM1 10120 -0.550000 15.99940
10121 OM 10121 OM OM1 10121 -0.550000 15.99940
10122 OM 10122 OM OM1 10122 -0.550000 15.99940
10123 OM 10123 OM OM1 10123 -0.550000 15.99940
10124 OM 10124 OM OM1 10124 -0.550000 15.99940
10125 OM 10125 OM OM1 10125 -0.550000 15.99940
10126 OM 10126 OM OM1 10126 -0.550000 15.99940
10127 OM 10127 OM OM1 10127 -0.550000 15.99940
10128 OM 10128 OM OM1 10128 -0.550000 15.99940
10129 OM 10129 OM OM1 10129 -0.550000 15.99940
10130 OM 10130 OM OM1 10130 -0.550000 15.99940
10131 OM 10131 OM OM1 10131 -0.550000 15.99940
10132 OM 10132 OM OM1 10132 -0.550000 15.99940
10133 OM 10133 OM OM1 10133 -0.550000 15.99940
10134 OM 10134 OM OM1 10134 -0.550000 15.99940
10135 OM 10135 OM OM1 10135 -0.550000 15.99940
10136 OM 10136 OM OM1 10136 -0.550000 15.99940
10137 OM 10137 OM OM1 10137 -0.550000 15.99940
10138 OM 10138 OM OM1 10138 -0.550000 15.99940
10139 OM 10139 OM OM1 10139 -0.550000 15.99940
10140 OM 10140 OM OM1 10140 -0.550000 15.99940
10141 OM 10141 OM OM1 10141 -0.550000 15.99940
10142 OM 10142 OM OM1 10142 -0.550000 15.99940
10143 OM 10143 OM OM1 10143 -0.550000 15.99940
10144 OM 10144 OM OM1 10144 -0.550000 15.99940
10145 OM 10145 OM OM1 10145 -0.550000 15.99940
10146 OM 10146 OM OM1 10146 -0.550000 15.99940
10147 OM 10147 OM OM1 10147 -0.550000 15.99940
10148 OM 10148 OM OM1 10148 -0.550000 15.99940
10149 OM 10149 OM OM1 10149 -0.550000 15.99940
10150 OM 10150 OM OM1 10150 -0.550000 15.99940
10151 OM 10151 OM OM1 10151 -0.550000 15.99940
10152 OM 10152 OM OM1 10152 -0.550000 15.99940
10153 OM 10153 OM OM1 10153 -0.550000 15.99940
10154 OM 10154 OM OM1 10154 -0.550000 15.99940
10155 OM 10155 OM OM1 10155 -0.550000 15.99940
10156 OM 10156 OM OM1 10156 -0.550000 15.99940
10157 OM 10157 OM OM1 10157 -0.550000 15.99940
10158 OM 10158 OM OM1 10158 -0.550000 15.99940
10159 OM 10159 OM OM1 10159 -0.550000 15.99940
10160 OM 10160 OM OM1 10160 -0.550000 15.99940
10161 OM 10161 OM OM1 10161 -0.550000 15.99940
10162 OM 10162 OM OM1 10162 -0.550000 15.99940
10163 OM 10163 OM OM1 10163 -0.550000 15.99940
10164 OM 10164 OM OM1 10164 -0.550000 15.99940
10165 OM 10165 OM OM1 10165 -0.550000 15.99940
10166 OM 10166 OM OM1 10166 -0.550000 15.99940
10167 OM 10167 OM OM1 10167 -0.550000 15.99940
10168 OM 10168 OM OM1 10168 -0.550000 15.99940
10169 OM 10169 OM OM1 10169 -0.550000 15.99940
10170 OM 10170 OM OM1 10170 -0.550000 15.99940
10171 OM 10171 OM OM1 10171 -0.550000 15.99940
10172 OM 10172 OM OM1 10172 -0.550000 15.99940
10173 OM 10173 OM OM1 10173 -0.550000 15.99940
10174 OM 10174 OM OM1 10174 -0.550000 15.99940
10175 OM 10175 OM OM1 10175 -0.550000 15.99940
10176 OM 10176 OM OM1 10176 -0.550000 15.99940
10177 OM 10177 OM OM1 10177 -0.550000 15.99940
10178 OM 10178 OM OM1 10178 -0.550000 15.99940
10179 OM 10179 OM OM1 10179 -0.550000 15.99940
10180 OM 10180 OM OM1 10180 -0.550000 15.99940
10181 OM 10181 OM OM1 10181 -0.550000 15.99940
10182 OM 10182 OM OM1 10182 -0.550000 15.99940
10183 OM 10183 OM OM1 10183 -0.550000 15.99940
10184 OM 10184 OM OM1 10184 -0.550000 15.99940
10185 OM 10185 OM OM1 10185 -0.550000 15.99940
10186 OM 10186 OM OM1 10186 -0.550000 15.99940
10187 OM 10187 OM OM1 10187 -0.550000 15.99940
10188 OM 10188 OM OM1 10188 -0.550000 15.99940
10189 OM 10189 OM OM1 10189 -0.550000 15.99940
10190 OM 10190 OM OM1 10190 -0.550000 15.99940
10191 OM 10191 OM OM1 10191 -0.550000 15.99940
10192 OM 10192 OM OM1 10192 -0.550000 15.99940
10193 OM 10193 OM OM1 10193 -0.550000 15.99940
10194 OM 10194 OM OM1 10194 -0.550000 15.99940
10195 OM 10195 OM OM1 10195 -0.550000 15.99940
10196 OM 10196 OM OM1 10196 -0.550000 15.99940
10197 OM 10197 OM OM1 10197 -0.550000 15.99940
10198 OM 10198 OM OM1 10198 -0.550000 15.99940
10199 OM 10199 OM OM1 10199 -0.550000 15.99940
10200 OM 10200 OM OM1 10200 -0.550000 15.99940
10201 OM 10201 OM OM1 10201 -0.550000 15.99940
10202 OM 10202 OM OM1 10202 -0.550000 15.99940
10203 OM 10203 OM OM1 10203 -0.550000 15.99940
10204 OM 10204 OM OM1 10204 -0.550000 15.99940
10205 OM 10205 OM OM1 10205 -0.550000 15.99940
10206 OM 10206 OM OM1 10206 -0.550000 15.99940
10207 OM 10207 OM OM1 10207 -0.550000 15.99940
10208 OM 10208 OM OM1 10208 -0.550000 15.99940
10209 OM 10209 OM OM1 10209 -0.550000 15.99940
10210 OM 10210 OM OM1 10210 -0.550000 15.99940
10211 OM 10211 OM OM1 10211 -0.550000 15.99940
10212 OM 10212 OM OM1 10212 -0.550000 15.99940
10213 OM 10213 OM OM1 10213 -0.550000 15.99940
10214 OM 10214 OM OM1 10214 -0.550000 15.99940
10215 OM 10215 OM OM1 10215 -0.550000 15.99940
10216 OM 10216 OM OM1 10216 -0.550000 15.99940
10217 OM 10217 OM OM1 10217 -0.550000 15.99940
10218 OM 10218 OM OM1 10218 -0.550000 15.99940
10219 OM 10219 OM OM1 10219 -0.550000 15.99940
10220 OM 10220 OM OM1 10220 -0.550000 15.99940
10221 OM 10221 OM OM1 10221 -0.550000 15.99940
10222 OM 10222 OM OM1 10222 -0.550000 15.99940
10223 OM 10223 OM OM1 10223 -0.550000 15.99940
10224 OM 10224 OM OM1 10224 -0.550000 15.99940
10225 OM 10225 OM OM1 10225 -0.550000 15.99940
10226 OM 10226 OM OM1 10226 -0.550000 15.99940
10227 OM 10227 OM OM1 10227 -0.550000 15.99940
10228 OM 10228 OM OM1 10228 -0.550000 15.99940
10229 OM 10229 OM OM1 10229 -0.550000 15.99940
10230 OM 10230 OM OM1 10230 -0.550000 15.99940
10231 OM 10231 OM OM1 10231 -0.550000 15.99940
10232 OM 10232 OM OM1 10232 -0.550000 15.99940
10233 OM 10233 OM OM1 10233 -0.550000 15.99940
10234 OM 10234 OM OM1 10234 -0.550000 15.99940
10235 OM 10235 OM OM1 10235 -0.550000 15.99940
10236 OM 10236 OM OM1 10236 -0.550000 15.99940
10237 OM 10237 OM OM1 10237 -0.550000 15.99940
10238 OM 10238 OM OM1 10238 -0.550000 15.99940
10239 OM 10239 OM OM1 10239 -0.550000 15.99940
10240 OM 10240 OM OM1 10240 -0.550000 15.99940
10241 OM 10241 OM OM1 10241 -0.550000 15.99940
10242 OM 10242 OM OM1 10242 -0.550000 15.99940
10243 OM 10243 OM OM1 10243 -0.550000 15.99940
10244 OM 10244 OM OM1 10244 -0.550000 15.99940
10245 OM 10245 OM OM1 10245 -0.550000 15.99940
10246 OM 10246 OM OM1 10246 -0.550000 15.99940
10247 OM 10247 OM OM1 10247 -0.550000 15.99940
10248 OM 10248 OM OM1 10248 -0.550000 15.99940
10249 OM 10249 OM OM1 10249 -0.550000 15.99940
10250 OM 10250 OM OM1 10250 -0.550000 15.99940
10251 OM 10251 OM OM1 10251 -0.550000 15.99940
10252 OM 10252 OM OM1 10252 -0.550000 15.99940
10253 OM 10253 OM OM1 10253 -0.550000 15.99940
10254 OM 10254 OM OM1 10254 -0.550000 15.99940
10255 OM 10255 OM OM1 10255 -0.550000 15.99940
10256 OM 10256 OM OM1 10256 -0.550000 15.99940
10257 OM 10257 OM OM1 10257 -0.550000 15.99940
10258 OM 10258 OM OM1 10258 -0.550000 15.99940
10259 OM 10259 OM OM1 10259 -0.550000 15.99940
10260 OM 10260 OM OM1 10260 -0.550000 15.99940
10261 OM 10261 OM OM1 10261 -0.550000 15.99940
10262 OM 10262 OM OM1 10262 -0.550000 15.99940
10263 OM 10263 OM OM1 10263 -0.550000 15.99940
10264 OM 10264 OM OM1 10264 -0.550000 15.99940
10265 OM 10265 OM OM1 10265 -0.550000 15.99940
10266 OM 10266 OM OM1 10266 -0.550000 15.99940
10267 OM 10267 OM OM1 10267 -0.550000 15.99940
10268 OM 10268 OM OM1 10268 -0.550000 15.99940
10269 OM 10269 OM OM1 10269 -0.550000 15.99940
10270 OM 10270 OM OM1 10270 -0.550000 15.99940
10271 OM 10271 OM OM1 10271 -0.550000 15.99940
10272 OM 10272 OM OM1 10272 -0.550000 15.99940
10273 OM 10273 OM OM1 10273 -0.550000 15.99940
10274 OM 10274 OM OM1 10274 -0.550000 15.99940
10275 OM 10275 OM OM1 10275 -0.550000 15.99940
10276 OM 10276 OM OM1 10276 -0.550000 15.99940
10277 OM 10277 OM OM1 10277 -0.550000 15.99940
10278 OM 10278 OM OM1 10278 -0.550000 15.99940
10279 OM 10279 OM OM1 10279 -0.550000 15.99940
10280 OM 10280 OM OM1 10280 -0.550000 15.99940
10281 OM 10281 OM OM1 10281 -0.550000 15.99940
10282 OM 10282 OM OM1 10282 -0.550000 15.99940
10283 OM 10283 OM OM1 10283 -0.550000 15.99940
10284 OM 10284 OM OM1 10284 -0.550000 15.99940
10285 OM 10285 OM OM1 10285 -0.550000 15.99940
10286 OM 10286 OM OM1 10286 -0.550000 15.99940
10287 OM 10287 OM OM1 10287 -0.550000 15.99940
10288 OM 10288 OM OM1 10288 -0.550000 15.99940
10289 OM 10289 OM OM1 10289 -0.550000 15.99940
10290 OM 10290 OM OM1 10290 -0.550000 15.99940
10291 OM 10291 OM OM1 10291 -0.550000 15.99940
10292 OM 10292 OM OM1 10292 -0.550000 15.99940
10293 OM 10293 OM OM1 10293 -0.550000 15.99940
10294 OM 10294 OM OM1 10294 -0.550000 15.99940
10295 OM 10295 OM OM1 10295 -0.550000 15.99940
10296 OM 10296 OM OM1 10296 -0.550000 15.99940
10297 OM 10297 OM OM1 10297 -0.550000 15.99940
10298 OM 10298 OM OM1 10298 -0.550000 15.99940
10299 OM 10299 OM OM1 10299 -0.550000 15.99940
10300 OM 10300 OM OM1 10300 -0.550000 15.99940
10301 OM 10301 OM OM1 10301 -0.550000 15.99940
10302 OM 10302 OM OM1 10302 -0.550000 15.99940
10303 OM 10303 OM OM1 10303 -0.550000 15.99940
10304 OM 10304 OM OM1 10304 -0.550000 15.99940
10305 OM 10305 OM OM1 10305 -0.550000 15.99940
10306 OM 10306 OM OM1 10306 -0.550000 15.99940
10307 OM 10307 OM OM1 10307 -0.550000 15.99940
10308 OM 10308 OM OM1 10308 -0.550000 15.99940
10309 OM 10309 OM OM1 10309 -0.550000 15.99940
10310 OM 10310 OM OM1 10310 -0.550000 15.99940
10311 OM 10311 OM OM1 10311 -0.550000 15.99940
10312 OM 10312 OM OM1 10312 -0.550000 15.99940
10313 OM 10313 OM OM1 10313 -0.550000 15.99940
10314 OM 10314 OM OM1 10314 -0.550000 15.99940
10315 OM 10315 OM OM1 10315 -0.550000 15.99940
10316 OM 10316 OM OM1 10316 -0.550000 15.99940
10317 OM 10317 OM OM1 10317 -0.550000 15.99940
10318 OM 10318 OM OM1 10318 -0.550000 15.99940
10319 OM 10319 OM OM1 10319 -0.550000 15.99940
10320 OM 10320 OM OM1 10320 -0.550000 15.99940
10321 OM 10321 OM OM1 10321 -0.550000 15.99940
10322 OM 10322 OM OM1 10322 -0.550000 15.99940
10323 OM 10323 OM OM1 10323 -0.550000 15.99940
10324 OM 10324 OM OM1 10324 -0.550000 15.99940
10325 OM 10325 OM OM1 10325 -0.550000 15.99940
10326 OM 10326 OM OM1 10326 -0.550000 15.99940
10327 OM 10327 OM OM1 10327 -0.550000 15.99940
10328 OM 10328 OM OM1 10328 -0.550000 15.99940
10329 OM 10329 OM OM1 10329 -0.550000 15.99940
10330 OM 10330 OM OM1 10330 -0.550000 15.99940
10331 OM 10331 OM OM1 10331 -0.550000 15.99940
10332 OM 10332 OM OM1 10332 -0.550000 15.99940
10333 OM 10333 OM OM1 10333 -0.550000 15.99940
10334 OM 10334 OM OM1 10334 -0.550000 15.99940
10335 OM 10335 OM OM1 10335 -0.550000 15.99940
10336 OM 10336 OM OM1 10336 -0.550000 15.99940
10337 OM 10337 OM OM1 10337 -0.550000 15.99940
10338 OM 10338 OM OM1 10338 -0.550000 15.99940
10339 OM 10339 OM OM1 10339 -0.550000 15.99940
10340 OM 10340 OM OM1 10340 -0.550000 15.99940
10341 OM 10341 OM OM1 10341 -0.550000 15.99940
10342 OM 10342 OM OM1 10342 -0.550000 15.99940
10343 OM 10343 OM OM1 10343 -0.550000 15.99940
10344 OM 10344 OM OM1 10344 -0.550000 15.99940
10345 OM 10345 OM OM1 10345 -0.550000 15.99940
10346 OM 10346 OM OM1 10346 -0.550000 15.99940
10347 OM 10347 OM OM1 10347 -0.550000 15.99940
10348 OM 10348 OM OM1 10348 -0.550000 15.99940
10349 OM 10349 OM OM1 10349 -0.550000 15.99940
10350 OM 10350 OM OM1 10350 -0.550000 15.99940
10351 OM 10351 OM OM1 10351 -0.550000 15.99940
10352 OM 10352 OM OM1 10352 -0.550000 15.99940
10353 OM 10353 OM OM1 10353 -0.550000 15.99940
10354 OM 10354 OM OM1 10354 -0.550000 15.99940
10355 OM 10355 OM OM1 10355 -0.550000 15.99940
10356 OM 10356 OM OM1 10356 -0.550000 15.99940
10357 OM 10357 OM OM1 10357 -0.550000 15.99940
10358 OM 10358 OM OM1 10358 -0.550000 15.99940
10359 OM 10359 OM OM1 10359 -0.550000 15.99940
10360 OM 10360 OM OM1 10360 -0.550000 15.99940
10361 OM 10361 OM OM1 10361 -0.550000 15.99940
10362 OM 10362 OM OM1 10362 -0.550000 15.99940
10363 OM 10363 OM OM1 10363 -0.550000 15.99940
10364 OM 10364 OM OM1 10364 -0.550000 15.99940
10365 OM 10365 OM OM1 10365 -0.550000 15.99940
10366 OM 10366 OM OM1 10366 -0.550000 15.99940
10367 OM 10367 OM OM1 10367 -0.550000 15.99940
10368 OM 10368 OM OM1 10368 -0.550000 15.99940
10369 OM 10369 OM OM1 10369 -0.550000 15.99940
10370 OM 10370 OM OM1 10370 -0.550000 15.99940
10371 OM 10371 OM OM1 10371 -0.550000 15.99940
10372 OM 10372 OM OM1 10372 -0.550000 15.99940
10373 OM 10373 OM OM1 10373 -0.550000 15.99940
10374 OM 10374 OM OM1 10374 -0.550000 15.99940
10375 OM 10375 OM OM1 10375 -0.550000 15.99940
10376 OM 10376 OM OM1 10376 -0.550000 15.99940
10377 OM 10377 OM OM1 10377 -0.550000 15.99940
10378 OM 10378 OM OM1 10378 -0.550000 15.99940
10379 OM 10379 OM OM1 10379 -0.550000 15.99940
10380 OM 10380 OM OM1 10380 -0.550000 15.99940
10381 OM 10381 OM OM1 10381 -0.550000 15.99940
10382 OM 10382 OM OM1 10382 -0.550000 15.99940
10383 OM 10383 OM OM1 10383 -0.550000 15.99940
10384 OM 10384 OM OM1 10384 -0.550000 15.99940
10385 OM 10385 OM OM1 10385 -0.550000 15.99940
10386 OM 10386 OM OM1 10386 -0.550000 15.99940
10387 OM 10387 OM OM1 10387 -0.550000 15.99940
10388 OM 10388 OM OM1 10388 -0.550000 15.99940
10389 OM 10389 OM OM1 10389 -0.550000 15.99940
10390 OM 10390 OM OM1 10390 -0.550000 15.99940
10391 OM 10391 OM OM1 10391 -0.550000 15.99940
10392 OM 10392 OM OM1 10392 -0.550000 15.99940
10393 OM 10393 OM OM1 10393 -0.550000 15.99940
10394 OM 10394 OM OM1 10394 -0.550000 15.99940
10395 OM 10395 OM OM1 10395 -0.550000 15.99940
10396 OM 10396 OM OM1 10396 -0.550000 15.99940
10397 OM 10397 OM OM1 10397 -0.550000 15.99940
10398 OM 10398 OM OM1 10398 -0.550000 15.99940
10399 OM 10399 OM OM1 10399 -0.550000 15.99940
10400 OM 10400 OM OM1 10400 -0.550000 15.99940
10401 OM 10401 OM OM1 10401 -0.550000 15.99940
10402 OM 10402 OM OM1 10402 -0.550000 15.99940
10403 OM 10403 OM OM1 10403 -0.550000 15.99940
10404 OM 10404 OM OM1 10404 -0.550000 15.99940
10405 OM 10405 OM OM1 10405 -0.550000 15.99940
10406 OM 10406 OM OM1 10406 -0.550000 15.99940
10407 OM 10407 OM OM1 10407 -0.550000 15.99940
10408 OM 10408 OM OM1 10408 -0.550000 15.99940
10409 OM 10409 OM OM1 10409 -0.550000 15.99940
10410 OM 10410 OM OM1 10410 -0.550000 15.99940
10411 OM 10411 OM OM1 10411 -0.550000 15.99940
10412 OM 10412 OM OM1 10412 -0.550000 15.99940
10413 OM 10413 OM OM1 10413 -0.550000 15.99940
10414 OM 10414 OM OM1 10414 -0.550000 15.99940
10415 OM 10415 OM OM1 10415 -0.550000 15.99940
10416 OM 10416 OM OM1 10416 -0.550000 15.99940
10417 OM 10417 OM OM1 10417 -0.550000 15.99940
10418 OM 10418 OM OM1 10418 -0.550000 15.99940
10419 OM 10419 OM OM1 10419 -0.550000 15.99940
10420 OM 10420 OM OM1 10420 -0.550000 15.99940
10421 OM 10421 OM OM1 10421 -0.550000 15.99940
10422 OM 10422 OM OM1 10422 -0.550000 15.99940
10423 OM 10423 OM OM1 10423 -0.550000 15.99940
10424 OM 10424 OM OM1 10424 -0.550000 15.99940
10425 OM 10425 OM OM1 10425 -0.550000 15.99940
10426 OM 10426 OM OM1 10426 -0.550000 15.99940
10427 OM 10427 OM OM1 10427 -0.550000 15.99940
10428 OM 10428 OM OM1 10428 -0.550000 15.99940
10429 OM 10429 OM OM1 10429 -0.550000 15.99940
10430 OM 10430 OM OM1 10430 -0.550000 15.99940
10431 OM 10431 OM OM1 10431 -0.550000 15.99940
10432 OM 10432 OM OM1 10432 -0.550000 15.99940
10433 OM 10433 OM OM1 10433 -0.550000 15.99940
10434 OM 10434 OM OM1 10434 -0.550000 15.99940
10435 OM 10435 OM OM1 10435 -0.550000 15.99940
10436 OM 10436 OM OM1 10436 -0.550000 15.99940
10437 OM 10437 OM OM1 10437 -0.550000 15.99940
10438 OM 10438 OM OM1 10438 -0.550000 15.99940
10439 OM 10439 OM OM1 10439 -0.550000 15.99940
10440 OM 10440 OM OM1 10440 -0.550000 15.99940
10441 OM 10441 OM OM1 10441 -0.550000 15.99940
10442 OM 10442 OM OM1 10442 -0.550000 15.99940
10443 OM 10443 OM OM1 10443 -0.550000 15.99940
10444 OM 10444 OM OM1 10444 -0.550000 15.99940
10445 OM 10445 OM OM1 10445 -0.550000 15.99940
10446 OM 10446 OM OM1 10446 -0.550000 15.99940
10447 OM 10447 OM OM1 10447 -0.550000 15.99940
10448 OM 10448 OM OM1 10448 -0.550000 15.99940
10449 OM 10449 OM OM1 10449 -0.550000 15.99940
10450 OM 10450 OM OM1 10450 -0.550000 15.99940
10451 OM 10451 OM OM1 10451 -0.550000 15.99940
10452 OM 10452 OM OM1 10452 -0.550000 15.99940
10453 OM 10453 OM OM1 10453 -0.550000 15.99940
10454 OM 10454 OM OM1 10454 -0.550000 15.99940
10455 OM 10455 OM OM1 10455 -0.550000 15.99940
10456 OM 10456 OM OM1 10456 -0.550000 15.99940
10457 OM 10457 OM OM1 10457 -0.550000 15.99940
10458 OM 10458 OM OM1 10458 -0.550000 15.99940
10459 OM 10459 OM OM1 10459 -0.550000 15.99940
10460 OM 10460 OM OM1 10460 -0.550000 15.99940
10461 OM 10461 OM OM1 10461 -0.550000 15.99940
10462 OM 10462 OM OM1 10462 -0.550000 15.99940
10463 OM 10463 OM OM1 10463 -0.550000 15.99940
10464 OM 10464 OM OM1 10464 -0.550000 15.99940
10465 OM 10465 OM OM1 10465 -0.550000 15.99940
10466 OM 10466 OM OM1 10466 -0.550000 15.99940
10467 OM 10467 OM OM1 10467 -0.550000 15.99940
10468 OM 10468 OM OM1 10468 -0.550000 15.99940
10469 OM 10469 OM OM1 10469 -0.550000 15.99940
10470 OM 10470 OM OM1 10470 -0.550000 15.99940
10471 OM 10471 OM OM1 10471 -0.550000 15.99940
10472 OM 10472 OM OM1 10472 -0.550000 15.99940
10473 OM 10473 OM OM1 10473 -0.550000 15.99940
10474 OM 10474 OM OM1 10474 -0.550000 15.99940
10475 OM 10475 OM OM1 10475 -0.550000 15.99940
10476 OM 10476 OM OM1 10476 -0.550000 15.99940
10477 OM 10477 OM OM1 10477 -0.550000 15.99940
10478 OM 10478 OM OM1 10478 -0.550000 15.99940
10479 OM 10479 OM OM1 10479 -0.550000 15.99940
10480 OM 10480 OM OM1 10480 -0.550000 15.99940
10481 OM 10481 OM OM1 10481 -0.550000 15.99940
10482 OM 10482 OM OM1 10482 -0.550000 15.99940
10483 OM 10483 OM OM1 10483 -0.550000 15.99940
10484 OM 10484 OM OM1 10484 -0.550000 15.99940
10485 OM 10485 OM OM1 10485 -0.550000 15.99940
10486 OM 10486 OM OM1 10486 -0.550000 15.99940
10487 OM 10487 OM OM1 10487 -0.550000 15.99940
10488 OM 10488 OM OM1 10488 -0.550000 15.99940
10489 OM 10489 OM OM1 10489 -0.550000 15.99940
10490 OM 10490 OM OM1 10490 -0.550000 15.99940
10491 OM 10491 OM OM1 10491 -0.550000 15.99940
10492 OM 10492 OM OM1 10492 -0.550000 15.99940
10493 OM 10493 OM OM1 10493 -0.550000 15.99940
10494 OM 10494 OM OM1 10494 -0.550000 15.99940
10495 OM 10495 OM OM1 10495 -0.550000 15.99940
10496 OM 10496 OM OM1 10496 -0.550000 15.99940
10497 OM 10497 OM OM1 10497 -0.550000 15.99940
10498 OM 10498 OM OM1 10498 -0.550000 15.99940
10499 OM 10499 OM OM1 10499 -0.550000 15.99940
10500 OM 10500 OM OM1 10500 -0.550000 15.99940
10501 OM 10501 OM OM1 10501 -0.550000 15.99940
10502 OM 10502 OM OM1 10502 -0.550000 15.99940
10503 OM 10503 OM OM1 10503 -0.550000 15.99940
10504 OM 10504 OM OM1 10504 -0.550000 15.99940
10505 OM 10505 OM OM1 10505 -0.550000 15.99940
10506 OM 10506 OM OM1 10506 -0.550000 15.99940
10507 OM 10507 OM OM1 10507 -0.550000 15.99940
10508 OM 10508 OM OM1 10508 -0.550000 15.99940
10509 OM 10509 OM OM1 10509 -0.550000 15.99940
10510 OM 10510 OM OM1 10510 -0.550000 15.99940
10511 OM 10511 OM OM1 10511 -0.550000 15.99940
10512 OM 10512 OM OM1 10512 -0.550000 15.99940
10513 OM 10513 OM OM1 10513 -0.550000 15.99940
10514 OM 10514 OM OM1 10514 -0.550000 15.99940
10515 OM 10515 OM OM1 10515 -0.550000 15.99940
10516 OM 10516 OM OM1 10516 -0.550000 15.99940
10517 OM 10517 OM OM1 10517 -0.550000 15.99940
10518 OM 10518 OM OM1 10518 -0.550000 15.99940
10519 OM 10519 OM OM1 10519 -0.550000 15.99940
10520 OM 10520 OM OM1 10520 -0.550000 15.99940
10521 OM 10521 OM OM1 10521 -0.550000 15.99940
10522 OM 10522 OM OM1 10522 -0.550000 15.99940
10523 OM 10523 OM OM1 10523 -0.550000 15.99940
10524 OM 10524 OM OM1 10524 -0.550000 15.99940
10525 OM 10525 OM OM1 10525 -0.550000 15.99940
10526 OM 10526 OM OM1 10526 -0.550000 15.99940
10527 OM 10527 OM OM1 10527 -0.550000 15.99940
10528 OM 10528 OM OM1 10528 -0.550000 15.99940
10529 OM 10529 OM OM1 10529 -0.550000 15.99940
10530 OM 10530 OM OM1 10530 -0.550000 15.99940
10531 OM 10531 OM OM1 10531 -0.550000 15.99940
10532 OM 10532 OM OM1 10532 -0.550000 15.99940
10533 OM 10533 OM OM1 10533 -0.550000 15.99940
10534 OM 10534 OM OM1 10534 -0.550000 15.99940
10535 OM 10535 OM OM1 10535 -0.550000 15.99940
10536 OM 10536 OM OM1 10536 -0.550000 15.99940
10537 OM 10537 OM OM1 10537 -0.550000 15.99940
10538 OM 10538 OM OM1 10538 -0.550000 15.99940
10539 OM 10539 OM OM1 10539 -0.550000 15.99940
10540 OM 10540 OM OM1 10540 -0.550000 15.99940
10541 OM 10541 OM OM1 10541 -0.550000 15.99940
10542 OM 10542 OM OM1 10542 -0.550000 15.99940
10543 OM 10543 OM OM1 10543 -0.550000 15.99940
10544 OM 10544 OM OM1 10544 -0.550000 15.99940
10545 OM 10545 OM OM1 10545 -0.550000 15.99940
10546 OM 10546 OM OM1 10546 -0.550000 15.99940
10547 OM 10547 OM OM1 10547 -0.550000 15.99940
10548 OM 10548 OM OM1 10548 -0.550000 15.99940
10549 OM 10549 OM OM1 10549 -0.550000 15.99940
10550 OM 10550 OM OM1 10550 -0.550000 15.99940
10551 OM 10551 OM OM1 10551 -0.550000 15.99940
10552 OM 10552 OM OM1 10552 -0.550000 15.99940
10553 OM 10553 OM OM1 10553 -0.550000 15.99940
10554 OM 10554 OM OM1 10554 -0.550000 15.99940
10555 OM 10555 OM OM1 10555 -0.550000 15.99940
10556 OM 10556 OM OM1 10556 -0.550000 15.99940
10557 OM 10557 OM OM1 10557 -0.550000 15.99940
10558 OM 10558 OM OM1 10558 -0.550000 15.99940
10559 OM 10559 OM OM1 10559 -0.550000 15.99940
10560 OM 10560 OM OM1 10560 -0.550000 15.99940
10561 OM 10561 OM OM1 10561 -0.550000 15.99940
10562 OM 10562 OM OM1 10562 -0.550000 15.99940
10563 OM 10563 OM OM1 10563 -0.550000 15.99940
10564 OM 10564 OM OM1 10564 -0.550000 15.99940
10565 OM 10565 OM OM1 10565 -0.550000 15.99940
10566 OM 10566 OM OM1 10566 -0.550000 15.99940
10567 OM 10567 OM OM1 10567 -0.550000 15.99940
10568 OM 10568 OM OM1 10568 -0.550000 15.99940
10569 OM 10569 OM OM1 10569 -0.550000 15.99940
10570 OM 10570 OM OM1 10570 -0.550000 15.99940
10571 OM 10571 OM OM1 10571 -0.550000 15.99940
10572 OM 10572 OM OM1 10572 -0.550000 15.99940
10573 OM 10573 OM OM1 10573 -0.550000 15.99940
10574 OM 10574 OM OM1 10574 -0.550000 15.99940
10575 OM 10575 OM OM1 10575 -0.550000 15.99940
10576 OM 10576 OM OM1 10576 -0.550000 15.99940
10577 OM 10577 OM OM1 10577 -0.550000 15.99940
10578 OM 10578 OM OM1 10578 -0.550000 15.99940
10579 OM 10579 OM OM1 10579 -0.550000 15.99940
10580 OM 10580 OM OM1 10580 -0.550000 15.99940
10581 OM 10581 OM OM1 10581 -0.550000 15.99940
10582 OM 10582 OM OM1 10582 -0.550000 15.99940
10583 OM 10583 OM OM1 10583 -0.550000 15.99940
10584 OM 10584 OM OM1 10584 -0.550000 15.99940
10585 OM 10585 OM OM1 10585 -0.550000 15.99940
10586 OM 10586 OM OM1 10586 -0.550000 15.99940
10587 OM 10587 OM OM1 10587 -0.550000 15.99940
10588 OM 10588 OM OM1 10588 -0.550000 15.99940
10589 OM 10589 OM OM1 10589 -0.550000 15.99940
10590 OM 10590 OM OM1 10590 -0.550000 15.99940
10591 OM 10591 OM OM1 10591 -0.550000 15.99940
10592 OM 10592 OM OM1 10592 -0.550000 15.99940
10593 OM 10593 OM OM1 10593 -0.550000 15.99940
10594 OM 10594 OM OM1 10594 -0.550000 15.99940
10595 OM 10595 OM OM1 10595 -0.550000 15.99940
10596 OM 10596 OM OM1 10596 -0.550000 15.99940
10597 OM 10597 OM OM1 10597 -0.550000 15.99940
10598 OM 10598 OM OM1 10598 -0.550000 15.99940
10599 OM 10599 OM OM1 10599 -0.550000 15.99940
10600 OM 10600 OM OM1 10600 -0.550000 15.99940
10601 OM 10601 OM OM1 10601 -0.550000 15.99940
10602 OM 10602 OM OM1 10602 -0.550000 15.99940
10603 OM 10603 OM OM1 10603 -0.550000 15.99940
10604 OM 10604 OM OM1 10604 -0.550000 15.99940
10605 OM 10605 OM OM1 10605 -0.550000 15.99940
10606 OM 10606 OM OM1 10606 -0.550000 15.99940
10607 OM 10607 OM OM1 10607 -0.550000 15.99940
10608 OM 10608 OM OM1 10608 -0.550000 15.99940
10609 OM 10609 OM OM1 10609 -0.550000 15.99940
10610 OM 10610 OM OM1 10610 -0.550000 15.99940
10611 OM 10611 OM OM1 10611 -0.550000 15.99940
10612 OM 10612 OM OM1 10612 -0.550000 15.99940
10613 OM 10613 OM OM1 10613 -0.550000 15.99940
10614 OM 10614 OM OM1 10614 -0.550000 15.99940
10615 OM 10615 OM OM1 10615 -0.550000 15.99940
10616 OM 10616 OM OM1 10616 -0.550000 15.99940
10617 OM 10617 OM OM1 10617 -0.550000 15.99940
10618 OM 10618 OM OM1 10618 -0.550000 15.99940
10619 OM 10619 OM OM1 10619 -0.550000 15.99940
10620 OM 10620 OM OM1 10620 -0.550000 15.99940
10621 OM 10621 OM OM1 10621 -0.550000 15.99940
10622 OM 10622 OM OM1 10622 -0.550000 15.99940
10623 OM 10623 OM OM1 10623 -0.550000 15.99940
10624 OM 10624 OM OM1 10624 -0.550000 15.99940
10625 OM 10625 OM OM1 10625 -0.550000 15.99940
10626 OM 10626 OM OM1 10626 -0.550000 15.99940
10627 OM 10627 OM OM1 10627 -0.550000 15.99940
10628 OM 10628 OM OM1 10628 -0.550000 15.99940
10629 OM 10629 OM OM1 10629 -0.550000 15.99940
10630 OM 10630 OM OM1 10630 -0.550000 15.99940
10631 OM 10631 OM OM1 10631 -0.550000 15.99940
10632 OM 10632 OM OM1 10632 -0.550000 15.99940
10633 OM 10633 OM OM1 10633 -0.550000 15.99940
10634 OM 10634 OM OM1 10634 -0.550000 15.99940
10635 OM 10635 OM OM1 10635 -0.550000 15.99940
10636 OM 10636 OM OM1 10636 -0.550000 15.99940
10637 OM 10637 OM OM1 10637 -0.550000 15.99940
10638 OM 10638 OM OM1 10638 -0.550000 15.99940
10639 OM 10639 OM OM1 10639 -0.550000 15.99940
10640 OM 10640 OM OM1 10640 -0.550000 15.99940
10641 OM 10641 OM OM1 10641 -0.550000 15.99940
10642 OM 10642 OM OM1 10642 -0.550000 15.99940
10643 OM 10643 OM OM1 10643 -0.550000 15.99940
10644 OM 10644 OM OM1 10644 -0.550000 15.99940
10645 OM 10645 OM OM1 10645 -0.550000 15.99940
10646 OM 10646 OM OM1 10646 -0.550000 15.99940
10647 OM 10647 OM OM1 10647 -0.550000 15.99940
10648 OM 10648 OM OM1 10648 -0.550000 15.99940
10649 OM 10649 OM OM1 10649 -0.550000 15.99940
10650 OM 10650 OM OM1 10650 -0.550000 15.99940
10651 OM 10651 OM OM1 10651 -0.550000 15.99940
10652 OM 10652 OM OM1 10652 -0.550000 15.99940
10653 OM 10653 OM OM1 10653 -0.550000 15.99940
10654 OM 10654 OM OM1 10654 -0.550000 15.99940
10655 OM 10655 OM OM1 10655 -0.550000 15.99940
10656 OM 10656 OM OM1 10656 -0.550000 15.99940
10657 OM 10657 OM OM1 10657 -0.550000 15.99940
10658 OM 10658 OM OM1 10658 -0.550000 15.99940
10659 OM 10659 OM OM1 10659 -0.550000 15.99940
10660 OM 10660 OM OM1 10660 -0.550000 15.99940
10661 OM 10661 OM OM1 10661 -0.550000 15.99940
10662 OM 10662 OM OM1 10662 -0.550000 15.99940
10663 OM 10663 OM OM1 10663 -0.550000 15.99940
10664 OM 10664 OM OM1 10664 -0.550000 15.99940
10665 OM 10665 OM OM1 10665 -0.550000 15.99940
10666 OM 10666 OM OM1 10666 -0.550000 15.99940
10667 OM 10667 OM OM1 10667 -0.550000 15.99940
10668 OM 10668 OM OM1 10668 -0.550000 15.99940
10669 OM 10669 OM OM1 10669 -0.550000 15.99940
10670 OM 10670 OM OM1 10670 -0.550000 15.99940
10671 OM 10671 OM OM1 10671 -0.550000 15.99940
10672 OM 10672 OM OM1 10672 -0.550000 15.99940
10673 OM 10673 OM OM1 10673 -0.550000 15.99940
10674 OM 10674 OM OM1 10674 -0.550000 15.99940
10675 OM 10675 OM OM1 10675 -0.550000 15.99940
10676 OM 10676 OM OM1 10676 -0.550000 15.99940
10677 OM 10677 OM OM1 10677 -0.550000 15.99940
10678 OM 10678 OM OM1 10678 -0.550000 15.99940
10679 OM 10679 OM OM1 10679 -0.550000 15.99940
10680 OM 10680 OM OM1 10680 -0.550000 15.99940
10681 OM 10681 OM OM1 10681 -0.550000 15.99940
10682 OM 10682 OM OM1 10682 -0.550000 15.99940
10683 OM 10683 OM OM1 10683 -0.550000 15.99940
10684 OM 10684 OM OM1 10684 -0.550000 15.99940
10685 OM 10685 OM OM1 10685 -0.550000 15.99940
10686 OM 10686 OM OM1 10686 -0.550000 15.99940
10687 OM 10687 OM OM1 10687 -0.550000 15.99940
10688 OM 10688 OM OM1 10688 -0.550000 15.99940
10689 OM 10689 OM OM1 10689 -0.550000 15.99940
10690 OM 10690 OM OM1 10690 -0.550000 15.99940
10691 OM 10691 OM OM1 10691 -0.550000 15.99940
10692 OM 10692 OM OM1 10692 -0.550000 15.99940
10693 OM 10693 OM OM1 10693 -0.550000 15.99940
10694 OM 10694 OM OM1 10694 -0.550000 15.99940
10695 OM 10695 OM OM1 10695 -0.550000 15.99940
10696 OM 10696 OM OM1 10696 -0.550000 15.99940
10697 OM 10697 OM OM1 10697 -0.550000 15.99940
10698 OM 10698 OM OM1 10698 -0.550000 15.99940
10699 OM 10699 OM OM1 10699 -0.550000 15.99940
10700 OM 10700 OM OM1 10700 -0.550000 15.99940
10701 OM 10701 OM OM1 10701 -0.550000 15.99940
10702 OM 10702 OM OM1 10702 -0.550000 15.99940
10703 OM 10703 OM OM1 10703 -0.550000 15.99940
10704 OM 10704 OM OM1 10704 -0.550000 15.99940
10705 OM 10705 OM OM1 10705 -0.550000 15.99940
10706 OM 10706 OM OM1 10706 -0.550000 15.99940
10707 OM 10707 OM OM1 10707 -0.550000 15.99940
10708 OM 10708 OM OM1 10708 -0.550000 15.99940
10709 OM 10709 OM OM1 10709 -0.550000 15.99940
10710 OM 10710 OM OM1 10710 -0.550000 15.99940
10711 OM 10711 OM OM1 10711 -0.550000 15.99940
10712 OM 10712 OM OM1 10712 -0.550000 15.99940
10713 OM 10713 OM OM1 10713 -0.550000 15.99940
10714 OM 10714 OM OM1 10714 -0.550000 15.99940
10715 OM 10715 OM OM1 10715 -0.550000 15.99940
10716 OM 10716 OM OM1 10716 -0.550000 15.99940
10717 OM 10717 OM OM1 10717 -0.550000 15.99940
10718 OM 10718 OM OM1 10718 -0.550000 15.99940
10719 OM 10719 OM OM1 10719 -0.550000 15.99940
10720 OM 10720 OM OM1 10720 -0.550000 15.99940
10721 OM 10721 OM OM1 10721 -0.550000 15.99940
10722 OM 10722 OM OM1 10722 -0.550000 15.99940
10723 OM 10723 OM OM1 10723 -0.550000 15.99940
10724 OM 10724 OM OM1 10724 -0.550000 15.99940
10725 OM 10725 OM OM1 10725 -0.550000 15.99940
10726 OM 10726 OM OM1 10726 -0.550000 15.99940
10727 OM 10727 OM OM1 10727 -0.550000 15.99940
10728 OM 10728 OM OM1 10728 -0.550000 15.99940
10729 OM 10729 OM OM1 10729 -0.550000 15.99940
10730 OM 10730 OM OM1 10730 -0.550000 15.99940
10731 OM 10731 OM OM1 10731 -0.550000 15.99940
10732 OM 10732 OM OM1 10732 -0.550000 15.99940
10733 OM 10733 OM OM1 10733 -0.550000 15.99940
10734 OM 10734 OM OM1 10734 -0.550000 15.99940
10735 OM 10735 OM OM1 10735 -0.550000 15.99940
10736 OM 10736 OM OM1 10736 -0.550000 15.99940
10737 OM 10737 OM OM1 10737 -0.550000 15.99940
10738 OM 10738 OM OM1 10738 -0.550000 15.99940
10739 OM 10739 OM OM1 10739 -0.550000 15.99940
10740 OM 10740 OM OM1 10740 -0.550000 15.99940
10741 OM 10741 OM OM1 10741 -0.550000 15.99940
10742 OM 10742 OM OM1 10742 -0.550000 15.99940
10743 OM 10743 OM OM1 10743 -0.550000 15.99940
10744 OM 10744 OM OM1 10744 -0.550000 15.99940
10745 OM 10745 OM OM1 10745 -0.550000 15.99940
10746 OM 10746 OM OM1 10746 -0.550000 15.99940
10747 OM 10747 OM OM1 10747 -0.550000 15.99940
10748 OM 10748 OM OM1 10748 -0.550000 15.99940
10749 OM 10749 OM OM1 10749 -0.550000 15.99940
10750 OM 10750 OM OM1 10750 -0.550000 15.99940
10751 OM 10751 OM OM1 10751 -0.550000 15.99940
10752 OM 10752 OM OM1 10752 -0.550000 15.99940
10753 OM 10753 OM OM1 10753 -0.550000 15.99940
10754 OM 10754 OM OM1 10754 -0.550000 15.99940
10755 OM 10755 OM OM1 10755 -0.550000 15.99940
10756 OM 10756 OM OM1 10756 -0.550000 15.99940
10757 OM 10757 OM OM1 10757 -0.550000 15.99940
10758 OM 10758 OM OM1 10758 -0.550000 15.99940
10759 OM 10759 OM OM1 10759 -0.550000 15.99940
10760 OM 10760 OM OM1 10760 -0.550000 15.99940
10761 OM 10761 OM OM1 10761 -0.550000 15.99940
10762 OM 10762 OM OM1 10762 -0.550000 15.99940
10763 OM 10763 OM OM1 10763 -0.550000 15.99940
10764 OM 10764 OM OM1 10764 -0.550000 15.99940
10765 OM 10765 OM OM1 10765 -0.550000 15.99940
10766 OM 10766 OM OM1 10766 -0.550000 15.99940
10767 OM 10767 OM OM1 10767 -0.550000 15.99940
10768 OM 10768 OM OM1 10768 -0.550000 15.99940
10769 OM 10769 OM OM1 10769 -0.550000 15.99940
10770 OM 10770 OM OM1 10770 -0.550000 15.99940
10771 OM 10771 OM OM1 10771 -0.550000 15.99940
10772 OM 10772 OM OM1 10772 -0.550000 15.99940
10773 OM 10773 OM OM1 10773 -0.550000 15.99940
10774 OM 10774 OM OM1 10774 -0.550000 15.99940
10775 OM 10775 OM OM1 10775 -0.550000 15.99940
10776 OM 10776 OM OM1 10776 -0.550000 15.99940
10777 OM 10777 OM OM1 10777 -0.550000 15.99940
10778 OM 10778 OM OM1 10778 -0.550000 15.99940
10779 OM 10779 OM OM1 10779 -0.550000 15.99940
10780 OM 10780 OM OM1 10780 -0.550000 15.99940
10781 OM 10781 OM OM1 10781 -0.550000 15.99940
10782 OM 10782 OM OM1 10782 -0.550000 15.99940
10783 OM 10783 OM OM1 10783 -0.550000 15.99940
10784 OM 10784 OM OM1 10784 -0.550000 15.99940
10785 OM 10785 OM OM1 10785 -0.550000 15.99940
10786 OM 10786 OM OM1 10786 -0.550000 15.99940
10787 OM 10787 OM OM1 10787 -0.550000 15.99940
10788 OM 10788 OM OM1 10788 -0.550000 15.99940
10789 OM 10789 OM OM1 10789 -0.550000 15.99940
10790 OM 10790 OM OM1 10790 -0.550000 15.99940
10791 OM 10791 OM OM1 10791 -0.550000 15.99940
10792 OM 10792 OM OM1 10792 -0.550000 15.99940
10793 OM 10793 OM OM1 10793 -0.550000 15.99940
10794 OM 10794 OM OM1 10794 -0.550000 15.99940
10795 OM 10795 OM OM1 10795 -0.550000 15.99940
10796 OM 10796 OM OM1 10796 -0.550000 15.99940
10797 OM 10797 OM OM1 10797 -0.550000 15.99940
10798 OM 10798 OM OM1 10798 -0.550000 15.99940
10799 OM 10799 OM OM1 10799 -0.550000 15.99940
10800 OM 10800 OM OM1 10800 -0.550000 15.99940
10801 OM 10801 OM OM1 10801 -0.550000 15.99940
10802 OM 10802 OM OM1 10802 -0.550000 15.99940
10803 OM 10803 OM OM1 10803 -0.550000 15.99940
10804 OM 10804 OM OM1 10804 -0.550000 15.99940
10805 OM 10805 OM OM1 10805 -0.550000 15.99940
10806 OM 10806 OM OM1 10806 -0.550000 15.99940
10807 OM 10807 OM OM1 10807 -0.550000 15.99940
10808 OM 10808 OM OM1 10808 -0.550000 15.99940
10809 OM 10809 OM OM1 10809 -0.550000 15.99940
10810 OM 10810 OM OM1 10810 -0.550000 15.99940
10811 OM 10811 OM OM1 10811 -0.550000 15.99940
10812 OM 10812 OM OM1 10812 -0.550000 15.99940
10813 OM 10813 OM OM1 10813 -0.550000 15.99940
10814 OM 10814 OM OM1 10814 -0.550000 15.99940
10815 OM 10815 OM OM1 10815 -0.550000 15.99940
10816 OM 10816 OM OM1 10816 -0.550000 15.99940
10817 OM 10817 OM OM1 10817 -0.550000 15.99940
10818 OM 10818 OM OM1 10818 -0.550000 15.99940
10819 OM 10819 OM OM1 10819 -0.550000 15.99940
10820 OM 10820 OM OM1 10820 -0.550000 15.99940
10821 OM 10821 OM OM1 10821 -0.550000 15.99940
10822 OM 10822 OM OM1 10822 -0.550000 15.99940
10823 OM 10823 OM OM1 10823 -0.550000 15.99940
10824 OM 10824 OM OM1 10824 -0.550000 15.99940
10825 OM 10825 OM OM1 10825 -0.550000 15.99940
10826 OM 10826 OM OM1 10826 -0.550000 15.99940
10827 OM 10827 OM OM1 10827 -0.550000 15.99940
10828 OM 10828 OM OM1 10828 -0.550000 15.99940
10829 OM 10829 OM OM1 10829 -0.550000 15.99940
10830 OM 10830 OM OM1 10830 -0.550000 15.99940
10831 OM 10831 OM OM1 10831 -0.550000 15.99940
10832 OM 10832 OM OM1 10832 -0.550000 15.99940
10833 OM 10833 OM OM1 10833 -0.550000 15.99940
10834 OM 10834 OM OM1 10834 -0.550000 15.99940
10835 OM 10835 OM OM1 10835 -0.550000 15.99940
10836 OM 10836 OM OM1 10836 -0.550000 15.99940
10837 OM 10837 OM OM1 10837 -0.550000 15.99940
10838 OM 10838 OM OM1 10838 -0.550000 15.99940
10839 OM 10839 OM OM1 10839 -0.550000 15.99940
10840 OM 10840 OM OM1 10840 -0.550000 15.99940
10841 OM 10841 OM OM1 10841 -0.550000 15.99940
10842 OM 10842 OM OM1 10842 -0.550000 15.99940
10843 OM 10843 OM OM1 10843 -0.550000 15.99940
10844 OM 10844 OM OM1 10844 -0.550000 15.99940
10845 OM 10845 OM OM1 10845 -0.550000 15.99940
10846 OM 10846 OM OM1 10846 -0.550000 15.99940
10847 OM 10847 OM OM1 10847 -0.550000 15.99940
10848 OM 10848 OM OM1 10848 -0.550000 15.99940
10849 OM 10849 OM OM1 10849 -0.550000 15.99940
10850 OM 10850 OM OM1 10850 -0.550000 15.99940
10851 OM 10851 OM OM1 10851 -0.550000 15.99940
10852 OM 10852 OM OM1 10852 -0.550000 15.99940
10853 OM 10853 OM OM1 10853 -0.550000 15.99940
10854 OM 10854 OM OM1 10854 -0.550000 15.99940
10855 OM 10855 OM OM1 10855 -0.550000 15.99940
10856 OM 10856 OM OM1 10856 -0.550000 15.99940
10857 OM 10857 OM OM1 10857 -0.550000 15.99940
10858 OM 10858 OM OM1 10858 -0.550000 15.99940
10859 OM 10859 OM OM1 10859 -0.550000 15.99940
10860 OM 10860 OM OM1 10860 -0.550000 15.99940
10861 OM 10861 OM OM1 10861 -0.550000 15.99940
10862 OM 10862 OM OM1 10862 -0.550000 15.99940
10863 OM 10863 OM OM1 10863 -0.550000 15.99940
10864 OM 10864 OM OM1 10864 -0.550000 15.99940
10865 OM 10865 OM OM1 10865 -0.550000 15.99940
10866 OM 10866 OM OM1 10866 -0.550000 15.99940
10867 OM 10867 OM OM1 10867 -0.550000 15.99940
10868 OM 10868 OM OM1 10868 -0.550000 15.99940
10869 OM 10869 OM OM1 10869 -0.550000 15.99940
10870 OM 10870 OM OM1 10870 -0.550000 15.99940
10871 OM 10871 OM OM1 10871 -0.550000 15.99940
10872 OM 10872 OM OM1 10872 -0.550000 15.99940
10873 OM 10873 OM OM1 10873 -0.550000 15.99940
10874 OM 10874 OM OM1 10874 -0.550000 15.99940
10875 OM 10875 OM OM1 10875 -0.550000 15.99940
10876 OM 10876 OM OM1 10876 -0.550000 15.99940
10877 OM 10877 OM OM1 10877 -0.550000 15.99940
10878 OM 10878 OM OM1 10878 -0.550000 15.99940
10879 OM 10879 OM OM1 10879 -0.550000 15.99940
10880 OM 10880 OM OM1 10880 -0.550000 15.99940
10881 OM 10881 OM OM1 10881 -0.550000 15.99940
10882 OM 10882 OM OM1 10882 -0.550000 15.99940
10883 OM 10883 OM OM1 10883 -0.550000 15.99940
10884 OM 10884 OM OM1 10884 -0.550000 15.99940
10885 OM 10885 OM OM1 10885 -0.550000 15.99940
10886 OM 10886 OM OM1 10886 -0.550000 15.99940
10887 OM 10887 OM OM1 10887 -0.550000 15.99940
10888 OM 10888 OM OM1 10888 -0.550000 15.99940
10889 OM 10889 OM OM1 10889 -0.550000 15.99940
10890 OM 10890 OM OM1 10890 -0.550000 15.99940
10891 OM 10891 OM OM1 10891 -0.550000 15.99940
10892 OM 10892 OM OM1 10892 -0.550000 15.99940
10893 OM 10893 OM OM1 10893 -0.550000 15.99940
10894 OM 10894 OM OM1 10894 -0.550000 15.99940
10895 OM 10895 OM OM1 10895 -0.550000 15.99940
10896 OM 10896 OM OM1 10896 -0.550000 15.99940
10897 OM 10897 OM OM1 10897 -0.550000 15.99940
10898 OM 10898 OM OM1 10898 -0.550000 15.99940
10899 OM 10899 OM OM1 10899 -0.550000 15.99940
10900 OM 10900 OM OM1 10900 -0.550000 15.99940
10901 OM 10901 OM OM1 10901 -0.550000 15.99940
10902 OM 10902 OM OM1 10902 -0.550000 15.99940
10903 OM 10903 OM OM1 10903 -0.550000 15.99940
10904 OM 10904 OM OM1 10904 -0.550000 15.99940
10905 OM 10905 OM OM1 10905 -0.550000 15.99940
10906 OM 10906 OM OM1 10906 -0.550000 15.99940
10907 OM 10907 OM OM1 10907 -0.550000 15.99940
10908 OM 10908 OM OM1 10908 -0.550000 15.99940
10909 OM 10909 OM OM1 10909 -0.550000 15.99940
10910 OM 10910 OM OM1 10910 -0.550000 15.99940
10911 OM 10911 OM OM1 10911 -0.550000 15.99940
10912 OM 10912 OM OM1 10912 -0.550000 15.99940
10913 OM 10913 OM OM1 10913 -0.550000 15.99940
10914 OM 10914 OM OM1 10914 -0.550000 15.99940
10915 OM 10915 OM OM1 10915 -0.550000 15.99940
10916 OM 10916 OM OM1 10916 -0.550000 15.99940
10917 OM 10917 OM OM1 10917 -0.550000 15.99940
10918 OM 10918 OM OM1 10918 -0.550000 15.99940
10919 OM 10919 OM OM1 10919 -0.550000 15.99940
10920 OM 10920 OM OM1 10920 -0.550000 15.99940
10921 OM 10921 OM OM1 10921 -0.550000 15.99940
10922 OM 10922 OM OM1 10922 -0.550000 15.99940
10923 OM 10923 OM OM1 10923 -0.550000 15.99940
10924 OM 10924 OM OM1 10924 -0.550000 15.99940
10925 OM 10925 OM OM1 10925 -0.550000 15.99940
10926 OM 10926 OM OM1 10926 -0.550000 15.99940
10927 OM 10927 OM OM1 10927 -0.550000 15.99940
10928 OM 10928 OM OM1 10928 -0.550000 15.99940
10929 OM 10929 OM OM1 10929 -0.550000 15.99940
10930 OM 10930 OM OM1 10930 -0.550000 15.99940
10931 OM 10931 OM OM1 10931 -0.550000 15.99940
10932 OM 10932 OM OM1 10932 -0.550000 15.99940
10933 OM 10933 OM OM1 10933 -0.550000 15.99940
10934 OM 10934 OM OM1 10934 -0.550000 15.99940
10935 OM 10935 OM OM1 10935 -0.550000 15.99940
10936 OM 10936 OM OM1 10936 -0.550000 15.99940
10937 OM 10937 OM OM1 10937 -0.550000 15.99940
10938 OM 10938 OM OM1 10938 -0.550000 15.99940
10939 OM 10939 OM OM1 10939 -0.550000 15.99940
10940 OM 10940 OM OM1 10940 -0.550000 15.99940
10941 OM 10941 OM OM1 10941 -0.550000 15.99940
10942 OM 10942 OM OM1 10942 -0.550000 15.99940
10943 OM 10943 OM OM1 10943 -0.550000 15.99940
10944 OM 10944 OM OM1 10944 -0.550000 15.99940
10945 OM 10945 OM OM1 10945 -0.550000 15.99940
10946 OM 10946 OM OM1 10946 -0.550000 15.99940
10947 OM 10947 OM OM1 10947 -0.550000 15.99940
10948 OM 10948 OM OM1 10948 -0.550000 15.99940
10949 OM 10949 OM OM1 10949 -0.550000 15.99940
10950 OM 10950 OM OM1 10950 -0.550000 15.99940
10951 OM 10951 OM OM1 10951 -0.550000 15.99940
10952 OM 10952 OM OM1 10952 -0.550000 15.99940
10953 OM 10953 OM OM1 10953 -0.550000 15.99940
10954 OM 10954 OM OM1 10954 -0.550000 15.99940
10955 OM 10955 OM OM1 10955 -0.550000 15.99940
10956 OM 10956 OM OM1 10956 -0.550000 15.99940
10957 OM 10957 OM OM1 10957 -0.550000 15.99940
10958 OM 10958 OM OM1 10958 -0.550000 15.99940
10959 OM 10959 OM OM1 10959 -0.550000 15.99940
10960 OM 10960 OM OM1 10960 -0.550000 15.99940
10961 OM 10961 OM OM1 10961 -0.550000 15.99940
10962 OM 10962 OM OM1 10962 -0.550000 15.99940
10963 OM 10963 OM OM1 10963 -0.550000 15.99940
10964 OM 10964 OM OM1 10964 -0.550000 15.99940
10965 OM 10965 OM OM1 10965 -0.550000 15.99940
10966 OM 10966 OM OM1 10966 -0.550000 15.99940
10967 OM 10967 OM OM1 10967 -0.550000 15.99940
10968 OM 10968 OM OM1 10968 -0.550000 15.99940
10969 OM 10969 OM OM1 10969 -0.550000 15.99940
10970 OM 10970 OM OM1 10970 -0.550000 15.99940
10971 OM 10971 OM OM1 10971 -0.550000 15.99940
10972 OM 10972 OM OM1 10972 -0.550000 15.99940
10973 OM 10973 OM OM1 10973 -0.550000 15.99940
10974 OM 10974 OM OM1 10974 -0.550000 15.99940
10975 OM 10975 OM OM1 10975 -0.550000 15.99940
10976 OM 10976 OM OM1 10976 -0.550000 15.99940
10977 OM 10977 OM OM1 10977 -0.550000 15.99940
10978 OM 10978 OM OM1 10978 -0.550000 15.99940
10979 OM 10979 OM OM1 10979 -0.550000 15.99940
10980 OM 10980 OM OM1 10980 -0.550000 15.99940
10981 OM 10981 OM OM1 10981 -0.550000 15.99940
10982 OM 10982 OM OM1 10982 -0.550000 15.99940
10983 OM 10983 OM OM1 10983 -0.550000 15.99940
10984 OM 10984 OM OM1 10984 -0.550000 15.99940
10985 OM 10985 OM OM1 10985 -0.550000 15.99940
10986 OM 10986 OM OM1 10986 -0.550000 15.99940
10987 OM 10987 OM OM1 10987 -0.550000 15.99940
10988 OM 10988 OM OM1 10988 -0.550000 15.99940
10989 OM 10989 OM OM1 10989 -0.550000 15.99940
10990 OM 10990 OM OM1 10990 -0.550000 15.99940
10991 OM 10991 OM OM1 10991 -0.550000 15.99940
10992 OM 10992 OM OM1 10992 -0.550000 15.99940
10993 OM 10993 OM OM1 10993 -0.550000 15.99940
10994 OM 10994 OM OM1 10994 -0.550000 15.99940
10995 OM 10995 OM OM1 10995 -0.550000 15.99940
10996 OM 10996 OM OM1 10996 -0.550000 15.99940
10997 OM 10997 OM OM1 10997 -0.550000 15.99940
10998 OM 10998 OM OM1 10998 -0.550000 15.99940
10999 OM 10999 OM OM1 10999 -0.550000 15.99940
11000 OM 11000 OM OM1 11000 -0.550000 15.99940
11001 OM 11001 OM OM1 11001 -0.550000 15.99940
11002 OM 11002 OM OM1 11002 -0.550000 15.99940
11003 OM 11003 OM OM1 11003 -0.550000 15.99940
11004 OM 11004 OM OM1 11004 -0.550000 15.99940
11005 OM 11005 OM OM1 11005 -0.550000 15.99940
11006 OM 11006 OM OM1 11006 -0.550000 15.99940
11007 OM 11007 OM OM1 11007 -0.550000 15.99940
11008 OM 11008 OM OM1 11008 -0.550000 15.99940
11009 OM 11009 OM OM1 11009 -0.550000 15.99940
11010 OM 11010 OM OM1 11010 -0.550000 15.99940
11011 OM 11011 OM OM1 11011 -0.550000 15.99940
11012 OM 11012 OM OM1 11012 -0.550000 15.99940
11013 OM 11013 OM OM1 11013 -0.550000 15.99940
11014 OM 11014 OM OM1 11014 -0.550000 15.99940
11015 OM 11015 OM OM1 11015 -0.550000 15.99940
11016 OM 11016 OM OM1 11016 -0.550000 15.99940
11017 OM 11017 OM OM1 11017 -0.550000 15.99940
11018 OM 11018 OM OM1 11018 -0.550000 15.99940
11019 OM 11019 OM OM1 11019 -0.550000 15.99940
11020 OM 11020 OM OM1 11020 -0.550000 15.99940
11021 OM 11021 OM OM1 11021 -0.550000 15.99940
11022 OM 11022 OM OM1 11022 -0.550000 15.99940
11023 OM 11023 OM OM1 11023 -0.550000 15.99940
11024 OM 11024 OM OM1 11024 -0.550000 15.99940
11025 OM 11025 OM OM1 11025 -0.550000 15.99940
11026 OM 11026 OM OM1 11026 -0.550000 15.99940
11027 OM 11027 OM OM1 11027 -0.550000 15.99940
11028 OM 11028 OM OM1 11028 -0.550000 15.99940
11029 OM 11029 OM OM1 11029 -0.550000 15.99940
11030 OM 11030 OM OM1 11030 -0.550000 15.99940
11031 OM 11031 OM OM1 11031 -0.550000 15.99940
11032 OM 11032 OM OM1 11032 -0.550000 15.99940
11033 OM 11033 OM OM1 11033 -0.550000 15.99940
11034 OM 11034 OM OM1 11034 -0.550000 15.99940
11035 OM 11035 OM OM1 11035 -0.550000 15.99940
11036 OM 11036 OM OM1 11036 -0.550000 15.99940
11037 OM 11037 OM OM1 11037 -0.550000 15.99940
11038 OM 11038 OM OM1 11038 -0.550000 15.99940
11039 OM 11039 OM OM1 11039 -0.550000 15.99940
11040 OM 11040 OM OM1 11040 -0.550000 15.99940
11041 OM 11041 OM OM1 11041 -0.550000 15.99940
11042 OM 11042 OM OM1 11042 -0.550000 15.99940
11043 OM 11043 OM OM1 11043 -0.550000 15.99940
11044 OM 11044 OM OM1 11044 -0.550000 15.99940
11045 OM 11045 OM OM1 11045 -0.550000 15.99940
11046 OM 11046 OM OM1 11046 -0.550000 15.99940
11047 OM 11047 OM OM1 11047 -0.550000 15.99940
11048 OM 11048 OM OM1 11048 -0.550000 15.99940
11049 OM 11049 OM OM1 11049 -0.550000 15.99940
11050 OM 11050 OM OM1 11050 -0.550000 15.99940
11051 OM 11051 OM OM1 11051 -0.550000 15.99940
11052 OM 11052 OM OM1 11052 -0.550000 15.99940
11053 OM 11053 OM OM1 11053 -0.550000 15.99940
11054 OM 11054 OM OM1 11054 -0.550000 15.99940
11055 OM 11055 OM OM1 11055 -0.550000 15.99940
11056 OM 11056 OM OM1 11056 -0.550000 15.99940
11057 OM 11057 OM OM1 11057 -0.550000 15.99940
11058 OM 11058 OM OM1 11058 -0.550000 15.99940
11059 OM 11059 OM OM1 11059 -0.550000 15.99940
11060 OM 11060 OM OM1 11060 -0.550000 15.99940
11061 OM 11061 OM OM1 11061 -0.550000 15.99940
11062 OM 11062 OM OM1 11062 -0.550000 15.99940
11063 OM 11063 OM OM1 11063 -0.550000 15.99940
11064 OM 11064 OM OM1 11064 -0.550000 15.99940
11065 OM 11065 OM OM1 11065 -0.550000 15.99940
11066 OM 11066 OM OM1 11066 -0.550000 15.99940
11067 OM 11067 OM OM1 11067 -0.550000 15.99940
11068 OM 11068 OM OM1 11068 -0.550000 15.99940
11069 OM 11069 OM OM1 11069 -0.550000 15.99940
11070 OM 11070 OM OM1 11070 -0.550000 15.99940
11071 OM 11071 OM OM1 11071 -0.550000 15.99940
11072 OM 11072 OM OM1 11072 -0.550000 15.99940
11073 OM 11073 OM OM1 11073 -0.550000 15.99940
11074 OM 11074 OM OM1 11074 -0.550000 15.99940
11075 OM 11075 OM OM1 11075 -0.550000 15.99940
11076 OM 11076 OM OM1 11076 -0.550000 15.99940
11077 OM 11077 OM OM1 11077 -0.550000 15.99940
11078 OM 11078 OM OM1 11078 -0.550000 15.99940
11079 OM 11079 OM OM1 11079 -0.550000 15.99940
11080 OM 11080 OM OM1 11080 -0.550000 15.99940
11081 OM 11081 OM OM1 11081 -0.550000 15.99940
11082 OM 11082 OM OM1 11082 -0.550000 15.99940
11083 OM 11083 OM OM1 11083 -0.550000 15.99940
11084 OM 11084 OM OM1 11084 -0.550000 15.99940
11085 OM 11085 OM OM1 11085 -0.550000 15.99940
11086 OM 11086 OM OM1 11086 -0.550000 15.99940
11087 OM 11087 OM OM1 11087 -0.550000 15.99940
11088 OM 11088 OM OM1 11088 -0.550000 15.99940
11089 OM 11089 OM OM1 11089 -0.550000 15.99940
11090 OM 11090 OM OM1 11090 -0.550000 15.99940
11091 OM 11091 OM OM1 11091 -0.550000 15.99940
11092 OM 11092 OM OM1 11092 -0.550000 15.99940
11093 OM 11093 OM OM1 11093 -0.550000 15.99940
11094 OM 11094 OM OM1 11094 -0.550000 15.99940
11095 OM 11095 OM OM1 11095 -0.550000 15.99940
11096 OM 11096 OM OM1 11096 -0.550000 15.99940
11097 OM 11097 OM OM1 11097 -0.550000 15.99940
11098 OM 11098 OM OM1 11098 -0.550000 15.99940
11099 OM 11099 OM OM1 11099 -0.550000 15.99940
11100 OM 11100 OM OM1 11100 -0.550000 15.99940
11101 OM 11101 OM OM1 11101 -0.550000 15.99940
11102 OM 11102 OM OM1 11102 -0.550000 15.99940
11103 OM 11103 OM OM1 11103 -0.550000 15.99940
11104 OM 11104 OM OM1 11104 -0.550000 15.99940
11105 OM 11105 OM OM1 11105 -0.550000 15.99940
11106 OM 11106 OM OM1 11106 -0.550000 15.99940
11107 OM 11107 OM OM1 11107 -0.550000 15.99940
11108 OM 11108 OM OM1 11108 -0.550000 15.99940
11109 OM 11109 OM OM1 11109 -0.550000 15.99940
11110 OM 11110 OM OM1 11110 -0.550000 15.99940
11111 OM 11111 OM OM1 11111 -0.550000 15.99940
11112 OM 11112 OM OM1 11112 -0.550000 15.99940
11113 OM 11113 OM OM1 11113 -0.550000 15.99940
11114 OM 11114 OM OM1 11114 -0.550000 15.99940
11115 OM 11115 OM OM1 11115 -0.550000 15.99940
11116 OM 11116 OM OM1 11116 -0.550000 15.99940
11117 OM 11117 OM OM1 11117 -0.550000 15.99940
11118 OM 11118 OM OM1 11118 -0.550000 15.99940
11119 OM 11119 OM OM1 11119 -0.550000 15.99940
11120 OM 11120 OM OM1 11120 -0.550000 15.99940
11121 OM 11121 OM OM1 11121 -0.550000 15.99940
11122 OM 11122 OM OM1 11122 -0.550000 15.99940
11123 OM 11123 OM OM1 11123 -0.550000 15.99940
11124 OM 11124 OM OM1 11124 -0.550000 15.99940
11125 OM 11125 OM OM1 11125 -0.550000 15.99940
11126 OM 11126 OM OM1 11126 -0.550000 15.99940
11127 OM 11127 OM OM1 11127 -0.550000 15.99940
11128 OM 11128 OM OM1 11128 -0.550000 15.99940
11129 OM 11129 OM OM1 11129 -0.550000 15.99940
11130 OM 11130 OM OM1 11130 -0.550000 15.99940
11131 OM 11131 OM OM1 11131 -0.550000 15.99940
11132 OM 11132 OM OM1 11132 -0.550000 15.99940
11133 OM 11133 OM OM1 11133 -0.550000 15.99940
11134 OM 11134 OM OM1 11134 -0.550000 15.99940
11135 OM 11135 OM OM1 11135 -0.550000 15.99940
11136 OM 11136 OM OM1 11136 -0.550000 15.99940
11137 OM 11137 OM OM1 11137 -0.550000 15.99940
11138 OM 11138 OM OM1 11138 -0.550000 15.99940
11139 OM 11139 OM OM1 11139 -0.550000 15.99940
11140 OM 11140 OM OM1 11140 -0.550000 15.99940
11141 OM 11141 OM OM1 11141 -0.550000 15.99940
11142 OM 11142 OM OM1 11142 -0.550000 15.99940
11143 OM 11143 OM OM1 11143 -0.550000 15.99940
11144 OM 11144 OM OM1 11144 -0.550000 15.99940
11145 OM 11145 OM OM1 11145 -0.550000 15.99940
11146 OM 11146 OM OM1 11146 -0.550000 15.99940
11147 OM 11147 OM OM1 11147 -0.550000 15.99940
11148 OM 11148 OM OM1 11148 -0.550000 15.99940
11149 OM 11149 OM OM1 11149 -0.550000 15.99940
11150 OM 11150 OM OM1 11150 -0.550000 15.99940
11151 OM 11151 OM OM1 11151 -0.550000 15.99940
11152 OM 11152 OM OM1 11152 -0.550000 15.99940
11153 OM 11153 OM OM1 11153 -0.550000 15.99940
11154 OM 11154 OM OM1 11154 -0.550000 15.99940
11155 OM 11155 OM OM1 11155 -0.550000 15.99940
11156 OM 11156 OM OM1 11156 -0.550000 15.99940
11157 OM 11157 OM OM1 11157 -0.550000 15.99940
11158 OM 11158 OM OM1 11158 -0.550000 15.99940
11159 OM 11159 OM OM1 11159 -0.550000 15.99940
11160 OM 11160 OM OM1 11160 -0.550000 15.99940
11161 OM 11161 OM OM1 11161 -0.550000 15.99940
11162 OM 11162 OM OM1 11162 -0.550000 15.99940
11163 OM 11163 OM OM1 11163 -0.550000 15.99940
11164 OM 11164 OM OM1 11164 -0.550000 15.99940
11165 OM 11165 OM OM1 11165 -0.550000 15.99940
11166 OM 11166 OM OM1 11166 -0.550000 15.99940
11167 OM 11167 OM OM1 11167 -0.550000 15.99940
11168 OM 11168 OM OM1 11168 -0.550000 15.99940
11169 OM 11169 OM OM1 11169 -0.550000 15.99940
11170 OM 11170 OM OM1 11170 -0.550000 15.99940
11171 OM 11171 OM OM1 11171 -0.550000 15.99940
11172 OM 11172 OM OM1 11172 -0.550000 15.99940
11173 OM 11173 OM OM1 11173 -0.550000 15.99940
11174 OM 11174 OM OM1 11174 -0.550000 15.99940
11175 OM 11175 OM OM1 11175 -0.550000 15.99940
11176 OM 11176 OM OM1 11176 -0.550000 15.99940
11177 OM 11177 OM OM1 11177 -0.550000 15.99940
11178 OM 11178 OM OM1 11178 -0.550000 15.99940
11179 OM 11179 OM OM1 11179 -0.550000 15.99940
11180 OM 11180 OM OM1 11180 -0.550000 15.99940
11181 OM 11181 OM OM1 11181 -0.550000 15.99940
11182 OM 11182 OM OM1 11182 -0.550000 15.99940
11183 OM 11183 OM OM1 11183 -0.550000 15.99940
11184 OM 11184 OM OM1 11184 -0.550000 15.99940
11185 OM 11185 OM OM1 11185 -0.550000 15.99940
11186 OM 11186 OM OM1 11186 -0.550000 15.99940
11187 OM 11187 OM OM1 11187 -0.550000 15.99940
11188 OM 11188 OM OM1 11188 -0.550000 15.99940
11189 OM 11189 OM OM1 11189 -0.550000 15.99940
11190 OM 11190 OM OM1 11190 -0.550000 15.99940
11191 OM 11191 OM OM1 11191 -0.550000 15.99940
11192 OM 11192 OM OM1 11192 -0.550000 15.99940
11193 OM 11193 OM OM1 11193 -0.550000 15.99940
11194 OM 11194 OM OM1 11194 -0.550000 15.99940
11195 OM 11195 OM OM1 11195 -0.550000 15.99940
11196 OM 11196 OM OM1 11196 -0.550000 15.99940
11197 OM 11197 OM OM1 11197 -0.550000 15.99940
11198 OM 11198 OM OM1 11198 -0.550000 15.99940
11199 OM 11199 OM OM1 11199 -0.550000 15.99940
11200 OM 11200 OM OM1 11200 -0.550000 15.99940
11201 OM 11201 OM OM1 11201 -0.550000 15.99940
11202 OM 11202 OM OM1 11202 -0.550000 15.99940
11203 OM 11203 OM OM1 11203 -0.550000 15.99940
11204 OM 11204 OM OM1 11204 -0.550000 15.99940
11205 OM 11205 OM OM1 11205 -0.550000 15.99940
11206 OM 11206 OM OM1 11206 -0.550000 15.99940
11207 OM 11207 OM OM1 11207 -0.550000 15.99940
11208 OM 11208 OM OM1 11208 -0.550000 15.99940
11209 OM 11209 OM OM1 11209 -0.550000 15.99940
11210 OM 11210 OM OM1 11210 -0.550000 15.99940
11211 OM 11211 OM OM1 11211 -0.550000 15.99940
11212 OM 11212 OM OM1 11212 -0.550000 15.99940
11213 OM 11213 OM OM1 11213 -0.550000 15.99940
11214 OM 11214 OM OM1 11214 -0.550000 15.99940
11215 OM 11215 OM OM1 11215 -0.550000 15.99940
11216 OM 11216 OM OM1 11216 -0.550000 15.99940
11217 OM 11217 OM OM1 11217 -0.550000 15.99940
11218 OM 11218 OM OM1 11218 -0.550000 15.99940
11219 OM 11219 OM OM1 11219 -0.550000 15.99940
11220 OM 11220 OM OM1 11220 -0.550000 15.99940
11221 OM 11221 OM OM1 11221 -0.550000 15.99940
11222 OM 11222 OM OM1 11222 -0.550000 15.99940
11223 OM 11223 OM OM1 11223 -0.550000 15.99940
11224 OM 11224 OM OM1 11224 -0.550000 15.99940
11225 OM 11225 OM OM1 11225 -0.550000 15.99940
11226 OM 11226 OM OM1 11226 -0.550000 15.99940
11227 OM 11227 OM OM1 11227 -0.550000 15.99940
11228 OM 11228 OM OM1 11228 -0.550000 15.99940
11229 OM 11229 OM OM1 11229 -0.550000 15.99940
11230 OM 11230 OM OM1 11230 -0.550000 15.99940
11231 OM 11231 OM OM1 11231 -0.550000 15.99940
11232 OM 11232 OM OM1 11232 -0.550000 15.99940
11233 OM 11233 OM OM1 11233 -0.550000 15.99940
11234 OM 11234 OM OM1 11234 -0.550000 15.99940
11235 OM 11235 OM OM1 11235 -0.550000 15.99940
11236 OM 11236 OM OM1 11236 -0.550000 15.99940
11237 OM 11237 OM OM1 11237 -0.550000 15.99940
11238 OM 11238 OM OM1 11238 -0.550000 15.99940
11239 OM 11239 OM OM1 11239 -0.550000 15.99940
11240 OM 11240 OM OM1 11240 -0.550000 15.99940
11241 OM 11241 OM OM1 11241 -0.550000 15.99940
11242 OM 11242 OM OM1 11242 -0.550000 15.99940
11243 OM 11243 OM OM1 11243 -0.550000 15.99940
11244 OM 11244 OM OM1 11244 -0.550000 15.99940
11245 OM 11245 OM OM1 11245 -0.550000 15.99940
11246 OM 11246 OM OM1 11246 -0.550000 15.99940
11247 OM 11247 OM OM1 11247 -0.550000 15.99940
11248 OM 11248 OM OM1 11248 -0.550000 15.99940
11249 OM 11249 OM OM1 11249 -0.550000 15.99940
11250 OM 11250 OM OM1 11250 -0.550000 15.99940
11251 OM 11251 OM OM1 11251 -0.550000 15.99940
11252 OM 11252 OM OM1 11252 -0.550000 15.99940
11253 OM 11253 OM OM1 11253 -0.550000 15.99940
11254 OM 11254 OM OM1 11254 -0.550000 15.99940
11255 OM 11255 OM OM1 11255 -0.550000 15.99940
11256 OM 11256 OM OM1 11256 -0.550000 15.99940
11257 OM 11257 OM OM1 11257 -0.550000 15.99940
11258 OM 11258 OM OM1 11258 -0.550000 15.99940
11259 OM 11259 OM OM1 11259 -0.550000 15.99940
11260 OM 11260 OM OM1 11260 -0.550000 15.99940
11261 OM 11261 OM OM1 11261 -0.550000 15.99940
11262 OM 11262 OM OM1 11262 -0.550000 15.99940
11263 OM 11263 OM OM1 11263 -0.550000 15.99940
11264 OM 11264 OM OM1 11264 -0.550000 15.99940
11265 OM 11265 OM OM1 11265 -0.550000 15.99940
11266 OM 11266 OM OM1 11266 -0.550000 15.99940
11267 OM 11267 OM OM1 11267 -0.550000 15.99940
11268 OM 11268 OM OM1 11268 -0.550000 15.99940
11269 OM 11269 OM OM1 11269 -0.550000 15.99940
11270 OM 11270 OM OM1 11270 -0.550000 15.99940
11271 OM 11271 OM OM1 11271 -0.550000 15.99940
11272 OM 11272 OM OM1 11272 -0.550000 15.99940
11273 OM 11273 OM OM1 11273 -0.550000 15.99940
11274 OM 11274 OM OM1 11274 -0.550000 15.99940
11275 OM 11275 OM OM1 11275 -0.550000 15.99940
11276 OM 11276 OM OM1 11276 -0.550000 15.99940
11277 OM 11277 OM OM1 11277 -0.550000 15.99940
11278 OM 11278 OM OM1 11278 -0.550000 15.99940
11279 OM 11279 OM OM1 11279 -0.550000 15.99940
11280 OM 11280 OM OM1 11280 -0.550000 15.99940
11281 OM 11281 OM OM1 11281 -0.550000 15.99940
11282 OM 11282 OM OM1 11282 -0.550000 15.99940
11283 OM 11283 OM OM1 11283 -0.550000 15.99940
11284 OM 11284 OM OM1 11284 -0.550000 15.99940
11285 OM 11285 OM OM1 11285 -0.550000 15.99940
11286 OM 11286 OM OM1 11286 -0.550000 15.99940
11287 OM 11287 OM OM1 11287 -0.550000 15.99940
11288 OM 11288 OM OM1 11288 -0.550000 15.99940
11289 OM 11289 OM OM1 11289 -0.550000 15.99940
11290 OM 11290 OM OM1 11290 -0.550000 15.99940
11291 OM 11291 OM OM1 11291 -0.550000 15.99940
11292 OM 11292 OM OM1 11292 -0.550000 15.99940
11293 OM 11293 OM OM1 11293 -0.550000 15.99940
11294 OM 11294 OM OM1 11294 -0.550000 15.99940
11295 OM 11295 OM OM1 11295 -0.550000 15.99940
11296 OM 11296 OM OM1 11296 -0.550000 15.99940
11297 OM 11297 OM OM1 11297 -0.550000 15.99940
11298 OM 11298 OM OM1 11298 -0.550000 15.99940
11299 OM 11299 OM OM1 11299 -0.550000 15.99940
11300 OM 11300 OM OM1 11300 -0.550000 15.99940
11301 OM 11301 OM OM1 11301 -0.550000 15.99940
11302 OM 11302 OM OM1 11302 -0.550000 15.99940
11303 OM 11303 OM OM1 11303 -0.550000 15.99940
11304 OM 11304 OM OM1 11304 -0.550000 15.99940
11305 OM 11305 OM OM1 11305 -0.550000 15.99940
11306 OM 11306 OM OM1 11306 -0.550000 15.99940
11307 OM 11307 OM OM1 11307 -0.550000 15.99940
11308 OM 11308 OM OM1 11308 -0.550000 15.99940
11309 OM 11309 OM OM1 11309 -0.550000 15.99940
11310 OM 11310 OM OM1 11310 -0.550000 15.99940
11311 OM 11311 OM OM1 11311 -0.550000 15.99940
11312 OM 11312 OM OM1 11312 -0.550000 15.99940
11313 OM 11313 OM OM1 11313 -0.550000 15.99940
11314 OM 11314 OM OM1 11314 -0.550000 15.99940
11315 OM 11315 OM OM1 11315 -0.550000 15.99940
11316 OM 11316 OM OM1 11316 -0.550000 15.99940
11317 OM 11317 OM OM1 11317 -0.550000 15.99940
11318 OM 11318 OM OM1 11318 -0.550000 15.99940
11319 OM 11319 OM OM1 11319 -0.550000 15.99940
11320 OM 11320 OM OM1 11320 -0.550000 15.99940
11321 OM 11321 OM OM1 11321 -0.550000 15.99940
11322 OM 11322 OM OM1 11322 -0.550000 15.99940
11323 OM 11323 OM OM1 11323 -0.550000 15.99940
11324 OM 11324 OM OM1 11324 -0.550000 15.99940
11325 OM 11325 OM OM1 11325 -0.550000 15.99940
11326 OM 11326 OM OM1 11326 -0.550000 15.99940
11327 OM 11327 OM OM1 11327 -0.550000 15.99940
11328 OM 11328 OM OM1 11328 -0.550000 15.99940
11329 OM 11329 OM OM1 11329 -0.550000 15.99940
11330 OM 11330 OM OM1 11330 -0.550000 15.99940
11331 OM 11331 OM OM1 11331 -0.550000 15.99940
11332 OM 11332 OM OM1 11332 -0.550000 15.99940
11333 OM 11333 OM OM1 11333 -0.550000 15.99940
11334 OM 11334 OM OM1 11334 -0.550000 15.99940
11335 OM 11335 OM OM1 11335 -0.550000 15.99940
11336 OM 11336 OM OM1 11336 -0.550000 15.99940
11337 OM 11337 OM OM1 11337 -0.550000 15.99940
11338 OM 11338 OM OM1 11338 -0.550000 15.99940
11339 OM 11339 OM OM1 11339 -0.550000 15.99940
11340 OM 11340 OM OM1 11340 -0.550000 15.99940
11341 OM 11341 OM OM1 11341 -0.550000 15.99940
11342 OM 11342 OM OM1 11342 -0.550000 15.99940
11343 OM 11343 OM OM1 11343 -0.550000 15.99940
11344 OM 11344 OM OM1 11344 -0.550000 15.99940
11345 OM 11345 OM OM1 11345 -0.550000 15.99940
11346 OM 11346 OM OM1 11346 -0.550000 15.99940
11347 OM 11347 OM OM1 11347 -0.550000 15.99940
11348 OM 11348 OM OM1 11348 -0.550000 15.99940
11349 OM 11349 OM OM1 11349 -0.550000 15.99940
11350 OM 11350 OM OM1 11350 -0.550000 15.99940
11351 OM 11351 OM OM1 11351 -0.550000 15.99940
11352 OM 11352 OM OM1 11352 -0.550000 15.99940
11353 OM 11353 OM OM1 11353 -0.550000 15.99940
11354 OM 11354 OM OM1 11354 -0.550000 15.99940
11355 OM 11355 OM OM1 11355 -0.550000 15.99940
11356 OM 11356 OM OM1 11356 -0.550000 15.99940
11357 OM 11357 OM OM1 11357 -0.550000 15.99940
11358 OM 11358 OM OM1 11358 -0.550000 15.99940
11359 OM 11359 OM OM1 11359 -0.550000 15.99940
11360 OM 11360 OM OM1 11360 -0.550000 15.99940
11361 OM 11361 OM OM1 11361 -0.550000 15.99940
11362 OM 11362 OM OM1 11362 -0.550000 15.99940
11363 OM 11363 OM OM1 11363 -0.550000 15.99940
11364 OM 11364 OM OM1 11364 -0.550000 15.99940
11365 OM 11365 OM OM1 11365 -0.550000 15.99940
11366 OM 11366 OM OM1 11366 -0.550000 15.99940
11367 OM 11367 OM OM1 11367 -0.550000 15.99940
11368 OM 11368 OM OM1 11368 -0.550000 15.99940
11369 OM 11369 OM OM1 11369 -0.550000 15.99940
11370 OM 11370 OM OM1 11370 -0.550000 15.99940
11371 OM 11371 OM OM1 11371 -0.550000 15.99940
11372 OM 11372 OM OM1 11372 -0.550000 15.99940
11373 OM 11373 OM OM1 11373 -0.550000 15.99940
11374 OM 11374 OM OM1 11374 -0.550000 15.99940
11375 OM 11375 OM OM1 11375 -0.550000 15.99940
11376 OM 11376 OM OM1 11376 -0.550000 15.99940
11377 OM 11377 OM OM1 11377 -0.550000 15.99940
11378 OM 11378 OM OM1 11378 -0.550000 15.99940
11379 OM 11379 OM OM1 11379 -0.550000 15.99940
11380 OM 11380 OM OM1 11380 -0.550000 15.99940
11381 OM 11381 OM OM1 11381 -0.550000 15.99940
11382 OM 11382 OM OM1 11382 -0.550000 15.99940
11383 OM 11383 OM OM1 11383 -0.550000 15.99940
11384 OM 11384 OM OM1 11384 -0.550000 15.99940
11385 OM 11385 OM OM1 11385 -0.550000 15.99940
11386 OM 11386 OM OM1 11386 -0.550000 15.99940
11387 OM 11387 OM OM1 11387 -0.550000 15.99940
11388 OM 11388 OM OM1 11388 -0.550000 15.99940
11389 OM 11389 OM OM1 11389 -0.550000 15.99940
11390 OM 11390 OM OM1 11390 -0.550000 15.99940
11391 OM 11391 OM OM1 11391 -0.550000 15.99940
11392 OM 11392 OM OM1 11392 -0.550000 15.99940
11393 OM 11393 OM OM1 11393 -0.550000 15.99940
11394 OM 11394 OM OM1 11394 -0.550000 15.99940
11395 OM 11395 OM OM1 11395 -0.550000 15.99940
11396 OM 11396 OM OM1 11396 -0.550000 15.99940
11397 OM 11397 OM OM1 11397 -0.550000 15.99940
11398 OM 11398 OM OM1 11398 -0.550000 15.99940
11399 OM 11399 OM OM1 11399 -0.550000 15.99940
11400 OM 11400 OM OM1 11400 -0.550000 15.99940
11401 OM 11401 OM OM1 11401 -0.550000 15.99940
11402 OM 11402 OM OM1 11402 -0.550000 15.99940
11403 OM 11403 OM OM1 11403 -0.550000 15.99940
11404 OM 11404 OM OM1 11404 -0.550000 15.99940
11405 OM 11405 OM OM1 11405 -0.550000 15.99940
11406 OM 11406 OM OM1 11406 -0.550000 15.99940
11407 OM 11407 OM OM1 11407 -0.550000 15.99940
11408 OM 11408 OM OM1 11408 -0.550000 15.99940
11409 OM 11409 OM OM1 11409 -0.550000 15.99940
11410 OM 11410 OM OM1 11410 -0.550000 15.99940
11411 OM 11411 OM OM1 11411 -0.550000 15.99940
11412 OM 11412 OM OM1 11412 -0.550000 15.99940
11413 OM 11413 OM OM1 11413 -0.550000 15.99940
11414 OM 11414 OM OM1 11414 -0.550000 15.99940
11415 OM 11415 OM OM1 11415 -0.550000 15.99940
11416 OM 11416 OM OM1 11416 -0.550000 15.99940
11417 OM 11417 OM OM1 11417 -0.550000 15.99940
11418 OM 11418 OM OM1 11418 -0.550000 15.99940
11419 OM 11419 OM OM1 11419 -0.550000 15.99940
11420 OM 11420 OM OM1 11420 -0.550000 15.99940
11421 OM 11421 OM OM1 11421 -0.550000 15.99940
11422 OM 11422 OM OM1 11422 -0.550000 15.99940
11423 OM 11423 OM OM1 11423 -0.550000 15.99940
11424 OM 11424 OM OM1 11424 -0.550000 15.99940
11425 OM 11425 OM OM1 11425 -0.550000 15.99940
11426 OM 11426 OM OM1 11426 -0.550000 15.99940
11427 OM 11427 OM OM1 11427 -0.550000 15.99940
11428 OM 11428 OM OM1 11428 -0.550000 15.99940
11429 OM 11429 OM OM1 11429 -0.550000 15.99940
11430 OM 11430 OM OM1 11430 -0.550000 15.99940
11431 OM 11431 OM OM1 11431 -0.550000 15.99940
11432 OM 11432 OM OM1 11432 -0.550000 15.99940
11433 OM 11433 OM OM1 11433 -0.550000 15.99940
11434 OM 11434 OM OM1 11434 -0.550000 15.99940
11435 OM 11435 OM OM1 11435 -0.550000 15.99940
11436 OM 11436 OM OM1 11436 -0.550000 15.99940
11437 OM 11437 OM OM1 11437 -0.550000 15.99940
11438 OM 11438 OM OM1 11438 -0.550000 15.99940
11439 OM 11439 OM OM1 11439 -0.550000 15.99940
11440 OM 11440 OM OM1 11440 -0.550000 15.99940
11441 OM 11441 OM OM1 11441 -0.550000 15.99940
11442 OM 11442 OM OM1 11442 -0.550000 15.99940
11443 OM 11443 OM OM1 11443 -0.550000 15.99940
11444 OM 11444 OM OM1 11444 -0.550000 15.99940
11445 OM 11445 OM OM1 11445 -0.550000 15.99940
11446 OM 11446 OM OM1 11446 -0.550000 15.99940
11447 OM 11447 OM OM1 11447 -0.550000 15.99940
11448 OM 11448 OM OM1 11448 -0.550000 15.99940
11449 OM 11449 OM OM1 11449 -0.550000 15.99940
11450 OM 11450 OM OM1 11450 -0.550000 15.99940
11451 OM 11451 OM OM1 11451 -0.550000 15.99940
11452 OM 11452 OM OM1 11452 -0.550000 15.99940
11453 OM 11453 OM OM1 11453 -0.550000 15.99940
11454 OM 11454 OM OM1 11454 -0.550000 15.99940
11455 OM 11455 OM OM1 11455 -0.550000 15.99940
11456 OM 11456 OM OM1 11456 -0.550000 15.99940
11457 OM 11457 OM OM1 11457 -0.550000 15.99940
11458 OM 11458 OM OM1 11458 -0.550000 15.99940
11459 OM 11459 OM OM1 11459 -0.550000 15.99940
11460 OM 11460 OM OM1 11460 -0.550000 15.99940
11461 OM 11461 OM OM1 11461 -0.550000 15.99940
11462 OM 11462 OM OM1 11462 -0.550000 15.99940
11463 OM 11463 OM OM1 11463 -0.550000 15.99940
11464 OM 11464 OM OM1 11464 -0.550000 15.99940
11465 OM 11465 OM OM1 11465 -0.550000 15.99940
11466 OM 11466 OM OM1 11466 -0.550000 15.99940
11467 OM 11467 OM OM1 11467 -0.550000 15.99940
11468 OM 11468 OM OM1 11468 -0.550000 15.99940
11469 OM 11469 OM OM1 11469 -0.550000 15.99940
11470 OM 11470 OM OM1 11470 -0.550000 15.99940
11471 OM 11471 OM OM1 11471 -0.550000 15.99940
11472 OM 11472 OM OM1 11472 -0.550000 15.99940
11473 OM 11473 OM OM1 11473 -0.550000 15.99940
11474 OM 11474 OM OM1 11474 -0.550000 15.99940
11475 OM 11475 OM OM1 11475 -0.550000 15.99940
11476 OM 11476 OM OM1 11476 -0.550000 15.99940
11477 OM 11477 OM OM1 11477 -0.550000 15.99940
11478 OM 11478 OM OM1 11478 -0.550000 15.99940
11479 OM 11479 OM OM1 11479 -0.550000 15.99940
11480 OM 11480 OM OM1 11480 -0.550000 15.99940
11481 OM 11481 OM OM1 11481 -0.550000 15.99940
11482 OM 11482 OM OM1 11482 -0.550000 15.99940
11483 OM 11483 OM OM1 11483 -0.550000 15.99940
11484 OM 11484 OM OM1 11484 -0.550000 15.99940
11485 OM 11485 OM OM1 11485 -0.550000 15.99940
11486 OM 11486 OM OM1 11486 -0.550000 15.99940
11487 OM 11487 OM OM1 11487 -0.550000 15.99940
11488 OM 11488 OM OM1 11488 -0.550000 15.99940
11489 OM 11489 OM OM1 11489 -0.550000 15.99940
11490 OM 11490 OM OM1 11490 -0.550000 15.99940
11491 OM 11491 OM OM1 11491 -0.550000 15.99940
11492 OM 11492 OM OM1 11492 -0.550000 15.99940
11493 OM 11493 OM OM1 11493 -0.550000 15.99940
11494 OM 11494 OM OM1 11494 -0.550000 15.99940
11495 OM 11495 OM OM1 11495 -0.550000 15.99940
11496 OM 11496 OM OM1 11496 -0.550000 15.99940
11497 OM 11497 OM OM1 11497 -0.550000 15.99940
11498 OM 11498 OM OM1 11498 -0.550000 15.99940
11499 OM 11499 OM OM1 11499 -0.550000 15.99940
11500 OM 11500 OM OM1 11500 -0.550000 15.99940
11501 OM 11501 OM OM1 11501 -0.550000 15.99940
11502 OM 11502 OM OM1 11502 -0.550000 15.99940
11503 OM 11503 OM OM1 11503 -0.550000 15.99940
11504 OM 11504 OM OM1 11504 -0.550000 15.99940
11505 OM 11505 OM OM1 11505 -0.550000 15.99940
11506 OM 11506 OM OM1 11506 -0.550000 15.99940
11507 OM 11507 OM OM1 11507 -0.550000 15.99940
11508 OM 11508 OM OM1 11508 -0.550000 15.99940
11509 OM 11509 OM OM1 11509 -0.550000 15.99940
11510 OM 11510 OM OM1 11510 -0.550000 15.99940
11511 OM 11511 OM OM1 11511 -0.550000 15.99940
11512 OM 11512 OM OM1 11512 -0.550000 15.99940
11513 OM 11513 OM OM1 11513 -0.550000 15.99940
11514 OM 11514 OM OM1 11514 -0.550000 15.99940
11515 OM 11515 OM OM1 11515 -0.550000 15.99940
11516 OM 11516 OM OM1 11516 -0.550000 15.99940
11517 OM 11517 OM OM1 11517 -0.550000 15.99940
11518 OM 11518 OM OM1 11518 -0.550000 15.99940
11519 OM 11519 OM OM1 11519 -0.550000 15.99940
11520 OM 11520 OM OM1 11520 -0.550000 15.99940
11521 OM 11521 OM OM1 11521 -0.550000 15.99940
11522 OM 11522 OM OM1 11522 -0.550000 15.99940
11523 OM 11523 OM OM1 11523 -0.550000 15.99940
11524 OM 11524 OM OM1 11524 -0.550000 15.99940
11525 OM 11525 OM OM1 11525 -0.550000 15.99940
11526 OM 11526 OM OM1 11526 -0.550000 15.99940
11527 OM 11527 OM OM1 11527 -0.550000 15.99940
11528 OM 11528 OM OM1 11528 -0.550000 15.99940
11529 OM 11529 OM OM1 11529 -0.550000 15.99940
11530 OM 11530 OM OM1 11530 -0.550000 15.99940
11531 OM 11531 OM OM1 11531 -0.550000 15.99940
11532 OM 11532 OM OM1 11532 -0.550000 15.99940
11533 OM 11533 OM OM1 11533 -0.550000 15.99940
11534 OM 11534 OM OM1 11534 -0.550000 15.99940
11535 OM 11535 OM OM1 11535 -0.550000 15.99940
11536 OM 11536 OM OM1 11536 -0.550000 15.99940
11537 OM 11537 OM OM1 11537 -0.550000 15.99940
11538 OM 11538 OM OM1 11538 -0.550000 15.99940
11539 OM 11539 OM OM1 11539 -0.550000 15.99940
11540 SI 11540 SI SI1 11540 1.100000 28.08600
11541 SI 11541 SI SI1 11541 1.100000 28.08600
11542 SI 11542 SI SI1 11542 1.100000 28.08600
11543 SI 11543 SI SI1 11543 1.100000 28.08600
11544 SI 11544 SI SI1 11544 1.100000 28.08600
11545 SI 11545 SI SI1 11545 1.100000 28.08600
11546 SI 11546 SI SI1 11546 1.100000 28.08600
11547 SI 11547 SI SI1 11547 1.100000 28.08600
11548 SI 11548 SI SI1 11548 1.100000 28.08600
11549 SI 11549 SI SI1 11549 1.100000 28.08600
11550 SI 11550 SI SI1 11550 1.100000 28.08600
11551 SI 11551 SI SI1 11551 1.100000 28.08600
11552 SI 11552 SI SI1 11552 1.100000 28.08600
11553 SI 11553 SI SI1 11553 1.100000 28.08600
11554 SI 11554 SI SI1 11554 1.100000 28.08600
11555 SI 11555 SI SI1 11555 1.100000 28.08600
11556 SI 11556 SI SI1 11556 1.100000 28.08600
11557 SI 11557 SI SI1 11557 1.100000 28.08600
11558 SI 11558 SI SI1 11558 1.100000 28.08600
11559 SI 11559 SI SI1 11559 1.100000 28.08600
11560 SI 11560 SI SI1 11560 1.100000 28.08600
11561 SI 11561 SI SI1 11561 1.100000 28.08600
11562 SI 11562 SI SI1 11562 1.100000 28.08600
11563 SI 11563 SI SI1 11563 1.100000 28.08600
11564 SI 11564 SI SI1 11564 1.100000 28.08600
11565 SI 11565 SI SI1 11565 1.100000 28.08600
11566 SI 11566 SI SI1 11566 1.100000 28.08600
11567 SI 11567 SI SI1 11567 1.100000 28.08600
11568 SI 11568 SI SI1 11568 1.100000 28.08600
11569 SI 11569 SI SI1 11569 1.100000 28.08600
11570 SI 11570 SI SI1 11570 1.100000 28.08600
11571 SI 11571 SI SI1 11571 1.100000 28.08600
11572 SI 11572 SI SI1 11572 1.100000 28.08600
11573 SI 11573 SI SI1 11573 1.100000 28.08600
11574 SI 11574 SI SI1 11574 1.100000 28.08600
11575 SI 11575 SI SI1 11575 1.100000 28.08600
11576 SI 11576 SI SI1 11576 1.100000 28.08600
11577 SI 11577 SI SI1 11577 1.100000 28.08600
11578 SI 11578 SI SI1 11578 1.100000 28.08600
11579 SI 11579 SI SI1 11579 1.100000 28.08600
11580 SI 11580 SI SI1 11580 1.100000 28.08600
11581 SI 11581 SI SI1 11581 1.100000 28.08600
11582 SI 11582 SI SI1 11582 1.100000 28.08600
11583 SI 11583 SI SI1 11583 1.100000 28.08600
11584 SI 11584 SI SI1 11584 1.100000 28.08600
11585 SI 11585 SI SI1 11585 1.100000 28.08600
11586 SI 11586 SI SI1 11586 1.100000 28.08600
11587 SI 11587 SI SI1 11587 1.100000 28.08600
11588 SI 11588 SI SI1 11588 1.100000 28.08600
11589 SI 11589 SI SI1 11589 1.100000 28.08600
11590 SI 11590 SI SI1 11590 1.100000 28.08600
11591 SI 11591 SI SI1 11591 1.100000 28.08600
11592 SI 11592 SI SI1 11592 1.100000 28.08600
11593 SI 11593 SI SI1 11593 1.100000 28.08600
11594 SI 11594 SI SI1 11594 1.100000 28.08600
11595 SI 11595 SI SI1 11595 1.100000 28.08600
11596 SI 11596 SI SI1 11596 1.100000 28.08600
11597 SI 11597 SI SI1 11597 1.100000 28.08600
11598 SI 11598 SI SI1 11598 1.100000 28.08600
11599 SI 11599 SI SI1 11599 1.100000 28.08600
11600 SI 11600 SI SI1 11600 1.100000 28.08600
11601 SI 11601 SI SI1 11601 1.100000 28.08600
11602 SI 11602 SI SI1 11602 1.100000 28.08600
11603 SI 11603 SI SI1 11603 1.100000 28.08600
11604 SI 11604 SI SI1 11604 1.100000 28.08600
11605 SI 11605 SI SI1 11605 1.100000 28.08600
11606 SI 11606 SI SI1 11606 1.100000 28.08600
11607 SI 11607 SI SI1 11607 1.100000 28.08600
11608 SI 11608 SI SI1 11608 1.100000 28.08600
11609 SI 11609 SI SI1 11609 1.100000 28.08600
11610 SI 11610 SI SI1 11610 1.100000 28.08600
11611 SI 11611 SI SI1 11611 1.100000 28.08600
11612 SI 11612 SI SI1 11612 1.100000 28.08600
11613 SI 11613 SI SI1 11613 1.100000 28.08600
11614 SI 11614 SI SI1 11614 1.100000 28.08600
11615 SI 11615 SI SI1 11615 1.100000 28.08600
11616 SI 11616 SI SI1 11616 1.100000 28.08600
11617 SI 11617 SI SI1 11617 1.100000 28.08600
11618 SI 11618 SI SI1 11618 1.100000 28.08600
11619 SI 11619 SI SI1 11619 1.100000 28.08600
11620 SI 11620 SI SI1 11620 1.100000 28.08600
11621 SI 11621 SI SI1 11621 1.100000 28.08600
11622 SI 11622 SI SI1 11622 1.100000 28.08600
11623 SI 11623 SI SI1 11623 1.100000 28.08600
11624 SI 11624 SI SI1 11624 1.100000 28.08600
11625 SI 11625 SI SI1 11625 1.100000 28.08600
11626 SI 11626 SI SI1 11626 1.100000 28.08600
11627 SI 11627 SI SI1 11627 1.100000 28.08600
11628 SI 11628 SI SI1 11628 1.100000 28.08600
11629 SI 11629 SI SI1 11629 1.100000 28.08600
11630 SI 11630 SI SI1 11630 1.100000 28.08600
11631 SI 11631 SI SI1 11631 1.100000 28.08600
11632 SI 11632 SI SI1 11632 1.100000 28.08600
11633 SI 11633 SI SI1 11633 1.100000 28.08600
11634 SI 11634 SI SI1 11634 1.100000 28.08600
11635 SI 11635 SI SI1 11635 1.100000 28.08600
11636 SI 11636 SI SI1 11636 1.100000 28.08600
11637 SI 11637 SI SI1 11637 1.100000 28.08600
11638 SI 11638 SI SI1 11638 1.100000 28.08600
11639 SI 11639 SI SI1 11639 1.100000 28.08600
11640 SI 11640 SI SI1 11640 1.100000 28.08600
11641 SI 11641 SI SI1 11641 1.100000 28.08600
11642 SI 11642 SI SI1 11642 1.100000 28.08600
11643 SI 11643 SI SI1 11643 1.100000 28.08600
11644 SI 11644 SI SI1 11644 1.100000 28.08600
11645 SI 11645 SI SI1 11645 1.100000 28.08600
11646 SI 11646 SI SI1 11646 1.100000 28.08600
11647 SI 11647 SI SI1 11647 1.100000 28.08600
11648 SI 11648 SI SI1 11648 1.100000 28.08600
11649 SI 11649 SI SI1 11649 1.100000 28.08600
11650 SI 11650 SI SI1 11650 1.100000 28.08600
11651 SI 11651 SI SI1 11651 1.100000 28.08600
11652 SI 11652 SI SI1 11652 1.100000 28.08600
11653 SI 11653 SI SI1 11653 1.100000 28.08600
11654 SI 11654 SI SI1 11654 1.100000 28.08600
11655 SI 11655 SI SI1 11655 1.100000 28.08600
11656 SI 11656 SI SI1 11656 1.100000 28.08600
11657 SI 11657 SI SI1 11657 1.100000 28.08600
11658 SI 11658 SI SI1 11658 1.100000 28.08600
11659 SI 11659 SI SI1 11659 1.100000 28.08600
11660 SI 11660 SI SI1 11660 1.100000 28.08600
11661 SI 11661 SI SI1 11661 1.100000 28.08600
11662 SI 11662 SI SI1 11662 1.100000 28.08600
11663 SI 11663 SI SI1 11663 1.100000 28.08600
11664 SI 11664 SI SI1 11664 1.100000 28.08600
11665 SI 11665 SI SI1 11665 1.100000 28.08600
11666 SI 11666 SI SI1 11666 1.100000 28.08600
11667 SI 11667 SI SI1 11667 1.100000 28.08600
11668 SI 11668 SI SI1 11668 1.100000 28.08600
11669 SI 11669 SI SI1 11669 1.100000 28.08600
11670 SI 11670 SI SI1 11670 1.100000 28.08600
11671 SI 11671 SI SI1 11671 1.100000 28.08600
11672 SI 11672 SI SI1 11672 1.100000 28.08600
11673 SI 11673 SI SI1 11673 1.100000 28.08600
11674 SI 11674 SI SI1 11674 1.100000 28.08600
11675 SI 11675 SI SI1 11675 1.100000 28.08600
11676 SI 11676 SI SI1 11676 1.100000 28.08600
11677 SI 11677 SI SI1 11677 1.100000 28.08600
11678 SI 11678 SI SI1 11678 1.100000 28.08600
11679 SI 11679 SI SI1 11679 1.100000 28.08600
11680 SI 11680 SI SI1 11680 1.100000 28.08600
11681 SI 11681 SI SI1 11681 1.100000 28.08600
11682 SI 11682 SI SI1 11682 1.100000 28.08600
11683 SI 11683 SI SI1 11683 1.100000 28.08600
11684 SI 11684 SI SI1 11684 1.100000 28.08600
11685 SI 11685 SI SI1 11685 1.100000 28.08600
11686 SI 11686 SI SI1 11686 1.100000 28.08600
11687 SI 11687 SI SI1 11687 1.100000 28.08600
11688 SI 11688 SI SI1 11688 1.100000 28.08600
11689 SI 11689 SI SI1 11689 1.100000 28.08600
11690 SI 11690 SI SI1 11690 1.100000 28.08600
11691 SI 11691 SI SI1 11691 1.100000 28.08600
11692 SI 11692 SI SI1 11692 1.100000 28.08600
11693 SI 11693 SI SI1 11693 1.100000 28.08600
11694 SI 11694 SI SI1 11694 1.100000 28.08600
11695 SI 11695 SI SI1 11695 1.100000 28.08600
11696 SI 11696 SI SI1 11696 1.100000 28.08600
11697 SI 11697 SI SI1 11697 1.100000 28.08600
11698 SI 11698 SI SI1 11698 1.100000 28.08600
11699 SI 11699 SI SI1 11699 1.100000 28.08600
11700 SI 11700 SI SI1 11700 1.100000 28.08600
11701 SI 11701 SI SI1 11701 1.100000 28.08600
11702 SI 11702 SI SI1 11702 1.100000 28.08600
11703 SI 11703 SI SI1 11703 1.100000 28.08600
11704 SI 11704 SI SI1 11704 1.100000 28.08600
11705 SI 11705 SI SI1 11705 1.100000 28.08600
11706 SI 11706 SI SI1 11706 1.100000 28.08600
11707 SI 11707 SI SI1 11707 1.100000 28.08600
11708 SI 11708 SI SI1 11708 1.100000 28.08600
11709 SI 11709 SI SI1 11709 1.100000 28.08600
11710 SI 11710 SI SI1 11710 1.100000 28.08600
11711 SI 11711 SI SI1 11711 1.100000 28.08600
11712 SI 11712 SI SI1 11712 1.100000 28.08600
11713 SI 11713 SI SI1 11713 1.100000 28.08600
11714 SI 11714 SI SI1 11714 1.100000 28.08600
11715 SI 11715 SI SI1 11715 1.100000 28.08600
11716 SI 11716 SI SI1 11716 1.100000 28.08600
11717 SI 11717 SI SI1 11717 1.100000 28.08600
11718 SI 11718 SI SI1 11718 1.100000 28.08600
11719 SI 11719 SI SI1 11719 1.100000 28.08600
11720 SI 11720 SI SI1 11720 1.100000 28.08600
11721 SI 11721 SI SI1 11721 1.100000 28.08600
11722 SI 11722 SI SI1 11722 1.100000 28.08600
11723 SI 11723 SI SI1 11723 1.100000 28.08600
11724 SI 11724 SI SI1 11724 1.100000 28.08600
11725 SI 11725 SI SI1 11725 1.100000 28.08600
11726 SI 11726 SI SI1 11726 1.100000 28.08600
11727 SI 11727 SI SI1 11727 1.100000 28.08600
11728 SI 11728 SI SI1 11728 1.100000 28.08600
11729 SI 11729 SI SI1 11729 1.100000 28.08600
11730 SI 11730 SI SI1 11730 1.100000 28.08600
11731 SI 11731 SI SI1 11731 1.100000 28.08600
11732 SI 11732 SI SI1 11732 1.100000 28.08600
11733 SI 11733 SI SI1 11733 1.100000 28.08600
11734 SI 11734 SI SI1 11734 1.100000 28.08600
11735 SI 11735 SI SI1 11735 1.100000 28.08600
11736 SI 11736 SI SI1 11736 1.100000 28.08600
11737 SI 11737 SI SI1 11737 1.100000 28.08600
11738 SI 11738 SI SI1 11738 1.100000 28.08600
11739 SI 11739 SI SI1 11739 1.100000 28.08600
11740 SI 11740 SI SI1 11740 1.100000 28.08600
11741 SI 11741 SI SI1 11741 1.100000 28.08600
11742 SI 11742 SI SI1 11742 1.100000 28.08600
11743 SI 11743 SI SI1 11743 1.100000 28.08600
11744 SI 11744 SI SI1 11744 1.100000 28.08600
11745 SI 11745 SI SI1 11745 1.100000 28.08600
11746 SI 11746 SI SI1 11746 1.100000 28.08600
11747 SI 11747 SI SI1 11747 1.100000 28.08600
11748 SI 11748 SI SI1 11748 1.100000 28.08600
11749 SI 11749 SI SI1 11749 1.100000 28.08600
11750 SI 11750 SI SI1 11750 1.100000 28.08600
11751 SI 11751 SI SI1 11751 1.100000 28.08600
11752 SI 11752 SI SI1 11752 1.100000 28.08600
11753 SI 11753 SI SI1 11753 1.100000 28.08600
11754 SI 11754 SI SI1 11754 1.100000 28.08600
11755 SI 11755 SI SI1 11755 1.100000 28.08600
11756 SI 11756 SI SI1 11756 1.100000 28.08600
11757 SI 11757 SI SI1 11757 1.100000 28.08600
11758 SI 11758 SI SI1 11758 1.100000 28.08600
11759 SI 11759 SI SI1 11759 1.100000 28.08600
11760 SI 11760 SI SI1 11760 1.100000 28.08600
11761 SI 11761 SI SI1 11761 1.100000 28.08600
11762 SI 11762 SI SI1 11762 1.100000 28.08600
11763 SI 11763 SI SI1 11763 1.100000 28.08600
11764 SI 11764 SI SI1 11764 1.100000 28.08600
11765 SI 11765 SI SI1 11765 1.100000 28.08600
11766 SI 11766 SI SI1 11766 1.100000 28.08600
11767 SI 11767 SI SI1 11767 1.100000 28.08600
11768 SI 11768 SI SI1 11768 1.100000 28.08600
11769 SI 11769 SI SI1 11769 1.100000 28.08600
11770 SI 11770 SI SI1 11770 1.100000 28.08600
11771 SI 11771 SI SI1 11771 1.100000 28.08600
11772 SI 11772 SI SI1 11772 1.100000 28.08600
11773 SI 11773 SI SI1 11773 1.100000 28.08600
11774 SI 11774 SI SI1 11774 1.100000 28.08600
11775 SI 11775 SI SI1 11775 1.100000 28.08600
11776 SI 11776 SI SI1 11776 1.100000 28.08600
11777 SI 11777 SI SI1 11777 1.100000 28.08600
11778 SI 11778 SI SI1 11778 1.100000 28.08600
11779 SI 11779 SI SI1 11779 1.100000 28.08600
11780 SI 11780 SI SI1 11780 1.100000 28.08600
11781 SI 11781 SI SI1 11781 1.100000 28.08600
11782 SI 11782 SI SI1 11782 1.100000 28.08600
11783 SI 11783 SI SI1 11783 1.100000 28.08600
11784 SI 11784 SI SI1 11784 1.100000 28.08600
11785 SI 11785 SI SI1 11785 1.100000 28.08600
11786 SI 11786 SI SI1 11786 1.100000 28.08600
11787 SI 11787 SI SI1 11787 1.100000 28.08600
11788 SI 11788 SI SI1 11788 1.100000 28.08600
11789 SI 11789 SI SI1 11789 1.100000 28.08600
11790 SI 11790 SI SI1 11790 1.100000 28.08600
11791 SI 11791 SI SI1 11791 1.100000 28.08600
11792 SI 11792 SI SI1 11792 1.100000 28.08600
11793 SI 11793 SI SI1 11793 1.100000 28.08600
11794 SI 11794 SI SI1 11794 1.100000 28.08600
11795 SI 11795 SI SI1 11795 1.100000 28.08600
11796 SI 11796 SI SI1 11796 1.100000 28.08600
11797 SI 11797 SI SI1 11797 1.100000 28.08600
11798 SI 11798 SI SI1 11798 1.100000 28.08600
11799 SI 11799 SI SI1 11799 1.100000 28.08600
11800 SI 11800 SI SI1 11800 1.100000 28.08600
11801 SI 11801 SI SI1 11801 1.100000 28.08600
11802 SI 11802 SI SI1 11802 1.100000 28.08600
11803 SI 11803 SI SI1 11803 1.100000 28.08600
11804 SI 11804 SI SI1 11804 1.100000 28.08600
11805 SI 11805 SI SI1 11805 1.100000 28.08600
11806 SI 11806 SI SI1 11806 1.100000 28.08600
11807 SI 11807 SI SI1 11807 1.100000 28.08600
11808 SI 11808 SI SI1 11808 1.100000 28.08600
11809 SI 11809 SI SI1 11809 1.100000 28.08600
11810 SI 11810 SI SI1 11810 1.100000 28.08600
11811 SI 11811 SI SI1 11811 1.100000 28.08600
11812 SI 11812 SI SI1 11812 1.100000 28.08600
11813 SI 11813 SI SI1 11813 1.100000 28.08600
11814 SI 11814 SI SI1 11814 1.100000 28.08600
11815 SI 11815 SI SI1 11815 1.100000 28.08600
11816 SI 11816 SI SI1 11816 1.100000 28.08600
11817 SI 11817 SI SI1 11817 1.100000 28.08600
11818 SI 11818 SI SI1 11818 1.100000 28.08600
11819 SI 11819 SI SI1 11819 1.100000 28.08600
11820 SI 11820 SI SI1 11820 1.100000 28.08600
11821 SI 11821 SI SI1 11821 1.100000 28.08600
11822 SI 11822 SI SI1 11822 1.100000 28.08600
11823 SI 11823 SI SI1 11823 1.100000 28.08600
11824 SI 11824 SI SI1 11824 1.100000 28.08600
11825 SI 11825 SI SI1 11825 1.100000 28.08600
11826 SI 11826 SI SI1 11826 1.100000 28.08600
11827 SI 11827 SI SI1 11827 1.100000 28.08600
11828 SI 11828 SI SI1 11828 1.100000 28.08600
11829 SI 11829 SI SI1 11829 1.100000 28.08600
11830 SI 11830 SI SI1 11830 1.100000 28.08600
11831 SI 11831 SI SI1 11831 1.100000 28.08600
11832 SI 11832 SI SI1 11832 1.100000 28.08600
11833 SI 11833 SI SI1 11833 1.100000 28.08600
11834 SI 11834 SI SI1 11834 1.100000 28.08600
11835 SI 11835 SI SI1 11835 1.100000 28.08600
11836 SI 11836 SI SI1 11836 1.100000 28.08600
11837 SI 11837 SI SI1 11837 1.100000 28.08600
11838 SI 11838 SI SI1 11838 1.100000 28.08600
11839 SI 11839 SI SI1 11839 1.100000 28.08600
11840 SI 11840 SI SI1 11840 1.100000 28.08600
11841 SI 11841 SI SI1 11841 1.100000 28.08600
11842 SI 11842 SI SI1 11842 1.100000 28.08600
11843 SI 11843 SI SI1 11843 1.100000 28.08600
11844 SI 11844 SI SI1 11844 1.100000 28.08600
11845 SI 11845 SI SI1 11845 1.100000 28.08600
11846 SI 11846 SI SI1 11846 1.100000 28.08600
11847 SI 11847 SI SI1 11847 1.100000 28.08600
11848 SI 11848 SI SI1 11848 1.100000 28.08600
11849 SI 11849 SI SI1 11849 1.100000 28.08600
11850 SI 11850 SI SI1 11850 1.100000 28.08600
11851 SI 11851 SI SI1 11851 1.100000 28.08600
11852 SI 11852 SI SI1 11852 1.100000 28.08600
11853 SI 11853 SI SI1 11853 1.100000 28.08600
11854 SI 11854 SI SI1 11854 1.100000 28.08600
11855 SI 11855 SI SI1 11855 1.100000 28.08600
11856 SI 11856 SI SI1 11856 1.100000 28.08600
11857 SI 11857 SI SI1 11857 1.100000 28.08600
11858 SI 11858 SI SI1 11858 1.100000 28.08600
11859 SI 11859 SI SI1 11859 1.100000 28.08600
11860 SI 11860 SI SI1 11860 1.100000 28.08600
11861 SI 11861 SI SI1 11861 1.100000 28.08600
11862 SI 11862 SI SI1 11862 1.100000 28.08600
11863 SI 11863 SI SI1 11863 1.100000 28.08600
11864 SI 11864 SI SI1 11864 1.100000 28.08600
11865 SI 11865 SI SI1 11865 1.100000 28.08600
11866 SI 11866 SI SI1 11866 1.100000 28.08600
11867 SI 11867 SI SI1 11867 1.100000 28.08600
11868 SI 11868 SI SI1 11868 1.100000 28.08600
11869 SI 11869 SI SI1 11869 1.100000 28.08600
11870 SI 11870 SI SI1 11870 1.100000 28.08600
11871 SI 11871 SI SI1 11871 1.100000 28.08600
11872 SI 11872 SI SI1 11872 1.100000 28.08600
11873 SI 11873 SI SI1 11873 1.100000 28.08600
11874 SI 11874 SI SI1 11874 1.100000 28.08600
11875 SI 11875 SI SI1 11875 1.100000 28.08600
11876 SI 11876 SI SI1 11876 1.100000 28.08600
11877 SI 11877 SI SI1 11877 1.100000 28.08600
11878 SI 11878 SI SI1 11878 1.100000 28.08600
11879 SI 11879 SI SI1 11879 1.100000 28.08600
11880 SI 11880 SI SI1 11880 1.100000 28.08600
11881 SI 11881 SI SI1 11881 1.100000 28.08600
11882 SI 11882 SI SI1 11882 1.100000 28.08600
11883 SI 11883 SI SI1 11883 1.100000 28.08600
11884 SI 11884 SI SI1 11884 1.100000 28.08600
11885 SI 11885 SI SI1 11885 1.100000 28.08600
11886 SI 11886 SI SI1 11886 1.100000 28.08600
11887 SI 11887 SI SI1 11887 1.100000 28.08600
11888 SI 11888 SI SI1 11888 1.100000 28.08600
11889 SI 11889 SI SI1 11889 1.100000 28.08600
11890 SI 11890 SI SI1 11890 1.100000 28.08600
11891 SI 11891 SI SI1 11891 1.100000 28.08600
11892 SI 11892 SI SI1 11892 1.100000 28.08600
11893 SI 11893 SI SI1 11893 1.100000 28.08600
11894 SI 11894 SI SI1 11894 1.100000 28.08600
11895 SI 11895 SI SI1 11895 1.100000 28.08600
11896 SI 11896 SI SI1 11896 1.100000 28.08600
11897 SI 11897 SI SI1 11897 1.100000 28.08600
11898 SI 11898 SI SI1 11898 1.100000 28.08600
11899 SI 11899 SI SI1 11899 1.100000 28.08600
11900 SI 11900 SI SI1 11900 1.100000 28.08600
11901 SI 11901 SI SI1 11901 1.100000 28.08600
11902 SI 11902 SI SI1 11902 1.100000 28.08600
11903 SI 11903 SI SI1 11903 1.100000 28.08600
11904 SI 11904 SI SI1 11904 1.100000 28.08600
11905 SI 11905 SI SI1 11905 1.100000 28.08600
11906 SI 11906 SI SI1 11906 1.100000 28.08600
11907 SI 11907 SI SI1 11907 1.100000 28.08600
11908 SI 11908 SI SI1 11908 1.100000 28.08600
11909 SI 11909 SI SI1 11909 1.100000 28.08600
11910 SI 11910 SI SI1 11910 1.100000 28.08600
11911 SI 11911 SI SI1 11911 1.100000 28.08600
11912 SI 11912 SI SI1 11912 1.100000 28.08600
11913 SI 11913 SI SI1 11913 1.100000 28.08600
11914 SI 11914 SI SI1 11914 1.100000 28.08600
11915 SI 11915 SI SI1 11915 1.100000 28.08600
11916 SI 11916 SI SI1 11916 1.100000 28.08600
11917 SI 11917 SI SI1 11917 1.100000 28.08600
11918 SI 11918 SI SI1 11918 1.100000 28.08600
11919 SI 11919 SI SI1 11919 1.100000 28.08600
11920 SI 11920 SI SI1 11920 1.100000 28.08600
11921 SI 11921 SI SI1 11921 1.100000 28.08600
11922 SI 11922 SI SI1 11922 1.100000 28.08600
11923 SI 11923 SI SI1 11923 1.100000 28.08600
11924 SI 11924 SI SI1 11924 1.100000 28.08600
11925 SI 11925 SI SI1 11925 1.100000 28.08600
11926 SI 11926 SI SI1 11926 1.100000 28.08600
11927 SI 11927 SI SI1 11927 1.100000 28.08600
11928 SI 11928 SI SI1 11928 1.100000 28.08600
11929 SI 11929 SI SI1 11929 1.100000 28.08600
11930 SI 11930 SI SI1 11930 1.100000 28.08600
11931 SI 11931 SI SI1 11931 1.100000 28.08600
11932 SI 11932 SI SI1 11932 1.100000 28.08600
11933 SI 11933 SI SI1 11933 1.100000 28.08600
11934 SI 11934 SI SI1 11934 1.100000 28.08600
11935 SI 11935 SI SI1 11935 1.100000 28.08600
11936 SI 11936 SI SI1 11936 1.100000 28.08600
11937 SI 11937 SI SI1 11937 1.100000 28.08600
11938 SI 11938 SI SI1 11938 1.100000 28.08600
11939 SI 11939 SI SI1 11939 1.100000 28.08600
11940 SI 11940 SI SI1 11940 1.100000 28.08600
11941 SI 11941 SI SI1 11941 1.100000 28.08600
11942 SI 11942 SI SI1 11942 1.100000 28.08600
11943 SI 11943 SI SI1 11943 1.100000 28.08600
11944 SI 11944 SI SI1 11944 1.100000 28.08600
11945 SI 11945 SI SI1 11945 1.100000 28.08600
11946 SI 11946 SI SI1 11946 1.100000 28.08600
11947 SI 11947 SI SI1 11947 1.100000 28.08600
11948 SI 11948 SI SI1 11948 1.100000 28.08600
11949 SI 11949 SI SI1 11949 1.100000 28.08600
11950 SI 11950 SI SI1 11950 1.100000 28.08600
11951 SI 11951 SI SI1 11951 1.100000 28.08600
11952 SI 11952 SI SI1 11952 1.100000 28.08600
11953 SI 11953 SI SI1 11953 1.100000 28.08600
11954 SI 11954 SI SI1 11954 1.100000 28.08600
11955 SI 11955 SI SI1 11955 1.100000 28.08600
11956 SI 11956 SI SI1 11956 1.100000 28.08600
11957 SI 11957 SI SI1 11957 1.100000 28.08600
11958 SI 11958 SI SI1 11958 1.100000 28.08600
11959 SI 11959 SI SI1 11959 1.100000 28.08600
11960 SI 11960 SI SI1 11960 1.100000 28.08600
11961 SI 11961 SI SI1 11961 1.100000 28.08600
11962 SI 11962 SI SI1 11962 1.100000 28.08600
11963 SI 11963 SI SI1 11963 1.100000 28.08600
11964 SI 11964 SI SI1 11964 1.100000 28.08600
11965 SI 11965 SI SI1 11965 1.100000 28.08600
11966 SI 11966 SI SI1 11966 1.100000 28.08600
11967 SI 11967 SI SI1 11967 1.100000 28.08600
11968 SI 11968 SI SI1 11968 1.100000 28.08600
11969 SI 11969 SI SI1 11969 1.100000 28.08600
11970 SI 11970 SI SI1 11970 1.100000 28.08600
11971 SI 11971 SI SI1 11971 1.100000 28.08600
11972 SI 11972 SI SI1 11972 1.100000 28.08600
11973 SI 11973 SI SI1 11973 1.100000 28.08600
11974 SI 11974 SI SI1 11974 1.100000 28.08600
11975 SI 11975 SI SI1 11975 1.100000 28.08600
11976 SI 11976 SI SI1 11976 1.100000 28.08600
11977 SI 11977 SI SI1 11977 1.100000 28.08600
11978 SI 11978 SI SI1 11978 1.100000 28.08600
11979 SI 11979 SI SI1 11979 1.100000 28.08600
11980 SI 11980 SI SI1 11980 1.100000 28.08600
11981 SI 11981 SI SI1 11981 1.100000 28.08600
11982 SI 11982 SI SI1 11982 1.100000 28.08600
11983 SI 11983 SI SI1 11983 1.100000 28.08600
11984 SI 11984 SI SI1 11984 1.100000 28.08600
11985 SI 11985 SI SI1 11985 1.100000 28.08600
11986 SI 11986 SI SI1 11986 1.100000 28.08600
11987 SI 11987 SI SI1 11987 1.100000 28.08600
11988 SI 11988 SI SI1 11988 1.100000 28.08600
11989 SI 11989 SI SI1 11989 1.100000 28.08600
11990 SI 11990 SI SI1 11990 1.100000 28.08600
11991 SI 11991 SI SI1 11991 1.100000 28.08600
11992 SI 11992 SI SI1 11992 1.100000 28.08600
11993 SI 11993 SI SI1 11993 1.100000 28.08600
11994 SI 11994 SI SI1 11994 1.100000 28.08600
11995 SI 11995 SI SI1 11995 1.100000 28.08600
11996 SI 11996 SI SI1 11996 1.100000 28.08600
11997 SI 11997 SI SI1 11997 1.100000 28.08600
11998 SI 11998 SI SI1 11998 1.100000 28.08600
11999 SI 11999 SI SI1 11999 1.100000 28.08600
12000 SI 12000 SI SI1 12000 1.100000 28.08600
12001 SI 12001 SI SI1 12001 1.100000 28.08600
12002 SI 12002 SI SI1 12002 1.100000 28.08600
12003 SI 12003 SI SI1 12003 1.100000 28.08600
12004 SI 12004 SI SI1 12004 1.100000 28.08600
12005 SI 12005 SI SI1 12005 1.100000 28.08600
12006 SI 12006 SI SI1 12006 1.100000 28.08600
12007 SI 12007 SI SI1 12007 1.100000 28.08600
12008 SI 12008 SI SI1 12008 1.100000 28.08600
12009 SI 12009 SI SI1 12009 1.100000 28.08600
12010 SI 12010 SI SI1 12010 1.100000 28.08600
12011 SI 12011 SI SI1 12011 1.100000 28.08600
12012 SI 12012 SI SI1 12012 1.100000 28.08600
12013 SI 12013 SI SI1 12013 1.100000 28.08600
12014 SI 12014 SI SI1 12014 1.100000 28.08600
12015 SI 12015 SI SI1 12015 1.100000 28.08600
12016 SI 12016 SI SI1 12016 1.100000 28.08600
12017 SI 12017 SI SI1 12017 1.100000 28.08600
12018 SI 12018 SI SI1 12018 1.100000 28.08600
12019 SI 12019 SI SI1 12019 1.100000 28.08600
12020 SI 12020 SI SI1 12020 1.100000 28.08600
12021 SI 12021 SI SI1 12021 1.100000 28.08600
12022 SI 12022 SI SI1 12022 1.100000 28.08600
12023 SI 12023 SI SI1 12023 1.100000 28.08600
12024 SI 12024 SI SI1 12024 1.100000 28.08600
12025 SI 12025 SI SI1 12025 1.100000 28.08600
12026 SI 12026 SI SI1 12026 1.100000 28.08600
12027 SI 12027 SI SI1 12027 1.100000 28.08600
12028 SI 12028 SI SI1 12028 1.100000 28.08600
12029 SI 12029 SI SI1 12029 1.100000 28.08600
12030 SI 12030 SI SI1 12030 1.100000 28.08600
12031 SI 12031 SI SI1 12031 1.100000 28.08600
12032 SI 12032 SI SI1 12032 1.100000 28.08600
12033 SI 12033 SI SI1 12033 1.100000 28.08600
12034 SI 12034 SI SI1 12034 1.100000 28.08600
12035 SI 12035 SI SI1 12035 1.100000 28.08600
12036 SI 12036 SI SI1 12036 1.100000 28.08600
12037 SI 12037 SI SI1 12037 1.100000 28.08600
12038 SI 12038 SI SI1 12038 1.100000 28.08600
12039 SI 12039 SI SI1 12039 1.100000 28.08600
12040 SI 12040 SI SI1 12040 1.100000 28.08600
12041 SI 12041 SI SI1 12041 1.100000 28.08600
12042 SI 12042 SI SI1 12042 1.100000 28.08600
12043 SI 12043 SI SI1 12043 1.100000 28.08600
12044 SI 12044 SI SI1 12044 1.100000 28.08600
12045 SI 12045 SI SI1 12045 1.100000 28.08600
12046 SI 12046 SI SI1 12046 1.100000 28.08600
12047 SI 12047 SI SI1 12047 1.100000 28.08600
12048 SI 12048 SI SI1 12048 1.100000 28.08600
12049 SI 12049 SI SI1 12049 1.100000 28.08600
12050 SI 12050 SI SI1 12050 1.100000 28.08600
12051 SI 12051 SI SI1 12051 1.100000 28.08600
12052 SI 12052 SI SI1 12052 1.100000 28.08600
12053 SI 12053 SI SI1 12053 1.100000 28.08600
12054 SI 12054 SI SI1 12054 1.100000 28.08600
12055 SI 12055 SI SI1 12055 1.100000 28.08600
12056 SI 12056 SI SI1 12056 1.100000 28.08600
12057 SI 12057 SI SI1 12057 1.100000 28.08600
12058 SI 12058 SI SI1 12058 1.100000 28.08600
12059 SI 12059 SI SI1 12059 1.100000 28.08600
12060 SI 12060 SI SI1 12060 1.100000 28.08600
12061 SI 12061 SI SI1 12061 1.100000 28.08600
12062 SI 12062 SI SI1 12062 1.100000 28.08600
12063 SI 12063 SI SI1 12063 1.100000 28.08600
12064 SI 12064 SI SI1 12064 1.100000 28.08600
12065 SI 12065 SI SI1 12065 1.100000 28.08600
12066 SI 12066 SI SI1 12066 1.100000 28.08600
12067 SI 12067 SI SI1 12067 1.100000 28.08600
12068 SI 12068 SI SI1 12068 1.100000 28.08600
12069 SI 12069 SI SI1 12069 1.100000 28.08600
12070 SI 12070 SI SI1 12070 1.100000 28.08600
12071 SI 12071 SI SI1 12071 1.100000 28.08600
12072 SI 12072 SI SI1 12072 1.100000 28.08600
12073 SI 12073 SI SI1 12073 1.100000 28.08600
12074 SI 12074 SI SI1 12074 1.100000 28.08600
12075 SI 12075 SI SI1 12075 1.100000 28.08600
12076 SI 12076 SI SI1 12076 1.100000 28.08600
12077 SI 12077 SI SI1 12077 1.100000 28.08600
12078 SI 12078 SI SI1 12078 1.100000 28.08600
12079 SI 12079 SI SI1 12079 1.100000 28.08600
12080 SI 12080 SI SI1 12080 1.100000 28.08600
12081 SI 12081 SI SI1 12081 1.100000 28.08600
12082 SI 12082 SI SI1 12082 1.100000 28.08600
12083 SI 12083 SI SI1 12083 1.100000 28.08600
12084 SI 12084 SI SI1 12084 1.100000 28.08600
12085 SI 12085 SI SI1 12085 1.100000 28.08600
12086 SI 12086 SI SI1 12086 1.100000 28.08600
12087 SI 12087 SI SI1 12087 1.100000 28.08600
12088 SI 12088 SI SI1 12088 1.100000 28.08600
12089 SI 12089 SI SI1 12089 1.100000 28.08600
12090 SI 12090 SI SI1 12090 1.100000 28.08600
12091 SI 12091 SI SI1 12091 1.100000 28.08600
12092 SI 12092 SI SI1 12092 1.100000 28.08600
12093 SI 12093 SI SI1 12093 1.100000 28.08600
12094 SI 12094 SI SI1 12094 1.100000 28.08600
12095 SI 12095 SI SI1 12095 1.100000 28.08600
12096 SI 12096 SI SI1 12096 1.100000 28.08600
12097 SI 12097 SI SI1 12097 1.100000 28.08600
12098 SI 12098 SI SI1 12098 1.100000 28.08600
12099 SI 12099 SI SI1 12099 1.100000 28.08600
12100 SI 12100 SI SI1 12100 1.100000 28.08600
12101 SI 12101 SI SI1 12101 1.100000 28.08600
12102 SI 12102 SI SI1 12102 1.100000 28.08600
12103 SI 12103 SI SI1 12103 1.100000 28.08600
12104 SI 12104 SI SI1 12104 1.100000 28.08600
12105 SI 12105 SI SI1 12105 1.100000 28.08600
12106 SI 12106 SI SI1 12106 1.100000 28.08600
12107 SI 12107 SI SI1 12107 1.100000 28.08600
12108 SI 12108 SI SI1 12108 1.100000 28.08600
12109 SI 12109 SI SI1 12109 1.100000 28.08600
12110 SI 12110 SI SI1 12110 1.100000 28.08600
12111 SI 12111 SI SI1 12111 1.100000 28.08600
12112 SI 12112 SI SI1 12112 1.100000 28.08600
12113 SI 12113 SI SI1 12113 1.100000 28.08600
12114 SI 12114 SI SI1 12114 1.100000 28.08600
12115 SI 12115 SI SI1 12115 1.100000 28.08600
12116 SI 12116 SI SI1 12116 1.100000 28.08600
12117 SI 12117 SI SI1 12117 1.100000 28.08600
12118 SI 12118 SI SI1 12118 1.100000 28.08600
12119 SI 12119 SI SI1 12119 1.100000 28.08600
12120 SI 12120 SI SI1 12120 1.100000 28.08600
12121 SI 12121 SI SI1 12121 1.100000 28.08600
12122 SI 12122 SI SI1 12122 1.100000 28.08600
12123 SI 12123 SI SI1 12123 1.100000 28.08600
12124 SI 12124 SI SI1 12124 1.100000 28.08600
12125 SI 12125 SI SI1 12125 1.100000 28.08600
12126 SI 12126 SI SI1 12126 1.100000 28.08600
12127 SI 12127 SI SI1 12127 1.100000 28.08600
12128 SI 12128 SI SI1 12128 1.100000 28.08600
12129 SI 12129 SI SI1 12129 1.100000 28.08600
12130 SI 12130 SI SI1 12130 1.100000 28.08600
12131 SI 12131 SI SI1 12131 1.100000 28.08600
12132 SI 12132 SI SI1 12132 1.100000 28.08600
12133 SI 12133 SI SI1 12133 1.100000 28.08600
12134 SI 12134 SI SI1 12134 1.100000 28.08600
12135 SI 12135 SI SI1 12135 1.100000 28.08600
12136 SI 12136 SI SI1 12136 1.100000 28.08600
12137 SI 12137 SI SI1 12137 1.100000 28.08600
12138 SI 12138 SI SI1 12138 1.100000 28.08600
12139 SI 12139 SI SI1 12139 1.100000 28.08600
12140 SI 12140 SI SI1 12140 1.100000 28.08600
12141 SI 12141 SI SI1 12141 1.100000 28.08600
12142 SI 12142 SI SI1 12142 1.100000 28.08600
12143 SI 12143 SI SI1 12143 1.100000 28.08600
12144 SI 12144 SI SI1 12144 1.100000 28.08600
12145 SI 12145 SI SI1 12145 1.100000 28.08600
12146 SI 12146 SI SI1 12146 1.100000 28.08600
12147 SI 12147 SI SI1 12147 1.100000 28.08600
12148 SI 12148 SI SI1 12148 1.100000 28.08600
12149 SI 12149 SI SI1 12149 1.100000 28.08600
12150 SI 12150 SI SI1 12150 1.100000 28.08600
12151 SI 12151 SI SI1 12151 1.100000 28.08600
12152 SI 12152 SI SI1 12152 1.100000 28.08600
12153 SI 12153 SI SI1 12153 1.100000 28.08600
12154 SI 12154 SI SI1 12154 1.100000 28.08600
12155 SI 12155 SI SI1 12155 1.100000 28.08600
12156 SI 12156 SI SI1 12156 1.100000 28.08600
12157 SI 12157 SI SI1 12157 1.100000 28.08600
12158 SI 12158 SI SI1 12158 1.100000 28.08600
12159 SI 12159 SI SI1 12159 1.100000 28.08600
12160 SI 12160 SI SI1 12160 1.100000 28.08600
12161 SI 12161 SI SI1 12161 1.100000 28.08600
12162 SI 12162 SI SI1 12162 1.100000 28.08600
12163 SI 12163 SI SI1 12163 1.100000 28.08600
12164 SI 12164 SI SI1 12164 1.100000 28.08600
12165 SI 12165 SI SI1 12165 1.100000 28.08600
12166 SI 12166 SI SI1 12166 1.100000 28.08600
12167 SI 12167 SI SI1 12167 1.100000 28.08600
12168 SI 12168 SI SI1 12168 1.100000 28.08600
12169 SI 12169 SI SI1 12169 1.100000 28.08600
12170 SI 12170 SI SI1 12170 1.100000 28.08600
12171 SI 12171 SI SI1 12171 1.100000 28.08600
12172 SI 12172 SI SI1 12172 1.100000 28.08600
12173 SI 12173 SI SI1 12173 1.100000 28.08600
12174 SI 12174 SI SI1 12174 1.100000 28.08600
12175 SI 12175 SI SI1 12175 1.100000 28.08600
12176 SI 12176 SI SI1 12176 1.100000 28.08600
12177 SI 12177 SI SI1 12177 1.100000 28.08600
12178 SI 12178 SI SI1 12178 1.100000 28.08600
12179 SI 12179 SI SI1 12179 1.100000 28.08600
12180 SI 12180 SI SI1 12180 1.100000 28.08600
12181 SI 12181 SI SI1 12181 1.100000 28.08600
12182 SI 12182 SI SI1 12182 1.100000 28.08600
12183 SI 12183 SI SI1 12183 1.100000 28.08600
12184 SI 12184 SI SI1 12184 1.100000 28.08600
12185 SI 12185 SI SI1 12185 1.100000 28.08600
12186 SI 12186 SI SI1 12186 1.100000 28.08600
12187 SI 12187 SI SI1 12187 1.100000 28.08600
12188 SI 12188 SI SI1 12188 1.100000 28.08600
12189 SI 12189 SI SI1 12189 1.100000 28.08600
12190 SI 12190 SI SI1 12190 1.100000 28.08600
12191 SI 12191 SI SI1 12191 1.100000 28.08600
12192 SI 12192 SI SI1 12192 1.100000 28.08600
12193 SI 12193 SI SI1 12193 1.100000 28.08600
12194 SI 12194 SI SI1 12194 1.100000 28.08600
12195 SI 12195 SI SI1 12195 1.100000 28.08600
12196 SI 12196 SI SI1 12196 1.100000 28.08600
12197 SI 12197 SI SI1 12197 1.100000 28.08600
12198 SI 12198 SI SI1 12198 1.100000 28.08600
12199 SI 12199 SI SI1 12199 1.100000 28.08600
12200 SI 12200 SI SI1 12200 1.100000 28.08600
12201 SI 12201 SI SI1 12201 1.100000 28.08600
12202 SI 12202 SI SI1 12202 1.100000 28.08600
12203 SI 12203 SI SI1 12203 1.100000 28.08600
12204 SI 12204 SI SI1 12204 1.100000 28.08600
12205 SI 12205 SI SI1 12205 1.100000 28.08600
12206 SI 12206 SI SI1 12206 1.100000 28.08600
12207 SI 12207 SI SI1 12207 1.100000 28.08600
12208 SI 12208 SI SI1 12208 1.100000 28.08600
12209 SI 12209 SI SI1 12209 1.100000 28.08600
12210 SI 12210 SI SI1 12210 1.100000 28.08600
12211 SI 12211 SI SI1 12211 1.100000 28.08600
12212 SI 12212 SI SI1 12212 1.100000 28.08600
12213 SI 12213 SI SI1 12213 1.100000 28.08600
12214 SI 12214 SI SI1 12214 1.100000 28.08600
12215 SI 12215 SI SI1 12215 1.100000 28.08600
12216 SI 12216 SI SI1 12216 1.100000 28.08600
12217 SI 12217 SI SI1 12217 1.100000 28.08600
12218 SI 12218 SI SI1 12218 1.100000 28.08600
12219 SI 12219 SI SI1 12219 1.100000 28.08600
12220 SI 12220 SI SI1 12220 1.100000 28.08600
12221 SI 12221 SI SI1 12221 1.100000 28.08600
12222 SI 12222 SI SI1 12222 1.100000 28.08600
12223 SI 12223 SI SI1 12223 1.100000 28.08600
12224 SI 12224 SI SI1 12224 1.100000 28.08600
12225 SI 12225 SI SI1 12225 1.100000 28.08600
12226 SI 12226 SI SI1 12226 1.100000 28.08600
12227 SI 12227 SI SI1 12227 1.100000 28.08600
12228 SI 12228 SI SI1 12228 1.100000 28.08600
12229 SI 12229 SI SI1 12229 1.100000 28.08600
12230 SI 12230 SI SI1 12230 1.100000 28.08600
12231 SI 12231 SI SI1 12231 1.100000 28.08600
12232 SI 12232 SI SI1 12232 1.100000 28.08600
12233 SI 12233 SI SI1 12233 1.100000 28.08600
12234 SI 12234 SI SI1 12234 1.100000 28.08600
12235 SI 12235 SI SI1 12235 1.100000 28.08600
12236 SI 12236 SI SI1 12236 1.100000 28.08600
12237 SI 12237 SI SI1 12237 1.100000 28.08600
12238 SI 12238 SI SI1 12238 1.100000 28.08600
12239 SI 12239 SI SI1 12239 1.100000 28.08600
12240 SI 12240 SI SI1 12240 1.100000 28.08600
12241 SI 12241 SI SI1 12241 1.100000 28.08600
12242 SI 12242 SI SI1 12242 1.100000 28.08600
12243 SI 12243 SI SI1 12243 1.100000 28.08600
12244 SI 12244 SI SI1 12244 1.100000 28.08600
12245 SI 12245 SI SI1 12245 1.100000 28.08600
12246 SI 12246 SI SI1 12246 1.100000 28.08600
12247 SI 12247 SI SI1 12247 1.100000 28.08600
12248 SI 12248 SI SI1 12248 1.100000 28.08600
12249 SI 12249 SI SI1 12249 1.100000 28.08600
12250 SI 12250 SI SI1 12250 1.100000 28.08600
12251 SI 12251 SI SI1 12251 1.100000 28.08600
12252 SI 12252 SI SI1 12252 1.100000 28.08600
12253 SI 12253 SI SI1 12253 1.100000 28.08600
12254 SI 12254 SI SI1 12254 1.100000 28.08600
12255 SI 12255 SI SI1 12255 1.100000 28.08600
12256 SI 12256 SI SI1 12256 1.100000 28.08600
12257 SI 12257 SI SI1 12257 1.100000 28.08600
12258 SI 12258 SI SI1 12258 1.100000 28.08600
12259 SI 12259 SI SI1 12259 1.100000 28.08600
12260 SI 12260 SI SI1 12260 1.100000 28.08600
12261 SI 12261 SI SI1 12261 1.100000 28.08600
12262 SI 12262 SI SI1 12262 1.100000 28.08600
12263 SI 12263 SI SI1 12263 1.100000 28.08600
12264 SI 12264 SI SI1 12264 1.100000 28.08600
12265 SI 12265 SI SI1 12265 1.100000 28.08600
12266 SI 12266 SI SI1 12266 1.100000 28.08600
12267 SI 12267 SI SI1 12267 1.100000 28.08600
12268 SI 12268 SI SI1 12268 1.100000 28.08600
12269 SI 12269 SI SI1 12269 1.100000 28.08600
12270 SI 12270 SI SI1 12270 1.100000 28.08600
12271 SI 12271 SI SI1 12271 1.100000 28.08600
12272 SI 12272 SI SI1 12272 1.100000 28.08600
12273 SI 12273 SI SI1 12273 1.100000 28.08600
12274 SI 12274 SI SI1 12274 1.100000 28.08600
12275 SI 12275 SI SI1 12275 1.100000 28.08600
12276 SI 12276 SI SI1 12276 1.100000 28.08600
12277 SI 12277 SI SI1 12277 1.100000 28.08600
12278 SI 12278 SI SI1 12278 1.100000 28.08600
12279 SI 12279 SI SI1 12279 1.100000 28.08600
12280 SI 12280 SI SI1 12280 1.100000 28.08600
12281 SI 12281 SI SI1 12281 1.100000 28.08600
12282 SI 12282 SI SI1 12282 1.100000 28.08600
12283 SI 12283 SI SI1 12283 1.100000 28.08600
12284 SI 12284 SI SI1 12284 1.100000 28.08600
12285 SI 12285 SI SI1 12285 1.100000 28.08600
12286 SI 12286 SI SI1 12286 1.100000 28.08600
12287 SI 12287 SI SI1 12287 1.100000 28.08600
12288 SI 12288 SI SI1 12288 1.100000 28.08600
12289 SI 12289 SI SI1 12289 1.100000 28.08600
12290 SI 12290 SI SI1 12290 1.100000 28.08600
12291 SI 12291 SI SI1 12291 1.100000 28.08600
12292 SI 12292 SI SI1 12292 1.100000 28.08600
12293 SI 12293 SI SI1 12293 1.100000 28.08600
12294 SI 12294 SI SI1 12294 1.100000 28.08600
12295 SI 12295 SI SI1 12295 1.100000 28.08600
12296 SI 12296 SI SI1 12296 1.100000 28.08600
12297 SI 12297 SI SI1 12297 1.100000 28.08600
12298 SI 12298 SI SI1 12298 1.100000 28.08600
12299 SI 12299 SI SI1 12299 1.100000 28.08600
12300 SI 12300 SI SI1 12300 1.100000 28.08600
12301 SI 12301 SI SI1 12301 1.100000 28.08600
12302 SI 12302 SI SI1 12302 1.100000 28.08600
12303 SI 12303 SI SI1 12303 1.100000 28.08600
12304 SI 12304 SI SI1 12304 1.100000 28.08600
12305 SI 12305 SI SI1 12305 1.100000 28.08600
12306 SI 12306 SI SI1 12306 1.100000 28.08600
12307 SI 12307 SI SI1 12307 1.100000 28.08600
12308 SI 12308 SI SI1 12308 1.100000 28.08600
12309 SI 12309 SI SI1 12309 1.100000 28.08600
12310 SI 12310 SI SI1 12310 1.100000 28.08600
12311 SI 12311 SI SI1 12311 1.100000 28.08600
12312 SI 12312 SI SI1 12312 1.100000 28.08600
12313 SI 12313 SI SI1 12313 1.100000 28.08600
12314 SI 12314 SI SI1 12314 1.100000 28.08600
12315 SI 12315 SI SI1 12315 1.100000 28.08600
12316 SI 12316 SI SI1 12316 1.100000 28.08600
12317 SI 12317 SI SI1 12317 1.100000 28.08600
12318 SI 12318 SI SI1 12318 1.100000 28.08600
12319 SI 12319 SI SI1 12319 1.100000 28.08600
12320 SI 12320 SI SI1 12320 1.100000 28.08600
12321 SI 12321 SI SI1 12321 1.100000 28.08600
12322 SI 12322 SI SI1 12322 1.100000 28.08600
12323 SI 12323 SI SI1 12323 1.100000 28.08600
12324 SI 12324 SI SI1 12324 1.100000 28.08600
12325 SI 12325 SI SI1 12325 1.100000 28.08600
12326 SI 12326 SI SI1 12326 1.100000 28.08600
12327 SI 12327 SI SI1 12327 1.100000 28.08600
12328 SI 12328 SI SI1 12328 1.100000 28.08600
12329 SI 12329 SI SI1 12329 1.100000 28.08600
12330 SI 12330 SI SI1 12330 1.100000 28.08600
12331 SI 12331 SI SI1 12331 1.100000 28.08600
12332 SI 12332 SI SI1 12332 1.100000 28.08600
12333 SI 12333 SI SI1 12333 1.100000 28.08600
12334 SI 12334 SI SI1 12334 1.100000 28.08600
12335 SI 12335 SI SI1 12335 1.100000 28.08600
12336 SI 12336 SI SI1 12336 1.100000 28.08600
12337 SI 12337 SI SI1 12337 1.100000 28.08600
12338 SI 12338 SI SI1 12338 1.100000 28.08600
12339 SI 12339 SI SI1 12339 1.100000 28.08600
12340 SI 12340 SI SI1 12340 1.100000 28.08600
12341 SI 12341 SI SI1 12341 1.100000 28.08600
12342 SI 12342 SI SI1 12342 1.100000 28.08600
12343 SI 12343 SI SI1 12343 1.100000 28.08600
12344 SI 12344 SI SI1 12344 1.100000 28.08600
12345 SI 12345 SI SI1 12345 1.100000 28.08600
12346 SI 12346 SI SI1 12346 1.100000 28.08600
12347 SI 12347 SI SI1 12347 1.100000 28.08600
12348 SI 12348 SI SI1 12348 1.100000 28.08600
12349 SI 12349 SI SI1 12349 1.100000 28.08600
12350 SI 12350 SI SI1 12350 1.100000 28.08600
12351 SI 12351 SI SI1 12351 1.100000 28.08600
12352 SI 12352 SI SI1 12352 1.100000 28.08600
12353 SI 12353 SI SI1 12353 1.100000 28.08600
12354 SI 12354 SI SI1 12354 1.100000 28.08600
12355 SI 12355 SI SI1 12355 1.100000 28.08600
12356 SI 12356 SI SI1 12356 1.100000 28.08600
12357 SI 12357 SI SI1 12357 1.100000 28.08600
12358 SI 12358 SI SI1 12358 1.100000 28.08600
12359 SI 12359 SI SI1 12359 1.100000 28.08600
12360 SI 12360 SI SI1 12360 1.100000 28.08600
12361 SI 12361 SI SI1 12361 1.100000 28.08600
12362 SI 12362 SI SI1 12362 1.100000 28.08600
12363 SI 12363 SI SI1 12363 1.100000 28.08600
12364 SI 12364 SI SI1 12364 1.100000 28.08600
12365 SI 12365 SI SI1 12365 1.100000 28.08600
12366 SI 12366 SI SI1 12366 1.100000 28.08600
12367 SI 12367 SI SI1 12367 1.100000 28.08600
12368 SI 12368 SI SI1 12368 1.100000 28.08600
12369 SI 12369 SI SI1 12369 1.100000 28.08600
12370 SI 12370 SI SI1 12370 1.100000 28.08600
12371 SI 12371 SI SI1 12371 1.100000 28.08600
12372 SI 12372 SI SI1 12372 1.100000 28.08600
12373 SI 12373 SI SI1 12373 1.100000 28.08600
12374 SI 12374 SI SI1 12374 1.100000 28.08600
12375 SI 12375 SI SI1 12375 1.100000 28.08600
12376 SI 12376 SI SI1 12376 1.100000 28.08600
12377 SI 12377 SI SI1 12377 1.100000 28.08600
12378 SI 12378 SI SI1 12378 1.100000 28.08600
12379 SI 12379 SI SI1 12379 1.100000 28.08600
12380 SI 12380 SI SI1 12380 1.100000 28.08600
12381 SI 12381 SI SI1 12381 1.100000 28.08600
12382 SI 12382 SI SI1 12382 1.100000 28.08600
12383 SI 12383 SI SI1 12383 1.100000 28.08600
12384 SI 12384 SI SI1 12384 1.100000 28.08600
12385 SI 12385 SI SI1 12385 1.100000 28.08600
12386 SI 12386 SI SI1 12386 1.100000 28.08600
12387 SI 12387 SI SI1 12387 1.100000 28.08600
12388 SI 12388 SI SI1 12388 1.100000 28.08600
12389 SI 12389 SI SI1 12389 1.100000 28.08600
12390 SI 12390 SI SI1 12390 1.100000 28.08600
12391 SI 12391 SI SI1 12391 1.100000 28.08600
12392 SI 12392 SI SI1 12392 1.100000 28.08600
12393 SI 12393 SI SI1 12393 1.100000 28.08600
12394 SI 12394 SI SI1 12394 1.100000 28.08600
12395 SI 12395 SI SI1 12395 1.100000 28.08600
12396 SI 12396 SI SI1 12396 1.100000 28.08600
12397 SI 12397 SI SI1 12397 1.100000 28.08600
12398 SI 12398 SI SI1 12398 1.100000 28.08600
12399 SI 12399 SI SI1 12399 1.100000 28.08600
12400 SI 12400 SI SI1 12400 1.100000 28.08600
12401 SI 12401 SI SI1 12401 1.100000 28.08600
12402 SI 12402 SI SI1 12402 1.100000 28.08600
12403 SI 12403 SI SI1 12403 1.100000 28.08600
12404 SI 12404 SI SI1 12404 1.100000 28.08600
12405 SI 12405 SI SI1 12405 1.100000 28.08600
12406 SI 12406 SI SI1 12406 1.100000 28.08600
12407 SI 12407 SI SI1 12407 1.100000 28.08600
12408 SI 12408 SI SI1 12408 1.100000 28.08600
12409 SI 12409 SI SI1 12409 1.100000 28.08600
12410 SI 12410 SI SI1 12410 1.100000 28.08600
12411 SI 12411 SI SI1 12411 1.100000 28.08600
12412 SI 12412 SI SI1 12412 1.100000 28.08600
12413 SI 12413 SI SI1 12413 1.100000 28.08600
12414 SI 12414 SI SI1 12414 1.100000 28.08600
12415 SI 12415 SI SI1 12415 1.100000 28.08600
12416 SI 12416 SI SI1 12416 1.100000 28.08600
12417 SI 12417 SI SI1 12417 1.100000 28.08600
12418 SI 12418 SI SI1 12418 1.100000 28.08600
12419 SI 12419 SI SI1 12419 1.100000 28.08600
12420 SI 12420 SI SI1 12420 1.100000 28.08600
12421 SI 12421 SI SI1 12421 1.100000 28.08600
12422 SI 12422 SI SI1 12422 1.100000 28.08600
12423 SI 12423 SI SI1 12423 1.100000 28.08600
12424 SI 12424 SI SI1 12424 1.100000 28.08600
12425 SI 12425 SI SI1 12425 1.100000 28.08600
12426 SI 12426 SI SI1 12426 1.100000 28.08600
12427 SI 12427 SI SI1 12427 1.100000 28.08600
12428 SI 12428 SI SI1 12428 1.100000 28.08600
12429 SI 12429 SI SI1 12429 1.100000 28.08600
12430 SI 12430 SI SI1 12430 1.100000 28.08600
12431 SI 12431 SI SI1 12431 1.100000 28.08600
12432 SI 12432 SI SI1 12432 1.100000 28.08600
12433 SI 12433 SI SI1 12433 1.100000 28.08600
12434 SI 12434 SI SI1 12434 1.100000 28.08600
12435 SI 12435 SI SI1 12435 1.100000 28.08600
12436 SI 12436 SI SI1 12436 1.100000 28.08600
12437 SI 12437 SI SI1 12437 1.100000 28.08600
12438 SI 12438 SI SI1 12438 1.100000 28.08600
12439 SI 12439 SI SI1 12439 1.100000 28.08600
12440 SI 12440 SI SI1 12440 1.100000 28.08600
12441 SI 12441 SI SI1 12441 1.100000 28.08600
12442 SI 12442 SI SI1 12442 1.100000 28.08600
12443 SI 12443 SI SI1 12443 1.100000 28.08600
12444 SI 12444 SI SI1 12444 1.100000 28.08600
12445 SI 12445 SI SI1 12445 1.100000 28.08600
12446 SI 12446 SI SI1 12446 1.100000 28.08600
12447 SI 12447 SI SI1 12447 1.100000 28.08600
12448 SI 12448 SI SI1 12448 1.100000 28.08600
12449 SI 12449 SI SI1 12449 1.100000 28.08600
12450 SI 12450 SI SI1 12450 1.100000 28.08600
12451 SI 12451 SI SI1 12451 1.100000 28.08600
12452 SI 12452 SI SI1 12452 1.100000 28.08600
12453 SI 12453 SI SI1 12453 1.100000 28.08600
12454 SI 12454 SI SI1 12454 1.100000 28.08600
12455 SI 12455 SI SI1 12455 1.100000 28.08600
12456 SI 12456 SI SI1 12456 1.100000 28.08600
12457 SI 12457 SI SI1 12457 1.100000 28.08600
12458 SI 12458 SI SI1 12458 1.100000 28.08600
12459 SI 12459 SI SI1 12459 1.100000 28.08600
12460 SI 12460 SI SI1 12460 1.100000 28.08600
12461 SI 12461 SI SI1 12461 1.100000 28.08600
12462 SI 12462 SI SI1 12462 1.100000 28.08600
12463 SI 12463 SI SI1 12463 1.100000 28.08600
12464 SI 12464 SI SI1 12464 1.100000 28.08600
12465 SI 12465 SI SI1 12465 1.100000 28.08600
12466 SI 12466 SI SI1 12466 1.100000 28.08600
12467 SI 12467 SI SI1 12467 1.100000 28.08600
12468 SI 12468 SI SI1 12468 1.100000 28.08600
12469 SI 12469 SI SI1 12469 1.100000 28.08600
12470 SI 12470 SI SI1 12470 1.100000 28.08600
12471 SI 12471 SI SI1 12471 1.100000 28.08600
12472 SI 12472 SI SI1 12472 1.100000 28.08600
12473 SI 12473 SI SI1 12473 1.100000 28.08600
12474 SI 12474 SI SI1 12474 1.100000 28.08600
12475 SI 12475 SI SI1 12475 1.100000 28.08600
12476 SI 12476 SI SI1 12476 1.100000 28.08600
12477 SI 12477 SI SI1 12477 1.100000 28.08600
12478 SI 12478 SI SI1 12478 1.100000 28.08600
12479 SI 12479 SI SI1 12479 1.100000 28.08600
12480 SI 12480 SI SI1 12480 1.100000 28.08600
12481 SI 12481 SI SI1 12481 1.100000 28.08600
12482 SI 12482 SI SI1 12482 1.100000 28.08600
12483 SI 12483 SI SI1 12483 1.100000 28.08600
12484 SI 12484 SI SI1 12484 1.100000 28.08600
12485 SI 12485 SI SI1 12485 1.100000 28.08600
12486 SI 12486 SI SI1 12486 1.100000 28.08600
12487 SI 12487 SI SI1 12487 1.100000 28.08600
12488 SI 12488 SI SI1 12488 1.100000 28.08600
12489 SI 12489 SI SI1 12489 1.100000 28.08600
12490 SI 12490 SI SI1 12490 1.100000 28.08600
12491 SI 12491 SI SI1 12491 1.100000 28.08600
12492 SI 12492 SI SI1 12492 1.100000 28.08600
12493 SI 12493 SI SI1 12493 1.100000 28.08600
12494 SI 12494 SI SI1 12494 1.100000 28.08600
12495 SI 12495 SI SI1 12495 1.100000 28.08600
12496 SI 12496 SI SI1 12496 1.100000 28.08600
12497 SI 12497 SI SI1 12497 1.100000 28.08600
12498 SI 12498 SI SI1 12498 1.100000 28.08600
12499 SI 12499 SI SI1 12499 1.100000 28.08600
12500 SI 12500 SI SI1 12500 1.100000 28.08600
12501 SI 12501 SI SI1 12501 1.100000 28.08600
12502 SI 12502 SI SI1 12502 1.100000 28.08600
12503 SI 12503 SI SI1 12503 1.100000 28.08600
12504 SI 12504 SI SI1 12504 1.100000 28.08600
12505 SI 12505 SI SI1 12505 1.100000 28.08600
12506 SI 12506 SI SI1 12506 1.100000 28.08600
12507 SI 12507 SI SI1 12507 1.100000 28.08600
12508 SI 12508 SI SI1 12508 1.100000 28.08600
12509 SI 12509 SI SI1 12509 1.100000 28.08600
12510 SI 12510 SI SI1 12510 1.100000 28.08600
12511 SI 12511 SI SI1 12511 1.100000 28.08600
12512 SI 12512 SI SI1 12512 1.100000 28.08600
12513 SI 12513 SI SI1 12513 1.100000 28.08600
12514 SI 12514 SI SI1 12514 1.100000 28.08600
12515 SI 12515 SI SI1 12515 1.100000 28.08600
12516 SI 12516 SI SI1 12516 1.100000 28.08600
12517 SI 12517 SI SI1 12517 1.100000 28.08600
12518 SI 12518 SI SI1 12518 1.100000 28.08600
12519 SI 12519 SI SI1 12519 1.100000 28.08600
12520 SI 12520 SI SI1 12520 1.100000 28.08600
12521 SI 12521 SI SI1 12521 1.100000 28.08600
12522 SI 12522 SI SI1 12522 1.100000 28.08600
12523 SI 12523 SI SI1 12523 1.100000 28.08600
12524 SI 12524 SI SI1 12524 1.100000 28.08600
12525 SI 12525 SI SI1 12525 1.100000 28.08600
12526 SI 12526 SI SI1 12526 1.100000 28.08600
12527 SI 12527 SI SI1 12527 1.100000 28.08600
12528 SI 12528 SI SI1 12528 1.100000 28.08600
12529 SI 12529 SI SI1 12529 1.100000 28.08600
12530 SI 12530 SI SI1 12530 1.100000 28.08600
12531 SI 12531 SI SI1 12531 1.100000 28.08600
12532 SI 12532 SI SI1 12532 1.100000 28.08600
12533 SI 12533 SI SI1 12533 1.100000 28.08600
12534 SI 12534 SI SI1 12534 1.100000 28.08600
12535 SI 12535 SI SI1 12535 1.100000 28.08600
12536 SI 12536 SI SI1 12536 1.100000 28.08600
12537 SI 12537 SI SI1 12537 1.100000 28.08600
12538 SI 12538 SI SI1 12538 1.100000 28.08600
12539 SI 12539 SI SI1 12539 1.100000 28.08600
12540 SI 12540 SI SI1 12540 1.100000 28.08600
12541 SI 12541 SI SI1 12541 1.100000 28.08600
12542 SI 12542 SI SI1 12542 1.100000 28.08600
12543 SI 12543 SI SI1 12543 1.100000 28.08600
12544 SI 12544 SI SI1 12544 1.100000 28.08600
12545 SI 12545 SI SI1 12545 1.100000 28.08600
12546 SI 12546 SI SI1 12546 1.100000 28.08600
12547 SI 12547 SI SI1 12547 1.100000 28.08600
12548 SI 12548 SI SI1 12548 1.100000 28.08600
12549 SI 12549 SI SI1 12549 1.100000 28.08600
12550 SI 12550 SI SI1 12550 1.100000 28.08600
12551 SI 12551 SI SI1 12551 1.100000 28.08600
12552 SI 12552 SI SI1 12552 1.100000 28.08600
12553 SI 12553 SI SI1 12553 1.100000 28.08600
12554 SI 12554 SI SI1 12554 1.100000 28.08600
12555 SI 12555 SI SI1 12555 1.100000 28.08600
12556 SI 12556 SI SI1 12556 1.100000 28.08600
12557 SI 12557 SI SI1 12557 1.100000 28.08600
12558 SI 12558 SI SI1 12558 1.100000 28.08600
12559 SI 12559 SI SI1 12559 1.100000 28.08600
12560 SI 12560 SI SI1 12560 1.100000 28.08600
12561 SI 12561 SI SI1 12561 1.100000 28.08600
12562 SI 12562 SI SI1 12562 1.100000 28.08600
12563 SI 12563 SI SI1 12563 1.100000 28.08600
12564 SI 12564 SI SI1 12564 1.100000 28.08600
12565 SI 12565 SI SI1 12565 1.100000 28.08600
12566 SI 12566 SI SI1 12566 1.100000 28.08600
12567 SI 12567 SI SI1 12567 1.100000 28.08600
12568 SI 12568 SI SI1 12568 1.100000 28.08600
12569 SI 12569 SI SI1 12569 1.100000 28.08600
12570 SI 12570 SI SI1 12570 1.100000 28.08600
12571 SI 12571 SI SI1 12571 1.100000 28.08600
12572 SI 12572 SI SI1 12572 1.100000 28.08600
12573 SI 12573 SI SI1 12573 1.100000 28.08600
12574 SI 12574 SI SI1 12574 1.100000 28.08600
12575 SI 12575 SI SI1 12575 1.100000 28.08600
12576 SI 12576 SI SI1 12576 1.100000 28.08600
12577 SI 12577 SI SI1 12577 1.100000 28.08600
12578 SI 12578 SI SI1 12578 1.100000 28.08600
12579 SI 12579 SI SI1 12579 1.100000 28.08600
12580 SI 12580 SI SI1 12580 1.100000 28.08600
12581 SI 12581 SI SI1 12581 1.100000 28.08600
12582 SI 12582 SI SI1 12582 1.100000 28.08600
12583 SI 12583 SI SI1 12583 1.100000 28.08600
12584 SI 12584 SI SI1 12584 1.100000 28.08600
12585 SI 12585 SI SI1 12585 1.100000 28.08600
12586 SI 12586 SI SI1 12586 1.100000 28.08600
12587 SI 12587 SI SI1 12587 1.100000 28.08600
12588 SI 12588 SI SI1 12588 1.100000 28.08600
12589 SI 12589 SI SI1 12589 1.100000 28.08600
12590 SI 12590 SI SI1 12590 1.100000 28.08600
12591 SI 12591 SI SI1 12591 1.100000 28.08600
12592 SI 12592 SI SI1 12592 1.100000 28.08600
12593 SI 12593 SI SI1 12593 1.100000 28.08600
12594 SI 12594 SI SI1 12594 1.100000 28.08600
12595 SI 12595 SI SI1 12595 1.100000 28.08600
12596 SI 12596 SI SI1 12596 1.100000 28.08600
12597 SI 12597 SI SI1 12597 1.100000 28.08600
12598 SI 12598 SI SI1 12598 1.100000 28.08600
12599 SI 12599 SI SI1 12599 1.100000 28.08600
12600 SI 12600 SI SI1 12600 1.100000 28.08600
12601 SI 12601 SI SI1 12601 1.100000 28.08600
12602 SI 12602 SI SI1 12602 1.100000 28.08600
12603 SI 12603 SI SI1 12603 1.100000 28.08600
12604 SI 12604 SI SI1 12604 1.100000 28.08600
12605 SI 12605 SI SI1 12605 1.100000 28.08600
12606 SI 12606 SI SI1 12606 1.100000 28.08600
12607 SI 12607 SI SI1 12607 1.100000 28.08600
12608 SI 12608 SI SI1 12608 1.100000 28.08600
12609 SI 12609 SI SI1 12609 1.100000 28.08600
12610 SI 12610 SI SI1 12610 1.100000 28.08600
12611 SI 12611 SI SI1 12611 1.100000 28.08600
12612 SI 12612 SI SI1 12612 1.100000 28.08600
12613 SI 12613 SI SI1 12613 1.100000 28.08600
12614 SI 12614 SI SI1 12614 1.100000 28.08600
12615 SI 12615 SI SI1 12615 1.100000 28.08600
12616 SI 12616 SI SI1 12616 1.100000 28.08600
12617 SI 12617 SI SI1 12617 1.100000 28.08600
12618 SI 12618 SI SI1 12618 1.100000 28.08600
12619 SI 12619 SI SI1 12619 1.100000 28.08600
12620 SI 12620 SI SI1 12620 1.100000 28.08600
12621 SI 12621 SI SI1 12621 1.100000 28.08600
12622 SI 12622 SI SI1 12622 1.100000 28.08600
12623 SI 12623 SI SI1 12623 1.100000 28.08600
12624 SI 12624 SI SI1 12624 1.100000 28.08600
12625 SI 12625 SI SI1 12625 1.100000 28.08600
12626 SI 12626 SI SI1 12626 1.100000 28.08600
12627 SI 12627 SI SI1 12627 1.100000 28.08600
12628 SI 12628 SI SI1 12628 1.100000 28.08600
12629 SI 12629 SI SI1 12629 1.100000 28.08600
12630 SI 12630 SI SI1 12630 1.100000 28.08600
12631 SI 12631 SI SI1 12631 1.100000 28.08600
12632 SI 12632 SI SI1 12632 1.100000 28.08600
12633 SI 12633 SI SI1 12633 1.100000 28.08600
12634 SI 12634 SI SI1 12634 1.100000 28.08600
12635 SI 12635 SI SI1 12635 1.100000 28.08600
12636 SI 12636 SI SI1 12636 1.100000 28.08600
12637 SI 12637 SI SI1 12637 1.100000 28.08600
12638 SI 12638 SI SI1 12638 1.100000 28.08600
12639 SI 12639 SI SI1 12639 1.100000 28.08600
12640 SI 12640 SI SI1 12640 1.100000 28.08600
12641 SI 12641 SI SI1 12641 1.100000 28.08600
12642 SI 12642 SI SI1 12642 1.100000 28.08600
12643 SI 12643 SI SI1 12643 1.100000 28.08600
12644 SI 12644 SI SI1 12644 1.100000 28.08600
12645 SI 12645 SI SI1 12645 1.100000 28.08600
12646 SI 12646 SI SI1 12646 1.100000 28.08600
12647 SI 12647 SI SI1 12647 1.100000 28.08600
12648 SI 12648 SI SI1 12648 1.100000 28.08600
12649 SI 12649 SI SI1 12649 1.100000 28.08600
12650 SI 12650 SI SI1 12650 1.100000 28.08600
12651 SI 12651 SI SI1 12651 1.100000 28.08600
12652 SI 12652 SI SI1 12652 1.100000 28.08600
12653 SI 12653 SI SI1 12653 1.100000 28.08600
12654 SI 12654 SI SI1 12654 1.100000 28.08600
12655 SI 12655 SI SI1 12655 1.100000 28.08600
12656 SI 12656 SI SI1 12656 1.100000 28.08600
12657 SI 12657 SI SI1 12657 1.100000 28.08600
12658 SI 12658 SI SI1 12658 1.100000 28.08600
12659 SI 12659 SI SI1 12659 1.100000 28.08600
12660 SI 12660 SI SI1 12660 1.100000 28.08600
12661 SI 12661 SI SI1 12661 1.100000 28.08600
12662 SI 12662 SI SI1 12662 1.100000 28.08600
12663 SI 12663 SI SI1 12663 1.100000 28.08600
12664 SI 12664 SI SI1 12664 1.100000 28.08600
12665 SI 12665 SI SI1 12665 1.100000 28.08600
12666 SI 12666 SI SI1 12666 1.100000 28.08600
12667 SI 12667 SI SI1 12667 1.100000 28.08600
12668 SI 12668 SI SI1 12668 1.100000 28.08600
12669 SI 12669 SI SI1 12669 1.100000 28.08600
12670 SI 12670 SI SI1 12670 1.100000 28.08600
12671 SI 12671 SI SI1 12671 1.100000 28.08600
12672 SI 12672 SI SI1 12672 1.100000 28.08600
12673 SI 12673 SI SI1 12673 1.100000 28.08600
12674 SI 12674 SI SI1 12674 1.100000 28.08600
12675 SI 12675 SI SI1 12675 1.100000 28.08600
12676 SI 12676 SI SI1 12676 1.100000 28.08600
12677 SI 12677 SI SI1 12677 1.100000 28.08600
12678 SI 12678 SI SI1 12678 1.100000 28.08600
12679 SI 12679 SI SI1 12679 1.100000 28.08600
12680 SI 12680 SI SI1 12680 1.100000 28.08600
12681 SI 12681 SI SI1 12681 1.100000 28.08600
12682 SI 12682 SI SI1 12682 1.100000 28.08600
12683 SI 12683 SI SI1 12683 1.100000 28.08600
12684 SI 12684 SI SI1 12684 1.100000 28.08600
12685 SI 12685 SI SI1 12685 1.100000 28.08600
12686 SI 12686 SI SI1 12686 1.100000 28.08600
12687 SI 12687 SI SI1 12687 1.100000 28.08600
12688 SI 12688 SI SI1 12688 1.100000 28.08600
12689 SI 12689 SI SI1 12689 1.100000 28.08600
12690 SI 12690 SI SI1 12690 1.100000 28.08600
12691 SI 12691 SI SI1 12691 1.100000 28.08600
12692 SI 12692 SI SI1 12692 1.100000 28.08600
12693 SI 12693 SI SI1 12693 1.100000 28.08600
12694 SI 12694 SI SI1 12694 1.100000 28.08600
12695 SI 12695 SI SI1 12695 1.100000 28.08600
12696 SI 12696 SI SI1 12696 1.100000 28.08600
12697 SI 12697 SI SI1 12697 1.100000 28.08600
12698 SI 12698 SI SI1 12698 1.100000 28.08600
12699 SI 12699 SI SI1 12699 1.100000 28.08600
12700 SI 12700 SI SI1 12700 1.100000 28.08600
12701 SI 12701 SI SI1 12701 1.100000 28.08600
12702 SI 12702 SI SI1 12702 1.100000 28.08600
12703 SI 12703 SI SI1 12703 1.100000 28.08600
12704 SI 12704 SI SI1 12704 1.100000 28.08600
12705 SI 12705 SI SI1 12705 1.100000 28.08600
12706 SI 12706 SI SI1 12706 1.100000 28.08600
12707 SI 12707 SI SI1 12707 1.100000 28.08600
12708 SI 12708 SI SI1 12708 1.100000 28.08600
12709 SI 12709 SI SI1 12709 1.100000 28.08600
12710 SI 12710 SI SI1 12710 1.100000 28.08600
12711 SI 12711 SI SI1 12711 1.100000 28.08600
12712 SI 12712 SI SI1 12712 1.100000 28.08600
12713 SI 12713 SI SI1 12713 1.100000 28.08600
12714 SI 12714 SI SI1 12714 1.100000 28.08600
12715 SI 12715 SI SI1 12715 1.100000 28.08600
12716 SI 12716 SI SI1 12716 1.100000 28.08600
12717 SI 12717 SI SI1 12717 1.100000 28.08600
12718 SI 12718 SI SI1 12718 1.100000 28.08600
12719 SI 12719 SI SI1 12719 1.100000 28.08600
12720 SI 12720 SI SI1 12720 1.100000 28.08600
12721 SI 12721 SI SI1 12721 1.100000 28.08600
12722 SI 12722 SI SI1 12722 1.100000 28.08600
12723 SI 12723 SI SI1 12723 1.100000 28.08600
12724 SI 12724 SI SI1 12724 1.100000 28.08600
12725 SI 12725 SI SI1 12725 1.100000 28.08600
12726 SI 12726 SI SI1 12726 1.100000 28.08600
12727 SI 12727 SI SI1 12727 1.100000 28.08600
12728 SI 12728 SI SI1 12728 1.100000 28.08600
12729 SI 12729 SI SI1 12729 1.100000 28.08600
12730 SI 12730 SI SI1 12730 1.100000 28.08600
12731 SI 12731 SI SI1 12731 1.100000 28.08600
12732 SI 12732 SI SI1 12732 1.100000 28.08600
12733 SI 12733 SI SI1 12733 1.100000 28.08600
12734 SI 12734 SI SI1 12734 1.100000 28.08600
12735 SI 12735 SI SI1 12735 1.100000 28.08600
12736 SI 12736 SI SI1 12736 1.100000 28.08600
12737 SI 12737 SI SI1 12737 1.100000 28.08600
12738 SI 12738 SI SI1 12738 1.100000 28.08600
12739 SI 12739 SI SI1 12739 1.100000 28.08600
12740 SI 12740 SI SI1 12740 1.100000 28.08600
12741 SI 12741 SI SI1 12741 1.100000 28.08600
12742 SI 12742 SI SI1 12742 1.100000 28.08600
12743 SI 12743 SI SI1 12743 1.100000 28.08600
12744 SI 12744 SI SI1 12744 1.100000 28.08600
12745 SI 12745 SI SI1 12745 1.100000 28.08600
12746 SI 12746 SI SI1 12746 1.100000 28.08600
12747 SI 12747 SI SI1 12747 1.100000 28.08600
12748 SI 12748 SI SI1 12748 1.100000 28.08600
12749 SI 12749 SI SI1 12749 1.100000 28.08600
12750 SI 12750 SI SI1 12750 1.100000 28.08600
12751 SI 12751 SI SI1 12751 1.100000 28.08600
12752 SI 12752 SI SI1 12752 1.100000 28.08600
12753 SI 12753 SI SI1 12753 1.100000 28.08600
12754 SI 12754 SI SI1 12754 1.100000 28.08600
12755 SI 12755 SI SI1 12755 1.100000 28.08600
12756 SI 12756 SI SI1 12756 1.100000 28.08600
12757 SI 12757 SI SI1 12757 1.100000 28.08600
12758 SI 12758 SI SI1 12758 1.100000 28.08600
12759 SI 12759 SI SI1 12759 1.100000 28.08600
12760 SI 12760 SI SI1 12760 1.100000 28.08600
12761 SI 12761 SI SI1 12761 1.100000 28.08600
12762 SI 12762 SI SI1 12762 1.100000 28.08600
12763 SI 12763 SI SI1 12763 1.100000 28.08600
12764 SI 12764 SI SI1 12764 1.100000 28.08600
12765 SI 12765 SI SI1 12765 1.100000 28.08600
12766 SI 12766 SI SI1 12766 1.100000 28.08600
12767 SI 12767 SI SI1 12767 1.100000 28.08600
12768 SI 12768 SI SI1 12768 1.100000 28.08600
12769 SI 12769 SI SI1 12769 1.100000 28.08600
12770 SI 12770 SI SI1 12770 1.100000 28.08600
12771 SI 12771 SI SI1 12771 1.100000 28.08600
12772 SI 12772 SI SI1 12772 1.100000 28.08600
12773 SI 12773 SI SI1 12773 1.100000 28.08600
12774 SI 12774 SI SI1 12774 1.100000 28.08600
12775 SI 12775 SI SI1 12775 1.100000 28.08600
12776 SI 12776 SI SI1 12776 1.100000 28.08600
12777 SI 12777 SI SI1 12777 1.100000 28.08600
12778 SI 12778 SI SI1 12778 1.100000 28.08600
12779 SI 12779 SI SI1 12779 1.100000 28.08600
12780 SI 12780 SI SI1 12780 1.100000 28.08600
12781 SI 12781 SI SI1 12781 1.100000 28.08600
12782 SI 12782 SI SI1 12782 1.100000 28.08600
12783 SI 12783 SI SI1 12783 1.100000 28.08600
12784 SI 12784 SI SI1 12784 1.100000 28.08600
12785 SI 12785 SI SI1 12785 1.100000 28.08600
12786 SI 12786 SI SI1 12786 1.100000 28.08600
12787 SI 12787 SI SI1 12787 1.100000 28.08600
12788 SI 12788 SI SI1 12788 1.100000 28.08600
12789 SI 12789 SI SI1 12789 1.100000 28.08600
12790 SI 12790 SI SI1 12790 1.100000 28.08600
12791 SI 12791 SI SI1 12791 1.100000 28.08600
12792 SI 12792 SI SI1 12792 1.100000 28.08600
12793 SI 12793 SI SI1 12793 1.100000 28.08600
12794 SI 12794 SI SI1 12794 1.100000 28.08600
12795 SI 12795 SI SI1 12795 1.100000 28.08600
12796 SI 12796 SI SI1 12796 1.100000 28.08600
12797 SI 12797 SI SI1 12797 1.100000 28.08600
12798 SI 12798 SI SI1 12798 1.100000 28.08600
12799 SI 12799 SI SI1 12799 1.100000 28.08600
12800 SI 12800 SI SI1 12800 1.100000 28.08600
12801 SI 12801 SI SI1 12801 1.100000 28.08600
12802 SI 12802 SI SI1 12802 1.100000 28.08600
12803 SI 12803 SI SI1 12803 1.100000 28.08600
12804 SI 12804 SI SI1 12804 1.100000 28.08600
12805 SI 12805 SI SI1 12805 1.100000 28.08600
12806 SI 12806 SI SI1 12806 1.100000 28.08600
12807 SI 12807 SI SI1 12807 1.100000 28.08600
12808 SI 12808 SI SI1 12808 1.100000 28.08600
12809 SI 12809 SI SI1 12809 1.100000 28.08600
12810 SI 12810 SI SI1 12810 1.100000 28.08600
12811 SI 12811 SI SI1 12811 1.100000 28.08600
12812 SI 12812 SI SI1 12812 1.100000 28.08600
12813 SI 12813 SI SI1 12813 1.100000 28.08600
12814 SI 12814 SI SI1 12814 1.100000 28.08600
12815 SI 12815 SI SI1 12815 1.100000 28.08600
12816 SI 12816 SI SI1 12816 1.100000 28.08600
12817 SI 12817 SI SI1 12817 1.100000 28.08600
12818 SI 12818 SI SI1 12818 1.100000 28.08600
12819 SI 12819 SI SI1 12819 1.100000 28.08600
12820 SI 12820 SI SI1 12820 1.100000 28.08600
12821 SI 12821 SI SI1 12821 1.100000 28.08600
12822 SI 12822 SI SI1 12822 1.100000 28.08600
12823 SI 12823 SI SI1 12823 1.100000 28.08600
12824 SI 12824 SI SI1 12824 1.100000 28.08600
12825 SI 12825 SI SI1 12825 1.100000 28.08600
12826 SI 12826 SI SI1 12826 1.100000 28.08600
12827 SI 12827 SI SI1 12827 1.100000 28.08600
12828 SI 12828 SI SI1 12828 1.100000 28.08600
12829 SI 12829 SI SI1 12829 1.100000 28.08600
12830 SI 12830 SI SI1 12830 1.100000 28.08600
12831 SI 12831 SI SI1 12831 1.100000 28.08600
12832 SI 12832 SI SI1 12832 1.100000 28.08600
12833 SI 12833 SI SI1 12833 1.100000 28.08600
12834 SI 12834 SI SI1 12834 1.100000 28.08600
12835 SI 12835 SI SI1 12835 1.100000 28.08600
12836 SI 12836 SI SI1 12836 1.100000 28.08600
12837 SI 12837 SI SI1 12837 1.100000 28.08600
12838 SI 12838 SI SI1 12838 1.100000 28.08600
12839 SI 12839 SI SI1 12839 1.100000 28.08600
12840 SI 12840 SI SI1 12840 1.100000 28.08600
12841 SI 12841 SI SI1 12841 1.100000 28.08600
12842 SI 12842 SI SI1 12842 1.100000 28.08600
12843 SI 12843 SI SI1 12843 1.100000 28.08600
12844 SI 12844 SI SI1 12844 1.100000 28.08600
12845 SI 12845 SI SI1 12845 1.100000 28.08600
12846 SI 12846 SI SI1 12846 1.100000 28.08600
12847 SI 12847 SI SI1 12847 1.100000 28.08600
12848 SI 12848 SI SI1 12848 1.100000 28.08600
12849 SI 12849 SI SI1 12849 1.100000 28.08600
12850 SI 12850 SI SI1 12850 1.100000 28.08600
12851 SI 12851 SI SI1 12851 1.100000 28.08600
12852 SI 12852 SI SI1 12852 1.100000 28.08600
12853 SI 12853 SI SI1 12853 1.100000 28.08600
12854 SI 12854 SI SI1 12854 1.100000 28.08600
12855 SI 12855 SI SI1 12855 1.100000 28.08600
12856 SI 12856 SI SI1 12856 1.100000 28.08600
12857 SI 12857 SI SI1 12857 1.100000 28.08600
12858 SI 12858 SI SI1 12858 1.100000 28.08600
12859 SI 12859 SI SI1 12859 1.100000 28.08600
12860 SI 12860 SI SI1 12860 1.100000 28.08600
12861 SI 12861 SI SI1 12861 1.100000 28.08600
12862 SI 12862 SI SI1 12862 1.100000 28.08600
12863 SI 12863 SI SI1 12863 1.100000 28.08600
12864 SI 12864 SI SI1 12864 1.100000 28.08600
12865 SI 12865 SI SI1 12865 1.100000 28.08600
12866 SI 12866 SI SI1 12866 1.100000 28.08600
12867 SI 12867 SI SI1 12867 1.100000 28.08600
12868 SI 12868 SI SI1 12868 1.100000 28.08600
12869 SI 12869 SI SI1 12869 1.100000 28.08600
12870 SI 12870 SI SI1 12870 1.100000 28.08600
12871 SI 12871 SI SI1 12871 1.100000 28.08600
12872 SI 12872 SI SI1 12872 1.100000 28.08600
12873 SI 12873 SI SI1 12873 1.100000 28.08600
12874 SI 12874 SI SI1 12874 1.100000 28.08600
12875 SI 12875 SI SI1 12875 1.100000 28.08600
12876 SI 12876 SI SI1 12876 1.100000 28.08600
12877 SI 12877 SI SI1 12877 1.100000 28.08600
12878 SI 12878 SI SI1 12878 1.100000 28.08600
12879 SI 12879 SI SI1 12879 1.100000 28.08600
12880 SI 12880 SI SI1 12880 1.100000 28.08600
12881 SI 12881 SI SI1 12881 1.100000 28.08600
12882 SI 12882 SI SI1 12882 1.100000 28.08600
12883 SI 12883 SI SI1 12883 1.100000 28.08600
12884 SI 12884 SI SI1 12884 1.100000 28.08600
12885 SI 12885 SI SI1 12885 1.100000 28.08600
12886 SI 12886 SI SI1 12886 1.100000 28.08600
12887 SI 12887 SI SI1 12887 1.100000 28.08600
12888 SI 12888 SI SI1 12888 1.100000 28.08600
12889 SI 12889 SI SI1 12889 1.100000 28.08600
12890 SI 12890 SI SI1 12890 1.100000 28.08600
12891 SI 12891 SI SI1 12891 1.100000 28.08600
12892 SI 12892 SI SI1 12892 1.100000 28.08600
12893 SI 12893 SI SI1 12893 1.100000 28.08600
12894 SI 12894 SI SI1 12894 1.100000 28.08600
12895 SI 12895 SI SI1 12895 1.100000 28.08600
12896 SI 12896 SI SI1 12896 1.100000 28.08600
12897 SI 12897 SI SI1 12897 1.100000 28.08600
12898 SI 12898 SI SI1 12898 1.100000 28.08600
12899 SI 12899 SI SI1 12899 1.100000 28.08600
12900 SI 12900 SI SI1 12900 1.100000 28.08600
12901 SI 12901 SI SI1 12901 1.100000 28.08600
12902 SI 12902 SI SI1 12902 1.100000 28.08600
12903 SI 12903 SI SI1 12903 1.100000 28.08600
12904 SI 12904 SI SI1 12904 1.100000 28.08600
12905 SI 12905 SI SI1 12905 1.100000 28.08600
12906 SI 12906 SI SI1 12906 1.100000 28.08600
12907 SI 12907 SI SI1 12907 1.100000 28.08600
12908 SI 12908 SI SI1 12908 1.100000 28.08600
12909 SI 12909 SI SI1 12909 1.100000 28.08600
12910 SI 12910 SI SI1 12910 1.100000 28.08600
12911 SI 12911 SI SI1 12911 1.100000 28.08600
12912 SI 12912 SI SI1 12912 1.100000 28.08600
12913 SI 12913 SI SI1 12913 1.100000 28.08600
12914 SI 12914 SI SI1 12914 1.100000 28.08600
12915 SI 12915 SI SI1 12915 1.100000 28.08600
12916 SI 12916 SI SI1 12916 1.100000 28.08600
12917 SI 12917 SI SI1 12917 1.100000 28.08600
12918 SI 12918 SI SI1 12918 1.100000 28.08600
12919 SI 12919 SI SI1 12919 1.100000 28.08600
12920 SI 12920 SI SI1 12920 1.100000 28.08600
12921 SI 12921 SI SI1 12921 1.100000 28.08600
12922 SI 12922 SI SI1 12922 1.100000 28.08600
12923 SI 12923 SI SI1 12923 1.100000 28.08600
12924 SI 12924 SI SI1 12924 1.100000 28.08600
12925 SI 12925 SI SI1 12925 1.100000 28.08600
12926 SI 12926 SI SI1 12926 1.100000 28.08600
12927 SI 12927 SI SI1 12927 1.100000 28.08600
12928 SI 12928 SI SI1 12928 1.100000 28.08600
12929 SI 12929 SI SI1 12929 1.100000 28.08600
12930 SI 12930 SI SI1 12930 1.100000 28.08600
12931 SI 12931 SI SI1 12931 1.100000 28.08600
12932 SI 12932 SI SI1 12932 1.100000 28.08600
12933 SI 12933 SI SI1 12933 1.100000 28.08600
12934 SI 12934 SI SI1 12934 1.100000 28.08600
12935 SI 12935 SI SI1 12935 1.100000 28.08600
12936 SI 12936 SI SI1 12936 1.100000 28.08600
12937 SI 12937 SI SI1 12937 1.100000 28.08600
12938 SI 12938 SI SI1 12938 1.100000 28.08600
12939 SI 12939 SI SI1 12939 1.100000 28.08600
12940 SI 12940 SI SI1 12940 1.100000 28.08600
12941 SI 12941 SI SI1 12941 1.100000 28.08600
12942 SI 12942 SI SI1 12942 1.100000 28.08600
12943 SI 12943 SI SI1 12943 1.100000 28.08600
12944 SI 12944 SI SI1 12944 1.100000 28.08600
12945 SI 12945 SI SI1 12945 1.100000 28.08600
12946 SI 12946 SI SI1 12946 1.100000 28.08600
12947 SI 12947 SI SI1 12947 1.100000 28.08600
12948 SI 12948 SI SI1 12948 1.100000 28.08600
12949 SI 12949 SI SI1 12949 1.100000 28.08600
12950 SI 12950 SI SI1 12950 1.100000 28.08600
12951 SI 12951 SI SI1 12951 1.100000 28.08600
12952 SI 12952 SI SI1 12952 1.100000 28.08600
12953 SI 12953 SI SI1 12953 1.100000 28.08600
12954 SI 12954 SI SI1 12954 1.100000 28.08600
12955 SI 12955 SI SI1 12955 1.100000 28.08600
12956 SI 12956 SI SI1 12956 1.100000 28.08600
12957 SI 12957 SI SI1 12957 1.100000 28.08600
12958 SI 12958 SI SI1 12958 1.100000 28.08600
12959 SI 12959 SI SI1 12959 1.100000 28.08600
12960 SI 12960 SI SI1 12960 1.100000 28.08600
12961 SI 12961 SI SI1 12961 1.100000 28.08600
12962 SI 12962 SI SI1 12962 1.100000 28.08600
12963 SI 12963 SI SI1 12963 1.100000 28.08600
12964 SI 12964 SI SI1 12964 1.100000 28.08600
12965 SI 12965 SI SI1 12965 1.100000 28.08600
12966 SI 12966 SI SI1 12966 1.100000 28.08600
12967 SI 12967 SI SI1 12967 1.100000 28.08600
12968 SI 12968 SI SI1 12968 1.100000 28.08600
12969 SI 12969 SI SI1 12969 1.100000 28.08600
12970 SI 12970 SI SI1 12970 1.100000 28.08600
12971 SI 12971 SI SI1 12971 1.100000 28.08600
12972 SI 12972 SI SI1 12972 1.100000 28.08600
12973 SI 12973 SI SI1 12973 1.100000 28.08600
12974 SI 12974 SI SI1 12974 1.100000 28.08600
12975 SI 12975 SI SI1 12975 1.100000 28.08600
12976 SI 12976 SI SI1 12976 1.100000 28.08600
12977 SI 12977 SI SI1 12977 1.100000 28.08600
12978 SI 12978 SI SI1 12978 1.100000 28.08600
12979 SI 12979 SI SI1 12979 1.100000 28.08600
12980 SI 12980 SI SI1 12980 1.100000 28.08600
12981 SI 12981 SI SI1 12981 1.100000 28.08600
12982 SI 12982 SI SI1 12982 1.100000 28.08600
12983 SI 12983 SI SI1 12983 1.100000 28.08600
12984 SI 12984 SI SI1 12984 1.100000 28.08600
12985 SI 12985 SI SI1 12985 1.100000 28.08600
12986 SI 12986 SI SI1 12986 1.100000 28.08600
12987 SI 12987 SI SI1 12987 1.100000 28.08600
12988 SI 12988 SI SI1 12988 1.100000 28.08600
12989 SI 12989 SI SI1 12989 1.100000 28.08600
12990 SI 12990 SI SI1 12990 1.100000 28.08600
12991 SI 12991 SI SI1 12991 1.100000 28.08600
12992 SI 12992 SI SI1 12992 1.100000 28.08600
12993 SI 12993 SI SI1 12993 1.100000 28.08600
12994 SI 12994 SI SI1 12994 1.100000 28.08600
12995 SI 12995 SI SI1 12995 1.100000 28.08600
12996 SI 12996 SI SI1 12996 1.100000 28.08600
12997 SI 12997 SI SI1 12997 1.100000 28.08600
12998 SI 12998 SI SI1 12998 1.100000 28.08600
12999 SI 12999 SI SI1 12999 1.100000 28.08600
13000 SI 13000 SI SI1 13000 1.100000 28.08600
13001 SI 13001 SI SI1 13001 1.100000 28.08600
13002 SI 13002 SI SI1 13002 1.100000 28.08600
13003 SI 13003 SI SI1 13003 1.100000 28.08600
13004 SI 13004 SI SI1 13004 1.100000 28.08600
13005 SI 13005 SI SI1 13005 1.100000 28.08600
13006 SI 13006 SI SI1 13006 1.100000 28.08600
13007 SI 13007 SI SI1 13007 1.100000 28.08600
13008 SI 13008 SI SI1 13008 1.100000 28.08600
13009 SI 13009 SI SI1 13009 1.100000 28.08600
13010 SI 13010 SI SI1 13010 1.100000 28.08600
13011 SI 13011 SI SI1 13011 1.100000 28.08600
13012 SI 13012 SI SI1 13012 1.100000 28.08600
13013 SI 13013 SI SI1 13013 1.100000 28.08600
13014 SI 13014 SI SI1 13014 1.100000 28.08600
13015 SI 13015 SI SI1 13015 1.100000 28.08600
13016 SI 13016 SI SI1 13016 1.100000 28.08600
13017 SI 13017 SI SI1 13017 1.100000 28.08600
13018 SI 13018 SI SI1 13018 1.100000 28.08600
13019 SI 13019 SI SI1 13019 1.100000 28.08600
13020 SI 13020 SI SI1 13020 1.100000 28.08600
13021 SI 13021 SI SI1 13021 1.100000 28.08600
13022 SI 13022 SI SI1 13022 1.100000 28.08600
13023 SI 13023 SI SI1 13023 1.100000 28.08600
13024 SI 13024 SI SI1 13024 1.100000 28.08600
13025 SI 13025 SI SI1 13025 1.100000 28.08600
13026 SI 13026 SI SI1 13026 1.100000 28.08600
13027 SI 13027 SI SI1 13027 1.100000 28.08600
13028 SI 13028 SI SI1 13028 1.100000 28.08600
13029 SI 13029 SI SI1 13029 1.100000 28.08600
13030 SI 13030 SI SI1 13030 1.100000 28.08600
13031 SI 13031 SI SI1 13031 1.100000 28.08600
13032 SI 13032 SI SI1 13032 1.100000 28.08600
13033 SI 13033 SI SI1 13033 1.100000 28.08600
13034 SI 13034 SI SI1 13034 1.100000 28.08600
13035 SI 13035 SI SI1 13035 1.100000 28.08600
13036 SI 13036 SI SI1 13036 1.100000 28.08600
13037 SI 13037 SI SI1 13037 1.100000 28.08600
13038 SI 13038 SI SI1 13038 1.100000 28.08600
13039 SI 13039 SI SI1 13039 1.100000 28.08600
13040 SI 13040 SI SI1 13040 1.100000 28.08600
13041 SI 13041 SI SI1 13041 1.100000 28.08600
13042 SI 13042 SI SI1 13042 1.100000 28.08600
13043 SI 13043 SI SI1 13043 1.100000 28.08600
13044 SI 13044 SI SI1 13044 1.100000 28.08600
13045 SI 13045 SI SI1 13045 1.100000 28.08600
13046 SI 13046 SI SI1 13046 1.100000 28.08600
13047 SI 13047 SI SI1 13047 1.100000 28.08600
13048 SI 13048 SI SI1 13048 1.100000 28.08600
13049 SI 13049 SI SI1 13049 1.100000 28.08600
13050 SI 13050 SI SI1 13050 1.100000 28.08600
13051 SI 13051 SI SI1 13051 1.100000 28.08600
13052 SI 13052 SI SI1 13052 1.100000 28.08600
13053 SI 13053 SI SI1 13053 1.100000 28.08600
13054 SI 13054 SI SI1 13054 1.100000 28.08600
13055 SI 13055 SI SI1 13055 1.100000 28.08600
13056 SI 13056 SI SI1 13056 1.100000 28.08600
13057 SI 13057 SI SI1 13057 1.100000 28.08600
13058 SI 13058 SI SI1 13058 1.100000 28.08600
13059 SI 13059 SI SI1 13059 1.100000 28.08600
13060 SI 13060 SI SI1 13060 1.100000 28.08600
13061 SI 13061 SI SI1 13061 1.100000 28.08600
13062 SI 13062 SI SI1 13062 1.100000 28.08600
13063 SI 13063 SI SI1 13063 1.100000 28.08600
13064 SI 13064 SI SI1 13064 1.100000 28.08600
13065 SI 13065 SI SI1 13065 1.100000 28.08600
13066 SI 13066 SI SI1 13066 1.100000 28.08600
13067 SI 13067 SI SI1 13067 1.100000 28.08600
13068 SI 13068 SI SI1 13068 1.100000 28.08600
13069 SI 13069 SI SI1 13069 1.100000 28.08600
13070 SI 13070 SI SI1 13070 1.100000 28.08600
13071 SI 13071 SI SI1 13071 1.100000 28.08600
13072 SI 13072 SI SI1 13072 1.100000 28.08600
13073 SI 13073 SI SI1 13073 1.100000 28.08600
13074 SI 13074 SI SI1 13074 1.100000 28.08600
13075 SI 13075 SI SI1 13075 1.100000 28.08600
13076 SI 13076 SI SI1 13076 1.100000 28.08600
13077 SI 13077 SI SI1 13077 1.100000 28.08600
13078 SI 13078 SI SI1 13078 1.100000 28.08600
13079 SI 13079 SI SI1 13079 1.100000 28.08600
13080 SI 13080 SI SI1 13080 1.100000 28.08600
13081 SI 13081 SI SI1 13081 1.100000 28.08600
13082 SI 13082 SI SI1 13082 1.100000 28.08600
13083 SI 13083 SI SI1 13083 1.100000 28.08600
13084 SI 13084 SI SI1 13084 1.100000 28.08600
13085 SI 13085 SI SI1 13085 1.100000 28.08600
13086 SI 13086 SI SI1 13086 1.100000 28.08600
13087 SI 13087 SI SI1 13087 1.100000 28.08600
13088 SI 13088 SI SI1 13088 1.100000 28.08600
13089 SI 13089 SI SI1 13089 1.100000 28.08600
13090 SI 13090 SI SI1 13090 1.100000 28.08600
13091 SI 13091 SI SI1 13091 1.100000 28.08600
13092 SI 13092 SI SI1 13092 1.100000 28.08600
13093 SI 13093 SI SI1 13093 1.100000 28.08600
13094 SI 13094 SI SI1 13094 1.100000 28.08600
13095 SI 13095 SI SI1 13095 1.100000 28.08600
13096 SI 13096 SI SI1 13096 1.100000 28.08600
13097 SI 13097 SI SI1 13097 1.100000 28.08600
13098 SI 13098 SI SI1 13098 1.100000 28.08600
13099 SI 13099 SI SI1 13099 1.100000 28.08600
13100 SI 13100 SI SI1 13100 1.100000 28.08600
13101 SI 13101 SI SI1 13101 1.100000 28.08600
13102 SI 13102 SI SI1 13102 1.100000 28.08600
13103 SI 13103 SI SI1 13103 1.100000 28.08600
13104 SI 13104 SI SI1 13104 1.100000 28.08600
13105 SI 13105 SI SI1 13105 1.100000 28.08600
13106 SI 13106 SI SI1 13106 1.100000 28.08600
13107 SI 13107 SI SI1 13107 1.100000 28.08600
13108 SI 13108 SI SI1 13108 1.100000 28.08600
13109 SI 13109 SI SI1 13109 1.100000 28.08600
13110 SI 13110 SI SI1 13110 1.100000 28.08600
13111 SI 13111 SI SI1 13111 1.100000 28.08600
13112 SI 13112 SI SI1 13112 1.100000 28.08600
13113 SI 13113 SI SI1 13113 1.100000 28.08600
13114 SI 13114 SI SI1 13114 1.100000 28.08600
13115 SI 13115 SI SI1 13115 1.100000 28.08600
13116 SI 13116 SI SI1 13116 1.100000 28.08600
13117 SI 13117 SI SI1 13117 1.100000 28.08600
13118 SI 13118 SI SI1 13118 1.100000 28.08600
13119 SI 13119 SI SI1 13119 1.100000 28.08600
13120 SI 13120 SI SI1 13120 1.100000 28.08600
13121 SI 13121 SI SI1 13121 1.100000 28.08600
13122 SI 13122 SI SI1 13122 1.100000 28.08600
13123 SI 13123 SI SI1 13123 1.100000 28.08600
13124 SI 13124 SI SI1 13124 1.100000 28.08600
13125 SI 13125 SI SI1 13125 1.100000 28.08600
13126 SI 13126 SI SI1 13126 1.100000 28.08600
13127 SI 13127 SI SI1 13127 1.100000 28.08600
13128 SI 13128 SI SI1 13128 1.100000 28.08600
13129 SI 13129 SI SI1 13129 1.100000 28.08600
13130 SI 13130 SI SI1 13130 1.100000 28.08600
13131 SI 13131 SI SI1 13131 1.100000 28.08600
13132 SI 13132 SI SI1 13132 1.100000 28.08600
13133 SI 13133 SI SI1 13133 1.100000 28.08600
13134 SI 13134 SI SI1 13134 1.100000 28.08600
13135 SI 13135 SI SI1 13135 1.100000 28.08600
13136 SI 13136 SI SI1 13136 1.100000 28.08600
13137 SI 13137 SI SI1 13137 1.100000 28.08600
13138 SI 13138 SI SI1 13138 1.100000 28.08600
13139 SI 13139 SI SI1 13139 1.100000 28.08600
13140 SI 13140 SI SI1 13140 1.100000 28.08600
13141 SI 13141 SI SI1 13141 1.100000 28.08600
13142 SI 13142 SI SI1 13142 1.100000 28.08600
13143 SI 13143 SI SI1 13143 1.100000 28.08600
13144 SI 13144 SI SI1 13144 1.100000 28.08600
13145 SI 13145 SI SI1 13145 1.100000 28.08600
13146 SI 13146 SI SI1 13146 1.100000 28.08600
13147 SI 13147 SI SI1 13147 1.100000 28.08600
13148 SI 13148 SI SI1 13148 1.100000 28.08600
13149 SI 13149 SI SI1 13149 1.100000 28.08600
13150 SI 13150 SI SI1 13150 1.100000 28.08600
13151 SI 13151 SI SI1 13151 1.100000 28.08600
13152 SI 13152 SI SI1 13152 1.100000 28.08600
13153 SI 13153 SI SI1 13153 1.100000 28.08600
13154 SI 13154 SI SI1 13154 1.100000 28.08600
13155 SI 13155 SI SI1 13155 1.100000 28.08600
13156 SI 13156 SI SI1 13156 1.100000 28.08600
13157 SI 13157 SI SI1 13157 1.100000 28.08600
13158 SI 13158 SI SI1 13158 1.100000 28.08600
13159 SI 13159 SI SI1 13159 1.100000 28.08600
13160 SI 13160 SI SI1 13160 1.100000 28.08600
13161 SI 13161 SI SI1 13161 1.100000 28.08600
13162 SI 13162 SI SI1 13162 1.100000 28.08600
13163 SI 13163 SI SI1 13163 1.100000 28.08600
13164 SI 13164 SI SI1 13164 1.100000 28.08600
13165 SI 13165 SI SI1 13165 1.100000 28.08600
13166 SI 13166 SI SI1 13166 1.100000 28.08600
13167 SI 13167 SI SI1 13167 1.100000 28.08600
13168 SI 13168 SI SI1 13168 1.100000 28.08600
13169 SI 13169 SI SI1 13169 1.100000 28.08600
13170 SI 13170 SI SI1 13170 1.100000 28.08600
13171 SI 13171 SI SI1 13171 1.100000 28.08600
13172 SI 13172 SI SI1 13172 1.100000 28.08600
13173 SI 13173 SI SI1 13173 1.100000 28.08600
13174 SI 13174 SI SI1 13174 1.100000 28.08600
13175 SI 13175 SI SI1 13175 1.100000 28.08600
13176 SI 13176 SI SI1 13176 1.100000 28.08600
13177 SI 13177 SI SI1 13177 1.100000 28.08600
13178 SI 13178 SI SI1 13178 1.100000 28.08600
13179 SI 13179 SI SI1 13179 1.100000 28.08600
13180 SI 13180 SI SI1 13180 1.100000 28.08600
13181 SI 13181 SI SI1 13181 1.100000 28.08600
13182 SI 13182 SI SI1 13182 1.100000 28.08600
13183 SI 13183 SI SI1 13183 1.100000 28.08600
13184 SI 13184 SI SI1 13184 1.100000 28.08600
13185 SI 13185 SI SI1 13185 1.100000 28.08600
13186 SI 13186 SI SI1 13186 1.100000 28.08600
13187 SI 13187 SI SI1 13187 1.100000 28.08600
13188 SI 13188 SI SI1 13188 1.100000 28.08600
13189 SI 13189 SI SI1 13189 1.100000 28.08600
13190 SI 13190 SI SI1 13190 1.100000 28.08600
13191 SI 13191 SI SI1 13191 1.100000 28.08600
13192 SI 13192 SI SI1 13192 1.100000 28.08600
13193 SI 13193 SI SI1 13193 1.100000 28.08600
13194 SI 13194 SI SI1 13194 1.100000 28.08600
13195 SI 13195 SI SI1 13195 1.100000 28.08600
13196 SI 13196 SI SI1 13196 1.100000 28.08600
13197 SI 13197 SI SI1 13197 1.100000 28.08600
13198 SI 13198 SI SI1 13198 1.100000 28.08600
13199 SI 13199 SI SI1 13199 1.100000 28.08600
13200 SI 13200 SI SI1 13200 1.100000 28.08600
13201 SI 13201 SI SI1 13201 1.100000 28.08600
13202 SI 13202 SI SI1 13202 1.100000 28.08600
13203 SI 13203 SI SI1 13203 1.100000 28.08600
13204 SI 13204 SI SI1 13204 1.100000 28.08600
13205 SI 13205 SI SI1 13205 1.100000 28.08600
13206 SI 13206 SI SI1 13206 1.100000 28.08600
13207 SI 13207 SI SI1 13207 1.100000 28.08600
13208 SI 13208 SI SI1 13208 1.100000 28.08600
13209 SI 13209 SI SI1 13209 1.100000 28.08600
13210 SI 13210 SI SI1 13210 1.100000 28.08600
13211 SI 13211 SI SI1 13211 1.100000 28.08600
13212 SI 13212 SI SI1 13212 1.100000 28.08600
13213 SI 13213 SI SI1 13213 1.100000 28.08600
13214 SI 13214 SI SI1 13214 1.100000 28.08600
13215 SI 13215 SI SI1 13215 1.100000 28.08600
13216 SI 13216 SI SI1 13216 1.100000 28.08600
13217 SI 13217 SI SI1 13217 1.100000 28.08600
13218 SI 13218 SI SI1 13218 1.100000 28.08600
13219 SI 13219 SI SI1 13219 1.100000 28.08600
13220 SI 13220 SI SI1 13220 1.100000 28.08600
13221 SI 13221 SI SI1 13221 1.100000 28.08600
13222 SI 13222 SI SI1 13222 1.100000 28.08600
13223 SI 13223 SI SI1 13223 1.100000 28.08600
13224 SI 13224 SI SI1 13224 1.100000 28.08600
13225 SI 13225 SI SI1 13225 1.100000 28.08600
13226 SI 13226 SI SI1 13226 1.100000 28.08600
13227 SI 13227 SI SI1 13227 1.100000 28.08600
13228 SI 13228 SI SI1 13228 1.100000 28.08600
13229 SI 13229 SI SI1 13229 1.100000 28.08600
13230 SI 13230 SI SI1 13230 1.100000 28.08600
13231 SI 13231 SI SI1 13231 1.100000 28.08600
13232 SI 13232 SI SI1 13232 1.100000 28.08600
13233 SI 13233 SI SI1 13233 1.100000 28.08600
13234 SI 13234 SI SI1 13234 1.100000 28.08600
13235 SI 13235 SI SI1 13235 1.100000 28.08600
13236 SI 13236 SI SI1 13236 1.100000 28.08600
13237 SI 13237 SI SI1 13237 1.100000 28.08600
13238 SI 13238 SI SI1 13238 1.100000 28.08600
13239 SI 13239 SI SI1 13239 1.100000 28.08600
13240 SI 13240 SI SI1 13240 1.100000 28.08600
13241 SI 13241 SI SI1 13241 1.100000 28.08600
13242 SI 13242 SI SI1 13242 1.100000 28.08600
13243 SI 13243 SI SI1 13243 1.100000 28.08600
13244 SI 13244 SI SI1 13244 1.100000 28.08600
13245 SI 13245 SI SI1 13245 1.100000 28.08600
13246 SI 13246 SI SI1 13246 1.100000 28.08600
13247 SI 13247 SI SI1 13247 1.100000 28.08600
13248 SI 13248 SI SI1 13248 1.100000 28.08600
13249 SI 13249 SI SI1 13249 1.100000 28.08600
13250 SI 13250 SI SI1 13250 1.100000 28.08600
13251 SI 13251 SI SI1 13251 1.100000 28.08600
13252 SI 13252 SI SI1 13252 1.100000 28.08600
13253 SI 13253 SI SI1 13253 1.100000 28.08600
13254 SI 13254 SI SI1 13254 1.100000 28.08600
13255 SI 13255 SI SI1 13255 1.100000 28.08600
13256 SI 13256 SI SI1 13256 1.100000 28.08600
13257 SI 13257 SI SI1 13257 1.100000 28.08600
13258 SI 13258 SI SI1 13258 1.100000 28.08600
13259 SI 13259 SI SI1 13259 1.100000 28.08600
13260 SI 13260 SI SI1 13260 1.100000 28.08600
13261 SI 13261 SI SI1 13261 1.100000 28.08600
13262 SI 13262 SI SI1 13262 1.100000 28.08600
13263 SI 13263 SI SI1 13263 1.100000 28.08600
13264 SI 13264 SI SI1 13264 1.100000 28.08600
13265 SI 13265 SI SI1 13265 1.100000 28.08600
13266 SI 13266 SI SI1 13266 1.100000 28.08600
13267 SI 13267 SI SI1 13267 1.100000 28.08600
13268 SI 13268 SI SI1 13268 1.100000 28.08600
13269 SI 13269 SI SI1 13269 1.100000 28.08600
13270 SI 13270 SI SI1 13270 1.100000 28.08600
13271 SI 13271 SI SI1 13271 1.100000 28.08600
13272 SI 13272 SI SI1 13272 1.100000 28.08600
13273 SI 13273 SI SI1 13273 1.100000 28.08600
13274 SI 13274 SI SI1 13274 1.100000 28.08600
13275 SI 13275 SI SI1 13275 1.100000 28.08600
13276 SI 13276 SI SI1 13276 1.100000 28.08600
13277 SI 13277 SI SI1 13277 1.100000 28.08600
13278 SI 13278 SI SI1 13278 1.100000 28.08600
13279 SI 13279 SI SI1 13279 1.100000 28.08600
13280 SI 13280 SI SI1 13280 1.100000 28.08600
13281 SI 13281 SI SI1 13281 1.100000 28.08600
13282 SI 13282 SI SI1 13282 1.100000 28.08600
13283 SI 13283 SI SI1 13283 1.100000 28.08600
13284 SI 13284 SI SI1 13284 1.100000 28.08600
13285 SI 13285 SI SI1 13285 1.100000 28.08600
13286 SI 13286 SI SI1 13286 1.100000 28.08600
13287 SI 13287 SI SI1 13287 1.100000 28.08600
13288 SI 13288 SI SI1 13288 1.100000 28.08600
13289 SI 13289 SI SI1 13289 1.100000 28.08600
13290 SI 13290 SI SI1 13290 1.100000 28.08600
13291 SI 13291 SI SI1 13291 1.100000 28.08600
13292 SI 13292 SI SI1 13292 1.100000 28.08600
13293 SI 13293 SI SI1 13293 1.100000 28.08600
13294 SI 13294 SI SI1 13294 1.100000 28.08600
13295 SI 13295 SI SI1 13295 1.100000 28.08600
13296 SI 13296 SI SI1 13296 1.100000 28.08600
13297 SI 13297 SI SI1 13297 1.100000 28.08600
13298 SI 13298 SI SI1 13298 1.100000 28.08600
13299 SI 13299 SI SI1 13299 1.100000 28.08600
13300 SI 13300 SI SI1 13300 1.100000 28.08600
13301 SI 13301 SI SI1 13301 1.100000 28.08600
13302 SI 13302 SI SI1 13302 1.100000 28.08600
13303 SI 13303 SI SI1 13303 1.100000 28.08600
13304 SI 13304 SI SI1 13304 1.100000 28.08600
13305 SI 13305 SI SI1 13305 1.100000 28.08600
13306 SI 13306 SI SI1 13306 1.100000 28.08600
13307 SI 13307 SI SI1 13307 1.100000 28.08600
13308 SI 13308 SI SI1 13308 1.100000 28.08600
13309 SI 13309 SI SI1 13309 1.100000 28.08600
13310 SI 13310 SI SI1 13310 1.100000 28.08600
13311 SI 13311 SI SI1 13311 1.100000 28.08600
13312 SI 13312 SI SI1 13312 1.100000 28.08600
13313 SI 13313 SI SI1 13313 1.100000 28.08600
13314 SI 13314 SI SI1 13314 1.100000 28.08600
13315 SI 13315 SI SI1 13315 1.100000 28.08600
13316 SI 13316 SI SI1 13316 1.100000 28.08600
13317 SI 13317 SI SI1 13317 1.100000 28.08600
13318 SI 13318 SI SI1 13318 1.100000 28.08600
13319 SI 13319 SI SI1 13319 1.100000 28.08600
13320 SI 13320 SI SI1 13320 1.100000 28.08600
13321 SI 13321 SI SI1 13321 1.100000 28.08600
13322 SI 13322 SI SI1 13322 1.100000 28.08600
13323 SI 13323 SI SI1 13323 1.100000 28.08600
13324 SI 13324 SI SI1 13324 1.100000 28.08600
13325 SI 13325 SI SI1 13325 1.100000 28.08600
13326 SI 13326 SI SI1 13326 1.100000 28.08600
13327 SI 13327 SI SI1 13327 1.100000 28.08600
13328 SI 13328 SI SI1 13328 1.100000 28.08600
13329 SI 13329 SI SI1 13329 1.100000 28.08600
13330 SI 13330 SI SI1 13330 1.100000 28.08600
13331 SI 13331 SI SI1 13331 1.100000 28.08600
13332 SI 13332 SI SI1 13332 1.100000 28.08600
13333 SI 13333 SI SI1 13333 1.100000 28.08600
13334 SI 13334 SI SI1 13334 1.100000 28.08600
13335 SI 13335 SI SI1 13335 1.100000 28.08600
13336 SI 13336 SI SI1 13336 1.100000 28.08600
13337 SI 13337 SI SI1 13337 1.100000 28.08600
13338 SI 13338 SI SI1 13338 1.100000 28.08600
13339 SI 13339 SI SI1 13339 1.100000 28.08600
13340 SI 13340 SI SI1 13340 1.100000 28.08600
13341 SI 13341 SI SI1 13341 1.100000 28.08600
13342 SI 13342 SI SI1 13342 1.100000 28.08600
13343 SI 13343 SI SI1 13343 1.100000 28.08600
13344 SI 13344 SI SI1 13344 1.100000 28.08600
13345 SI 13345 SI SI1 13345 1.100000 28.08600
13346 SI 13346 SI SI1 13346 1.100000 28.08600
13347 SI 13347 SI SI1 13347 1.100000 28.08600
13348 SI 13348 SI SI1 13348 1.100000 28.08600
13349 SI 13349 SI SI1 13349 1.100000 28.08600
13350 SI 13350 SI SI1 13350 1.100000 28.08600
13351 SI 13351 SI SI1 13351 1.100000 28.08600
13352 SI 13352 SI SI1 13352 1.100000 28.08600
13353 SI 13353 SI SI1 13353 1.100000 28.08600
13354 SI 13354 SI SI1 13354 1.100000 28.08600
13355 SI 13355 SI SI1 13355 1.100000 28.08600
13356 SI 13356 SI SI1 13356 1.100000 28.08600
13357 SI 13357 SI SI1 13357 1.100000 28.08600
13358 SI 13358 SI SI1 13358 1.100000 28.08600
13359 SI 13359 SI SI1 13359 1.100000 28.08600
13360 SI 13360 SI SI1 13360 1.100000 28.08600
13361 SI 13361 SI SI1 13361 1.100000 28.08600
13362 SI 13362 SI SI1 13362 1.100000 28.08600
13363 SI 13363 SI SI1 13363 1.100000 28.08600
13364 SI 13364 SI SI1 13364 1.100000 28.08600
13365 SI 13365 SI SI1 13365 1.100000 28.08600
13366 SI 13366 SI SI1 13366 1.100000 28.08600
13367 SI 13367 SI SI1 13367 1.100000 28.08600
13368 SI 13368 SI SI1 13368 1.100000 28.08600
13369 SI 13369 SI SI1 13369 1.100000 28.08600
13370 SI 13370 SI SI1 13370 1.100000 28.08600
13371 SI 13371 SI SI1 13371 1.100000 28.08600
13372 SI 13372 SI SI1 13372 1.100000 28.08600
13373 SI 13373 SI SI1 13373 1.100000 28.08600
13374 SI 13374 SI SI1 13374 1.100000 28.08600
13375 SI 13375 SI SI1 13375 1.100000 28.08600
13376 SI 13376 SI SI1 13376 1.100000 28.08600
13377 SI 13377 SI SI1 13377 1.100000 28.08600
13378 SI 13378 SI SI1 13378 1.100000 28.08600
13379 SI 13379 SI SI1 13379 1.100000 28.08600
13380 SI 13380 SI SI1 13380 1.100000 28.08600
13381 SI 13381 SI SI1 13381 1.100000 28.08600
13382 SI 13382 SI SI1 13382 1.100000 28.08600
13383 SI 13383 SI SI1 13383 1.100000 28.08600
13384 SI 13384 SI SI1 13384 1.100000 28.08600
13385 SI 13385 SI SI1 13385 1.100000 28.08600
13386 SI 13386 SI SI1 13386 1.100000 28.08600
13387 SI 13387 SI SI1 13387 1.100000 28.08600
13388 SI 13388 SI SI1 13388 1.100000 28.08600
13389 SI 13389 SI SI1 13389 1.100000 28.08600
13390 SI 13390 SI SI1 13390 1.100000 28.08600
13391 SI 13391 SI SI1 13391 1.100000 28.08600
13392 SI 13392 SI SI1 13392 1.100000 28.08600
13393 SI 13393 SI SI1 13393 1.100000 28.08600
13394 SI 13394 SI SI1 13394 1.100000 28.08600
13395 SI 13395 SI SI1 13395 1.100000 28.08600
13396 SI 13396 SI SI1 13396 1.100000 28.08600
13397 SI 13397 SI SI1 13397 1.100000 28.08600
13398 SI 13398 SI SI1 13398 1.100000 28.08600
13399 SI 13399 SI SI1 13399 1.100000 28.08600
13400 SI 13400 SI SI1 13400 1.100000 28.08600
13401 SI 13401 SI SI1 13401 1.100000 28.08600
13402 SI 13402 SI SI1 13402 1.100000 28.08600
13403 SI 13403 SI SI1 13403 1.100000 28.08600
13404 SI 13404 SI SI1 13404 1.100000 28.08600
13405 SI 13405 SI SI1 13405 1.100000 28.08600
13406 SI 13406 SI SI1 13406 1.100000 28.08600
13407 SI 13407 SI SI1 13407 1.100000 28.08600
13408 SI 13408 SI SI1 13408 1.100000 28.08600
13409 SI 13409 SI SI1 13409 1.100000 28.08600
13410 SI 13410 SI SI1 13410 1.100000 28.08600
13411 SI 13411 SI SI1 13411 1.100000 28.08600
13412 SI 13412 SI SI1 13412 1.100000 28.08600
13413 SI 13413 SI SI1 13413 1.100000 28.08600
13414 SI 13414 SI SI1 13414 1.100000 28.08600
13415 SI 13415 SI SI1 13415 1.100000 28.08600
13416 SI 13416 SI SI1 13416 1.100000 28.08600
13417 SI 13417 SI SI1 13417 1.100000 28.08600
13418 SI 13418 SI SI1 13418 1.100000 28.08600
13419 SI 13419 SI SI1 13419 1.100000 28.08600
13420 SI 13420 SI SI1 13420 1.100000 28.08600
13421 SI 13421 SI SI1 13421 1.100000 28.08600
13422 SI 13422 SI SI1 13422 1.100000 28.08600
13423 SI 13423 SI SI1 13423 1.100000 28.08600
13424 SI 13424 SI SI1 13424 1.100000 28.08600
13425 SI 13425 SI SI1 13425 1.100000 28.08600
13426 SI 13426 SI SI1 13426 1.100000 28.08600
13427 SI 13427 SI SI1 13427 1.100000 28.08600
13428 SI 13428 SI SI1 13428 1.100000 28.08600
13429 SI 13429 SI SI1 13429 1.100000 28.08600
13430 SI 13430 SI SI1 13430 1.100000 28.08600
13431 SI 13431 SI SI1 13431 1.100000 28.08600
13432 SI 13432 SI SI1 13432 1.100000 28.08600
13433 SI 13433 SI SI1 13433 1.100000 28.08600
13434 SI 13434 SI SI1 13434 1.100000 28.08600
13435 SI 13435 SI SI1 13435 1.100000 28.08600
13436 SI 13436 SI SI1 13436 1.100000 28.08600
13437 SI 13437 SI SI1 13437 1.100000 28.08600
13438 SI 13438 SI SI1 13438 1.100000 28.08600
13439 SI 13439 SI SI1 13439 1.100000 28.08600
13440 SI 13440 SI SI1 13440 1.100000 28.08600
13441 SI 13441 SI SI1 13441 1.100000 28.08600
13442 SI 13442 SI SI1 13442 1.100000 28.08600
13443 SI 13443 SI SI1 13443 1.100000 28.08600
13444 SI 13444 SI SI1 13444 1.100000 28.08600
13445 SI 13445 SI SI1 13445 1.100000 28.08600
13446 SI 13446 SI SI1 13446 1.100000 28.08600
13447 SI 13447 SI SI1 13447 1.100000 28.08600
13448 SI 13448 SI SI1 13448 1.100000 28.08600
13449 SI 13449 SI SI1 13449 1.100000 28.08600
13450 SI 13450 SI SI1 13450 1.100000 28.08600
13451 SI 13451 SI SI1 13451 1.100000 28.08600
13452 SI 13452 SI SI1 13452 1.100000 28.08600
13453 SI 13453 SI SI1 13453 1.100000 28.08600
13454 SI 13454 SI SI1 13454 1.100000 28.08600
13455 SI 13455 SI SI1 13455 1.100000 28.08600
13456 SI 13456 SI SI1 13456 1.100000 28.08600
13457 SI 13457 SI SI1 13457 1.100000 28.08600
13458 SI 13458 SI SI1 13458 1.100000 28.08600
13459 SI 13459 SI SI1 13459 1.100000 28.08600
13460 SI 13460 SI SI1 13460 1.100000 28.08600
13461 SI 13461 SI SI1 13461 1.100000 28.08600
13462 SI 13462 SI SI1 13462 1.100000 28.08600
13463 SI 13463 SI SI1 13463 1.100000 28.08600
13464 SI 13464 SI SI1 13464 1.100000 28.08600
13465 SI 13465 SI SI1 13465 1.100000 28.08600
13466 SI 13466 SI SI1 13466 1.100000 28.08600
13467 SI 13467 SI SI1 13467 1.100000 28.08600
13468 SI 13468 SI SI1 13468 1.100000 28.08600
13469 SI 13469 SI SI1 13469 1.100000 28.08600
13470 SI 13470 SI SI1 13470 1.100000 28.08600
13471 SI 13471 SI SI1 13471 1.100000 28.08600
13472 SI 13472 SI SI1 13472 1.100000 28.08600
13473 SI 13473 SI SI1 13473 1.100000 28.08600
13474 SI 13474 SI SI1 13474 1.100000 28.08600
13475 SI 13475 SI SI1 13475 1.100000 28.08600
13476 SI 13476 SI SI1 13476 1.100000 28.08600
13477 SI 13477 SI SI1 13477 1.100000 28.08600
13478 SI 13478 SI SI1 13478 1.100000 28.08600
13479 SI 13479 SI SI1 13479 1.100000 28.08600
13480 SI 13480 SI SI1 13480 1.100000 28.08600
13481 SI 13481 SI SI1 13481 1.100000 28.08600
13482 SI 13482 SI SI1 13482 1.100000 28.08600
13483 SI 13483 SI SI1 13483 1.100000 28.08600
13484 SI 13484 SI SI1 13484 1.100000 28.08600
13485 SI 13485 SI SI1 13485 1.100000 28.08600
13486 SI 13486 SI SI1 13486 1.100000 28.08600
13487 SI 13487 SI SI1 13487 1.100000 28.08600
13488 SI 13488 SI SI1 13488 1.100000 28.08600
13489 SI 13489 SI SI1 13489 1.100000 28.08600
13490 SI 13490 SI SI1 13490 1.100000 28.08600
13491 SI 13491 SI SI1 13491 1.100000 28.08600
13492 SI 13492 SI SI1 13492 1.100000 28.08600
13493 SI 13493 SI SI1 13493 1.100000 28.08600
13494 SI 13494 SI SI1 13494 1.100000 28.08600
13495 SI 13495 SI SI1 13495 1.100000 28.08600
13496 SI 13496 SI SI1 13496 1.100000 28.08600
13497 SI 13497 SI SI1 13497 1.100000 28.08600
13498 SI 13498 SI SI1 13498 1.100000 28.08600
13499 SI 13499 SI SI1 13499 1.100000 28.08600
13500 SI 13500 SI SI1 13500 1.100000 28.08600
13501 SI 13501 SI SI1 13501 1.100000 28.08600
13502 SI 13502 SI SI1 13502 1.100000 28.08600
13503 SI 13503 SI SI1 13503 1.100000 28.08600
13504 SI 13504 SI SI1 13504 1.100000 28.08600
13505 SI 13505 SI SI1 13505 1.100000 28.08600
13506 SI 13506 SI SI1 13506 1.100000 28.08600
13507 SI 13507 SI SI1 13507 1.100000 28.08600
13508 SI 13508 SI SI1 13508 1.100000 28.08600
13509 SI 13509 SI SI1 13509 1.100000 28.08600
13510 SI 13510 SI SI1 13510 1.100000 28.08600
13511 SI 13511 SI SI1 13511 1.100000 28.08600
13512 SI 13512 SI SI1 13512 1.100000 28.08600
13513 SI 13513 SI SI1 13513 1.100000 28.08600
13514 SI 13514 SI SI1 13514 1.100000 28.08600
13515 SI 13515 SI SI1 13515 1.100000 28.08600
13516 SI 13516 SI SI1 13516 1.100000 28.08600
13517 SI 13517 SI SI1 13517 1.100000 28.08600
13518 SI 13518 SI SI1 13518 1.100000 28.08600
13519 SI 13519 SI SI1 13519 1.100000 28.08600
13520 SI 13520 SI SI1 13520 1.100000 28.08600
13521 SI 13521 SI SI1 13521 1.100000 28.08600
13522 SI 13522 SI SI1 13522 1.100000 28.08600
13523 SI 13523 SI SI1 13523 1.100000 28.08600
13524 SI 13524 SI SI1 13524 1.100000 28.08600
13525 SI 13525 SI SI1 13525 1.100000 28.08600
13526 SI 13526 SI SI1 13526 1.100000 28.08600
13527 SI 13527 SI SI1 13527 1.100000 28.08600
13528 SI 13528 SI SI1 13528 1.100000 28.08600
13529 SI 13529 SI SI1 13529 1.100000 28.08600
13530 SI 13530 SI SI1 13530 1.100000 28.08600
13531 SI 13531 SI SI1 13531 1.100000 28.08600
13532 SI 13532 SI SI1 13532 1.100000 28.08600
13533 SI 13533 SI SI1 13533 1.100000 28.08600
13534 SI 13534 SI SI1 13534 1.100000 28.08600
13535 SI 13535 SI SI1 13535 1.100000 28.08600
13536 SI 13536 SI SI1 13536 1.100000 28.08600
13537 SI 13537 SI SI1 13537 1.100000 28.08600
13538 SI 13538 SI SI1 13538 1.100000 28.08600
13539 SI 13539 SI SI1 13539 1.100000 28.08600
13540 SI 13540 SI SI1 13540 1.100000 28.08600
13541 SI 13541 SI SI1 13541 1.100000 28.08600
13542 SI 13542 SI SI1 13542 1.100000 28.08600
13543 SI 13543 SI SI1 13543 1.100000 28.08600
13544 SI 13544 SI SI1 13544 1.100000 28.08600
13545 SI 13545 SI SI1 13545 1.100000 28.08600
13546 SI 13546 SI SI1 13546 1.100000 28.08600
13547 SI 13547 SI SI1 13547 1.100000 28.08600
13548 SI 13548 SI SI1 13548 1.100000 28.08600
13549 SI 13549 SI SI1 13549 1.100000 28.08600
13550 SI 13550 SI SI1 13550 1.100000 28.08600
13551 SI 13551 SI SI1 13551 1.100000 28.08600
13552 SI 13552 SI SI1 13552 1.100000 28.08600
13553 SI 13553 SI SI1 13553 1.100000 28.08600
13554 SI 13554 SI SI1 13554 1.100000 28.08600
13555 SI 13555 SI SI1 13555 1.100000 28.08600
13556 SI 13556 SI SI1 13556 1.100000 28.08600
13557 SI 13557 SI SI1 13557 1.100000 28.08600
13558 SI 13558 SI SI1 13558 1.100000 28.08600
13559 SI 13559 SI SI1 13559 1.100000 28.08600
13560 SI 13560 SI SI1 13560 1.100000 28.08600
13561 SI 13561 SI SI1 13561 1.100000 28.08600
13562 SI 13562 SI SI1 13562 1.100000 28.08600
13563 SI 13563 SI SI1 13563 1.100000 28.08600
13564 SI 13564 SI SI1 13564 1.100000 28.08600
13565 SI 13565 SI SI1 13565 1.100000 28.08600
13566 SI 13566 SI SI1 13566 1.100000 28.08600
13567 SI 13567 SI SI1 13567 1.100000 28.08600
13568 SI 13568 SI SI1 13568 1.100000 28.08600
13569 SI 13569 SI SI1 13569 1.100000 28.08600
13570 SI 13570 SI SI1 13570 1.100000 28.08600
13571 SI 13571 SI SI1 13571 1.100000 28.08600
13572 SI 13572 SI SI1 13572 1.100000 28.08600
13573 SI 13573 SI SI1 13573 1.100000 28.08600
13574 SI 13574 SI SI1 13574 1.100000 28.08600
13575 SI 13575 SI SI1 13575 1.100000 28.08600
13576 SI 13576 SI SI1 13576 1.100000 28.08600
13577 SI 13577 SI SI1 13577 1.100000 28.08600
13578 SI 13578 SI SI1 13578 1.100000 28.08600
13579 SI 13579 SI SI1 13579 1.100000 28.08600
13580 SI 13580 SI SI1 13580 1.100000 28.08600
13581 SI 13581 SI SI1 13581 1.100000 28.08600
13582 SI 13582 SI SI1 13582 1.100000 28.08600
13583 SI 13583 SI SI1 13583 1.100000 28.08600
13584 SI 13584 SI SI1 13584 1.100000 28.08600
13585 SI 13585 SI SI1 13585 1.100000 28.08600
13586 SI 13586 SI SI1 13586 1.100000 28.08600
13587 SI 13587 SI SI1 13587 1.100000 28.08600
13588 SI 13588 SI SI1 13588 1.100000 28.08600
13589 SI 13589 SI SI1 13589 1.100000 28.08600
13590 SI 13590 SI SI1 13590 1.100000 28.08600
13591 SI 13591 SI SI1 13591 1.100000 28.08600
13592 SI 13592 SI SI1 13592 1.100000 28.08600
13593 SI 13593 SI SI1 13593 1.100000 28.08600
13594 SI 13594 SI SI1 13594 1.100000 28.08600
13595 SI 13595 SI SI1 13595 1.100000 28.08600
13596 SI 13596 SI SI1 13596 1.100000 28.08600
13597 SI 13597 SI SI1 13597 1.100000 28.08600
13598 SI 13598 SI SI1 13598 1.100000 28.08600
13599 SI 13599 SI SI1 13599 1.100000 28.08600
13600 SI 13600 SI SI1 13600 1.100000 28.08600
13601 SI 13601 SI SI1 13601 1.100000 28.08600
13602 SI 13602 SI SI1 13602 1.100000 28.08600
13603 SI 13603 SI SI1 13603 1.100000 28.08600
13604 SI 13604 SI SI1 13604 1.100000 28.08600
13605 SI 13605 SI SI1 13605 1.100000 28.08600
13606 SI 13606 SI SI1 13606 1.100000 28.08600
13607 SI 13607 SI SI1 13607 1.100000 28.08600
13608 SI 13608 SI SI1 13608 1.100000 28.08600
13609 SI 13609 SI SI1 13609 1.100000 28.08600
13610 SI 13610 SI SI1 13610 1.100000 28.08600
13611 SI 13611 SI SI1 13611 1.100000 28.08600
13612 SI 13612 SI SI1 13612 1.100000 28.08600
13613 SI 13613 SI SI1 13613 1.100000 28.08600
13614 SI 13614 SI SI1 13614 1.100000 28.08600
13615 SI 13615 SI SI1 13615 1.100000 28.08600
13616 SI 13616 SI SI1 13616 1.100000 28.08600
13617 SI 13617 SI SI1 13617 1.100000 28.08600
13618 SI 13618 SI SI1 13618 1.100000 28.08600
13619 SI 13619 SI SI1 13619 1.100000 28.08600
13620 SI 13620 SI SI1 13620 1.100000 28.08600
13621 SI 13621 SI SI1 13621 1.100000 28.08600
13622 SI 13622 SI SI1 13622 1.100000 28.08600
13623 SI 13623 SI SI1 13623 1.100000 28.08600
13624 SI 13624 SI SI1 13624 1.100000 28.08600
13625 SI 13625 SI SI1 13625 1.100000 28.08600
13626 SI 13626 SI SI1 13626 1.100000 28.08600
13627 SI 13627 SI SI1 13627 1.100000 28.08600
13628 SI 13628 SI SI1 13628 1.100000 28.08600
13629 SI 13629 SI SI1 13629 1.100000 28.08600
13630 SI 13630 SI SI1 13630 1.100000 28.08600
13631 SI 13631 SI SI1 13631 1.100000 28.08600
13632 SI 13632 SI SI1 13632 1.100000 28.08600
13633 SI 13633 SI SI1 13633 1.100000 28.08600
13634 SI 13634 SI SI1 13634 1.100000 28.08600
13635 SI 13635 SI SI1 13635 1.100000 28.08600
13636 SI 13636 SI SI1 13636 1.100000 28.08600
13637 SI 13637 SI SI1 13637 1.100000 28.08600
13638 SI 13638 SI SI1 13638 1.100000 28.08600
13639 SI 13639 SI SI1 13639 1.100000 28.08600
13640 SI 13640 SI SI1 13640 1.100000 28.08600
13641 SI 13641 SI SI1 13641 1.100000 28.08600
13642 SI 13642 SI SI1 13642 1.100000 28.08600
13643 SI 13643 SI SI1 13643 1.100000 28.08600
13644 SI 13644 SI SI1 13644 1.100000 28.08600
13645 SI 13645 SI SI1 13645 1.100000 28.08600
13646 SI 13646 SI SI1 13646 1.100000 28.08600
13647 SI 13647 SI SI1 13647 1.100000 28.08600
13648 SI 13648 SI SI1 13648 1.100000 28.08600
13649 SI 13649 SI SI1 13649 1.100000 28.08600
13650 SI 13650 SI SI1 13650 1.100000 28.08600
13651 SI 13651 SI SI1 13651 1.100000 28.08600
13652 SI 13652 SI SI1 13652 1.100000 28.08600
13653 SI 13653 SI SI1 13653 1.100000 28.08600
13654 SI 13654 SI SI1 13654 1.100000 28.08600
13655 SI 13655 SI SI1 13655 1.100000 28.08600
13656 SI 13656 SI SI1 13656 1.100000 28.08600
13657 SI 13657 SI SI1 13657 1.100000 28.08600
13658 SI 13658 SI SI1 13658 1.100000 28.08600
13659 SI 13659 SI SI1 13659 1.100000 28.08600
13660 SI 13660 SI SI1 13660 1.100000 28.08600
13661 SI 13661 SI SI1 13661 1.100000 28.08600
13662 SI 13662 SI SI1 13662 1.100000 28.08600
13663 SI 13663 SI SI1 13663 1.100000 28.08600
13664 SI 13664 SI SI1 13664 1.100000 28.08600
13665 SI 13665 SI SI1 13665 1.100000 28.08600
13666 SI 13666 SI SI1 13666 1.100000 28.08600
13667 SI 13667 SI SI1 13667 1.100000 28.08600
13668 SI 13668 SI SI1 13668 1.100000 28.08600
13669 SI 13669 SI SI1 13669 1.100000 28.08600
13670 SI 13670 SI SI1 13670 1.100000 28.08600
13671 SI 13671 SI SI1 13671 1.100000 28.08600
13672 SI 13672 SI SI1 13672 1.100000 28.08600
13673 SI 13673 SI SI1 13673 1.100000 28.08600
13674 SI 13674 SI SI1 13674 1.100000 28.08600
13675 SI 13675 SI SI1 13675 1.100000 28.08600
13676 SI 13676 SI SI1 13676 1.100000 28.08600
13677 SI 13677 SI SI1 13677 1.100000 28.08600
13678 SI 13678 SI SI1 13678 1.100000 28.08600
13679 SI 13679 SI SI1 13679 1.100000 28.08600
13680 SI 13680 SI SI1 13680 1.100000 28.08600
13681 SI 13681 SI SI1 13681 1.100000 28.08600
13682 SI 13682 SI SI1 13682 1.100000 28.08600
13683 SI 13683 SI SI1 13683 1.100000 28.08600
13684 SI 13684 SI SI1 13684 1.100000 28.08600
13685 SI 13685 SI SI1 13685 1.100000 28.08600
13686 SI 13686 SI SI1 13686 1.100000 28.08600
13687 SI 13687 SI SI1 13687 1.100000 28.08600
13688 SI 13688 SI SI1 13688 1.100000 28.08600
13689 SI 13689 SI SI1 13689 1.100000 28.08600
13690 SI 13690 SI SI1 13690 1.100000 28.08600
13691 SI 13691 SI SI1 13691 1.100000 28.08600
13692 SI 13692 SI SI1 13692 1.100000 28.08600
13693 SI 13693 SI SI1 13693 1.100000 28.08600
13694 SI 13694 SI SI1 13694 1.100000 28.08600
13695 SI 13695 SI SI1 13695 1.100000 28.08600
13696 SI 13696 SI SI1 13696 1.100000 28.08600
13697 SI 13697 SI SI1 13697 1.100000 28.08600
13698 SI 13698 SI SI1 13698 1.100000 28.08600
13699 SI 13699 SI SI1 13699 1.100000 28.08600
13700 SI 13700 SI SI1 13700 1.100000 28.08600
13701 SI 13701 SI SI1 13701 1.100000 28.08600
13702 SI 13702 SI SI1 13702 1.100000 28.08600
13703 SI 13703 SI SI1 13703 1.100000 28.08600
13704 SI 13704 SI SI1 13704 1.100000 28.08600
13705 SI 13705 SI SI1 13705 1.100000 28.08600
13706 SI 13706 SI SI1 13706 1.100000 28.08600
13707 SI 13707 SI SI1 13707 1.100000 28.08600
13708 SI 13708 SI SI1 13708 1.100000 28.08600
13709 SI 13709 SI SI1 13709 1.100000 28.08600
13710 SI 13710 SI SI1 13710 1.100000 28.08600
13711 SI 13711 SI SI1 13711 1.100000 28.08600
13712 SI 13712 SI SI1 13712 1.100000 28.08600
13713 SI 13713 SI SI1 13713 1.100000 28.08600
13714 SI 13714 SI SI1 13714 1.100000 28.08600
13715 SI 13715 SI SI1 13715 1.100000 28.08600
13716 SI 13716 SI SI1 13716 1.100000 28.08600
13717 SI 13717 SI SI1 13717 1.100000 28.08600
13718 SI 13718 SI SI1 13718 1.100000 28.08600
13719 SI 13719 SI SI1 13719 1.100000 28.08600
13720 SI 13720 SI SI1 13720 1.100000 28.08600
13721 SI 13721 SI SI1 13721 1.100000 28.08600
13722 SI 13722 SI SI1 13722 1.100000 28.08600
13723 SI 13723 SI SI1 13723 1.100000 28.08600
13724 SI 13724 SI SI1 13724 1.100000 28.08600
13725 SI 13725 SI SI1 13725 1.100000 28.08600
13726 SI 13726 SI SI1 13726 1.100000 28.08600
13727 SI 13727 SI SI1 13727 1.100000 28.08600
13728 SI 13728 SI SI1 13728 1.100000 28.08600
13729 SI 13729 SI SI1 13729 1.100000 28.08600
13730 SI 13730 SI SI1 13730 1.100000 28.08600
13731 SI 13731 SI SI1 13731 1.100000 28.08600
13732 SI 13732 SI SI1 13732 1.100000 28.08600
13733 SI 13733 SI SI1 13733 1.100000 28.08600
13734 SI 13734 SI SI1 13734 1.100000 28.08600
13735 SI 13735 SI SI1 13735 1.100000 28.08600
13736 SI 13736 SI SI1 13736 1.100000 28.08600
13737 SI 13737 SI SI1 13737 1.100000 28.08600
13738 SI 13738 SI SI1 13738 1.100000 28.08600
13739 SI 13739 SI SI1 13739 1.100000 28.08600
13740 SI 13740 SI SI1 13740 1.100000 28.08600
13741 SI 13741 SI SI1 13741 1.100000 28.08600
13742 SI 13742 SI SI1 13742 1.100000 28.08600
13743 SI 13743 SI SI1 13743 1.100000 28.08600
13744 SI 13744 SI SI1 13744 1.100000 28.08600
13745 SI 13745 SI SI1 13745 1.100000 28.08600
13746 SI 13746 SI SI1 13746 1.100000 28.08600
13747 SI 13747 SI SI1 13747 1.100000 28.08600
13748 SI 13748 SI SI1 13748 1.100000 28.08600
13749 SI 13749 SI SI1 13749 1.100000 28.08600
13750 SI 13750 SI SI1 13750 1.100000 28.08600
13751 SI 13751 SI SI1 13751 1.100000 28.08600
13752 SI 13752 SI SI1 13752 1.100000 28.08600
13753 SI 13753 SI SI1 13753 1.100000 28.08600
13754 SI 13754 SI SI1 13754 1.100000 28.08600
13755 SI 13755 SI SI1 13755 1.100000 28.08600
13756 SI 13756 SI SI1 13756 1.100000 28.08600
13757 SI 13757 SI SI1 13757 1.100000 28.08600
13758 SI 13758 SI SI1 13758 1.100000 28.08600
13759 SI 13759 SI SI1 13759 1.100000 28.08600
13760 SI 13760 SI SI1 13760 1.100000 28.08600
13761 SI 13761 SI SI1 13761 1.100000 28.08600
13762 SI 13762 SI SI1 13762 1.100000 28.08600
13763 SI 13763 SI SI1 13763 1.100000 28.08600
13764 SI 13764 SI SI1 13764 1.100000 28.08600
13765 SI 13765 SI SI1 13765 1.100000 28.08600
13766 SI 13766 SI SI1 13766 1.100000 28.08600
13767 SI 13767 SI SI1 13767 1.100000 28.08600
13768 SI 13768 SI SI1 13768 1.100000 28.08600
13769 SI 13769 SI SI1 13769 1.100000 28.08600
13770 SI 13770 SI SI1 13770 1.100000 28.08600
13771 SI 13771 SI SI1 13771 1.100000 28.08600
13772 SI 13772 SI SI1 13772 1.100000 28.08600
13773 SI 13773 SI SI1 13773 1.100000 28.08600
13774 SI 13774 SI SI1 13774 1.100000 28.08600
13775 SI 13775 SI SI1 13775 1.100000 28.08600
13776 SI 13776 SI SI1 13776 1.100000 28.08600
13777 SI 13777 SI SI1 13777 1.100000 28.08600
13778 SI 13778 SI SI1 13778 1.100000 28.08600
13779 SI 13779 SI SI1 13779 1.100000 28.08600
13780 SI 13780 SI SI1 13780 1.100000 28.08600
13781 SI 13781 SI SI1 13781 1.100000 28.08600
13782 SI 13782 SI SI1 13782 1.100000 28.08600
13783 SI 13783 SI SI1 13783 1.100000 28.08600
13784 SI 13784 SI SI1 13784 1.100000 28.08600
13785 SI 13785 SI SI1 13785 1.100000 28.08600
13786 SI 13786 SI SI1 13786 1.100000 28.08600
13787 SI 13787 SI SI1 13787 1.100000 28.08600
13788 SI 13788 SI SI1 13788 1.100000 28.08600
13789 SI 13789 SI SI1 13789 1.100000 28.08600
13790 SI 13790 SI SI1 13790 1.100000 28.08600
13791 SI 13791 SI SI1 13791 1.100000 28.08600
13792 SI 13792 SI SI1 13792 1.100000 28.08600
13793 SI 13793 SI SI1 13793 1.100000 28.08600
13794 SI 13794 SI SI1 13794 1.100000 28.08600
13795 SI 13795 SI SI1 13795 1.100000 28.08600
13796 SI 13796 SI SI1 13796 1.100000 28.08600
13797 SI 13797 SI SI1 13797 1.100000 28.08600
13798 SI 13798 SI SI1 13798 1.100000 28.08600
13799 SI 13799 SI SI1 13799 1.100000 28.08600
13800 SI 13800 SI SI1 13800 1.100000 28.08600
13801 SI 13801 SI SI1 13801 1.100000 28.08600
13802 SI 13802 SI SI1 13802 1.100000 28.08600
13803 SI 13803 SI SI1 13803 1.100000 28.08600
13804 SI 13804 SI SI1 13804 1.100000 28.08600
13805 SI 13805 SI SI1 13805 1.100000 28.08600
13806 SI 13806 SI SI1 13806 1.100000 28.08600
13807 SI 13807 SI SI1 13807 1.100000 28.08600
13808 SI 13808 SI SI1 13808 1.100000 28.08600
13809 SI 13809 SI SI1 13809 1.100000 28.08600
13810 SI 13810 SI SI1 13810 1.100000 28.08600
13811 SI 13811 SI SI1 13811 1.100000 28.08600
13812 SI 13812 SI SI1 13812 1.100000 28.08600
13813 SI 13813 SI SI1 13813 1.100000 28.08600
13814 SI 13814 SI SI1 13814 1.100000 28.08600
13815 SI 13815 SI SI1 13815 1.100000 28.08600
13816 SI 13816 SI SI1 13816 1.100000 28.08600
13817 SI 13817 SI SI1 13817 1.100000 28.08600
13818 SI 13818 SI SI1 13818 1.100000 28.08600
13819 SI 13819 SI SI1 13819 1.100000 28.08600
13820 SI 13820 SI SI1 13820 1.100000 28.08600
13821 SI 13821 SI SI1 13821 1.100000 28.08600
13822 SI 13822 SI SI1 13822 1.100000 28.08600
13823 SI 13823 SI SI1 13823 1.100000 28.08600
13824 SI 13824 SI SI1 13824 1.100000 28.08600
13825 SI 13825 SI SI1 13825 1.100000 28.08600
13826 SI 13826 SI SI1 13826 1.100000 28.08600
13827 SI 13827 SI SI1 13827 1.100000 28.08600
13828 SI 13828 SI SI1 13828 1.100000 28.08600
13829 SI 13829 SI SI1 13829 1.100000 28.08600
13830 SI 13830 SI SI1 13830 1.100000 28.08600
13831 SI 13831 SI SI1 13831 1.100000 28.08600
13832 SI 13832 SI SI1 13832 1.100000 28.08600
13833 SI 13833 SI SI1 13833 1.100000 28.08600
13834 SI 13834 SI SI1 13834 1.100000 28.08600
13835 SI 13835 SI SI1 13835 1.100000 28.08600
13836 SI 13836 SI SI1 13836 1.100000 28.08600
13837 SI 13837 SI SI1 13837 1.100000 28.08600
13838 SI 13838 SI SI1 13838 1.100000 28.08600
13839 SI 13839 SI SI1 13839 1.100000 28.08600
13840 SI 13840 SI SI1 13840 1.100000 28.08600
13841 SI 13841 SI SI1 13841 1.100000 28.08600
13842 SI 13842 SI SI1 13842 1.100000 28.08600
13843 SI 13843 SI SI1 13843 1.100000 28.08600
13844 SI 13844 SI SI1 13844 1.100000 28.08600
13845 SI 13845 SI SI1 13845 1.100000 28.08600
13846 SI 13846 SI SI1 13846 1.100000 28.08600
13847 SI 13847 SI SI1 13847 1.100000 28.08600
13848 SI 13848 SI SI1 13848 1.100000 28.08600
13849 SI 13849 SI SI1 13849 1.100000 28.08600
13850 SI 13850 SI SI1 13850 1.100000 28.08600
13851 SI 13851 SI SI1 13851 1.100000 28.08600
13852 SI 13852 SI SI1 13852 1.100000 28.08600
13853 SI 13853 SI SI1 13853 1.100000 28.08600
13854 SI 13854 SI SI1 13854 1.100000 28.08600
13855 SI 13855 SI SI1 13855 1.100000 28.08600
13856 SI 13856 SI SI1 13856 1.100000 28.08600
13857 SI 13857 SI SI1 13857 1.100000 28.08600
13858 SI 13858 SI SI1 13858 1.100000 28.08600
13859 SI 13859 SI SI1 13859 1.100000 28.08600
13860 SI 13860 SI SI1 13860 1.100000 28.08600
13861 SI 13861 SI SI1 13861 1.100000 28.08600
13862 SI 13862 SI SI1 13862 1.100000 28.08600
13863 SI 13863 SI SI1 13863 1.100000 28.08600
13864 SI 13864 SI SI1 13864 1.100000 28.08600
13865 SI 13865 SI SI1 13865 1.100000 28.08600
13866 SI 13866 SI SI1 13866 1.100000 28.08600
13867 SI 13867 SI SI1 13867 1.100000 28.08600
13868 SI 13868 SI SI1 13868 1.100000 28.08600
13869 SI 13869 SI SI1 13869 1.100000 28.08600
13870 SI 13870 SI SI1 13870 1.100000 28.08600
13871 SI 13871 SI SI1 13871 1.100000 28.08600
13872 SI 13872 SI SI1 13872 1.100000 28.08600
13873 SI 13873 SI SI1 13873 1.100000 28.08600
13874 SI 13874 SI SI1 13874 1.100000 28.08600
13875 SI 13875 SI SI1 13875 1.100000 28.08600
13876 SI 13876 SI SI1 13876 1.100000 28.08600
13877 SI 13877 SI SI1 13877 1.100000 28.08600
13878 SI 13878 SI SI1 13878 1.100000 28.08600
13879 SI 13879 SI SI1 13879 1.100000 28.08600
13880 SI 13880 SI SI1 13880 1.100000 28.08600
13881 SI 13881 SI SI1 13881 1.100000 28.08600
13882 SI 13882 SI SI1 13882 1.100000 28.08600
13883 SI 13883 SI SI1 13883 1.100000 28.08600
13884 SI 13884 SI SI1 13884 1.100000 28.08600
13885 SI 13885 SI SI1 13885 1.100000 28.08600
13886 SI 13886 SI SI1 13886 1.100000 28.08600
13887 SI 13887 SI SI1 13887 1.100000 28.08600
13888 SI 13888 SI SI1 13888 1.100000 28.08600
13889 SI 13889 SI SI1 13889 1.100000 28.08600
13890 SI 13890 SI SI1 13890 1.100000 28.08600
13891 SI 13891 SI SI1 13891 1.100000 28.08600
13892 SI 13892 SI SI1 13892 1.100000 28.08600
13893 SI 13893 SI SI1 13893 1.100000 28.08600
13894 SI 13894 SI SI1 13894 1.100000 28.08600
13895 SI 13895 SI SI1 13895 1.100000 28.08600
13896 SI 13896 SI SI1 13896 1.100000 28.08600
13897 SI 13897 SI SI1 13897 1.100000 28.08600
13898 SI 13898 SI SI1 13898 1.100000 28.08600
13899 SI 13899 SI SI1 13899 1.100000 28.08600
13900 SI 13900 SI SI1 13900 1.100000 28.08600
13901 SI 13901 SI SI1 13901 1.100000 28.08600
13902 SI 13902 SI SI1 13902 1.100000 28.08600
13903 SI 13903 SI SI1 13903 1.100000 28.08600
13904 SI 13904 SI SI1 13904 1.100000 28.08600
13905 SI 13905 SI SI1 13905 1.100000 28.08600
13906 SI 13906 SI SI1 13906 1.100000 28.08600
13907 SI 13907 SI SI1 13907 1.100000 28.08600
13908 SI 13908 SI SI1 13908 1.100000 28.08600
13909 SI 13909 SI SI1 13909 1.100000 28.08600
13910 SI 13910 SI SI1 13910 1.100000 28.08600
13911 SI 13911 SI SI1 13911 1.100000 28.08600
13912 SI 13912 SI SI1 13912 1.100000 28.08600
13913 SI 13913 SI SI1 13913 1.100000 28.08600
13914 SI 13914 SI SI1 13914 1.100000 28.08600
13915 SI 13915 SI SI1 13915 1.100000 28.08600
13916 SI 13916 SI SI1 13916 1.100000 28.08600
13917 SI 13917 SI SI1 13917 1.100000 28.08600
13918 SI 13918 SI SI1 13918 1.100000 28.08600
13919 SI 13919 SI SI1 13919 1.100000 28.08600
13920 SI 13920 SI SI1 13920 1.100000 28.08600
13921 SI 13921 SI SI1 13921 1.100000 28.08600
13922 SI 13922 SI SI1 13922 1.100000 28.08600
13923 SI 13923 SI SI1 13923 1.100000 28.08600
13924 SI 13924 SI SI1 13924 1.100000 28.08600
13925 SI 13925 SI SI1 13925 1.100000 28.08600
13926 SI 13926 SI SI1 13926 1.100000 28.08600
13927 SI 13927 SI SI1 13927 1.100000 28.08600
13928 SI 13928 SI SI1 13928 1.100000 28.08600
13929 SI 13929 SI SI1 13929 1.100000 28.08600
13930 SI 13930 SI SI1 13930 1.100000 28.08600
13931 SI 13931 SI SI1 13931 1.100000 28.08600
13932 SI 13932 SI SI1 13932 1.100000 28.08600
13933 SI 13933 SI SI1 13933 1.100000 28.08600
13934 SI 13934 SI SI1 13934 1.100000 28.08600
13935 SI 13935 SI SI1 13935 1.100000 28.08600
13936 SI 13936 SI SI1 13936 1.100000 28.08600
13937 SI 13937 SI SI1 13937 1.100000 28.08600
13938 SI 13938 SI SI1 13938 1.100000 28.08600
13939 SI 13939 SI SI1 13939 1.100000 28.08600
13940 SI 13940 SI SI1 13940 1.100000 28.08600
13941 SI 13941 SI SI1 13941 1.100000 28.08600
13942 SI 13942 SI SI1 13942 1.100000 28.08600
13943 SI 13943 SI SI1 13943 1.100000 28.08600
13944 SI 13944 SI SI1 13944 1.100000 28.08600
13945 SI 13945 SI SI1 13945 1.100000 28.08600
13946 SI 13946 SI SI1 13946 1.100000 28.08600
13947 SI 13947 SI SI1 13947 1.100000 28.08600
13948 SI 13948 SI SI1 13948 1.100000 28.08600
13949 SI 13949 SI SI1 13949 1.100000 28.08600
13950 SI 13950 SI SI1 13950 1.100000 28.08600
13951 SI 13951 SI SI1 13951 1.100000 28.08600
13952 SI 13952 SI SI1 13952 1.100000 28.08600
13953 SI 13953 SI SI1 13953 1.100000 28.08600
13954 SI 13954 SI SI1 13954 1.100000 28.08600
13955 SI 13955 SI SI1 13955 1.100000 28.08600
13956 SI 13956 SI SI1 13956 1.100000 28.08600
13957 SI 13957 SI SI1 13957 1.100000 28.08600
13958 SI 13958 SI SI1 13958 1.100000 28.08600
13959 SI 13959 SI SI1 13959 1.100000 28.08600
13960 SI 13960 SI SI1 13960 1.100000 28.08600
13961 SI 13961 SI SI1 13961 1.100000 28.08600
13962 SI 13962 SI SI1 13962 1.100000 28.08600
13963 SI 13963 SI SI1 13963 1.100000 28.08600
13964 SI 13964 SI SI1 13964 1.100000 28.08600
13965 SI 13965 SI SI1 13965 1.100000 28.08600
13966 SI 13966 SI SI1 13966 1.100000 28.08600
13967 SI 13967 SI SI1 13967 1.100000 28.08600
13968 SI 13968 SI SI1 13968 1.100000 28.08600
13969 SI 13969 SI SI1 13969 1.100000 28.08600
13970 SI 13970 SI SI1 13970 1.100000 28.08600
13971 SI 13971 SI SI1 13971 1.100000 28.08600
13972 SI 13972 SI SI1 13972 1.100000 28.08600
13973 SI 13973 SI SI1 13973 1.100000 28.08600
13974 SI 13974 SI SI1 13974 1.100000 28.08600
13975 SI 13975 SI SI1 13975 1.100000 28.08600
13976 SI 13976 SI SI1 13976 1.100000 28.08600
13977 SI 13977 SI SI1 13977 1.100000 28.08600
13978 SI 13978 SI SI1 13978 1.100000 28.08600
13979 SI 13979 SI SI1 13979 1.100000 28.08600
13980 SI 13980 SI SI1 13980 1.100000 28.08600
13981 SI 13981 SI SI1 13981 1.100000 28.08600
13982 SI 13982 SI SI1 13982 1.100000 28.08600
13983 SI 13983 SI SI1 13983 1.100000 28.08600
13984 SI 13984 SI SI1 13984 1.100000 28.08600
13985 SI 13985 SI SI1 13985 1.100000 28.08600
13986 SI 13986 SI SI1 13986 1.100000 28.08600
13987 SI 13987 SI SI1 13987 1.100000 28.08600
13988 SI 13988 SI SI1 13988 1.100000 28.08600
13989 SI 13989 SI SI1 13989 1.100000 28.08600
13990 SI 13990 SI SI1 13990 1.100000 28.08600
13991 SI 13991 SI SI1 13991 1.100000 28.08600
13992 SI 13992 SI SI1 13992 1.100000 28.08600
13993 SI 13993 SI SI1 13993 1.100000 28.08600
13994 SI 13994 SI SI1 13994 1.100000 28.08600
13995 SI 13995 SI SI1 13995 1.100000 28.08600
13996 SI 13996 SI SI1 13996 1.100000 28.08600
13997 SI 13997 SI SI1 13997 1.100000 28.08600
13998 SI 13998 SI SI1 13998 1.100000 28.08600
13999 SI 13999 SI SI1 13999 1.100000 28.08600
14000 SI 14000 SI SI1 14000 1.100000 28.08600
14001 SI 14001 SI SI1 14001 1.100000 28.08600
14002 SI 14002 SI SI1 14002 1.100000 28.08600
14003 SI 14003 SI SI1 14003 1.100000 28.08600
14004 SI 14004 SI SI1 14004 1.100000 28.08600
14005 SI 14005 SI SI1 14005 1.100000 28.08600
14006 SI 14006 SI SI1 14006 1.100000 28.08600
14007 SI 14007 SI SI1 14007 1.100000 28.08600
14008 SI 14008 SI SI1 14008 1.100000 28.08600
14009 SI 14009 SI SI1 14009 1.100000 28.08600
14010 SI 14010 SI SI1 14010 1.100000 28.08600
14011 SI 14011 SI SI1 14011 1.100000 28.08600
14012 SI 14012 SI SI1 14012 1.100000 28.08600
14013 SI 14013 SI SI1 14013 1.100000 28.08600
14014 SI 14014 SI SI1 14014 1.100000 28.08600
14015 SI 14015 SI SI1 14015 1.100000 28.08600
14016 SI 14016 SI SI1 14016 1.100000 28.08600
14017 SI 14017 SI SI1 14017 1.100000 28.08600
14018 SI 14018 SI SI1 14018 1.100000 28.08600
14019 SI 14019 SI SI1 14019 1.100000 28.08600
14020 SI 14020 SI SI1 14020 1.100000 28.08600
14021 SI 14021 SI SI1 14021 1.100000 28.08600
14022 SI 14022 SI SI1 14022 1.100000 28.08600
14023 SI 14023 SI SI1 14023 1.100000 28.08600
14024 SI 14024 SI SI1 14024 1.100000 28.08600
14025 SI 14025 SI SI1 14025 1.100000 28.08600
14026 SI 14026 SI SI1 14026 1.100000 28.08600
14027 SI 14027 SI SI1 14027 1.100000 28.08600
14028 SI 14028 SI SI1 14028 1.100000 28.08600
14029 SI 14029 SI SI1 14029 1.100000 28.08600
14030 SI 14030 SI SI1 14030 1.100000 28.08600
14031 SI 14031 SI SI1 14031 1.100000 28.08600
14032 SI 14032 SI SI1 14032 1.100000 28.08600
14033 SI 14033 SI SI1 14033 1.100000 28.08600
14034 SI 14034 SI SI1 14034 1.100000 28.08600
14035 SI 14035 SI SI1 14035 1.100000 28.08600
14036 SI 14036 SI SI1 14036 1.100000 28.08600
14037 SI 14037 SI SI1 14037 1.100000 28.08600
14038 SI 14038 SI SI1 14038 1.100000 28.08600
14039 SI 14039 SI SI1 14039 1.100000 28.08600
14040 SI 14040 SI SI1 14040 1.100000 28.08600
14041 SI 14041 SI SI1 14041 1.100000 28.08600
14042 SI 14042 SI SI1 14042 1.100000 28.08600
14043 SI 14043 SI SI1 14043 1.100000 28.08600
14044 SI 14044 SI SI1 14044 1.100000 28.08600
14045 SI 14045 SI SI1 14045 1.100000 28.08600
14046 SI 14046 SI SI1 14046 1.100000 28.08600
14047 SI 14047 SI SI1 14047 1.100000 28.08600
14048 SI 14048 SI SI1 14048 1.100000 28.08600
14049 SI 14049 SI SI1 14049 1.100000 28.08600
14050 SI 14050 SI SI1 14050 1.100000 28.08600
14051 SI 14051 SI SI1 14051 1.100000 28.08600
14052 SI 14052 SI SI1 14052 1.100000 28.08600
14053 SI 14053 SI SI1 14053 1.100000 28.08600
14054 SI 14054 SI SI1 14054 1.100000 28.08600
14055 SI 14055 SI SI1 14055 1.100000 28.08600
14056 SI 14056 SI SI1 14056 1.100000 28.08600
14057 SI 14057 SI SI1 14057 1.100000 28.08600
14058 SI 14058 SI SI1 14058 1.100000 28.08600
14059 SI 14059 SI SI1 14059 1.100000 28.08600
14060 SI 14060 SI SI1 14060 1.100000 28.08600
14061 SI 14061 SI SI1 14061 1.100000 28.08600
14062 SI 14062 SI SI1 14062 1.100000 28.08600
14063 SI 14063 SI SI1 14063 1.100000 28.08600
14064 SI 14064 SI SI1 14064 1.100000 28.08600
14065 SI 14065 SI SI1 14065 1.100000 28.08600
14066 SI 14066 SI SI1 14066 1.100000 28.08600
14067 SI 14067 SI SI1 14067 1.100000 28.08600
14068 SI 14068 SI SI1 14068 1.100000 28.08600
14069 SI 14069 SI SI1 14069 1.100000 28.08600
14070 SI 14070 SI SI1 14070 1.100000 28.08600
14071 SI 14071 SI SI1 14071 1.100000 28.08600
14072 SI 14072 SI SI1 14072 1.100000 28.08600
14073 SI 14073 SI SI1 14073 1.100000 28.08600
14074 SI 14074 SI SI1 14074 1.100000 28.08600
14075 SI 14075 SI SI1 14075 1.100000 28.08600
14076 SI 14076 SI SI1 14076 1.100000 28.08600
14077 SI 14077 SI SI1 14077 1.100000 28.08600
14078 SI 14078 SI SI1 14078 1.100000 28.08600
14079 SI 14079 SI SI1 14079 1.100000 28.08600
14080 SI 14080 SI SI1 14080 1.100000 28.08600
14081 SI 14081 SI SI1 14081 1.100000 28.08600
14082 SI 14082 SI SI1 14082 1.100000 28.08600
14083 SI 14083 SI SI1 14083 1.100000 28.08600
14084 SI 14084 SI SI1 14084 1.100000 28.08600
14085 SI 14085 SI SI1 14085 1.100000 28.08600
14086 SI 14086 SI SI1 14086 1.100000 28.08600
14087 SI 14087 SI SI1 14087 1.100000 28.08600
14088 SI 14088 SI SI1 14088 1.100000 28.08600
14089 SI 14089 SI SI1 14089 1.100000 28.08600
14090 SI 14090 SI SI1 14090 1.100000 28.08600
14091 SI 14091 SI SI1 14091 1.100000 28.08600
14092 SI 14092 SI SI1 14092 1.100000 28.08600
14093 SI 14093 SI SI1 14093 1.100000 28.08600
14094 SI 14094 SI SI1 14094 1.100000 28.08600
14095 SI 14095 SI SI1 14095 1.100000 28.08600
14096 SI 14096 SI SI1 14096 1.100000 28.08600
14097 SI 14097 SI SI1 14097 1.100000 28.08600
14098 SI 14098 SI SI1 14098 1.100000 28.08600
14099 SI 14099 SI SI1 14099 1.100000 28.08600
14100 SI 14100 SI SI1 14100 1.100000 28.08600
14101 SI 14101 SI SI1 14101 1.100000 28.08600
14102 SI 14102 SI SI1 14102 1.100000 28.08600
14103 SI 14103 SI SI1 14103 1.100000 28.08600
14104 SI 14104 SI SI1 14104 1.100000 28.08600
14105 SI 14105 SI SI1 14105 1.100000 28.08600
14106 SI 14106 SI SI1 14106 1.100000 28.08600
14107 SI 14107 SI SI1 14107 1.100000 28.08600
14108 SI 14108 SI SI1 14108 1.100000 28.08600
14109 SI 14109 SI SI1 14109 1.100000 28.08600
14110 SI 14110 SI SI1 14110 1.100000 28.08600
14111 SI 14111 SI SI1 14111 1.100000 28.08600
14112 SI 14112 SI SI1 14112 1.100000 28.08600
14113 SI 14113 SI SI1 14113 1.100000 28.08600
14114 SI 14114 SI SI1 14114 1.100000 28.08600
14115 SI 14115 SI SI1 14115 1.100000 28.08600
14116 SI 14116 SI SI1 14116 1.100000 28.08600
14117 SI 14117 SI SI1 14117 1.100000 28.08600
14118 SI 14118 SI SI1 14118 1.100000 28.08600
14119 SI 14119 SI SI1 14119 1.100000 28.08600
14120 SI 14120 SI SI1 14120 1.100000 28.08600
14121 SI 14121 SI SI1 14121 1.100000 28.08600
14122 SI 14122 SI SI1 14122 1.100000 28.08600
14123 SI 14123 SI SI1 14123 1.100000 28.08600
14124 SI 14124 SI SI1 14124 1.100000 28.08600
14125 SI 14125 SI SI1 14125 1.100000 28.08600
14126 SI 14126 SI SI1 14126 1.100000 28.08600
14127 SI 14127 SI SI1 14127 1.100000 28.08600
14128 SI 14128 SI SI1 14128 1.100000 28.08600
14129 SI 14129 SI SI1 14129 1.100000 28.08600
14130 SI 14130 SI SI1 14130 1.100000 28.08600
14131 SI 14131 SI SI1 14131 1.100000 28.08600
14132 SI 14132 SI SI1 14132 1.100000 28.08600
14133 SI 14133 SI SI1 14133 1.100000 28.08600
14134 SI 14134 SI SI1 14134 1.100000 28.08600
14135 SI 14135 SI SI1 14135 1.100000 28.08600
14136 SI 14136 SI SI1 14136 1.100000 28.08600
14137 SI 14137 SI SI1 14137 1.100000 28.08600
14138 SI 14138 SI SI1 14138 1.100000 28.08600
14139 SI 14139 SI SI1 14139 1.100000 28.08600
14140 SI 14140 SI SI1 14140 1.100000 28.08600
14141 SI 14141 SI SI1 14141 1.100000 28.08600
14142 SI 14142 SI SI1 14142 1.100000 28.08600
14143 SI 14143 SI SI1 14143 1.100000 28.08600
14144 SI 14144 SI SI1 14144 1.100000 28.08600
14145 SI 14145 SI SI1 14145 1.100000 28.08600
14146 SI 14146 SI SI1 14146 1.100000 28.08600
14147 SI 14147 SI SI1 14147 1.100000 28.08600
14148 SI 14148 SI SI1 14148 1.100000 28.08600
14149 SI 14149 SI SI1 14149 1.100000 28.08600
14150 SI 14150 SI SI1 14150 1.100000 28.08600
14151 SI 14151 SI SI1 14151 1.100000 28.08600
14152 SI 14152 SI SI1 14152 1.100000 28.08600
14153 SI 14153 SI SI1 14153 1.100000 28.08600
14154 SI 14154 SI SI1 14154 1.100000 28.08600
14155 SI 14155 SI SI1 14155 1.100000 28.08600
14156 SI 14156 SI SI1 14156 1.100000 28.08600
14157 SI 14157 SI SI1 14157 1.100000 28.08600
14158 SI 14158 SI SI1 14158 1.100000 28.08600
14159 SI 14159 SI SI1 14159 1.100000 28.08600
14160 SI 14160 SI SI1 14160 1.100000 28.08600
14161 SI 14161 SI SI1 14161 1.100000 28.08600
14162 SI 14162 SI SI1 14162 1.100000 28.08600
14163 SI 14163 SI SI1 14163 1.100000 28.08600
14164 SI 14164 SI SI1 14164 1.100000 28.08600
14165 SI 14165 SI SI1 14165 1.100000 28.08600
14166 SI 14166 SI SI1 14166 1.100000 28.08600
14167 SI 14167 SI SI1 14167 1.100000 28.08600
14168 SI 14168 SI SI1 14168 1.100000 28.08600
14169 SI 14169 SI SI1 14169 1.100000 28.08600
14170 SI 14170 SI SI1 14170 1.100000 28.08600
14171 SI 14171 SI SI1 14171 1.100000 28.08600
14172 SI 14172 SI SI1 14172 1.100000 28.08600
14173 SI 14173 SI SI1 14173 1.100000 28.08600
14174 SI 14174 SI SI1 14174 1.100000 28.08600
14175 SI 14175 SI SI1 14175 1.100000 28.08600
14176 SI 14176 SI SI1 14176 1.100000 28.08600
14177 SI 14177 SI SI1 14177 1.100000 28.08600
14178 SI 14178 SI SI1 14178 1.100000 28.08600
14179 SI 14179 SI SI1 14179 1.100000 28.08600
14180 SI 14180 SI SI1 14180 1.100000 28.08600
14181 SI 14181 SI SI1 14181 1.100000 28.08600
14182 SI 14182 SI SI1 14182 1.100000 28.08600
14183 SI 14183 SI SI1 14183 1.100000 28.08600
14184 SI 14184 SI SI1 14184 1.100000 28.08600
14185 SI 14185 SI SI1 14185 1.100000 28.08600
14186 SI 14186 SI SI1 14186 1.100000 28.08600
14187 SI 14187 SI SI1 14187 1.100000 28.08600
14188 SI 14188 SI SI1 14188 1.100000 28.08600
14189 SI 14189 SI SI1 14189 1.100000 28.08600
14190 SI 14190 SI SI1 14190 1.100000 28.08600
14191 SI 14191 SI SI1 14191 1.100000 28.08600
14192 SI 14192 SI SI1 14192 1.100000 28.08600
14193 SI 14193 SI SI1 14193 1.100000 28.08600
14194 SI 14194 SI SI1 14194 1.100000 28.08600
14195 SI 14195 SI SI1 14195 1.100000 28.08600
14196 SI 14196 SI SI1 14196 1.100000 28.08600
14197 SI 14197 SI SI1 14197 1.100000 28.08600
14198 SI 14198 SI SI1 14198 1.100000 28.08600
14199 SI 14199 SI SI1 14199 1.100000 28.08600
14200 SI 14200 SI SI1 14200 1.100000 28.08600
14201 SI 14201 SI SI1 14201 1.100000 28.08600
14202 SI 14202 SI SI1 14202 1.100000 28.08600
14203 SI 14203 SI SI1 14203 1.100000 28.08600
14204 SI 14204 SI SI1 14204 1.100000 28.08600
14205 SI 14205 SI SI1 14205 1.100000 28.08600
14206 SI 14206 SI SI1 14206 1.100000 28.08600
14207 SI 14207 SI SI1 14207 1.100000 28.08600
14208 SI 14208 SI SI1 14208 1.100000 28.08600
14209 SI 14209 SI SI1 14209 1.100000 28.08600
14210 SI 14210 SI SI1 14210 1.100000 28.08600
14211 SI 14211 SI SI1 14211 1.100000 28.08600
14212 SI 14212 SI SI1 14212 1.100000 28.08600
14213 SI 14213 SI SI1 14213 1.100000 28.08600
14214 SI 14214 SI SI1 14214 1.100000 28.08600
14215 SI 14215 SI SI1 14215 1.100000 28.08600
14216 SI 14216 SI SI1 14216 1.100000 28.08600
14217 SI 14217 SI SI1 14217 1.100000 28.08600
14218 SI 14218 SI SI1 14218 1.100000 28.08600
14219 SI 14219 SI SI1 14219 1.100000 28.08600
14220 SI 14220 SI SI1 14220 1.100000 28.08600
14221 SI 14221 SI SI1 14221 1.100000 28.08600
14222 SI 14222 SI SI1 14222 1.100000 28.08600
14223 SI 14223 SI SI1 14223 1.100000 28.08600
14224 SI 14224 SI SI1 14224 1.100000 28.08600
14225 SI 14225 SI SI1 14225 1.100000 28.08600
14226 SI 14226 SI SI1 14226 1.100000 28.08600
14227 SI 14227 SI SI1 14227 1.100000 28.08600
14228 SI 14228 SI SI1 14228 1.100000 28.08600
14229 SI 14229 SI SI1 14229 1.100000 28.08600
14230 SI 14230 SI SI1 14230 1.100000 28.08600
14231 SI 14231 SI SI1 14231 1.100000 28.08600
14232 SI 14232 SI SI1 14232 1.100000 28.08600
14233 SI 14233 SI SI1 14233 1.100000 28.08600
14234 SI 14234 SI SI1 14234 1.100000 28.08600
14235 SI 14235 SI SI1 14235 1.100000 28.08600
14236 SI 14236 SI SI1 14236 1.100000 28.08600
14237 SI 14237 SI SI1 14237 1.100000 28.08600
14238 SI 14238 SI SI1 14238 1.100000 28.08600
14239 SI 14239 SI SI1 14239 1.100000 28.08600
14240 SI 14240 SI SI1 14240 1.100000 28.08600
14241 SI 14241 SI SI1 14241 1.100000 28.08600
14242 SI 14242 SI SI1 14242 1.100000 28.08600
14243 SI 14243 SI SI1 14243 1.100000 28.08600
14244 SI 14244 SI SI1 14244 1.100000 28.08600
14245 SI 14245 SI SI1 14245 1.100000 28.08600
14246 SI 14246 SI SI1 14246 1.100000 28.08600
14247 SI 14247 SI SI1 14247 1.100000 28.08600
14248 SI 14248 SI SI1 14248 1.100000 28.08600
14249 SI 14249 SI SI1 14249 1.100000 28.08600
14250 SI 14250 SI SI1 14250 1.100000 28.08600
14251 SI 14251 SI SI1 14251 1.100000 28.08600
14252 SI 14252 SI SI1 14252 1.100000 28.08600
14253 SI 14253 SI SI1 14253 1.100000 28.08600
14254 SI 14254 SI SI1 14254 1.100000 28.08600
14255 SI 14255 SI SI1 14255 1.100000 28.08600
14256 SI 14256 SI SI1 14256 1.100000 28.08600
14257 SI 14257 SI SI1 14257 1.100000 28.08600
14258 SI 14258 SI SI1 14258 1.100000 28.08600
14259 SI 14259 SI SI1 14259 1.100000 28.08600
14260 SI 14260 SI SI1 14260 1.100000 28.08600
14261 SI 14261 SI SI1 14261 1.100000 28.08600
14262 SI 14262 SI SI1 14262 1.100000 28.08600
14263 SI 14263 SI SI1 14263 1.100000 28.08600
14264 SI 14264 SI SI1 14264 1.100000 28.08600
14265 SI 14265 SI SI1 14265 1.100000 28.08600
14266 SI 14266 SI SI1 14266 1.100000 28.08600
14267 SI 14267 SI SI1 14267 1.100000 28.08600
14268 SI 14268 SI SI1 14268 1.100000 28.08600
14269 SI 14269 SI SI1 14269 1.100000 28.08600
14270 SI 14270 SI SI1 14270 1.100000 28.08600
14271 SI 14271 SI SI1 14271 1.100000 28.08600
14272 SI 14272 SI SI1 14272 1.100000 28.08600
14273 SI 14273 SI SI1 14273 1.100000 28.08600
14274 SI 14274 SI SI1 14274 1.100000 28.08600
14275 SI 14275 SI SI1 14275 1.100000 28.08600
14276 SI 14276 SI SI1 14276 1.100000 28.08600
14277 SI 14277 SI SI1 14277 1.100000 28.08600
14278 SI 14278 SI SI1 14278 1.100000 28.08600
14279 SI 14279 SI SI1 14279 1.100000 28.08600
14280 SI 14280 SI SI1 14280 1.100000 28.08600
14281 SI 14281 SI SI1 14281 1.100000 28.08600
14282 SI 14282 SI SI1 14282 1.100000 28.08600
14283 SI 14283 SI SI1 14283 1.100000 28.08600
14284 SI 14284 SI SI1 14284 1.100000 28.08600
14285 SI 14285 SI SI1 14285 1.100000 28.08600
14286 SI 14286 SI SI1 14286 1.100000 28.08600
14287 SI 14287 SI SI1 14287 1.100000 28.08600
14288 SI 14288 SI SI1 14288 1.100000 28.08600
14289 SI 14289 SI SI1 14289 1.100000 28.08600
14290 SI 14290 SI SI1 14290 1.100000 28.08600
14291 SI 14291 SI SI1 14291 1.100000 28.08600
14292 SI 14292 SI SI1 14292 1.100000 28.08600
14293 SI 14293 SI SI1 14293 1.100000 28.08600
14294 SI 14294 SI SI1 14294 1.100000 28.08600
14295 SI 14295 SI SI1 14295 1.100000 28.08600
14296 SI 14296 SI SI1 14296 1.100000 28.08600
14297 SI 14297 SI SI1 14297 1.100000 28.08600
14298 SI 14298 SI SI1 14298 1.100000 28.08600
14299 SI 14299 SI SI1 14299 1.100000 28.08600
14300 SI 14300 SI SI1 14300 1.100000 28.08600
14301 SI 14301 SI SI1 14301 1.100000 28.08600
14302 SI 14302 SI SI1 14302 1.100000 28.08600
14303 SI 14303 SI SI1 14303 1.100000 28.08600
14304 SI 14304 SI SI1 14304 1.100000 28.08600
14305 SI 14305 SI SI1 14305 1.100000 28.08600
14306 SI 14306 SI SI1 14306 1.100000 28.08600
14307 SI 14307 SI SI1 14307 1.100000 28.08600
14308 SI 14308 SI SI1 14308 1.100000 28.08600
14309 SI 14309 SI SI1 14309 1.100000 28.08600
14310 SI 14310 SI SI1 14310 1.100000 28.08600
14311 SI 14311 SI SI1 14311 1.100000 28.08600
14312 SI 14312 SI SI1 14312 1.100000 28.08600
14313 SI 14313 SI SI1 14313 1.100000 28.08600
14314 SI 14314 SI SI1 14314 1.100000 28.08600
14315 SI 14315 SI SI1 14315 1.100000 28.08600
14316 SI 14316 SI SI1 14316 1.100000 28.08600
14317 SI 14317 SI SI1 14317 1.100000 28.08600
14318 SI 14318 SI SI1 14318 1.100000 28.08600
14319 SI 14319 SI SI1 14319 1.100000 28.08600
14320 SI 14320 SI SI1 14320 1.100000 28.08600
14321 SI 14321 SI SI1 14321 1.100000 28.08600
14322 SI 14322 SI SI1 14322 1.100000 28.08600
14323 SI 14323 SI SI1 14323 1.100000 28.08600
14324 SI 14324 SI SI1 14324 1.100000 28.08600
14325 SI 14325 SI SI1 14325 1.100000 28.08600
14326 SI 14326 SI SI1 14326 1.100000 28.08600
14327 SI 14327 SI SI1 14327 1.100000 28.08600
14328 SI 14328 SI SI1 14328 1.100000 28.08600
14329 SI 14329 SI SI1 14329 1.100000 28.08600
14330 SI 14330 SI SI1 14330 1.100000 28.08600
14331 SI 14331 SI SI1 14331 1.100000 28.08600
14332 SI 14332 SI SI1 14332 1.100000 28.08600
14333 SI 14333 SI SI1 14333 1.100000 28.08600
14334 SI 14334 SI SI1 14334 1.100000 28.08600
14335 SI 14335 SI SI1 14335 1.100000 28.08600
14336 SI 14336 SI SI1 14336 1.100000 28.08600
14337 SI 14337 SI SI1 14337 1.100000 28.08600
14338 SI 14338 SI SI1 14338 1.100000 28.08600
14339 SI 14339 SI SI1 14339 1.100000 28.08600
14340 SI 14340 SI SI1 14340 1.100000 28.08600
14341 SI 14341 SI SI1 14341 1.100000 28.08600
14342 SI 14342 SI SI1 14342 1.100000 28.08600
14343 SI 14343 SI SI1 14343 1.100000 28.08600
14344 SI 14344 SI SI1 14344 1.100000 28.08600
14345 SI 14345 SI SI1 14345 1.100000 28.08600
14346 SI 14346 SI SI1 14346 1.100000 28.08600
14347 SI 14347 SI SI1 14347 1.100000 28.08600
14348 SI 14348 SI SI1 14348 1.100000 28.08600
14349 SI 14349 SI SI1 14349 1.100000 28.08600
14350 SI 14350 SI SI1 14350 1.100000 28.08600
14351 SI 14351 SI SI1 14351 1.100000 28.08600
14352 SI 14352 SI SI1 14352 1.100000 28.08600
14353 SI 14353 SI SI1 14353 1.100000 28.08600
14354 SI 14354 SI SI1 14354 1.100000 28.08600
14355 SI 14355 SI SI1 14355 1.100000 28.08600
14356 SI 14356 SI SI1 14356 1.100000 28.08600
14357 SI 14357 SI SI1 14357 1.100000 28.08600
14358 SI 14358 SI SI1 14358 1.100000 28.08600
14359 SI 14359 SI SI1 14359 1.100000 28.08600
14360 SI 14360 SI SI1 14360 1.100000 28.08600
14361 SI 14361 SI SI1 14361 1.100000 28.08600
14362 SI 14362 SI SI1 14362 1.100000 28.08600
14363 SI 14363 SI SI1 14363 1.100000 28.08600
14364 SI 14364 SI SI1 14364 1.100000 28.08600
14365 SI 14365 SI SI1 14365 1.100000 28.08600
14366 SI 14366 SI SI1 14366 1.100000 28.08600
14367 SI 14367 SI SI1 14367 1.100000 28.08600
14368 SI 14368 SI SI1 14368 1.100000 28.08600
14369 SI 14369 SI SI1 14369 1.100000 28.08600
14370 SI 14370 SI SI1 14370 1.100000 28.08600
14371 SI 14371 SI SI1 14371 1.100000 28.08600
14372 SI 14372 SI SI1 14372 1.100000 28.08600
14373 SI 14373 SI SI1 14373 1.100000 28.08600
14374 SI 14374 SI SI1 14374 1.100000 28.08600
14375 SI 14375 SI SI1 14375 1.100000 28.08600
14376 SI 14376 SI SI1 14376 1.100000 28.08600
14377 SI 14377 SI SI1 14377 1.100000 28.08600
14378 SI 14378 SI SI1 14378 1.100000 28.08600
14379 SI 14379 SI SI1 14379 1.100000 28.08600
14380 SI 14380 SI SI1 14380 1.100000 28.08600
14381 SI 14381 SI SI1 14381 1.100000 28.08600
14382 SI 14382 SI SI1 14382 1.100000 28.08600
14383 SI 14383 SI SI1 14383 1.100000 28.08600
14384 SI 14384 SI SI1 14384 1.100000 28.08600
14385 SI 14385 SI SI1 14385 1.100000 28.08600
14386 SI 14386 SI SI1 14386 1.100000 28.08600
14387 SI 14387 SI SI1 14387 1.100000 28.08600
14388 SI 14388 SI SI1 14388 1.100000 28.08600
14389 SI 14389 SI SI1 14389 1.100000 28.08600
14390 SI 14390 SI SI1 14390 1.100000 28.08600
14391 SI 14391 SI SI1 14391 1.100000 28.08600
14392 SI 14392 SI SI1 14392 1.100000 28.08600
14393 SI 14393 SI SI1 14393 1.100000 28.08600
14394 SI 14394 SI SI1 14394 1.100000 28.08600
14395 SI 14395 SI SI1 14395 1.100000 28.08600
14396 SI 14396 SI SI1 14396 1.100000 28.08600
14397 SI 14397 SI SI1 14397 1.100000 28.08600
14398 SI 14398 SI SI1 14398 1.100000 28.08600
14399 SI 14399 SI SI1 14399 1.100000 28.08600
14400 SI 14400 SI SI1 14400 1.100000 28.08600
14401 SI 14401 SI SI1 14401 1.100000 28.08600
14402 SI 14402 SI SI1 14402 1.100000 28.08600
14403 SI 14403 SI SI1 14403 1.100000 28.08600
14404 SI 14404 SI SI1 14404 1.100000 28.08600
14405 SI 14405 SI SI1 14405 1.100000 28.08600
14406 SI 14406 SI SI1 14406 1.100000 28.08600
14407 SI 14407 SI SI1 14407 1.100000 28.08600
14408 SI 14408 SI SI1 14408 1.100000 28.08600
14409 SI 14409 SI SI1 14409 1.100000 28.08600
14410 SI 14410 SI SI1 14410 1.100000 28.08600
14411 SI 14411 SI SI1 14411 1.100000 28.08600
14412 SI 14412 SI SI1 14412 1.100000 28.08600
14413 SI 14413 SI SI1 14413 1.100000 28.08600
14414 SI 14414 SI SI1 14414 1.100000 28.08600
14415 SI 14415 SI SI1 14415 1.100000 28.08600
14416 SI 14416 SI SI1 14416 1.100000 28.08600
14417 SI 14417 SI SI1 14417 1.100000 28.08600
14418 SI 14418 SI SI1 14418 1.100000 28.08600
14419 SI 14419 SI SI1 14419 1.100000 28.08600
14420 SI 14420 SI SI1 14420 1.100000 28.08600
14421 SI 14421 SI SI1 14421 1.100000 28.08600
14422 SI 14422 SI SI1 14422 1.100000 28.08600
14423 SI 14423 SI SI1 14423 1.100000 28.08600
14424 SI 14424 SI SI1 14424 1.100000 28.08600
14425 SI 14425 SI SI1 14425 1.100000 28.08600
14426 SI 14426 SI SI1 14426 1.100000 28.08600
14427 SI 14427 SI SI1 14427 1.100000 28.08600
14428 SI 14428 SI SI1 14428 1.100000 28.08600
14429 SI 14429 SI SI1 14429 1.100000 28.08600
14430 SI 14430 SI SI1 14430 1.100000 28.08600
14431 SI 14431 SI SI1 14431 1.100000 28.08600
14432 SI 14432 SI SI1 14432 1.100000 28.08600
14433 SI 14433 SI SI1 14433 1.100000 28.08600
14434 SI 14434 SI SI1 14434 1.100000 28.08600
14435 SI 14435 SI SI1 14435 1.100000 28.08600
14436 SI 14436 SI SI1 14436 1.100000 28.08600
14437 SI 14437 SI SI1 14437 1.100000 28.08600
14438 SI 14438 SI SI1 14438 1.100000 28.08600
14439 SI 14439 SI SI1 14439 1.100000 28.08600
14440 SI 14440 SI SI1 14440 1.100000 28.08600
14441 SI 14441 SI SI1 14441 1.100000 28.08600
14442 SI 14442 SI SI1 14442 1.100000 28.08600
14443 SI 14443 SI SI1 14443 1.100000 28.08600
14444 SI 14444 SI SI1 14444 1.100000 28.08600
14445 SI 14445 SI SI1 14445 1.100000 28.08600
14446 SI 14446 SI SI1 14446 1.100000 28.08600
14447 SI 14447 SI SI1 14447 1.100000 28.08600
14448 SI 14448 SI SI1 14448 1.100000 28.08600
14449 SI 14449 SI SI1 14449 1.100000 28.08600
14450 SI 14450 SI SI1 14450 1.100000 28.08600
14451 SI 14451 SI SI1 14451 1.100000 28.08600
14452 SI 14452 SI SI1 14452 1.100000 28.08600
14453 SI 14453 SI SI1 14453 1.100000 28.08600
14454 SI 14454 SI SI1 14454 1.100000 28.08600
14455 SI 14455 SI SI1 14455 1.100000 28.08600
14456 SI 14456 SI SI1 14456 1.100000 28.08600
14457 SI 14457 SI SI1 14457 1.100000 28.08600
14458 SI 14458 SI SI1 14458 1.100000 28.08600
14459 SI 14459 SI SI1 14459 1.100000 28.08600
14460 SI 14460 SI SI1 14460 1.100000 28.08600
14461 SI 14461 SI SI1 14461 1.100000 28.08600
14462 SI 14462 SI SI1 14462 1.100000 28.08600
14463 SI 14463 SI SI1 14463 1.100000 28.08600
14464 SI 14464 SI SI1 14464 1.100000 28.08600
14465 SI 14465 SI SI1 14465 1.100000 28.08600
14466 SI 14466 SI SI1 14466 1.100000 28.08600
14467 SI 14467 SI SI1 14467 1.100000 28.08600
14468 SI 14468 SI SI1 14468 1.100000 28.08600
14469 SI 14469 SI SI1 14469 1.100000 28.08600
14470 SI 14470 SI SI1 14470 1.100000 28.08600
14471 SI 14471 SI SI1 14471 1.100000 28.08600
14472 SI 14472 SI SI1 14472 1.100000 28.08600
14473 SI 14473 SI SI1 14473 1.100000 28.08600
14474 SI 14474 SI SI1 14474 1.100000 28.08600
14475 SI 14475 SI SI1 14475 1.100000 28.08600
14476 SI 14476 SI SI1 14476 1.100000 28.08600
14477 SI 14477 SI SI1 14477 1.100000 28.08600
14478 SI 14478 SI SI1 14478 1.100000 28.08600
14479 SI 14479 SI SI1 14479 1.100000 28.08600
14480 SI 14480 SI SI1 14480 1.100000 28.08600
14481 SI 14481 SI SI1 14481 1.100000 28.08600
14482 SI 14482 SI SI1 14482 1.100000 28.08600
14483 SI 14483 SI SI1 14483 1.100000 28.08600
14484 SI 14484 SI SI1 14484 1.100000 28.08600
14485 SI 14485 SI SI1 14485 1.100000 28.08600
14486 SI 14486 SI SI1 14486 1.100000 28.08600
14487 SI 14487 SI SI1 14487 1.100000 28.08600
14488 SI 14488 SI SI1 14488 1.100000 28.08600
14489 SI 14489 SI SI1 14489 1.100000 28.08600
14490 SI 14490 SI SI1 14490 1.100000 28.08600
14491 SI 14491 SI SI1 14491 1.100000 28.08600
14492 SI 14492 SI SI1 14492 1.100000 28.08600
14493 SI 14493 SI SI1 14493 1.100000 28.08600
14494 SI 14494 SI SI1 14494 1.100000 28.08600
14495 SI 14495 SI SI1 14495 1.100000 28.08600
14496 SI 14496 SI SI1 14496 1.100000 28.08600
14497 SI 14497 SI SI1 14497 1.100000 28.08600
14498 SI 14498 SI SI1 14498 1.100000 28.08600
14499 SI 14499 SI SI1 14499 1.100000 28.08600
14500 SI 14500 SI SI1 14500 1.100000 28.08600
14501 SI 14501 SI SI1 14501 1.100000 28.08600
14502 SI 14502 SI SI1 14502 1.100000 28.08600
14503 SI 14503 SI SI1 14503 1.100000 28.08600
14504 SI 14504 SI SI1 14504 1.100000 28.08600
14505 SI 14505 SI SI1 14505 1.100000 28.08600
14506 SI 14506 SI SI1 14506 1.100000 28.08600
14507 SI 14507 SI SI1 14507 1.100000 28.08600
14508 SI 14508 SI SI1 14508 1.100000 28.08600
14509 SI 14509 SI SI1 14509 1.100000 28.08600
14510 SI 14510 SI SI1 14510 1.100000 28.08600
14511 SI 14511 SI SI1 14511 1.100000 28.08600
14512 SI 14512 SI SI1 14512 1.100000 28.08600
14513 SI 14513 SI SI1 14513 1.100000 28.08600
14514 SI 14514 SI SI1 14514 1.100000 28.08600
14515 SI 14515 SI SI1 14515 1.100000 28.08600
14516 SI 14516 SI SI1 14516 1.100000 28.08600
14517 SI 14517 SI SI1 14517 1.100000 28.08600
14518 SI 14518 SI SI1 14518 1.100000 28.08600
14519 SI 14519 SI SI1 14519 1.100000 28.08600
14520 SI 14520 SI SI1 14520 1.100000 28.08600
14521 SI 14521 SI SI1 14521 1.100000 28.08600
14522 SI 14522 SI SI1 14522 1.100000 28.08600
14523 SI 14523 SI SI1 14523 1.100000 28.08600
14524 SI 14524 SI SI1 14524 1.100000 28.08600
14525 SI 14525 SI SI1 14525 1.100000 28.08600
14526 SI 14526 SI SI1 14526 1.100000 28.08600
14527 SI 14527 SI SI1 14527 1.100000 28.08600
14528 SI 14528 SI SI1 14528 1.100000 28.08600
14529 SI 14529 SI SI1 14529 1.100000 28.08600
14530 SI 14530 SI SI1 14530 1.100000 28.08600
14531 SI 14531 SI SI1 14531 1.100000 28.08600
14532 SI 14532 SI SI1 14532 1.100000 28.08600
14533 SI 14533 SI SI1 14533 1.100000 28.08600
14534 SI 14534 SI SI1 14534 1.100000 28.08600
14535 SI 14535 SI SI1 14535 1.100000 28.08600
14536 SI 14536 SI SI1 14536 1.100000 28.08600
14537 SI 14537 SI SI1 14537 1.100000 28.08600
14538 SI 14538 SI SI1 14538 1.100000 28.08600
14539 SI 14539 SI SI1 14539 1.100000 28.08600
14540 SI 14540 SI SI1 14540 1.100000 28.08600
14541 SI 14541 SI SI1 14541 1.100000 28.08600
14542 SI 14542 SI SI1 14542 1.100000 28.08600
14543 SI 14543 SI SI1 14543 1.100000 28.08600
14544 SI 14544 SI SI1 14544 1.100000 28.08600
14545 SI 14545 SI SI1 14545 1.100000 28.08600
14546 SI 14546 SI SI1 14546 1.100000 28.08600
14547 SI 14547 SI SI1 14547 1.100000 28.08600
14548 SI 14548 SI SI1 14548 1.100000 28.08600
14549 SI 14549 SI SI1 14549 1.100000 28.08600
14550 SI 14550 SI SI1 14550 1.100000 28.08600
14551 SI 14551 SI SI1 14551 1.100000 28.08600
14552 SI 14552 SI SI1 14552 1.100000 28.08600
14553 SI 14553 SI SI1 14553 1.100000 28.08600
14554 SI 14554 SI SI1 14554 1.100000 28.08600
14555 SI 14555 SI SI1 14555 1.100000 28.08600
14556 SI 14556 SI SI1 14556 1.100000 28.08600
14557 SI 14557 SI SI1 14557 1.100000 28.08600
14558 SI 14558 SI SI1 14558 1.100000 28.08600
14559 SI 14559 SI SI1 14559 1.100000 28.08600
14560 SI 14560 SI SI1 14560 1.100000 28.08600
14561 SI 14561 SI SI1 14561 1.100000 28.08600
14562 SI 14562 SI SI1 14562 1.100000 28.08600
14563 SI 14563 SI SI1 14563 1.100000 28.08600
14564 SI 14564 SI SI1 14564 1.100000 28.08600
14565 SI 14565 SI SI1 14565 1.100000 28.08600
14566 SI 14566 SI SI1 14566 1.100000 28.08600
14567 SI 14567 SI SI1 14567 1.100000 28.08600
14568 SI 14568 SI SI1 14568 1.100000 28.08600
14569 SI 14569 SI SI1 14569 1.100000 28.08600
14570 SI 14570 SI SI1 14570 1.100000 28.08600
14571 SI 14571 SI SI1 14571 1.100000 28.08600
14572 SI 14572 SI SI1 14572 1.100000 28.08600
14573 SI 14573 SI SI1 14573 1.100000 28.08600
14574 SI 14574 SI SI1 14574 1.100000 28.08600
14575 SI 14575 SI SI1 14575 1.100000 28.08600
14576 SI 14576 SI SI1 14576 1.100000 28.08600
14577 SI 14577 SI SI1 14577 1.100000 28.08600
14578 SI 14578 SI SI1 14578 1.100000 28.08600
14579 SI 14579 SI SI1 14579 1.100000 28.08600
14580 SI 14580 SI SI1 14580 1.100000 28.08600
14581 SI 14581 SI SI1 14581 1.100000 28.08600
14582 SI 14582 SI SI1 14582 1.100000 28.08600
14583 SI 14583 SI SI1 14583 1.100000 28.08600
14584 SI 14584 SI SI1 14584 1.100000 28.08600
14585 SI 14585 SI SI1 14585 1.100000 28.08600
14586 SI 14586 SI SI1 14586 1.100000 28.08600
14587 SI 14587 SI SI1 14587 1.100000 28.08600
14588 SI 14588 SI SI1 14588 1.100000 28.08600
14589 SI 14589 SI SI1 14589 1.100000 28.08600
14590 SI 14590 SI SI1 14590 1.100000 28.08600
14591 SI 14591 SI SI1 14591 1.100000 28.08600
14592 SI 14592 SI SI1 14592 1.100000 28.08600
14593 SI 14593 SI SI1 14593 1.100000 28.08600
14594 SI 14594 SI SI1 14594 1.100000 28.08600
14595 SI 14595 SI SI1 14595 1.100000 28.08600
14596 SI 14596 SI SI1 14596 1.100000 28.08600
14597 SI 14597 SI SI1 14597 1.100000 28.08600
14598 SI 14598 SI SI1 14598 1.100000 28.08600
14599 SI 14599 SI SI1 14599 1.100000 28.08600
14600 SI 14600 SI SI1 14600 1.100000 28.08600
14601 SI 14601 SI SI1 14601 1.100000 28.08600
14602 SI 14602 SI SI1 14602 1.100000 28.08600
14603 SI 14603 SI SI1 14603 1.100000 28.08600
14604 SI 14604 SI SI1 14604 1.100000 28.08600
14605 SI 14605 SI SI1 14605 1.100000 28.08600
14606 SI 14606 SI SI1 14606 1.100000 28.08600
14607 SI 14607 SI SI1 14607 1.100000 28.08600
14608 SI 14608 SI SI1 14608 1.100000 28.08600
14609 SI 14609 SI SI1 14609 1.100000 28.08600
14610 SI 14610 SI SI1 14610 1.100000 28.08600
14611 SI 14611 SI SI1 14611 1.100000 28.08600
14612 SI 14612 SI SI1 14612 1.100000 28.08600
14613 SI 14613 SI SI1 14613 1.100000 28.08600
14614 SI 14614 SI SI1 14614 1.100000 28.08600
14615 SI 14615 SI SI1 14615 1.100000 28.08600
14616 SI 14616 SI SI1 14616 1.100000 28.08600
14617 SI 14617 SI SI1 14617 1.100000 28.08600
14618 SI 14618 SI SI1 14618 1.100000 28.08600
14619 SI 14619 SI SI1 14619 1.100000 28.08600
14620 SI 14620 SI SI1 14620 1.100000 28.08600
14621 SI 14621 SI SI1 14621 1.100000 28.08600
14622 SI 14622 SI SI1 14622 1.100000 28.08600
14623 SI 14623 SI SI1 14623 1.100000 28.08600
14624 SI 14624 SI SI1 14624 1.100000 28.08600
14625 SI 14625 SI SI1 14625 1.100000 28.08600
14626 SI 14626 SI SI1 14626 1.100000 28.08600
14627 SI 14627 SI SI1 14627 1.100000 28.08600
14628 SI 14628 SI SI1 14628 1.100000 28.08600
14629 SI 14629 SI SI1 14629 1.100000 28.08600
14630 SI 14630 SI SI1 14630 1.100000 28.08600
14631 SI 14631 SI SI1 14631 1.100000 28.08600
14632 SI 14632 SI SI1 14632 1.100000 28.08600
14633 SI 14633 SI SI1 14633 1.100000 28.08600
14634 SI 14634 SI SI1 14634 1.100000 28.08600
14635 SI 14635 SI SI1 14635 1.100000 28.08600
14636 SI 14636 SI SI1 14636 1.100000 28.08600
14637 SI 14637 SI SI1 14637 1.100000 28.08600
14638 SI 14638 SI SI1 14638 1.100000 28.08600
14639 SI 14639 SI SI1 14639 1.100000 28.08600
14640 SI 14640 SI SI1 14640 1.100000 28.08600
14641 SI 14641 SI SI1 14641 1.100000 28.08600
14642 SI 14642 SI SI1 14642 1.100000 28.08600
14643 SI 14643 SI SI1 14643 1.100000 28.08600
14644 SI 14644 SI SI1 14644 1.100000 28.08600
14645 SI 14645 SI SI1 14645 1.100000 28.08600
14646 SI 14646 SI SI1 14646 1.100000 28.08600
14647 SI 14647 SI SI1 14647 1.100000 28.08600
14648 SI 14648 SI SI1 14648 1.100000 28.08600
14649 SI 14649 SI SI1 14649 1.100000 28.08600
14650 SI 14650 SI SI1 14650 1.100000 28.08600
14651 SI 14651 SI SI1 14651 1.100000 28.08600
14652 SI 14652 SI SI1 14652 1.100000 28.08600
14653 SI 14653 SI SI1 14653 1.100000 28.08600
14654 SI 14654 SI SI1 14654 1.100000 28.08600
14655 SI 14655 SI SI1 14655 1.100000 28.08600
14656 SI 14656 SI SI1 14656 1.100000 28.08600
14657 SI 14657 SI SI1 14657 1.100000 28.08600
14658 SI 14658 SI SI1 14658 1.100000 28.08600
14659 SI 14659 SI SI1 14659 1.100000 28.08600
14660 SI 14660 SI SI1 14660 1.100000 28.08600
14661 SI 14661 SI SI1 14661 1.100000 28.08600
14662 SI 14662 SI SI1 14662 1.100000 28.08600
14663 SI 14663 SI SI1 14663 1.100000 28.08600
14664 SI 14664 SI SI1 14664 1.100000 28.08600
14665 SI 14665 SI SI1 14665 1.100000 28.08600
14666 SI 14666 SI SI1 14666 1.100000 28.08600
14667 SI 14667 SI SI1 14667 1.100000 28.08600
14668 SI 14668 SI SI1 14668 1.100000 28.08600
14669 SI 14669 SI SI1 14669 1.100000 28.08600
14670 SI 14670 SI SI1 14670 1.100000 28.08600
14671 SI 14671 SI SI1 14671 1.100000 28.08600
14672 SI 14672 SI SI1 14672 1.100000 28.08600
14673 SI 14673 SI SI1 14673 1.100000 28.08600
14674 SI 14674 SI SI1 14674 1.100000 28.08600
14675 SI 14675 SI SI1 14675 1.100000 28.08600
14676 SI 14676 SI SI1 14676 1.100000 28.08600
14677 SI 14677 SI SI1 14677 1.100000 28.08600
14678 SI 14678 SI SI1 14678 1.100000 28.08600
14679 SI 14679 SI SI1 14679 1.100000 28.08600
14680 SI 14680 SI SI1 14680 1.100000 28.08600
14681 SI 14681 SI SI1 14681 1.100000 28.08600
14682 SI 14682 SI SI1 14682 1.100000 28.08600
14683 SI 14683 SI SI1 14683 1.100000 28.08600
14684 SI 14684 SI SI1 14684 1.100000 28.08600
14685 SI 14685 SI SI1 14685 1.100000 28.08600
14686 SI 14686 SI SI1 14686 1.100000 28.08600
14687 SI 14687 SI SI1 14687 1.100000 28.08600
14688 SI 14688 SI SI1 14688 1.100000 28.08600
14689 SI 14689 SI SI1 14689 1.100000 28.08600
14690 SI 14690 SI SI1 14690 1.100000 28.08600
14691 SI 14691 SI SI1 14691 1.100000 28.08600
14692 SI 14692 SI SI1 14692 1.100000 28.08600
14693 SI 14693 SI SI1 14693 1.100000 28.08600
14694 SI 14694 SI SI1 14694 1.100000 28.08600
14695 SI 14695 SI SI1 14695 1.100000 28.08600
14696 SI 14696 SI SI1 14696 1.100000 28.08600
14697 SI 14697 SI SI1 14697 1.100000 28.08600
14698 SI 14698 SI SI1 14698 1.100000 28.08600
14699 SI 14699 SI SI1 14699 1.100000 28.08600
14700 SI 14700 SI SI1 14700 1.100000 28.08600
14701 SI 14701 SI SI1 14701 1.100000 28.08600
14702 SI 14702 SI SI1 14702 1.100000 28.08600
14703 SI 14703 SI SI1 14703 1.100000 28.08600
14704 SI 14704 SI SI1 14704 1.100000 28.08600
14705 SI 14705 SI SI1 14705 1.100000 28.08600
14706 SI 14706 SI SI1 14706 1.100000 28.08600
14707 SI 14707 SI SI1 14707 1.100000 28.08600
14708 SI 14708 SI SI1 14708 1.100000 28.08600
14709 SI 14709 SI SI1 14709 1.100000 28.08600
14710 SI 14710 SI SI1 14710 1.100000 28.08600
14711 SI 14711 SI SI1 14711 1.100000 28.08600
14712 SI 14712 SI SI1 14712 1.100000 28.08600
14713 SI 14713 SI SI1 14713 1.100000 28.08600
14714 SI 14714 SI SI1 14714 1.100000 28.08600
14715 SI 14715 SI SI1 14715 1.100000 28.08600
14716 SI 14716 SI SI1 14716 1.100000 28.08600
14717 SI 14717 SI SI1 14717 1.100000 28.08600
14718 SI 14718 SI SI1 14718 1.100000 28.08600
14719 SI 14719 SI SI1 14719 1.100000 28.08600
14720 SI 14720 SI SI1 14720 1.100000 28.08600
14721 SI 14721 SI SI1 14721 1.100000 28.08600
14722 SI 14722 SI SI1 14722 1.100000 28.08600
14723 SI 14723 SI SI1 14723 1.100000 28.08600
14724 SI 14724 SI SI1 14724 1.100000 28.08600
14725 SI 14725 SI SI1 14725 1.100000 28.08600
14726 SI 14726 SI SI1 14726 1.100000 28.08600
14727 SI 14727 SI SI1 14727 1.100000 28.08600
14728 SI 14728 SI SI1 14728 1.100000 28.08600
14729 SI 14729 SI SI1 14729 1.100000 28.08600
14730 SI 14730 SI SI1 14730 1.100000 28.08600
14731 SI 14731 SI SI1 14731 1.100000 28.08600
14732 SI 14732 SI SI1 14732 1.100000 28.08600
14733 SI 14733 SI SI1 14733 1.100000 28.08600
14734 SI 14734 SI SI1 14734 1.100000 28.08600
14735 SI 14735 SI SI1 14735 1.100000 28.08600
14736 SI 14736 SI SI1 14736 1.100000 28.08600
14737 SI 14737 SI SI1 14737 1.100000 28.08600
14738 SI 14738 SI SI1 14738 1.100000 28.08600
14739 SI 14739 SI SI1 14739 1.100000 28.08600
14740 SI 14740 SI SI1 14740 1.100000 28.08600
14741 SI 14741 SI SI1 14741 1.100000 28.08600
14742 SI 14742 SI SI1 14742 1.100000 28.08600
14743 SI 14743 SI SI1 14743 1.100000 28.08600
14744 SI 14744 SI SI1 14744 1.100000 28.08600
14745 SI 14745 SI SI1 14745 1.100000 28.08600
14746 SI 14746 SI SI1 14746 1.100000 28.08600
14747 SI 14747 SI SI1 14747 1.100000 28.08600
14748 SI 14748 SI SI1 14748 1.100000 28.08600
14749 SI 14749 SI SI1 14749 1.100000 28.08600
14750 SI 14750 SI SI1 14750 1.100000 28.08600
14751 SI 14751 SI SI1 14751 1.100000 28.08600
14752 SI 14752 SI SI1 14752 1.100000 28.08600
14753 SI 14753 SI SI1 14753 1.100000 28.08600
14754 SI 14754 SI SI1 14754 1.100000 28.08600
14755 SI 14755 SI SI1 14755 1.100000 28.08600
14756 SI 14756 SI SI1 14756 1.100000 28.08600
14757 SI 14757 SI SI1 14757 1.100000 28.08600
14758 SI 14758 SI SI1 14758 1.100000 28.08600
14759 SI 14759 SI SI1 14759 1.100000 28.08600
14760 SI 14760 SI SI1 14760 1.100000 28.08600
14761 SI 14761 SI SI1 14761 1.100000 28.08600
14762 SI 14762 SI SI1 14762 1.100000 28.08600
14763 SI 14763 SI SI1 14763 1.100000 28.08600
14764 SI 14764 SI SI1 14764 1.100000 28.08600
14765 SI 14765 SI SI1 14765 1.100000 28.08600
14766 SI 14766 SI SI1 14766 1.100000 28.08600
14767 SI 14767 SI SI1 14767 1.100000 28.08600
14768 SI 14768 SI SI1 14768 1.100000 28.08600
14769 SI 14769 SI SI1 14769 1.100000 28.08600
14770 SI 14770 SI SI1 14770 1.100000 28.08600
14771 SI 14771 SI SI1 14771 1.100000 28.08600
14772 SI 14772 SI SI1 14772 1.100000 28.08600
14773 SI 14773 SI SI1 14773 1.100000 28.08600
14774 SI 14774 SI SI1 14774 1.100000 28.08600
14775 SI 14775 SI SI1 14775 1.100000 28.08600
14776 SI 14776 SI SI1 14776 1.100000 28.08600
14777 SI 14777 SI SI1 14777 1.100000 28.08600
14778 SI 14778 SI SI1 14778 1.100000 28.08600
14779 SI 14779 SI SI1 14779 1.100000 28.08600
14780 SI 14780 SI SI1 14780 1.100000 28.08600
14781 SI 14781 SI SI1 14781 1.100000 28.08600
14782 SI 14782 SI SI1 14782 1.100000 28.08600
14783 SI 14783 SI SI1 14783 1.100000 28.08600
14784 SI 14784 SI SI1 14784 1.100000 28.08600
14785 SI 14785 SI SI1 14785 1.100000 28.08600
14786 SI 14786 SI SI1 14786 1.100000 28.08600
14787 SI 14787 SI SI1 14787 1.100000 28.08600
14788 SI 14788 SI SI1 14788 1.100000 28.08600
14789 SI 14789 SI SI1 14789 1.100000 28.08600
14790 SI 14790 SI SI1 14790 1.100000 28.08600
14791 SI 14791 SI SI1 14791 1.100000 28.08600
14792 SI 14792 SI SI1 14792 1.100000 28.08600
14793 SI 14793 SI SI1 14793 1.100000 28.08600
14794 SI 14794 SI SI1 14794 1.100000 28.08600
14795 SI 14795 SI SI1 14795 1.100000 28.08600
14796 SI 14796 SI SI1 14796 1.100000 28.08600
14797 SI 14797 SI SI1 14797 1.100000 28.08600
14798 SI 14798 SI SI1 14798 1.100000 28.08600
14799 SI 14799 SI SI1 14799 1.100000 28.08600
14800 SI 14800 SI SI1 14800 1.100000 28.08600
14801 SI 14801 SI SI1 14801 1.100000 28.08600
14802 SI 14802 SI SI1 14802 1.100000 28.08600
14803 SI 14803 SI SI1 14803 1.100000 28.08600
14804 SI 14804 SI SI1 14804 1.100000 28.08600
14805 SI 14805 SI SI1 14805 1.100000 28.08600
14806 SI 14806 SI SI1 14806 1.100000 28.08600
14807 SI 14807 SI SI1 14807 1.100000 28.08600
14808 SI 14808 SI SI1 14808 1.100000 28.08600
14809 SI 14809 SI SI1 14809 1.100000 28.08600
14810 SI 14810 SI SI1 14810 1.100000 28.08600
14811 SI 14811 SI SI1 14811 1.100000 28.08600
14812 SI 14812 SI SI1 14812 1.100000 28.08600
14813 SI 14813 SI SI1 14813 1.100000 28.08600
14814 SI 14814 SI SI1 14814 1.100000 28.08600
14815 SI 14815 SI SI1 14815 1.100000 28.08600
14816 SI 14816 SI SI1 14816 1.100000 28.08600
14817 SI 14817 SI SI1 14817 1.100000 28.08600
14818 SI 14818 SI SI1 14818 1.100000 28.08600
14819 SI 14819 SI SI1 14819 1.100000 28.08600
14820 SI 14820 SI SI1 14820 1.100000 28.08600
14821 SI 14821 SI SI1 14821 1.100000 28.08600
14822 SI 14822 SI SI1 14822 1.100000 28.08600
14823 SI 14823 SI SI1 14823 1.100000 28.08600
14824 SI 14824 SI SI1 14824 1.100000 28.08600
14825 SI 14825 SI SI1 14825 1.100000 28.08600
14826 SI 14826 SI SI1 14826 1.100000 28.08600
14827 SI 14827 SI SI1 14827 1.100000 28.08600
14828 SI 14828 SI SI1 14828 1.100000 28.08600
14829 SI 14829 SI SI1 14829 1.100000 28.08600
14830 SI 14830 SI SI1 14830 1.100000 28.08600
14831 SI 14831 SI SI1 14831 1.100000 28.08600
14832 SI 14832 SI SI1 14832 1.100000 28.08600
14833 SI 14833 SI SI1 14833 1.100000 28.08600
14834 SI 14834 SI SI1 14834 1.100000 28.08600
14835 SI 14835 SI SI1 14835 1.100000 28.08600
14836 SI 14836 SI SI1 14836 1.100000 28.08600
14837 SI 14837 SI SI1 14837 1.100000 28.08600
14838 SI 14838 SI SI1 14838 1.100000 28.08600
14839 SI 14839 SI SI1 14839 1.100000 28.08600
14840 SI 14840 SI SI1 14840 1.100000 28.08600
14841 SI 14841 SI SI1 14841 1.100000 28.08600
14842 SI 14842 SI SI1 14842 1.100000 28.08600
14843 SI 14843 SI SI1 14843 1.100000 28.08600
14844 SI 14844 SI SI1 14844 1.100000 28.08600
14845 SI 14845 SI SI1 14845 1.100000 28.08600
14846 SI 14846 SI SI1 14846 1.100000 28.08600
14847 SI 14847 SI SI1 14847 1.100000 28.08600
14848 SI 14848 SI SI1 14848 1.100000 28.08600
14849 SI 14849 SI SI1 14849 1.100000 28.08600
14850 SI 14850 SI SI1 14850 1.100000 28.08600
14851 SI 14851 SI SI1 14851 1.100000 28.08600
14852 SI 14852 SI SI1 14852 1.100000 28.08600
14853 SI 14853 SI SI1 14853 1.100000 28.08600
14854 SI 14854 SI SI1 14854 1.100000 28.08600
14855 SI 14855 SI SI1 14855 1.100000 28.08600
14856 SI 14856 SI SI1 14856 1.100000 28.08600
14857 SI 14857 SI SI1 14857 1.100000 28.08600
14858 SI 14858 SI SI1 14858 1.100000 28.08600
14859 SI 14859 SI SI1 14859 1.100000 28.08600
14860 SI 14860 SI SI1 14860 1.100000 28.08600
14861 SI 14861 SI SI1 14861 1.100000 28.08600
14862 SI 14862 SI SI1 14862 1.100000 28.08600
14863 SI 14863 SI SI1 14863 1.100000 28.08600
14864 SI 14864 SI SI1 14864 1.100000 28.08600
14865 SI 14865 SI SI1 14865 1.100000 28.08600
14866 SI 14866 SI SI1 14866 1.100000 28.08600
14867 SI 14867 SI SI1 14867 1.100000 28.08600
14868 SI 14868 SI SI1 14868 1.100000 28.08600
14869 SI 14869 SI SI1 14869 1.100000 28.08600
14870 SI 14870 SI SI1 14870 1.100000 28.08600
14871 SI 14871 SI SI1 14871 1.100000 28.08600
14872 SI 14872 SI SI1 14872 1.100000 28.08600
14873 SI 14873 SI SI1 14873 1.100000 28.08600
14874 SI 14874 SI SI1 14874 1.100000 28.08600
14875 SI 14875 SI SI1 14875 1.100000 28.08600
14876 SI 14876 SI SI1 14876 1.100000 28.08600
14877 SI 14877 SI SI1 14877 1.100000 28.08600
14878 SI 14878 SI SI1 14878 1.100000 28.08600
14879 SI 14879 SI SI1 14879 1.100000 28.08600
14880 SI 14880 SI SI1 14880 1.100000 28.08600
14881 SI 14881 SI SI1 14881 1.100000 28.08600
14882 SI 14882 SI SI1 14882 1.100000 28.08600
14883 SI 14883 SI SI1 14883 1.100000 28.08600
14884 SI 14884 SI SI1 14884 1.100000 28.08600
14885 SI 14885 SI SI1 14885 1.100000 28.08600
14886 SI 14886 SI SI1 14886 1.100000 28.08600
14887 SI 14887 SI SI1 14887 1.100000 28.08600
14888 SI 14888 SI SI1 14888 1.100000 28.08600
14889 SI 14889 SI SI1 14889 1.100000 28.08600
14890 SI 14890 SI SI1 14890 1.100000 28.08600
14891 SI 14891 SI SI1 14891 1.100000 28.08600
14892 SI 14892 SI SI1 14892 1.100000 28.08600
14893 SI 14893 SI SI1 14893 1.100000 28.08600
14894 SI 14894 SI SI1 14894 1.100000 28.08600
14895 SI 14895 SI SI1 14895 1.100000 28.08600
14896 SI 14896 SI SI1 14896 1.100000 28.08600
14897 SI 14897 SI SI1 14897 1.100000 28.08600
14898 SI 14898 SI SI1 14898 1.100000 28.08600
14899 SI 14899 SI SI1 14899 1.100000 28.08600
14900 SI 14900 SI SI1 14900 1.100000 28.08600
14901 SI 14901 SI SI1 14901 1.100000 28.08600
14902 SI 14902 SI SI1 14902 1.100000 28.08600
14903 SI 14903 SI SI1 14903 1.100000 28.08600
14904 SI 14904 SI SI1 14904 1.100000 28.08600
14905 SI 14905 SI SI1 14905 1.100000 28.08600
14906 SI 14906 SI SI1 14906 1.100000 28.08600
14907 SI 14907 SI SI1 14907 1.100000 28.08600
14908 SI 14908 SI SI1 14908 1.100000 28.08600
14909 SI 14909 SI SI1 14909 1.100000 28.08600
14910 SI 14910 SI SI1 14910 1.100000 28.08600
14911 SI 14911 SI SI1 14911 1.100000 28.08600
14912 SI 14912 SI SI1 14912 1.100000 28.08600
14913 SI 14913 SI SI1 14913 1.100000 28.08600
14914 SI 14914 SI SI1 14914 1.100000 28.08600
14915 SI 14915 SI SI1 14915 1.100000 28.08600
14916 SI 14916 SI SI1 14916 1.100000 28.08600
14917 SI 14917 SI SI1 14917 1.100000 28.08600
14918 SI 14918 SI SI1 14918 1.100000 28.08600
14919 SI 14919 SI SI1 14919 1.100000 28.08600
14920 SI 14920 SI SI1 14920 1.100000 28.08600
14921 SI 14921 SI SI1 14921 1.100000 28.08600
14922 SI 14922 SI SI1 14922 1.100000 28.08600
14923 SI 14923 SI SI1 14923 1.100000 28.08600
14924 SI 14924 SI SI1 14924 1.100000 28.08600
14925 SI 14925 SI SI1 14925 1.100000 28.08600
14926 SI 14926 SI SI1 14926 1.100000 28.08600
14927 SI 14927 SI SI1 14927 1.100000 28.08600
14928 SI 14928 SI SI1 14928 1.100000 28.08600
14929 SI 14929 SI SI1 14929 1.100000 28.08600
14930 SI 14930 SI SI1 14930 1.100000 28.08600
14931 SI 14931 SI SI1 14931 1.100000 28.08600
14932 SI 14932 SI SI1 14932 1.100000 28.08600
14933 SI 14933 SI SI1 14933 1.100000 28.08600
14934 SI 14934 SI SI1 14934 1.100000 28.08600
14935 SI 14935 SI SI1 14935 1.100000 28.08600
14936 SI 14936 SI SI1 14936 1.100000 28.08600
14937 SI 14937 SI SI1 14937 1.100000 28.08600
14938 SI 14938 SI SI1 14938 1.100000 28.08600
14939 SI 14939 SI SI1 14939 1.100000 28.08600
14940 SI 14940 SI SI1 14940 1.100000 28.08600
14941 SI 14941 SI SI1 14941 1.100000 28.08600
14942 SI 14942 SI SI1 14942 1.100000 28.08600
14943 SI 14943 SI SI1 14943 1.100000 28.08600
14944 SI 14944 SI SI1 14944 1.100000 28.08600
14945 SI 14945 SI SI1 14945 1.100000 28.08600
14946 SI 14946 SI SI1 14946 1.100000 28.08600
14947 SI 14947 SI SI1 14947 1.100000 28.08600
14948 SI 14948 SI SI1 14948 1.100000 28.08600
14949 SI 14949 SI SI1 14949 1.100000 28.08600
14950 SI 14950 SI SI1 14950 1.100000 28.08600
14951 SI 14951 SI SI1 14951 1.100000 28.08600
14952 SI 14952 SI SI1 14952 1.100000 28.08600
14953 SI 14953 SI SI1 14953 1.100000 28.08600
14954 SI 14954 SI SI1 14954 1.100000 28.08600
14955 SI 14955 SI SI1 14955 1.100000 28.08600
14956 SI 14956 SI SI1 14956 1.100000 28.08600
14957 SI 14957 SI SI1 14957 1.100000 28.08600
14958 SI 14958 SI SI1 14958 1.100000 28.08600
14959 SI 14959 SI SI1 14959 1.100000 28.08600
14960 SI 14960 SI SI1 14960 1.100000 28.08600
14961 SI 14961 SI SI1 14961 1.100000 28.08600
14962 SI 14962 SI SI1 14962 1.100000 28.08600
14963 SI 14963 SI SI1 14963 1.100000 28.08600
14964 SI 14964 SI SI1 14964 1.100000 28.08600
14965 SI 14965 SI SI1 14965 1.100000 28.08600
14966 SI 14966 SI SI1 14966 1.100000 28.08600
14967 SI 14967 SI SI1 14967 1.100000 28.08600
14968 SI 14968 SI SI1 14968 1.100000 28.08600
14969 SI 14969 SI SI1 14969 1.100000 28.08600
14970 SI 14970 SI SI1 14970 1.100000 28.08600
14971 SI 14971 SI SI1 14971 1.100000 28.08600
14972 SI 14972 SI SI1 14972 1.100000 28.08600
14973 SI 14973 SI SI1 14973 1.100000 28.08600
14974 SI 14974 SI SI1 14974 1.100000 28.08600
14975 SI 14975 SI SI1 14975 1.100000 28.08600
14976 SI 14976 SI SI1 14976 1.100000 28.08600
14977 SI 14977 SI SI1 14977 1.100000 28.08600
14978 SI 14978 SI SI1 14978 1.100000 28.08600
14979 SI 14979 SI SI1 14979 1.100000 28.08600
14980 SI 14980 SI SI1 14980 1.100000 28.08600
14981 SI 14981 SI SI1 14981 1.100000 28.08600
14982 SI 14982 SI SI1 14982 1.100000 28.08600
14983 SI 14983 SI SI1 14983 1.100000 28.08600
14984 SI 14984 SI SI1 14984 1.100000 28.08600
14985 SI 14985 SI SI1 14985 1.100000 28.08600
14986 SI 14986 SI SI1 14986 1.100000 28.08600
14987 SI 14987 SI SI1 14987 1.100000 28.08600
14988 SI 14988 SI SI1 14988 1.100000 28.08600
14989 SI 14989 SI SI1 14989 1.100000 28.08600
14990 SI 14990 SI SI1 14990 1.100000 28.08600
14991 SI 14991 SI SI1 14991 1.100000 28.08600
14992 SI 14992 SI SI1 14992 1.100000 28.08600
14993 SI 14993 SI SI1 14993 1.100000 28.08600
14994 SI 14994 SI SI1 14994 1.100000 28.08600
14995 SI 14995 SI SI1 14995 1.100000 28.08600
14996 SI 14996 SI SI1 14996 1.100000 28.08600
14997 SI 14997 SI SI1 14997 1.100000 28.08600
14998 SI 14998 SI SI1 14998 1.100000 28.08600
14999 SI 14999 SI SI1 14999 1.100000 28.08600
15000 SI 15000 SI SI1 15000 1.100000 28.08600
15001 SI 15001 SI SI1 15001 1.100000 28.08600
15002 SI 15002 SI SI1 15002 1.100000 28.08600
15003 SI 15003 SI SI1 15003 1.100000 28.08600
15004 SI 15004 SI SI1 15004 1.100000 28.08600
15005 SI 15005 SI SI1 15005 1.100000 28.08600
15006 SI 15006 SI SI1 15006 1.100000 28.08600
15007 SI 15007 SI SI1 15007 1.100000 28.08600
15008 SI 15008 SI SI1 15008 1.100000 28.08600
15009 SI 15009 SI SI1 15009 1.100000 28.08600
15010 SI 15010 SI SI1 15010 1.100000 28.08600
15011 SI 15011 SI SI1 15011 1.100000 28.08600
15012 SI 15012 SI SI1 15012 1.100000 28.08600
15013 SI 15013 SI SI1 15013 1.100000 28.08600
15014 SI 15014 SI SI1 15014 1.100000 28.08600
15015 SI 15015 SI SI1 15015 1.100000 28.08600
15016 SI 15016 SI SI1 15016 1.100000 28.08600
15017 SI 15017 SI SI1 15017 1.100000 28.08600
15018 SI 15018 SI SI1 15018 1.100000 28.08600
15019 SI 15019 SI SI1 15019 1.100000 28.08600
15020 SI 15020 SI SI1 15020 1.100000 28.08600
15021 SI 15021 SI SI1 15021 1.100000 28.08600
15022 SI 15022 SI SI1 15022 1.100000 28.08600
15023 SI 15023 SI SI1 15023 1.100000 28.08600
15024 SI 15024 SI SI1 15024 1.100000 28.08600
15025 SI 15025 SI SI1 15025 1.100000 28.08600
15026 SI 15026 SI SI1 15026 1.100000 28.08600
15027 SI 15027 SI SI1 15027 1.100000 28.08600
15028 SI 15028 SI SI1 15028 1.100000 28.08600
15029 SI 15029 SI SI1 15029 1.100000 28.08600
15030 SI 15030 SI SI1 15030 1.100000 28.08600
15031 SI 15031 SI SI1 15031 1.100000 28.08600
15032 SI 15032 SI SI1 15032 1.100000 28.08600
15033 SI 15033 SI SI1 15033 1.100000 28.08600
15034 SI 15034 SI SI1 15034 1.100000 28.08600
15035 SI 15035 SI SI1 15035 1.100000 28.08600
15036 SI 15036 SI SI1 15036 1.100000 28.08600
15037 SI 15037 SI SI1 15037 1.100000 28.08600
15038 SI 15038 SI SI1 15038 1.100000 28.08600
15039 SI 15039 SI SI1 15039 1.100000 28.08600
15040 SI 15040 SI SI1 15040 1.100000 28.08600
15041 SI 15041 SI SI1 15041 1.100000 28.08600
15042 SI 15042 SI SI1 15042 1.100000 28.08600
15043 SI 15043 SI SI1 15043 1.100000 28.08600
15044 SI 15044 SI SI1 15044 1.100000 28.08600
15045 SI 15045 SI SI1 15045 1.100000 28.08600
15046 SI 15046 SI SI1 15046 1.100000 28.08600
15047 SI 15047 SI SI1 15047 1.100000 28.08600
15048 SI 15048 SI SI1 15048 1.100000 28.08600
15049 SI 15049 SI SI1 15049 1.100000 28.08600
15050 SI 15050 SI SI1 15050 1.100000 28.08600
15051 SI 15051 SI SI1 15051 1.100000 28.08600
15052 SI 15052 SI SI1 15052 1.100000 28.08600
15053 SI 15053 SI SI1 15053 1.100000 28.08600
15054 SI 15054 SI SI1 15054 1.100000 28.08600
15055 SI 15055 SI SI1 15055 1.100000 28.08600
15056 SI 15056 SI SI1 15056 1.100000 28.08600
15057 SI 15057 SI SI1 15057 1.100000 28.08600
15058 SI 15058 SI SI1 15058 1.100000 28.08600
15059 SI 15059 SI SI1 15059 1.100000 28.08600
15060 SI 15060 SI SI1 15060 1.100000 28.08600
15061 SI 15061 SI SI1 15061 1.100000 28.08600
15062 SI 15062 SI SI1 15062 1.100000 28.08600
15063 SI 15063 SI SI1 15063 1.100000 28.08600
15064 SI 15064 SI SI1 15064 1.100000 28.08600
15065 SI 15065 SI SI1 15065 1.100000 28.08600
15066 SI 15066 SI SI1 15066 1.100000 28.08600
15067 SI 15067 SI SI1 15067 1.100000 28.08600
15068 SI 15068 SI SI1 15068 1.100000 28.08600
15069 SI 15069 SI SI1 15069 1.100000 28.08600
15070 SI 15070 SI SI1 15070 1.100000 28.08600
15071 SI 15071 SI SI1 15071 1.100000 28.08600
15072 SI 15072 SI SI1 15072 1.100000 28.08600
15073 SI 15073 SI SI1 15073 1.100000 28.08600
15074 SI 15074 SI SI1 15074 1.100000 28.08600
15075 SI 15075 SI SI1 15075 1.100000 28.08600
15076 SI 15076 SI SI1 15076 1.100000 28.08600
15077 SI 15077 SI SI1 15077 1.100000 28.08600
15078 SI 15078 SI SI1 15078 1.100000 28.08600
15079 SI 15079 SI SI1 15079 1.100000 28.08600
15080 SI 15080 SI SI1 15080 1.100000 28.08600
15081 SI 15081 SI SI1 15081 1.100000 28.08600
15082 SI 15082 SI SI1 15082 1.100000 28.08600
15083 SI 15083 SI SI1 15083 1.100000 28.08600
15084 SI 15084 SI SI1 15084 1.100000 28.08600
15085 SI 15085 SI SI1 15085 1.100000 28.08600
15086 SI 15086 SI SI1 15086 1.100000 28.08600
15087 SI 15087 SI SI1 15087 1.100000 28.08600
15088 SI 15088 SI SI1 15088 1.100000 28.08600
15089 SI 15089 SI SI1 15089 1.100000 28.08600
15090 SI 15090 SI SI1 15090 1.100000 28.08600
15091 SI 15091 SI SI1 15091 1.100000 28.08600
15092 SI 15092 SI SI1 15092 1.100000 28.08600
15093 SI 15093 SI SI1 15093 1.100000 28.08600
15094 SI 15094 SI SI1 15094 1.100000 28.08600
15095 SI 15095 SI SI1 15095 1.100000 28.08600
15096 SI 15096 SI SI1 15096 1.100000 28.08600
15097 SI 15097 SI SI1 15097 1.100000 28.08600
15098 SI 15098 SI SI1 15098 1.100000 28.08600
15099 SI 15099 SI SI1 15099 1.100000 28.08600
15100 SI 15100 SI SI1 15100 1.100000 28.08600
15101 SI 15101 SI SI1 15101 1.100000 28.08600
15102 SI 15102 SI SI1 15102 1.100000 28.08600
15103 SI 15103 SI SI1 15103 1.100000 28.08600
15104 SI 15104 SI SI1 15104 1.100000 28.08600
15105 SI 15105 SI SI1 15105 1.100000 28.08600
15106 SI 15106 SI SI1 15106 1.100000 28.08600
15107 SI 15107 SI SI1 15107 1.100000 28.08600
15108 SI 15108 SI SI1 15108 1.100000 28.08600
15109 SI 15109 SI SI1 15109 1.100000 28.08600
15110 SI 15110 SI SI1 15110 1.100000 28.08600
15111 SI 15111 SI SI1 15111 1.100000 28.08600
15112 SI 15112 SI SI1 15112 1.100000 28.08600
15113 SI 15113 SI SI1 15113 1.100000 28.08600
15114 SI 15114 SI SI1 15114 1.100000 28.08600
15115 SI 15115 SI SI1 15115 1.100000 28.08600
15116 SI 15116 SI SI1 15116 1.100000 28.08600
15117 SI 15117 SI SI1 15117 1.100000 28.08600
15118 SI 15118 SI SI1 15118 1.100000 28.08600
15119 SI 15119 SI SI1 15119 1.100000 28.08600
15120 SI 15120 SI SI1 15120 1.100000 28.08600
15121 SI 15121 SI SI1 15121 1.100000 28.08600
15122 SI 15122 SI SI1 15122 1.100000 28.08600
15123 SI 15123 SI SI1 15123 1.100000 28.08600
15124 SI 15124 SI SI1 15124 1.100000 28.08600
15125 SI 15125 SI SI1 15125 1.100000 28.08600
15126 SI 15126 SI SI1 15126 1.100000 28.08600
15127 SI 15127 SI SI1 15127 1.100000 28.08600
15128 SI 15128 SI SI1 15128 1.100000 28.08600
15129 SI 15129 SI SI1 15129 1.100000 28.08600
15130 SI 15130 SI SI1 15130 1.100000 28.08600
15131 SI 15131 SI SI1 15131 1.100000 28.08600
15132 SI 15132 SI SI1 15132 1.100000 28.08600
15133 SI 15133 SI SI1 15133 1.100000 28.08600
15134 SI 15134 SI SI1 15134 1.100000 28.08600
15135 SI 15135 SI SI1 15135 1.100000 28.08600
15136 SI 15136 SI SI1 15136 1.100000 28.08600
15137 SI 15137 SI SI1 15137 1.100000 28.08600
15138 SI 15138 SI SI1 15138 1.100000 28.08600
15139 SI 15139 SI SI1 15139 1.100000 28.08600
15140 SI 15140 SI SI1 15140 1.100000 28.08600
15141 SI 15141 SI SI1 15141 1.100000 28.08600
15142 SI 15142 SI SI1 15142 1.100000 28.08600
15143 SI 15143 SI SI1 15143 1.100000 28.08600
15144 SI 15144 SI SI1 15144 1.100000 28.08600
15145 SI 15145 SI SI1 15145 1.100000 28.08600
15146 SI 15146 SI SI1 15146 1.100000 28.08600
15147 SI 15147 SI SI1 15147 1.100000 28.08600
15148 SI 15148 SI SI1 15148 1.100000 28.08600
15149 SI 15149 SI SI1 15149 1.100000 28.08600
15150 SI 15150 SI SI1 15150 1.100000 28.08600
15151 SI 15151 SI SI1 15151 1.100000 28.08600
15152 SI 15152 SI SI1 15152 1.100000 28.08600
15153 SI 15153 SI SI1 15153 1.100000 28.08600
15154 SI 15154 SI SI1 15154 1.100000 28.08600
15155 SI 15155 SI SI1 15155 1.100000 28.08600
15156 SI 15156 SI SI1 15156 1.100000 28.08600
15157 SI 15157 SI SI1 15157 1.100000 28.08600
15158 SI 15158 SI SI1 15158 1.100000 28.08600
15159 SI 15159 SI SI1 15159 1.100000 28.08600
15160 SI 15160 SI SI1 15160 1.100000 28.08600
15161 SI 15161 SI SI1 15161 1.100000 28.08600
15162 SI 15162 SI SI1 15162 1.100000 28.08600
15163 SI 15163 SI SI1 15163 1.100000 28.08600
15164 SI 15164 SI SI1 15164 1.100000 28.08600
15165 SI 15165 SI SI1 15165 1.100000 28.08600
15166 SI 15166 SI SI1 15166 1.100000 28.08600
15167 SI 15167 SI SI1 15167 1.100000 28.08600
15168 SI 15168 SI SI1 15168 1.100000 28.08600
15169 SI 15169 SI SI1 15169 1.100000 28.08600
15170 SI 15170 SI SI1 15170 1.100000 28.08600
15171 SI 15171 SI SI1 15171 1.100000 28.08600
15172 SI 15172 SI SI1 15172 1.100000 28.08600
15173 SI 15173 SI SI1 15173 1.100000 28.08600
15174 SI 15174 SI SI1 15174 1.100000 28.08600
15175 SI 15175 SI SI1 15175 1.100000 28.08600
15176 SI 15176 SI SI1 15176 1.100000 28.08600
15177 SI 15177 SI SI1 15177 1.100000 28.08600
15178 SI 15178 SI SI1 15178 1.100000 28.08600
15179 SI 15179 SI SI1 15179 1.100000 28.08600
15180 SI 15180 SI SI1 15180 1.100000 28.08600
15181 SI 15181 SI SI1 15181 1.100000 28.08600
15182 SI 15182 SI SI1 15182 1.100000 28.08600
15183 SI 15183 SI SI1 15183 1.100000 28.08600
15184 SI 15184 SI SI1 15184 1.100000 28.08600
15185 SI 15185 SI SI1 15185 1.100000 28.08600
15186 SI 15186 SI SI1 15186 1.100000 28.08600
15187 SI 15187 SI SI1 15187 1.100000 28.08600
15188 SI 15188 SI SI1 15188 1.100000 28.08600
15189 SI 15189 SI SI1 15189 1.100000 28.08600
15190 SI 15190 SI SI1 15190 1.100000 28.08600
15191 SI 15191 SI SI1 15191 1.100000 28.08600
15192 SI 15192 SI SI1 15192 1.100000 28.08600
15193 SI 15193 SI SI1 15193 1.100000 28.08600
15194 SI 15194 SI SI1 15194 1.100000 28.08600
15195 SI 15195 SI SI1 15195 1.100000 28.08600
15196 SI 15196 SI SI1 15196 1.100000 28.08600
15197 SI 15197 SI SI1 15197 1.100000 28.08600
15198 SI 15198 SI SI1 15198 1.100000 28.08600
15199 SI 15199 SI SI1 15199 1.100000 28.08600
15200 SI 15200 SI SI1 15200 1.100000 28.08600
15201 SI 15201 SI SI1 15201 1.100000 28.08600
15202 SI 15202 SI SI1 15202 1.100000 28.08600
15203 SI 15203 SI SI1 15203 1.100000 28.08600
15204 SI 15204 SI SI1 15204 1.100000 28.08600
15205 SI 15205 SI SI1 15205 1.100000 28.08600
15206 SI 15206 SI SI1 15206 1.100000 28.08600
15207 SI 15207 SI SI1 15207 1.100000 28.08600
15208 SI 15208 SI SI1 15208 1.100000 28.08600
15209 SI 15209 SI SI1 15209 1.100000 28.08600
15210 SI 15210 SI SI1 15210 1.100000 28.08600
15211 SI 15211 SI SI1 15211 1.100000 28.08600
15212 SI 15212 SI SI1 15212 1.100000 28.08600
15213 SI 15213 SI SI1 15213 1.100000 28.08600
15214 SI 15214 SI SI1 15214 1.100000 28.08600
15215 SI 15215 SI SI1 15215 1.100000 28.08600
15216 SI 15216 SI SI1 15216 1.100000 28.08600
15217 SI 15217 SI SI1 15217 1.100000 28.08600
15218 SI 15218 SI SI1 15218 1.100000 28.08600
15219 SI 15219 SI SI1 15219 1.100000 28.08600
15220 SI 15220 SI SI1 15220 1.100000 28.08600
15221 SI 15221 SI SI1 15221 1.100000 28.08600
15222 SI 15222 SI SI1 15222 1.100000 28.08600
15223 SI 15223 SI SI1 15223 1.100000 28.08600
15224 SI 15224 SI SI1 15224 1.100000 28.08600
15225 SI 15225 SI SI1 15225 1.100000 28.08600
15226 SI 15226 SI SI1 15226 1.100000 28.08600
15227 SI 15227 SI SI1 15227 1.100000 28.08600
15228 SI 15228 SI SI1 15228 1.100000 28.08600
15229 SI 15229 SI SI1 15229 1.100000 28.08600
15230 SI 15230 SI SI1 15230 1.100000 28.08600
15231 SI 15231 SI SI1 15231 1.100000 28.08600
15232 SI 15232 SI SI1 15232 1.100000 28.08600
15233 SI 15233 SI SI1 15233 1.100000 28.08600
15234 SI 15234 SI SI1 15234 1.100000 28.08600
15235 SI 15235 SI SI1 15235 1.100000 28.08600
15236 SI 15236 SI SI1 15236 1.100000 28.08600
15237 SI 15237 SI SI1 15237 1.100000 28.08600
15238 SI 15238 SI SI1 15238 1.100000 28.08600
15239 SI 15239 SI SI1 15239 1.100000 28.08600
15240 SI 15240 SI SI1 15240 1.100000 28.08600
15241 SI 15241 SI SI1 15241 1.100000 28.08600
15242 SI 15242 SI SI1 15242 1.100000 28.08600
15243 SI 15243 SI SI1 15243 1.100000 28.08600
15244 SI 15244 SI SI1 15244 1.100000 28.08600
15245 SI 15245 SI SI1 15245 1.100000 28.08600
15246 SI 15246 SI SI1 15246 1.100000 28.08600
15247 SI 15247 SI SI1 15247 1.100000 28.08600
15248 SI 15248 SI SI1 15248 1.100000 28.08600
15249 SI 15249 SI SI1 15249 1.100000 28.08600
15250 SI 15250 SI SI1 15250 1.100000 28.08600
15251 SI 15251 SI SI1 15251 1.100000 28.08600
15252 SI 15252 SI SI1 15252 1.100000 28.08600
15253 SI 15253 SI SI1 15253 1.100000 28.08600
15254 SI 15254 SI SI1 15254 1.100000 28.08600
15255 SI 15255 SI SI1 15255 1.100000 28.08600
15256 SI 15256 SI SI1 15256 1.100000 28.08600
15257 SI 15257 SI SI1 15257 1.100000 28.08600
15258 SI 15258 SI SI1 15258 1.100000 28.08600
15259 SI 15259 SI SI1 15259 1.100000 28.08600
15260 SI 15260 SI SI1 15260 1.100000 28.08600
15261 SI 15261 SI SI1 15261 1.100000 28.08600
15262 SI 15262 SI SI1 15262 1.100000 28.08600
15263 SI 15263 SI SI1 15263 1.100000 28.08600
15264 SI 15264 SI SI1 15264 1.100000 28.08600
15265 SI 15265 SI SI1 15265 1.100000 28.08600
15266 SI 15266 SI SI1 15266 1.100000 28.08600
15267 SI 15267 SI SI1 15267 1.100000 28.08600
15268 SI 15268 SI SI1 15268 1.100000 28.08600
15269 SI 15269 SI SI1 15269 1.100000 28.08600
15270 SI 15270 SI SI1 15270 1.100000 28.08600
15271 SI 15271 SI SI1 15271 1.100000 28.08600
15272 SI 15272 SI SI1 15272 1.100000 28.08600
15273 SI 15273 SI SI1 15273 1.100000 28.08600
15274 SI 15274 SI SI1 15274 1.100000 28.08600
15275 SI 15275 SI SI1 15275 1.100000 28.08600
15276 SI 15276 SI SI1 15276 1.100000 28.08600
15277 SI 15277 SI SI1 15277 1.100000 28.08600
15278 SI 15278 SI SI1 15278 1.100000 28.08600
15279 SI 15279 SI SI1 15279 1.100000 28.08600
15280 SI 15280 SI SI1 15280 1.100000 28.08600
15281 SI 15281 SI SI1 15281 1.100000 28.08600
15282 SI 15282 SI SI1 15282 1.100000 28.08600
15283 SI 15283 SI SI1 15283 1.100000 28.08600
15284 SI 15284 SI SI1 15284 1.100000 28.08600
15285 SI 15285 SI SI1 15285 1.100000 28.08600
15286 SI 15286 SI SI1 15286 1.100000 28.08600
15287 SI 15287 SI SI1 15287 1.100000 28.08600
15288 SI 15288 SI SI1 15288 1.100000 28.08600
15289 SI 15289 SI SI1 15289 1.100000 28.08600
15290 SI 15290 SI SI1 15290 1.100000 28.08600
15291 SI 15291 SI SI1 15291 1.100000 28.08600
15292 SI 15292 SI SI1 15292 1.100000 28.08600
15293 SI 15293 SI SI1 15293 1.100000 28.08600
15294 SI 15294 SI SI1 15294 1.100000 28.08600
15295 SI 15295 SI SI1 15295 1.100000 28.08600
15296 SI 15296 SI SI1 15296 1.100000 28.08600
15297 SI 15297 SI SI1 15297 1.100000 28.08600
15298 SI 15298 SI SI1 15298 1.100000 28.08600
15299 SI 15299 SI SI1 15299 1.100000 28.08600
15300 SI 15300 SI SI1 15300 1.100000 28.08600
15301 SI 15301 SI SI1 15301 1.100000 28.08600
15302 SI 15302 SI SI1 15302 1.100000 28.08600
15303 SI 15303 SI SI1 15303 1.100000 28.08600
15304 SI 15304 SI SI1 15304 1.100000 28.08600
15305 SI 15305 SI SI1 15305 1.100000 28.08600
15306 SI 15306 SI SI1 15306 1.100000 28.08600
15307 SI 15307 SI SI1 15307 1.100000 28.08600
15308 SI 15308 SI SI1 15308 1.100000 28.08600
15309 SI 15309 SI SI1 15309 1.100000 28.08600
15310 SI 15310 SI SI1 15310 1.100000 28.08600
15311 SI 15311 SI SI1 15311 1.100000 28.08600
15312 SI 15312 SI SI1 15312 1.100000 28.08600
15313 SI 15313 SI SI1 15313 1.100000 28.08600
15314 SI 15314 SI SI1 15314 1.100000 28.08600
15315 SI 15315 SI SI1 15315 1.100000 28.08600
15316 SI 15316 SI SI1 15316 1.100000 28.08600
15317 SI 15317 SI SI1 15317 1.100000 28.08600
15318 SI 15318 SI SI1 15318 1.100000 28.08600
15319 SI 15319 SI SI1 15319 1.100000 28.08600
15320 SI 15320 SI SI1 15320 1.100000 28.08600
15321 SI 15321 SI SI1 15321 1.100000 28.08600
15322 SI 15322 SI SI1 15322 1.100000 28.08600
15323 SI 15323 SI SI1 15323 1.100000 28.08600
15324 SI 15324 SI SI1 15324 1.100000 28.08600
15325 SI 15325 SI SI1 15325 1.100000 28.08600
15326 SI 15326 SI SI1 15326 1.100000 28.08600
15327 SI 15327 SI SI1 15327 1.100000 28.08600
15328 SI 15328 SI SI1 15328 1.100000 28.08600
15329 SI 15329 SI SI1 15329 1.100000 28.08600
15330 SI 15330 SI SI1 15330 1.100000 28.08600
15331 SI 15331 SI SI1 15331 1.100000 28.08600
15332 SI 15332 SI SI1 15332 1.100000 28.08600
15333 SI 15333 SI SI1 15333 1.100000 28.08600
15334 SI 15334 SI SI1 15334 1.100000 28.08600
15335 SI 15335 SI SI1 15335 1.100000 28.08600
15336 SI 15336 SI SI1 15336 1.100000 28.08600
15337 SI 15337 SI SI1 15337 1.100000 28.08600
15338 SI 15338 SI SI1 15338 1.100000 28.08600
15339 SI 15339 SI SI1 15339 1.100000 28.08600
15340 SI 15340 SI SI1 15340 1.100000 28.08600
15341 SI 15341 SI SI1 15341 1.100000 28.08600
15342 SI 15342 SI SI1 15342 1.100000 28.08600
15343 SI 15343 SI SI1 15343 1.100000 28.08600
15344 SI 15344 SI SI1 15344 1.100000 28.08600
15345 SI 15345 SI SI1 15345 1.100000 28.08600
15346 SI 15346 SI SI1 15346 1.100000 28.08600
15347 SI 15347 SI SI1 15347 1.100000 28.08600
15348 SI 15348 SI SI1 15348 1.100000 28.08600
15349 SI 15349 SI SI1 15349 1.100000 28.08600
15350 SI 15350 SI SI1 15350 1.100000 28.08600
15351 SI 15351 SI SI1 15351 1.100000 28.08600
15352 SI 15352 SI SI1 15352 1.100000 28.08600
15353 SI 15353 SI SI1 15353 1.100000 28.08600
15354 SI 15354 SI SI1 15354 1.100000 28.08600
15355 SI 15355 SI SI1 15355 1.100000 28.08600
15356 SI 15356 SI SI1 15356 1.100000 28.08600
15357 SI 15357 SI SI1 15357 1.100000 28.08600
15358 SI 15358 SI SI1 15358 1.100000 28.08600
15359 SI 15359 SI SI1 15359 1.100000 28.08600
15360 SI 15360 SI SI1 15360 1.100000 28.08600
15361 SI 15361 SI SI1 15361 1.100000 28.08600
15362 SI 15362 SI SI1 15362 1.100000 28.08600
15363 SI 15363 SI SI1 15363 1.100000 28.08600
15364 SI 15364 SI SI1 15364 1.100000 28.08600
15365 SI 15365 SI SI1 15365 1.100000 28.08600
15366 SI 15366 SI SI1 15366 1.100000 28.08600
15367 SI 15367 SI SI1 15367 1.100000 28.08600
15368 SI 15368 SI SI1 15368 1.100000 28.08600
15369 SI 15369 SI SI1 15369 1.100000 28.08600
15370 SI 15370 SI SI1 15370 1.100000 28.08600
15371 SI 15371 SI SI1 15371 1.100000 28.08600
15372 SI 15372 SI SI1 15372 1.100000 28.08600
15373 SI 15373 SI SI1 15373 1.100000 28.08600
15374 SI 15374 SI SI1 15374 1.100000 28.08600
15375 SI 15375 SI SI1 15375 1.100000 28.08600
15376 SI 15376 SI SI1 15376 1.100000 28.08600
15377 SI 15377 SI SI1 15377 1.100000 28.08600
15378 SI 15378 SI SI1 15378 1.100000 28.08600
15379 SI 15379 SI SI1 15379 1.100000 28.08600
15380 SI 15380 SI SI1 15380 1.100000 28.08600
15381 SI 15381 SI SI1 15381 1.100000 28.08600
15382 SI 15382 SI SI1 15382 1.100000 28.08600
15383 SI 15383 SI SI1 15383 1.100000 28.08600
15384 SI 15384 SI SI1 15384 1.100000 28.08600
15385 SI 15385 SI SI1 15385 1.100000 28.08600
15386 SI 15386 SI SI1 15386 1.100000 28.08600
15387 SI 15387 SI SI1 15387 1.100000 28.08600
15388 SI 15388 SI SI1 15388 1.100000 28.08600
15389 SI 15389 SI SI1 15389 1.100000 28.08600
15390 SI 15390 SI SI1 15390 1.100000 28.08600
15391 SI 15391 SI SI1 15391 1.100000 28.08600
15392 SI 15392 SI SI1 15392 1.100000 28.08600
15393 SI 15393 SI SI1 15393 1.100000 28.08600
15394 SI 15394 SI SI1 15394 1.100000 28.08600
15395 SI 15395 SI SI1 15395 1.100000 28.08600
15396 SI 15396 SI SI1 15396 1.100000 28.08600
15397 SI 15397 SI SI1 15397 1.100000 28.08600
15398 SI 15398 SI SI1 15398 1.100000 28.08600
15399 SI 15399 SI SI1 15399 1.100000 28.08600
15400 SI 15400 SI SI1 15400 1.100000 28.08600
15401 SI 15401 SI SI1 15401 1.100000 28.08600
15402 SI 15402 SI SI1 15402 1.100000 28.08600
15403 SI 15403 SI SI1 15403 1.100000 28.08600
15404 SI 15404 SI SI1 15404 1.100000 28.08600
15405 SI 15405 SI SI1 15405 1.100000 28.08600
15406 SI 15406 SI SI1 15406 1.100000 28.08600
15407 SI 15407 SI SI1 15407 1.100000 28.08600
15408 SI 15408 SI SI1 15408 1.100000 28.08600
15409 SI 15409 SI SI1 15409 1.100000 28.08600
15410 SI 15410 SI SI1 15410 1.100000 28.08600
15411 SI 15411 SI SI1 15411 1.100000 28.08600
15412 SI 15412 SI SI1 15412 1.100000 28.08600
15413 SI 15413 SI SI1 15413 1.100000 28.08600
15414 SI 15414 SI SI1 15414 1.100000 28.08600
15415 SI 15415 SI SI1 15415 1.100000 28.08600
15416 SI 15416 SI SI1 15416 1.100000 28.08600
15417 SI 15417 SI SI1 15417 1.100000 28.08600
15418 SI 15418 SI SI1 15418 1.100000 28.08600
15419 SI 15419 SI SI1 15419 1.100000 28.08600
15420 SI 15420 SI SI1 15420 1.100000 28.08600
15421 SI 15421 SI SI1 15421 1.100000 28.08600
15422 SI 15422 SI SI1 15422 1.100000 28.08600
15423 SI 15423 SI SI1 15423 1.100000 28.08600
15424 SI 15424 SI SI1 15424 1.100000 28.08600
15425 SI 15425 SI SI1 15425 1.100000 28.08600
15426 SI 15426 SI SI1 15426 1.100000 28.08600
15427 SI 15427 SI SI1 15427 1.100000 28.08600
15428 SI 15428 SI SI1 15428 1.100000 28.08600
15429 SI 15429 SI SI1 15429 1.100000 28.08600
15430 SI 15430 SI SI1 15430 1.100000 28.08600
15431 SI 15431 SI SI1 15431 1.100000 28.08600
15432 SI 15432 SI SI1 15432 1.100000 28.08600
15433 SI 15433 SI SI1 15433 1.100000 28.08600
15434 SI 15434 SI SI1 15434 1.100000 28.08600
15435 SI 15435 SI SI1 15435 1.100000 28.08600
15436 SI 15436 SI SI1 15436 1.100000 28.08600
15437 SI 15437 SI SI1 15437 1.100000 28.08600
15438 SI 15438 SI SI1 15438 1.100000 28.08600
15439 SI 15439 SI SI1 15439 1.100000 28.08600
15440 SI 15440 SI SI1 15440 1.100000 28.08600
15441 SI 15441 SI SI1 15441 1.100000 28.08600
15442 SI 15442 SI SI1 15442 1.100000 28.08600
15443 SI 15443 SI SI1 15443 1.100000 28.08600
15444 SI 15444 SI SI1 15444 1.100000 28.08600
15445 SI 15445 SI SI1 15445 1.100000 28.08600
15446 SI 15446 SI SI1 15446 1.100000 28.08600
15447 SI 15447 SI SI1 15447 1.100000 28.08600
15448 SI 15448 SI SI1 15448 1.100000 28.08600
15449 SI 15449 SI SI1 15449 1.100000 28.08600
15450 SI 15450 SI SI1 15450 1.100000 28.08600
15451 SI 15451 SI SI1 15451 1.100000 28.08600
15452 SI 15452 SI SI1 15452 1.100000 28.08600
15453 SI 15453 SI SI1 15453 1.100000 28.08600
15454 SI 15454 SI SI1 15454 1.100000 28.08600
15455 SI 15455 SI SI1 15455 1.100000 28.08600
15456 SI 15456 SI SI1 15456 1.100000 28.08600
15457 SI 15457 SI SI1 15457 1.100000 28.08600
15458 SI 15458 SI SI1 15458 1.100000 28.08600
15459 SI 15459 SI SI1 15459 1.100000 28.08600
15460 SI 15460 SI SI1 15460 1.100000 28.08600
15461 SI 15461 SI SI1 15461 1.100000 28.08600
15462 SI 15462 SI SI1 15462 1.100000 28.08600
15463 SI 15463 SI SI1 15463 1.100000 28.08600
15464 SI 15464 SI SI1 15464 1.100000 28.08600
15465 SI 15465 SI SI1 15465 1.100000 28.08600
15466 SI 15466 SI SI1 15466 1.100000 28.08600
15467 SI 15467 SI SI1 15467 1.100000 28.08600
15468 SI 15468 SI SI1 15468 1.100000 28.08600
15469 SI 15469 SI SI1 15469 1.100000 28.08600
15470 SI 15470 SI SI1 15470 1.100000 28.08600
15471 SI 15471 SI SI1 15471 1.100000 28.08600
15472 SI 15472 SI SI1 15472 1.100000 28.08600
15473 SI 15473 SI SI1 15473 1.100000 28.08600
15474 SI 15474 SI SI1 15474 1.100000 28.08600
15475 SI 15475 SI SI1 15475 1.100000 28.08600
15476 SI 15476 SI SI1 15476 1.100000 28.08600
15477 SI 15477 SI SI1 15477 1.100000 28.08600
15478 SI 15478 SI SI1 15478 1.100000 28.08600
15479 SI 15479 SI SI1 15479 1.100000 28.08600
15480 SI 15480 SI SI1 15480 1.100000 28.08600
15481 SI 15481 SI SI1 15481 1.100000 28.08600
15482 SI 15482 SI SI1 15482 1.100000 28.08600
15483 SI 15483 SI SI1 15483 1.100000 28.08600
15484 SI 15484 SI SI1 15484 1.100000 28.08600
15485 SI 15485 SI SI1 15485 1.100000 28.08600
15486 SI 15486 SI SI1 15486 1.100000 28.08600
15487 SI 15487 SI SI1 15487 1.100000 28.08600
15488 SI 15488 SI SI1 15488 1.100000 28.08600
15489 SI 15489 SI SI1 15489 1.100000 28.08600
15490 SI 15490 SI SI1 15490 1.100000 28.08600
15491 SI 15491 SI SI1 15491 1.100000 28.08600
15492 SI 15492 SI SI1 15492 1.100000 28.08600
15493 SI 15493 SI SI1 15493 1.100000 28.08600
15494 SI 15494 SI SI1 15494 1.100000 28.08600
15495 SI 15495 SI SI1 15495 1.100000 28.08600
15496 SI 15496 SI SI1 15496 1.100000 28.08600
15497 SI 15497 SI SI1 15497 1.100000 28.08600
15498 SI 15498 SI SI1 15498 1.100000 28.08600
15499 SI 15499 SI SI1 15499 1.100000 28.08600
15500 SI 15500 SI SI1 15500 1.100000 28.08600
15501 SI 15501 SI SI1 15501 1.100000 28.08600
15502 SI 15502 SI SI1 15502 1.100000 28.08600
15503 SI 15503 SI SI1 15503 1.100000 28.08600
15504 SI 15504 SI SI1 15504 1.100000 28.08600
15505 SI 15505 SI SI1 15505 1.100000 28.08600
15506 SI 15506 SI SI1 15506 1.100000 28.08600
15507 SI 15507 SI SI1 15507 1.100000 28.08600
15508 SI 15508 SI SI1 15508 1.100000 28.08600
15509 SI 15509 SI SI1 15509 1.100000 28.08600
15510 SI 15510 SI SI1 15510 1.100000 28.08600
15511 SI 15511 SI SI1 15511 1.100000 28.08600
15512 SI 15512 SI SI1 15512 1.100000 28.08600
15513 SI 15513 SI SI1 15513 1.100000 28.08600
15514 SI 15514 SI SI1 15514 1.100000 28.08600
15515 SI 15515 SI SI1 15515 1.100000 28.08600
15516 SI 15516 SI SI1 15516 1.100000 28.08600
15517 SI 15517 SI SI1 15517 1.100000 28.08600
15518 SI 15518 SI SI1 15518 1.100000 28.08600
15519 SI 15519 SI SI1 15519 1.100000 28.08600
15520 SI 15520 SI SI1 15520 1.100000 28.08600
15521 SI 15521 SI SI1 15521 1.100000 28.08600
15522 SI 15522 SI SI1 15522 1.100000 28.08600
15523 SI 15523 SI SI1 15523 1.100000 28.08600
15524 SI 15524 SI SI1 15524 1.100000 28.08600
15525 SI 15525 SI SI1 15525 1.100000 28.08600
15526 SI 15526 SI SI1 15526 1.100000 28.08600
15527 SI 15527 SI SI1 15527 1.100000 28.08600
15528 SI 15528 SI SI1 15528 1.100000 28.08600
15529 SI 15529 SI SI1 15529 1.100000 28.08600
15530 SI 15530 SI SI1 15530 1.100000 28.08600
15531 SI 15531 SI SI1 15531 1.100000 28.08600
15532 SI 15532 SI SI1 15532 1.100000 28.08600
15533 SI 15533 SI SI1 15533 1.100000 28.08600
15534 SI 15534 SI SI1 15534 1.100000 28.08600
15535 SI 15535 SI SI1 15535 1.100000 28.08600
15536 SI 15536 SI SI1 15536 1.100000 28.08600
15537 SI 15537 SI SI1 15537 1.100000 28.08600
15538 SI 15538 SI SI1 15538 1.100000 28.08600
15539 SI 15539 SI SI1 15539 1.100000 28.08600
15540 SI 15540 SI SI1 15540 1.100000 28.08600
15541 SI 15541 SI SI1 15541 1.100000 28.08600
15542 SI 15542 SI SI1 15542 1.100000 28.08600
15543 SI 15543 SI SI1 15543 1.100000 28.08600
15544 SI 15544 SI SI1 15544 1.100000 28.08600
15545 SI 15545 SI SI1 15545 1.100000 28.08600
15546 SI 15546 SI SI1 15546 1.100000 28.08600
15547 SI 15547 SI SI1 15547 1.100000 28.08600
15548 SI 15548 SI SI1 15548 1.100000 28.08600
15549 SI 15549 SI SI1 15549 1.100000 28.08600
15550 SI 15550 SI SI1 15550 1.100000 28.08600
15551 SI 15551 SI SI1 15551 1.100000 28.08600
15552 SI 15552 SI SI1 15552 1.100000 28.08600
15553 SI 15553 SI SI1 15553 1.100000 28.08600
15554 SI 15554 SI SI1 15554 1.100000 28.08600
15555 SI 15555 SI SI1 15555 1.100000 28.08600
15556 SI 15556 SI SI1 15556 1.100000 28.08600
15557 SI 15557 SI SI1 15557 1.100000 28.08600
15558 SI 15558 SI SI1 15558 1.100000 28.08600
15559 SI 15559 SI SI1 15559 1.100000 28.08600
15560 SI 15560 SI SI1 15560 1.100000 28.08600
15561 SI 15561 SI SI1 15561 1.100000 28.08600
15562 SI 15562 SI SI1 15562 1.100000 28.08600
15563 SI 15563 SI SI1 15563 1.100000 28.08600
15564 SI 15564 SI SI1 15564 1.100000 28.08600
15565 SI 15565 SI SI1 15565 1.100000 28.08600
15566 SI 15566 SI SI1 15566 1.100000 28.08600
15567 SI 15567 SI SI1 15567 1.100000 28.08600
15568 SI 15568 SI SI1 15568 1.100000 28.08600
15569 SI 15569 SI SI1 15569 1.100000 28.08600
15570 SI 15570 SI SI1 15570 1.100000 28.08600
15571 SI 15571 SI SI1 15571 1.100000 28.08600
15572 SI 15572 SI SI1 15572 1.100000 28.08600
15573 SI 15573 SI SI1 15573 1.100000 28.08600
15574 SI 15574 SI SI1 15574 1.100000 28.08600
15575 SI 15575 SI SI1 15575 1.100000 28.08600
15576 SI 15576 SI SI1 15576 1.100000 28.08600
15577 SI 15577 SI SI1 15577 1.100000 28.08600
15578 SI 15578 SI SI1 15578 1.100000 28.08600
15579 SI 15579 SI SI1 15579 1.100000 28.08600
15580 SI 15580 SI SI1 15580 1.100000 28.08600
15581 SI 15581 SI SI1 15581 1.100000 28.08600
15582 SI 15582 SI SI1 15582 1.100000 28.08600
15583 SI 15583 SI SI1 15583 1.100000 28.08600
15584 SI 15584 SI SI1 15584 1.100000 28.08600
15585 SI 15585 SI SI1 15585 1.100000 28.08600
15586 SI 15586 SI SI1 15586 1.100000 28.08600
15587 SI 15587 SI SI1 15587 1.100000 28.08600
15588 SI 15588 SI SI1 15588 1.100000 28.08600
15589 SI 15589 SI SI1 15589 1.100000 28.08600
15590 SI 15590 SI SI1 15590 1.100000 28.08600
15591 SI 15591 SI SI1 15591 1.100000 28.08600
15592 SI 15592 SI SI1 15592 1.100000 28.08600
15593 SI 15593 SI SI1 15593 1.100000 28.08600
15594 SI 15594 SI SI1 15594 1.100000 28.08600
15595 SI 15595 SI SI1 15595 1.100000 28.08600
15596 SI 15596 SI SI1 15596 1.100000 28.08600
15597 SI 15597 SI SI1 15597 1.100000 28.08600
15598 SI 15598 SI SI1 15598 1.100000 28.08600
15599 SI 15599 SI SI1 15599 1.100000 28.08600
15600 SI 15600 SI SI1 15600 1.100000 28.08600
15601 SI 15601 SI SI1 15601 1.100000 28.08600
15602 SI 15602 SI SI1 15602 1.100000 28.08600
15603 SI 15603 SI SI1 15603 1.100000 28.08600
15604 SI 15604 SI SI1 15604 1.100000 28.08600
15605 SI 15605 SI SI1 15605 1.100000 28.08600
15606 SI 15606 SI SI1 15606 1.100000 28.08600
15607 SI 15607 SI SI1 15607 1.100000 28.08600
15608 SI 15608 SI SI1 15608 1.100000 28.08600
15609 SI 15609 SI SI1 15609 1.100000 28.08600
15610 SI 15610 SI SI1 15610 1.100000 28.08600
15611 SI 15611 SI SI1 15611 1.100000 28.08600
15612 SI 15612 SI SI1 15612 1.100000 28.08600
15613 SI 15613 SI SI1 15613 1.100000 28.08600
15614 SI 15614 SI SI1 15614 1.100000 28.08600
15615 SI 15615 SI SI1 15615 1.100000 28.08600
15616 SI 15616 SI SI1 15616 1.100000 28.08600
15617 SI 15617 SI SI1 15617 1.100000 28.08600
15618 SI 15618 SI SI1 15618 1.100000 28.08600
15619 SI 15619 SI SI1 15619 1.100000 28.08600
15620 SI 15620 SI SI1 15620 1.100000 28.08600
15621 SI 15621 SI SI1 15621 1.100000 28.08600
15622 SI 15622 SI SI1 15622 1.100000 28.08600
15623 SI 15623 SI SI1 15623 1.100000 28.08600
15624 SI 15624 SI SI1 15624 1.100000 28.08600
15625 SI 15625 SI SI1 15625 1.100000 28.08600
15626 SI 15626 SI SI1 15626 1.100000 28.08600
15627 SI 15627 SI SI1 15627 1.100000 28.08600
15628 SI 15628 SI SI1 15628 1.100000 28.08600
15629 SI 15629 SI SI1 15629 1.100000 28.08600
15630 SI 15630 SI SI1 15630 1.100000 28.08600
15631 SI 15631 SI SI1 15631 1.100000 28.08600
15632 SI 15632 SI SI1 15632 1.100000 28.08600
15633 SI 15633 SI SI1 15633 1.100000 28.08600
15634 SI 15634 SI SI1 15634 1.100000 28.08600
15635 SI 15635 SI SI1 15635 1.100000 28.08600
15636 SI 15636 SI SI1 15636 1.100000 28.08600
15637 SI 15637 SI SI1 15637 1.100000 28.08600
15638 SI 15638 SI SI1 15638 1.100000 28.08600
15639 SI 15639 SI SI1 15639 1.100000 28.08600
15640 SI 15640 SI SI1 15640 1.100000 28.08600
15641 SI 15641 SI SI1 15641 1.100000 28.08600
15642 SI 15642 SI SI1 15642 1.100000 28.08600
15643 SI 15643 SI SI1 15643 1.100000 28.08600
15644 SI 15644 SI SI1 15644 1.100000 28.08600
15645 SI 15645 SI SI1 15645 1.100000 28.08600
15646 SI 15646 SI SI1 15646 1.100000 28.08600
15647 SI 15647 SI SI1 15647 1.100000 28.08600
15648 SI 15648 SI SI1 15648 1.100000 28.08600
15649 SI 15649 SI SI1 15649 1.100000 28.08600
15650 SI 15650 SI SI1 15650 1.100000 28.08600
15651 SI 15651 SI SI1 15651 1.100000 28.08600
15652 SI 15652 SI SI1 15652 1.100000 28.08600
15653 SI 15653 SI SI1 15653 1.100000 28.08600
15654 SI 15654 SI SI1 15654 1.100000 28.08600
15655 SI 15655 SI SI1 15655 1.100000 28.08600
15656 SI 15656 SI SI1 15656 1.100000 28.08600
15657 SI 15657 SI SI1 15657 1.100000 28.08600
15658 SI 15658 SI SI1 15658 1.100000 28.08600
15659 SI 15659 SI SI1 15659 1.100000 28.08600
15660 SI 15660 SI SI1 15660 1.100000 28.08600
15661 SI 15661 SI SI1 15661 1.100000 28.08600
15662 SI 15662 SI SI1 15662 1.100000 28.08600
15663 SI 15663 SI SI1 15663 1.100000 28.08600
15664 SI 15664 SI SI1 15664 1.100000 28.08600
15665 SI 15665 SI SI1 15665 1.100000 28.08600
15666 SI 15666 SI SI1 15666 1.100000 28.08600
15667 SI 15667 SI SI1 15667 1.100000 28.08600
15668 SI 15668 SI SI1 15668 1.100000 28.08600
15669 SI 15669 SI SI1 15669 1.100000 28.08600
15670 SI 15670 SI SI1 15670 1.100000 28.08600
15671 SI 15671 SI SI1 15671 1.100000 28.08600
15672 SI 15672 SI SI1 15672 1.100000 28.08600
15673 SI 15673 SI SI1 15673 1.100000 28.08600
15674 SI 15674 SI SI1 15674 1.100000 28.08600
15675 SI 15675 SI SI1 15675 1.100000 28.08600
15676 SI 15676 SI SI1 15676 1.100000 28.08600
15677 SI 15677 SI SI1 15677 1.100000 28.08600
15678 SI 15678 SI SI1 15678 1.100000 28.08600
15679 SI 15679 SI SI1 15679 1.100000 28.08600
15680 SI 15680 SI SI1 15680 1.100000 28.08600
15681 SI 15681 SI SI1 15681 1.100000 28.08600
15682 SI 15682 SI SI1 15682 1.100000 28.08600
15683 SI 15683 SI SI1 15683 1.100000 28.08600
15684 SI 15684 SI SI1 15684 1.100000 28.08600
15685 SI 15685 SI SI1 15685 1.100000 28.08600
15686 SI 15686 SI SI1 15686 1.100000 28.08600
15687 SI 15687 SI SI1 15687 1.100000 28.08600
15688 SI 15688 SI SI1 15688 1.100000 28.08600
15689 SI 15689 SI SI1 15689 1.100000 28.08600
15690 SI 15690 SI SI1 15690 1.100000 28.08600
15691 SI 15691 SI SI1 15691 1.100000 28.08600
15692 SI 15692 SI SI1 15692 1.100000 28.08600
15693 SI 15693 SI SI1 15693 1.100000 28.08600
15694 SI 15694 SI SI1 15694 1.100000 28.08600
15695 SI 15695 SI SI1 15695 1.100000 28.08600
15696 SI 15696 SI SI1 15696 1.100000 28.08600
15697 SI 15697 SI SI1 15697 1.100000 28.08600
15698 SI 15698 SI SI1 15698 1.100000 28.08600
15699 SI 15699 SI SI1 15699 1.100000 28.08600
15700 SI 15700 SI SI1 15700 1.100000 28.08600
15701 SI 15701 SI SI1 15701 1.100000 28.08600
15702 SI 15702 SI SI1 15702 1.100000 28.08600
15703 SI 15703 SI SI1 15703 1.100000 28.08600
15704 SI 15704 SI SI1 15704 1.100000 28.08600
15705 SI 15705 SI SI1 15705 1.100000 28.08600
15706 SI 15706 SI SI1 15706 1.100000 28.08600
15707 SI 15707 SI SI1 15707 1.100000 28.08600
15708 SI 15708 SI SI1 15708 1.100000 28.08600
15709 SI 15709 SI SI1 15709 1.100000 28.08600
15710 SI 15710 SI SI1 15710 1.100000 28.08600
15711 SI 15711 SI SI1 15711 1.100000 28.08600
15712 SI 15712 SI SI1 15712 1.100000 28.08600
15713 SI 15713 SI SI1 15713 1.100000 28.08600
15714 SI 15714 SI SI1 15714 1.100000 28.08600
15715 SI 15715 SI SI1 15715 1.100000 28.08600
15716 SI 15716 SI SI1 15716 1.100000 28.08600
15717 SI 15717 SI SI1 15717 1.100000 28.08600
15718 SI 15718 SI SI1 15718 1.100000 28.08600
15719 SI 15719 SI SI1 15719 1.100000 28.08600
15720 SI 15720 SI SI1 15720 1.100000 28.08600
15721 SI 15721 SI SI1 15721 1.100000 28.08600
15722 SI 15722 SI SI1 15722 1.100000 28.08600
15723 SI 15723 SI SI1 15723 1.100000 28.08600
15724 SI 15724 SI SI1 15724 1.100000 28.08600
15725 SI 15725 SI SI1 15725 1.100000 28.08600
15726 SI 15726 SI SI1 15726 1.100000 28.08600
15727 SI 15727 SI SI1 15727 1.100000 28.08600
15728 SI 15728 SI SI1 15728 1.100000 28.08600
15729 SI 15729 SI SI1 15729 1.100000 28.08600
15730 SI 15730 SI SI1 15730 1.100000 28.08600
15731 SI 15731 SI SI1 15731 1.100000 28.08600
15732 SI 15732 SI SI1 15732 1.100000 28.08600
15733 SI 15733 SI SI1 15733 1.100000 28.08600
15734 SI 15734 SI SI1 15734 1.100000 28.08600
15735 SI 15735 SI SI1 15735 1.100000 28.08600
15736 SI 15736 SI SI1 15736 1.100000 28.08600
15737 SI 15737 SI SI1 15737 1.100000 28.08600
15738 SI 15738 SI SI1 15738 1.100000 28.08600
15739 SI 15739 SI SI1 15739 1.100000 28.08600
15740 SI 15740 SI SI1 15740 1.100000 28.08600
15741 SI 15741 SI SI1 15741 1.100000 28.08600
15742 SI 15742 SI SI1 15742 1.100000 28.08600
15743 SI 15743 SI SI1 15743 1.100000 28.08600
15744 SI 15744 SI SI1 15744 1.100000 28.08600
15745 SI 15745 SI SI1 15745 1.100000 28.08600
15746 SI 15746 SI SI1 15746 1.100000 28.08600
15747 SI 15747 SI SI1 15747 1.100000 28.08600
15748 SI 15748 SI SI1 15748 1.100000 28.08600
15749 SI 15749 SI SI1 15749 1.100000 28.08600
15750 SI 15750 SI SI1 15750 1.100000 28.08600
15751 SI 15751 SI SI1 15751 1.100000 28.08600
15752 SI 15752 SI SI1 15752 1.100000 28.08600
15753 SI 15753 SI SI1 15753 1.100000 28.08600
15754 SI 15754 SI SI1 15754 1.100000 28.08600
15755 SI 15755 SI SI1 15755 1.100000 28.08600
15756 SI 15756 SI SI1 15756 1.100000 28.08600
15757 SI 15757 SI SI1 15757 1.100000 28.08600
15758 SI 15758 SI SI1 15758 1.100000 28.08600
15759 SI 15759 SI SI1 15759 1.100000 28.08600
15760 SI 15760 SI SI1 15760 1.100000 28.08600
15761 SI 15761 SI SI1 15761 1.100000 28.08600
15762 SI 15762 SI SI1 15762 1.100000 28.08600
15763 SI 15763 SI SI1 15763 1.100000 28.08600
15764 SI 15764 SI SI1 15764 1.100000 28.08600
15765 SI 15765 SI SI1 15765 1.100000 28.08600
15766 SI 15766 SI SI1 15766 1.100000 28.08600
15767 SI 15767 SI SI1 15767 1.100000 28.08600
15768 SI 15768 SI SI1 15768 1.100000 28.08600
15769 SI 15769 SI SI1 15769 1.100000 28.08600
15770 SI 15770 SI SI1 15770 1.100000 28.08600
15771 SI 15771 SI SI1 15771 1.100000 28.08600
15772 SI 15772 SI SI1 15772 1.100000 28.08600
15773 SI 15773 SI SI1 15773 1.100000 28.08600
15774 SI 15774 SI SI1 15774 1.100000 28.08600
15775 SI 15775 SI SI1 15775 1.100000 28.08600
15776 SI 15776 SI SI1 15776 1.100000 28.08600
15777 SI 15777 SI SI1 15777 1.100000 28.08600
15778 SI 15778 SI SI1 15778 1.100000 28.08600
15779 SI 15779 SI SI1 15779 1.100000 28.08600
15780 SI 15780 SI SI1 15780 1.100000 28.08600
15781 SI 15781 SI SI1 15781 1.100000 28.08600
15782 SI 15782 SI SI1 15782 1.100000 28.08600
15783 SI 15783 SI SI1 15783 1.100000 28.08600
15784 SI 15784 SI SI1 15784 1.100000 28.08600
15785 SI 15785 SI SI1 15785 1.100000 28.08600
15786 SI 15786 SI SI1 15786 1.100000 28.08600
15787 SI 15787 SI SI1 15787 1.100000 28.08600
15788 SI 15788 SI SI1 15788 1.100000 28.08600
15789 SI 15789 SI SI1 15789 1.100000 28.08600
15790 SI 15790 SI SI1 15790 1.100000 28.08600
15791 SI 15791 SI SI1 15791 1.100000 28.08600
15792 SI 15792 SI SI1 15792 1.100000 28.08600
15793 SI 15793 SI SI1 15793 1.100000 28.08600
15794 SI 15794 SI SI1 15794 1.100000 28.08600
15795 SI 15795 SI SI1 15795 1.100000 28.08600
15796 SI 15796 SI SI1 15796 1.100000 28.08600
15797 SI 15797 SI SI1 15797 1.100000 28.08600
15798 SI 15798 SI SI1 15798 1.100000 28.08600
15799 SI 15799 SI SI1 15799 1.100000 28.08600
15800 SI 15800 SI SI1 15800 1.100000 28.08600
15801 SI 15801 SI SI1 15801 1.100000 28.08600
15802 SI 15802 SI SI1 15802 1.100000 28.08600
15803 SI 15803 SI SI1 15803 1.100000 28.08600
15804 SI 15804 SI SI1 15804 1.100000 28.08600
15805 SI 15805 SI SI1 15805 1.100000 28.08600
15806 SI 15806 SI SI1 15806 1.100000 28.08600
15807 SI 15807 SI SI1 15807 1.100000 28.08600
15808 SI 15808 SI SI1 15808 1.100000 28.08600
15809 SI 15809 SI SI1 15809 1.100000 28.08600
15810 SI 15810 SI SI1 15810 1.100000 28.08600
15811 SI 15811 SI SI1 15811 1.100000 28.08600
15812 SI 15812 SI SI1 15812 1.100000 28.08600
15813 SI 15813 SI SI1 15813 1.100000 28.08600
15814 SI 15814 SI SI1 15814 1.100000 28.08600
15815 SI 15815 SI SI1 15815 1.100000 28.08600
15816 SI 15816 SI SI1 15816 1.100000 28.08600
15817 SI 15817 SI SI1 15817 1.100000 28.08600
15818 SI 15818 SI SI1 15818 1.100000 28.08600
15819 SI 15819 SI SI1 15819 1.100000 28.08600
15820 SI 15820 SI SI1 15820 1.100000 28.08600
15821 SI 15821 SI SI1 15821 1.100000 28.08600
15822 SI 15822 SI SI1 15822 1.100000 28.08600
15823 SI 15823 SI SI1 15823 1.100000 28.08600
15824 SI 15824 SI SI1 15824 1.100000 28.08600
15825 SI 15825 SI SI1 15825 1.100000 28.08600
15826 SI 15826 SI SI1 15826 1.100000 28.08600
15827 SI 15827 SI SI1 15827 1.100000 28.08600
15828 SI 15828 SI SI1 15828 1.100000 28.08600
15829 SI 15829 SI SI1 15829 1.100000 28.08600
15830 SI 15830 SI SI1 15830 1.100000 28.08600
15831 SI 15831 SI SI1 15831 1.100000 28.08600
15832 SI 15832 SI SI1 15832 1.100000 28.08600
15833 SI 15833 SI SI1 15833 1.100000 28.08600
15834 SI 15834 SI SI1 15834 1.100000 28.08600
15835 SI 15835 SI SI1 15835 1.100000 28.08600
15836 SI 15836 SI SI1 15836 1.100000 28.08600
15837 SI 15837 SI SI1 15837 1.100000 28.08600
15838 SI 15838 SI SI1 15838 1.100000 28.08600
15839 SI 15839 SI SI1 15839 1.100000 28.08600
15840 SI 15840 SI SI1 15840 1.100000 28.08600
15841 SI 15841 SI SI1 15841 1.100000 28.08600
15842 SI 15842 SI SI1 15842 1.100000 28.08600
15843 SI 15843 SI SI1 15843 1.100000 28.08600
15844 SI 15844 SI SI1 15844 1.100000 28.08600
15845 SI 15845 SI SI1 15845 1.100000 28.08600
15846 SI 15846 SI SI1 15846 1.100000 28.08600
15847 SI 15847 SI SI1 15847 1.100000 28.08600
15848 SI 15848 SI SI1 15848 1.100000 28.08600
15849 SI 15849 SI SI1 15849 1.100000 28.08600
15850 SI 15850 SI SI1 15850 1.100000 28.08600
15851 SI 15851 SI SI1 15851 1.100000 28.08600
15852 SI 15852 SI SI1 15852 1.100000 28.08600
15853 SI 15853 SI SI1 15853 1.100000 28.08600
15854 SI 15854 SI SI1 15854 1.100000 28.08600
15855 SI 15855 SI SI1 15855 1.100000 28.08600
15856 SI 15856 SI SI1 15856 1.100000 28.08600
15857 SI 15857 SI SI1 15857 1.100000 28.08600
15858 SI 15858 SI SI1 15858 1.100000 28.08600
15859 SI 15859 SI SI1 15859 1.100000 28.08600
15860 SI 15860 SI SI1 15860 1.100000 28.08600
15861 SI 15861 SI SI1 15861 1.100000 28.08600
15862 SI 15862 SI SI1 15862 1.100000 28.08600
15863 SI 15863 SI SI1 15863 1.100000 28.08600
15864 SI 15864 SI SI1 15864 1.100000 28.08600
15865 SI 15865 SI SI1 15865 1.100000 28.08600
15866 SI 15866 SI SI1 15866 1.100000 28.08600
15867 SI 15867 SI SI1 15867 1.100000 28.08600
15868 SI 15868 SI SI1 15868 1.100000 28.08600
15869 SI 15869 SI SI1 15869 1.100000 28.08600
15870 SI 15870 SI SI1 15870 1.100000 28.08600
15871 SI 15871 SI SI1 15871 1.100000 28.08600
15872 SI 15872 SI SI1 15872 1.100000 28.08600
15873 SI 15873 SI SI1 15873 1.100000 28.08600
15874 SI 15874 SI SI1 15874 1.100000 28.08600
15875 SI 15875 SI SI1 15875 1.100000 28.08600
15876 SI 15876 SI SI1 15876 1.100000 28.08600
15877 SI 15877 SI SI1 15877 1.100000 28.08600
15878 SI 15878 SI SI1 15878 1.100000 28.08600
15879 SI 15879 SI SI1 15879 1.100000 28.08600
15880 SI 15880 SI SI1 15880 1.100000 28.08600
15881 SI 15881 SI SI1 15881 1.100000 28.08600
15882 SI 15882 SI SI1 15882 1.100000 28.08600
15883 SI 15883 SI SI1 15883 1.100000 28.08600
15884 SI 15884 SI SI1 15884 1.100000 28.08600
15885 SI 15885 SI SI1 15885 1.100000 28.08600
15886 SI 15886 SI SI1 15886 1.100000 28.08600
15887 SI 15887 SI SI1 15887 1.100000 28.08600
15888 SI 15888 SI SI1 15888 1.100000 28.08600
15889 SI 15889 SI SI1 15889 1.100000 28.08600
15890 SI 15890 SI SI1 15890 1.100000 28.08600
15891 SI 15891 SI SI1 15891 1.100000 28.08600
15892 SI 15892 SI SI1 15892 1.100000 28.08600
15893 SI 15893 SI SI1 15893 1.100000 28.08600
15894 SI 15894 SI SI1 15894 1.100000 28.08600
15895 SI 15895 SI SI1 15895 1.100000 28.08600
15896 SI 15896 SI SI1 15896 1.100000 28.08600
15897 SI 15897 SI SI1 15897 1.100000 28.08600
15898 SI 15898 SI SI1 15898 1.100000 28.08600
15899 SI 15899 SI SI1 15899 1.100000 28.08600
15900 SI 15900 SI SI1 15900 1.100000 28.08600
15901 SI 15901 SI SI1 15901 1.100000 28.08600
15902 SI 15902 SI SI1 15902 1.100000 28.08600
15903 SI 15903 SI SI1 15903 1.100000 28.08600
15904 SI 15904 SI SI1 15904 1.100000 28.08600
15905 SI 15905 SI SI1 15905 1.100000 28.08600
15906 SI 15906 SI SI1 15906 1.100000 28.08600
15907 SI 15907 SI SI1 15907 1.100000 28.08600
15908 SI 15908 SI SI1 15908 1.100000 28.08600
15909 SI 15909 SI SI1 15909 1.100000 28.08600
15910 SI 15910 SI SI1 15910 1.100000 28.08600
15911 SI 15911 SI SI1 15911 1.100000 28.08600
15912 SI 15912 SI SI1 15912 1.100000 28.08600
15913 SI 15913 SI SI1 15913 1.100000 28.08600
15914 SI 15914 SI SI1 15914 1.100000 28.08600
15915 SI 15915 SI SI1 15915 1.100000 28.08600
15916 SI 15916 SI SI1 15916 1.100000 28.08600
15917 SI 15917 SI SI1 15917 1.100000 28.08600
15918 SI 15918 SI SI1 15918 1.100000 28.08600
15919 SI 15919 SI SI1 15919 1.100000 28.08600
15920 SI 15920 SI SI1 15920 1.100000 28.08600
15921 SI 15921 SI SI1 15921 1.100000 28.08600
15922 SI 15922 SI SI1 15922 1.100000 28.08600
15923 SI 15923 SI SI1 15923 1.100000 28.08600
15924 SI 15924 SI SI1 15924 1.100000 28.08600
15925 SI 15925 SI SI1 15925 1.100000 28.08600
15926 SI 15926 SI SI1 15926 1.100000 28.08600
15927 SI 15927 SI SI1 15927 1.100000 28.08600
15928 SI 15928 SI SI1 15928 1.100000 28.08600
15929 SI 15929 SI SI1 15929 1.100000 28.08600
15930 SI 15930 SI SI1 15930 1.100000 28.08600
15931 SI 15931 SI SI1 15931 1.100000 28.08600
15932 SI 15932 SI SI1 15932 1.100000 28.08600
15933 SI 15933 SI SI1 15933 1.100000 28.08600
15934 SI 15934 SI SI1 15934 1.100000 28.08600
15935 SI 15935 SI SI1 15935 1.100000 28.08600
15936 SI 15936 SI SI1 15936 1.100000 28.08600
15937 SI 15937 SI SI1 15937 1.100000 28.08600
15938 SI 15938 SI SI1 15938 1.100000 28.08600
15939 SI 15939 SI SI1 15939 1.100000 28.08600
15940 SI 15940 SI SI1 15940 1.100000 28.08600
15941 SI 15941 SI SI1 15941 1.100000 28.08600
15942 SI 15942 SI SI1 15942 1.100000 28.08600
15943 SI 15943 SI SI1 15943 1.100000 28.08600
15944 SI 15944 SI SI1 15944 1.100000 28.08600
15945 SI 15945 SI SI1 15945 1.100000 28.08600
15946 SI 15946 SI SI1 15946 1.100000 28.08600
15947 SI 15947 SI SI1 15947 1.100000 28.08600
15948 SI 15948 SI SI1 15948 1.100000 28.08600
15949 SI 15949 SI SI1 15949 1.100000 28.08600
15950 SI 15950 SI SI1 15950 1.100000 28.08600
15951 SI 15951 SI SI1 15951 1.100000 28.08600
15952 SI 15952 SI SI1 15952 1.100000 28.08600
15953 SI 15953 SI SI1 15953 1.100000 28.08600
15954 SI 15954 SI SI1 15954 1.100000 28.08600
15955 SI 15955 SI SI1 15955 1.100000 28.08600
15956 SI 15956 SI SI1 15956 1.100000 28.08600
15957 SI 15957 SI SI1 15957 1.100000 28.08600
15958 SI 15958 SI SI1 15958 1.100000 28.08600
15959 SI 15959 SI SI1 15959 1.100000 28.08600
15960 SI 15960 SI SI1 15960 1.100000 28.08600
15961 SI 15961 SI SI1 15961 1.100000 28.08600
15962 SI 15962 SI SI1 15962 1.100000 28.08600
15963 SI 15963 SI SI1 15963 1.100000 28.08600
15964 SI 15964 SI SI1 15964 1.100000 28.08600
15965 SI 15965 SI SI1 15965 1.100000 28.08600
15966 SI 15966 SI SI1 15966 1.100000 28.08600
15967 SI 15967 SI SI1 15967 1.100000 28.08600
15968 SI 15968 SI SI1 15968 1.100000 28.08600
15969 SI 15969 SI SI1 15969 1.100000 28.08600
15970 SI 15970 SI SI1 15970 1.100000 28.08600
15971 SI 15971 SI SI1 15971 1.100000 28.08600
15972 SI 15972 SI SI1 15972 1.100000 28.08600
15973 SI 15973 SI SI1 15973 1.100000 28.08600
15974 SI 15974 SI SI1 15974 1.100000 28.08600
15975 SI 15975 SI SI1 15975 1.100000 28.08600
15976 SI 15976 SI SI1 15976 1.100000 28.08600
15977 SI 15977 SI SI1 15977 1.100000 28.08600
15978 SI 15978 SI SI1 15978 1.100000 28.08600
15979 SI 15979 SI SI1 15979 1.100000 28.08600
15980 SI 15980 SI SI1 15980 1.100000 28.08600
15981 SI 15981 SI SI1 15981 1.100000 28.08600
15982 SI 15982 SI SI1 15982 1.100000 28.08600
15983 SI 15983 SI SI1 15983 1.100000 28.08600
15984 SI 15984 SI SI1 15984 1.100000 28.08600
15985 SI 15985 SI SI1 15985 1.100000 28.08600
15986 SI 15986 SI SI1 15986 1.100000 28.08600
15987 SI 15987 SI SI1 15987 1.100000 28.08600
15988 SI 15988 SI SI1 15988 1.100000 28.08600
15989 SI 15989 SI SI1 15989 1.100000 28.08600
15990 SI 15990 SI SI1 15990 1.100000 28.08600
15991 SI 15991 SI SI1 15991 1.100000 28.08600
15992 SI 15992 SI SI1 15992 1.100000 28.08600
15993 SI 15993 SI SI1 15993 1.100000 28.08600
15994 SI 15994 SI SI1 15994 1.100000 28.08600
15995 SI 15995 SI SI1 15995 1.100000 28.08600
15996 SI 15996 SI SI1 15996 1.100000 28.08600
15997 SI 15997 SI SI1 15997 1.100000 28.08600
15998 SI 15998 SI SI1 15998 1.100000 28.08600
15999 SI 15999 SI SI1 15999 1.100000 28.08600
16000 SI 16000 SI SI1 16000 1.100000 28.08600
16001 SI 16001 SI SI1 16001 1.100000 28.08600
16002 SI 16002 SI SI1 16002 1.100000 28.08600
16003 SI 16003 SI SI1 16003 1.100000 28.08600
16004 SI 16004 SI SI1 16004 1.100000 28.08600
16005 SI 16005 SI SI1 16005 1.100000 28.08600
16006 SI 16006 SI SI1 16006 1.100000 28.08600
16007 SI 16007 SI SI1 16007 1.100000 28.08600
16008 SI 16008 SI SI1 16008 1.100000 28.08600
16009 SI 16009 SI SI1 16009 1.100000 28.08600
16010 SI 16010 SI SI1 16010 1.100000 28.08600
16011 SI 16011 SI SI1 16011 1.100000 28.08600
16012 SI 16012 SI SI1 16012 1.100000 28.08600
16013 SI 16013 SI SI1 16013 1.100000 28.08600
16014 SI 16014 SI SI1 16014 1.100000 28.08600
16015 SI 16015 SI SI1 16015 1.100000 28.08600
16016 SI 16016 SI SI1 16016 1.100000 28.08600
16017 SI 16017 SI SI1 16017 1.100000 28.08600
16018 SI 16018 SI SI1 16018 1.100000 28.08600
16019 SI 16019 SI SI1 16019 1.100000 28.08600
16020 SI 16020 SI SI1 16020 1.100000 28.08600
16021 SI 16021 SI SI1 16021 1.100000 28.08600
16022 SI 16022 SI SI1 16022 1.100000 28.08600
16023 SI 16023 SI SI1 16023 1.100000 28.08600
16024 SI 16024 SI SI1 16024 1.100000 28.08600
16025 SI 16025 SI SI1 16025 1.100000 28.08600
16026 SI 16026 SI SI1 16026 1.100000 28.08600
16027 SI 16027 SI SI1 16027 1.100000 28.08600
16028 SI 16028 SI SI1 16028 1.100000 28.08600
16029 SI 16029 SI SI1 16029 1.100000 28.08600
16030 SI 16030 SI SI1 16030 1.100000 28.08600
16031 SI 16031 SI SI1 16031 1.100000 28.08600
16032 SI 16032 SI SI1 16032 1.100000 28.08600
16033 SI 16033 SI SI1 16033 1.100000 28.08600
16034 SI 16034 SI SI1 16034 1.100000 28.08600
16035 SI 16035 SI SI1 16035 1.100000 28.08600
16036 SI 16036 SI SI1 16036 1.100000 28.08600
16037 SI 16037 SI SI1 16037 1.100000 28.08600
16038 SI 16038 SI SI1 16038 1.100000 28.08600
16039 SI 16039 SI SI1 16039 1.100000 28.08600
16040 SI 16040 SI SI1 16040 1.100000 28.08600
16041 SI 16041 SI SI1 16041 1.100000 28.08600
16042 SI 16042 SI SI1 16042 1.100000 28.08600
16043 SI 16043 SI SI1 16043 1.100000 28.08600
16044 SI 16044 SI SI1 16044 1.100000 28.08600
16045 SI 16045 SI SI1 16045 1.100000 28.08600
16046 SI 16046 SI SI1 16046 1.100000 28.08600
16047 SI 16047 SI SI1 16047 1.100000 28.08600
16048 SI 16048 SI SI1 16048 1.100000 28.08600
16049 SI 16049 SI SI1 16049 1.100000 28.08600
16050 SI 16050 SI SI1 16050 1.100000 28.08600
16051 SI 16051 SI SI1 16051 1.100000 28.08600
16052 SI 16052 SI SI1 16052 1.100000 28.08600
16053 SI 16053 SI SI1 16053 1.100000 28.08600
16054 SI 16054 SI SI1 16054 1.100000 28.08600
16055 SI 16055 SI SI1 16055 1.100000 28.08600
16056 SI 16056 SI SI1 16056 1.100000 28.08600
16057 SI 16057 SI SI1 16057 1.100000 28.08600
16058 SI 16058 SI SI1 16058 1.100000 28.08600
16059 SI 16059 SI SI1 16059 1.100000 28.08600
16060 SI 16060 SI SI1 16060 1.100000 28.08600
16061 SI 16061 SI SI1 16061 1.100000 28.08600
16062 SI 16062 SI SI1 16062 1.100000 28.08600
16063 SI 16063 SI SI1 16063 1.100000 28.08600
16064 SI 16064 SI SI1 16064 1.100000 28.08600
16065 SI 16065 SI SI1 16065 1.100000 28.08600
16066 SI 16066 SI SI1 16066 1.100000 28.08600
16067 SI 16067 SI SI1 16067 1.100000 28.08600
16068 SI 16068 SI SI1 16068 1.100000 28.08600
16069 SI 16069 SI SI1 16069 1.100000 28.08600
16070 SI 16070 SI SI1 16070 1.100000 28.08600
16071 SI 16071 SI SI1 16071 1.100000 28.08600
16072 SI 16072 SI SI1 16072 1.100000 28.08600
16073 SI 16073 SI SI1 16073 1.100000 28.08600
16074 SI 16074 SI SI1 16074 1.100000 28.08600
16075 SI 16075 SI SI1 16075 1.100000 28.08600
16076 SI 16076 SI SI1 16076 1.100000 28.08600
16077 SI 16077 SI SI1 16077 1.100000 28.08600
16078 SI 16078 SI SI1 16078 1.100000 28.08600
16079 SI 16079 SI SI1 16079 1.100000 28.08600
16080 SI 16080 SI SI1 16080 1.100000 28.08600
16081 SI 16081 SI SI1 16081 1.100000 28.08600
16082 SI 16082 SI SI1 16082 1.100000 28.08600
16083 SI 16083 SI SI1 16083 1.100000 28.08600
16084 SI 16084 SI SI1 16084 1.100000 28.08600
16085 SI 16085 SI SI1 16085 1.100000 28.08600
16086 SI 16086 SI SI1 16086 1.100000 28.08600
16087 SI 16087 SI SI1 16087 1.100000 28.08600
16088 SI 16088 SI SI1 16088 1.100000 28.08600
16089 SI 16089 SI SI1 16089 1.100000 28.08600
16090 SI 16090 SI SI1 16090 1.100000 28.08600
16091 SI 16091 SI SI1 16091 1.100000 28.08600
16092 SI 16092 SI SI1 16092 1.100000 28.08600
16093 SI 16093 SI SI1 16093 1.100000 28.08600
16094 SI 16094 SI SI1 16094 1.100000 28.08600
16095 SI 16095 SI SI1 16095 1.100000 28.08600
16096 SI 16096 SI SI1 16096 1.100000 28.08600
16097 SI 16097 SI SI1 16097 1.100000 28.08600
16098 SI 16098 SI SI1 16098 1.100000 28.08600
16099 SI 16099 SI SI1 16099 1.100000 28.08600
16100 SI 16100 SI SI1 16100 1.100000 28.08600
16101 SI 16101 SI SI1 16101 1.100000 28.08600
16102 SI 16102 SI SI1 16102 1.100000 28.08600
16103 SI 16103 SI SI1 16103 1.100000 28.08600
16104 SI 16104 SI SI1 16104 1.100000 28.08600
16105 SI 16105 SI SI1 16105 1.100000 28.08600
16106 SI 16106 SI SI1 16106 1.100000 28.08600
16107 SI 16107 SI SI1 16107 1.100000 28.08600
16108 SI 16108 SI SI1 16108 1.100000 28.08600
16109 SI 16109 SI SI1 16109 1.100000 28.08600
16110 SI 16110 SI SI1 16110 1.100000 28.08600
16111 SI 16111 SI SI1 16111 1.100000 28.08600
16112 SI 16112 SI SI1 16112 1.100000 28.08600
16113 SI 16113 SI SI1 16113 1.100000 28.08600
16114 SI 16114 SI SI1 16114 1.100000 28.08600
16115 SI 16115 SI SI1 16115 1.100000 28.08600
16116 SI 16116 SI SI1 16116 1.100000 28.08600
16117 SI 16117 SI SI1 16117 1.100000 28.08600
16118 SI 16118 SI SI1 16118 1.100000 28.08600
16119 SI 16119 SI SI1 16119 1.100000 28.08600
16120 SI 16120 SI SI1 16120 1.100000 28.08600
16121 SI 16121 SI SI1 16121 1.100000 28.08600
16122 SI 16122 SI SI1 16122 1.100000 28.08600
16123 SI 16123 SI SI1 16123 1.100000 28.08600
16124 SI 16124 SI SI1 16124 1.100000 28.08600
16125 SI 16125 SI SI1 16125 1.100000 28.08600
16126 SI 16126 SI SI1 16126 1.100000 28.08600
16127 SI 16127 SI SI1 16127 1.100000 28.08600
16128 SI 16128 SI SI1 16128 1.100000 28.08600
16129 SI 16129 SI SI1 16129 1.100000 28.08600
16130 SI 16130 SI SI1 16130 1.100000 28.08600
16131 SI 16131 SI SI1 16131 1.100000 28.08600
16132 SI 16132 SI SI1 16132 1.100000 28.08600
16133 SI 16133 SI SI1 16133 1.100000 28.08600
16134 SI 16134 SI SI1 16134 1.100000 28.08600
16135 SI 16135 SI SI1 16135 1.100000 28.08600
16136 SI 16136 SI SI1 16136 1.100000 28.08600
16137 SI 16137 SI SI1 16137 1.100000 28.08600
16138 SI 16138 SI SI1 16138 1.100000 28.08600
16139 SI 16139 SI SI1 16139 1.100000 28.08600
16140 SI 16140 SI SI1 16140 1.100000 28.08600
16141 SI 16141 SI SI1 16141 1.100000 28.08600
16142 SI 16142 SI SI1 16142 1.100000 28.08600
16143 SI 16143 SI SI1 16143 1.100000 28.08600
16144 SI 16144 SI SI1 16144 1.100000 28.08600
16145 SI 16145 SI SI1 16145 1.100000 28.08600
16146 SI 16146 SI SI1 16146 1.100000 28.08600
16147 SI 16147 SI SI1 16147 1.100000 28.08600
16148 SI 16148 SI SI1 16148 1.100000 28.08600
16149 SI 16149 SI SI1 16149 1.100000 28.08600
16150 SI 16150 SI SI1 16150 1.100000 28.08600
16151 SI 16151 SI SI1 16151 1.100000 28.08600
16152 SI 16152 SI SI1 16152 1.100000 28.08600
16153 SI 16153 SI SI1 16153 1.100000 28.08600
16154 SI 16154 SI SI1 16154 1.100000 28.08600
16155 SI 16155 SI SI1 16155 1.100000 28.08600
16156 SI 16156 SI SI1 16156 1.100000 28.08600
16157 SI 16157 SI SI1 16157 1.100000 28.08600
16158 SI 16158 SI SI1 16158 1.100000 28.08600
16159 SI 16159 SI SI1 16159 1.100000 28.08600
16160 SI 16160 SI SI1 16160 1.100000 28.08600
16161 SI 16161 SI SI1 16161 1.100000 28.08600
16162 SI 16162 SI SI1 16162 1.100000 28.08600
16163 SI 16163 SI SI1 16163 1.100000 28.08600
16164 SI 16164 SI SI1 16164 1.100000 28.08600
16165 SI 16165 SI SI1 16165 1.100000 28.08600
16166 SI 16166 SI SI1 16166 1.100000 28.08600
16167 SI 16167 SI SI1 16167 1.100000 28.08600
16168 SI 16168 SI SI1 16168 1.100000 28.08600
16169 SI 16169 SI SI1 16169 1.100000 28.08600
16170 SI 16170 SI SI1 16170 1.100000 28.08600
16171 SI 16171 SI SI1 16171 1.100000 28.08600
16172 SI 16172 SI SI1 16172 1.100000 28.08600
16173 SI 16173 SI SI1 16173 1.100000 28.08600
16174 SI 16174 SI SI1 16174 1.100000 28.08600
16175 SI 16175 SI SI1 16175 1.100000 28.08600
16176 SI 16176 SI SI1 16176 1.100000 28.08600
16177 SI 16177 SI SI1 16177 1.100000 28.08600
16178 SI 16178 SI SI1 16178 1.100000 28.08600
16179 SI 16179 SI SI1 16179 1.100000 28.08600
16180 SI 16180 SI SI1 16180 1.100000 28.08600
16181 SI 16181 SI SI1 16181 1.100000 28.08600
16182 SI 16182 SI SI1 16182 1.100000 28.08600
16183 SI 16183 SI SI1 16183 1.100000 28.08600
16184 SI 16184 SI SI1 16184 1.100000 28.08600
16185 SI 16185 SI SI1 16185 1.100000 28.08600
16186 SI 16186 SI SI1 16186 1.100000 28.08600
16187 SI 16187 SI SI1 16187 1.100000 28.08600
16188 SI 16188 SI SI1 16188 1.100000 28.08600
16189 SI 16189 SI SI1 16189 1.100000 28.08600
16190 SI 16190 SI SI1 16190 1.100000 28.08600
16191 SI 16191 SI SI1 16191 1.100000 28.08600
16192 SI 16192 SI SI1 16192 1.100000 28.08600
16193 SI 16193 SI SI1 16193 1.100000 28.08600
16194 SI 16194 SI SI1 16194 1.100000 28.08600
16195 SI 16195 SI SI1 16195 1.100000 28.08600
16196 SI 16196 SI SI1 16196 1.100000 28.08600
16197 SI 16197 SI SI1 16197 1.100000 28.08600
16198 SI 16198 SI SI1 16198 1.100000 28.08600
16199 SI 16199 SI SI1 16199 1.100000 28.08600
16200 SI 16200 SI SI1 16200 1.100000 28.08600
16201 SI 16201 SI SI1 16201 1.100000 28.08600
16202 SI 16202 SI SI1 16202 1.100000 28.08600
16203 SI 16203 SI SI1 16203 1.100000 28.08600
16204 SI 16204 SI SI1 16204 1.100000 28.08600
16205 SI 16205 SI SI1 16205 1.100000 28.08600
16206 SI 16206 SI SI1 16206 1.100000 28.08600
16207 SI 16207 SI SI1 16207 1.100000 28.08600
16208 SI 16208 SI SI1 16208 1.100000 28.08600
16209 SI 16209 SI SI1 16209 1.100000 28.08600
16210 SI 16210 SI SI1 16210 1.100000 28.08600
16211 SI 16211 SI SI1 16211 1.100000 28.08600
16212 SI 16212 SI SI1 16212 1.100000 28.08600
16213 SI 16213 SI SI1 16213 1.100000 28.08600
16214 SI 16214 SI SI1 16214 1.100000 28.08600
16215 SI 16215 SI SI1 16215 1.100000 28.08600
16216 SI 16216 SI SI1 16216 1.100000 28.08600
16217 SI 16217 SI SI1 16217 1.100000 28.08600
16218 SI 16218 SI SI1 16218 1.100000 28.08600
16219 SI 16219 SI SI1 16219 1.100000 28.08600
16220 SI 16220 SI SI1 16220 1.100000 28.08600
16221 SI 16221 SI SI1 16221 1.100000 28.08600
16222 SI 16222 SI SI1 16222 1.100000 28.08600
16223 SI 16223 SI SI1 16223 1.100000 28.08600
16224 SI 16224 SI SI1 16224 1.100000 28.08600
16225 SI 16225 SI SI1 16225 1.100000 28.08600
16226 SI 16226 SI SI1 16226 1.100000 28.08600
16227 SI 16227 SI SI1 16227 1.100000 28.08600
16228 SI 16228 SI SI1 16228 1.100000 28.08600
16229 SI 16229 SI SI1 16229 1.100000 28.08600
16230 SI 16230 SI SI1 16230 1.100000 28.08600
16231 SI 16231 SI SI1 16231 1.100000 28.08600
16232 SI 16232 SI SI1 16232 1.100000 28.08600
16233 SI 16233 SI SI1 16233 1.100000 28.08600
16234 SI 16234 SI SI1 16234 1.100000 28.08600
16235 SI 16235 SI SI1 16235 1.100000 28.08600
16236 SI 16236 SI SI1 16236 1.100000 28.08600
16237 SI 16237 SI SI1 16237 1.100000 28.08600
16238 SI 16238 SI SI1 16238 1.100000 28.08600
16239 SI 16239 SI SI1 16239 1.100000 28.08600
16240 SI 16240 SI SI1 16240 1.100000 28.08600
16241 SI 16241 SI SI1 16241 1.100000 28.08600
16242 SI 16242 SI SI1 16242 1.100000 28.08600
16243 SI 16243 SI SI1 16243 1.100000 28.08600
16244 SI 16244 SI SI1 16244 1.100000 28.08600
16245 SI 16245 SI SI1 16245 1.100000 28.08600
16246 SI 16246 SI SI1 16246 1.100000 28.08600
16247 SI 16247 SI SI1 16247 1.100000 28.08600
16248 SI 16248 SI SI1 16248 1.100000 28.08600
16249 SI 16249 SI SI1 16249 1.100000 28.08600
16250 SI 16250 SI SI1 16250 1.100000 28.08600
16251 SI 16251 SI SI1 16251 1.100000 28.08600
16252 SI 16252 SI SI1 16252 1.100000 28.08600
16253 SI 16253 SI SI1 16253 1.100000 28.08600
16254 SI 16254 SI SI1 16254 1.100000 28.08600
16255 SI 16255 SI SI1 16255 1.100000 28.08600
16256 SI 16256 SI SI1 16256 1.100000 28.08600
16257 SI 16257 SI SI1 16257 1.100000 28.08600
16258 SI 16258 SI SI1 16258 1.100000 28.08600
16259 SI 16259 SI SI1 16259 1.100000 28.08600
16260 SI 16260 SI SI1 16260 1.100000 28.08600
16261 SI 16261 SI SI1 16261 1.100000 28.08600
16262 SI 16262 SI SI1 16262 1.100000 28.08600
16263 SI 16263 SI SI1 16263 1.100000 28.08600
16264 SI 16264 SI SI1 16264 1.100000 28.08600
16265 SI 16265 SI SI1 16265 1.100000 28.08600
16266 SI 16266 SI SI1 16266 1.100000 28.08600
16267 SI 16267 SI SI1 16267 1.100000 28.08600
16268 SI 16268 SI SI1 16268 1.100000 28.08600
16269 SI 16269 SI SI1 16269 1.100000 28.08600
16270 SI 16270 SI SI1 16270 1.100000 28.08600
16271 SI 16271 SI SI1 16271 1.100000 28.08600
16272 SI 16272 SI SI1 16272 1.100000 28.08600
16273 SI 16273 SI SI1 16273 1.100000 28.08600
16274 SI 16274 SI SI1 16274 1.100000 28.08600
16275 SI 16275 SI SI1 16275 1.100000 28.08600
16276 SI 16276 SI SI1 16276 1.100000 28.08600
16277 SI 16277 SI SI1 16277 1.100000 28.08600
16278 SI 16278 SI SI1 16278 1.100000 28.08600
16279 SI 16279 SI SI1 16279 1.100000 28.08600
16280 SI 16280 SI SI1 16280 1.100000 28.08600
16281 SI 16281 SI SI1 16281 1.100000 28.08600
16282 SI 16282 SI SI1 16282 1.100000 28.08600
16283 SI 16283 SI SI1 16283 1.100000 28.08600
16284 SI 16284 SI SI1 16284 1.100000 28.08600
16285 SI 16285 SI SI1 16285 1.100000 28.08600
16286 SI 16286 SI SI1 16286 1.100000 28.08600
16287 SI 16287 SI SI1 16287 1.100000 28.08600
16288 SI 16288 SI SI1 16288 1.100000 28.08600
16289 SI 16289 SI SI1 16289 1.100000 28.08600
16290 SI 16290 SI SI1 16290 1.100000 28.08600
16291 SI 16291 SI SI1 16291 1.100000 28.08600
16292 SI 16292 SI SI1 16292 1.100000 28.08600
16293 SI 16293 SI SI1 16293 1.100000 28.08600
16294 SI 16294 SI SI1 16294 1.100000 28.08600
16295 SI 16295 SI SI1 16295 1.100000 28.08600
16296 SI 16296 SI SI1 16296 1.100000 28.08600
16297 SI 16297 SI SI1 16297 1.100000 28.08600
16298 SI 16298 SI SI1 16298 1.100000 28.08600
16299 SI 16299 SI SI1 16299 1.100000 28.08600
16300 SI 16300 SI SI1 16300 1.100000 28.08600
16301 SI 16301 SI SI1 16301 1.100000 28.08600
16302 SI 16302 SI SI1 16302 1.100000 28.08600
16303 SI 16303 SI SI1 16303 1.100000 28.08600
16304 SI 16304 SI SI1 16304 1.100000 28.08600
16305 SI 16305 SI SI1 16305 1.100000 28.08600
16306 SI 16306 SI SI1 16306 1.100000 28.08600
16307 SI 16307 SI SI1 16307 1.100000 28.08600
16308 SI 16308 SI SI1 16308 1.100000 28.08600
16309 SI 16309 SI SI1 16309 1.100000 28.08600
16310 SI 16310 SI SI1 16310 1.100000 28.08600
16311 SI 16311 SI SI1 16311 1.100000 28.08600
16312 SI 16312 SI SI1 16312 1.100000 28.08600
16313 SI 16313 SI SI1 16313 1.100000 28.08600
16314 SI 16314 SI SI1 16314 1.100000 28.08600
16315 SI 16315 SI SI1 16315 1.100000 28.08600
16316 SI 16316 SI SI1 16316 1.100000 28.08600
16317 SI 16317 SI SI1 16317 1.100000 28.08600
16318 SI 16318 SI SI1 16318 1.100000 28.08600
16319 SI 16319 SI SI1 16319 1.100000 28.08600
16320 SI 16320 SI SI1 16320 1.100000 28.08600
16321 SI 16321 SI SI1 16321 1.100000 28.08600
16322 SI 16322 SI SI1 16322 1.100000 28.08600
16323 SI 16323 SI SI1 16323 1.100000 28.08600
16324 SI 16324 SI SI1 16324 1.100000 28.08600
16325 SI 16325 SI SI1 16325 1.100000 28.08600
16326 SI 16326 SI SI1 16326 1.100000 28.08600
16327 SI 16327 SI SI1 16327 1.100000 28.08600
16328 SI 16328 SI SI1 16328 1.100000 28.08600
16329 SI 16329 SI SI1 16329 1.100000 28.08600
16330 SI 16330 SI SI1 16330 1.100000 28.08600
16331 SI 16331 SI SI1 16331 1.100000 28.08600
16332 SI 16332 SI SI1 16332 1.100000 28.08600
16333 SI 16333 SI SI1 16333 1.100000 28.08600
16334 SI 16334 SI SI1 16334 1.100000 28.08600
16335 SI 16335 SI SI1 16335 1.100000 28.08600
16336 SI 16336 SI SI1 16336 1.100000 28.08600
16337 SI 16337 SI SI1 16337 1.100000 28.08600
16338 SI 16338 SI SI1 16338 1.100000 28.08600
16339 SI 16339 SI SI1 16339 1.100000 28.08600
16340 SI 16340 SI SI1 16340 1.100000 28.08600
16341 SI 16341 SI SI1 16341 1.100000 28.08600
16342 SI 16342 SI SI1 16342 1.100000 28.08600
16343 SI 16343 SI SI1 16343 1.100000 28.08600
16344 SI 16344 SI SI1 16344 1.100000 28.08600
16345 SI 16345 SI SI1 16345 1.100000 28.08600
16346 SI 16346 SI SI1 16346 1.100000 28.08600
16347 SI 16347 SI SI1 16347 1.100000 28.08600
16348 SI 16348 SI SI1 16348 1.100000 28.08600
16349 SI 16349 SI SI1 16349 1.100000 28.08600
16350 SI 16350 SI SI1 16350 1.100000 28.08600
16351 SI 16351 SI SI1 16351 1.100000 28.08600
16352 SI 16352 SI SI1 16352 1.100000 28.08600
16353 SI 16353 SI SI1 16353 1.100000 28.08600
16354 SI 16354 SI SI1 16354 1.100000 28.08600
16355 SI 16355 SI SI1 16355 1.100000 28.08600
16356 SI 16356 SI SI1 16356 1.100000 28.08600
16357 SI 16357 SI SI1 16357 1.100000 28.08600
16358 SI 16358 SI SI1 16358 1.100000 28.08600
16359 SI 16359 SI SI1 16359 1.100000 28.08600
16360 SI 16360 SI SI1 16360 1.100000 28.08600
16361 SI 16361 SI SI1 16361 1.100000 28.08600
16362 SI 16362 SI SI1 16362 1.100000 28.08600
16363 SI 16363 SI SI1 16363 1.100000 28.08600
16364 SI 16364 SI SI1 16364 1.100000 28.08600
16365 SI 16365 SI SI1 16365 1.100000 28.08600
16366 SI 16366 SI SI1 16366 1.100000 28.08600
16367 SI 16367 SI SI1 16367 1.100000 28.08600
16368 SI 16368 SI SI1 16368 1.100000 28.08600
16369 SI 16369 SI SI1 16369 1.100000 28.08600
16370 SI 16370 SI SI1 16370 1.100000 28.08600
16371 SI 16371 SI SI1 16371 1.100000 28.08600
16372 SI 16372 SI SI1 16372 1.100000 28.08600
16373 SI 16373 SI SI1 16373 1.100000 28.08600
16374 SI 16374 SI SI1 16374 1.100000 28.08600
16375 SI 16375 SI SI1 16375 1.100000 28.08600
16376 SI 16376 SI SI1 16376 1.100000 28.08600
16377 SI 16377 SI SI1 16377 1.100000 28.08600
16378 SI 16378 SI SI1 16378 1.100000 28.08600
16379 SI 16379 SI SI1 16379 1.100000 28.08600
16380 SI 16380 SI SI1 16380 1.100000 28.08600
16381 SI 16381 SI SI1 16381 1.100000 28.08600
16382 SI 16382 SI SI1 16382 1.100000 28.08600
16383 SI 16383 SI SI1 16383 1.100000 28.08600
16384 SI 16384 SI SI1 16384 1.100000 28.08600
16385 SI 16385 SI SI1 16385 1.100000 28.08600
16386 SI 16386 SI SI1 16386 1.100000 28.08600
16387 SI 16387 SI SI1 16387 1.100000 28.08600
16388 SI 16388 SI SI1 16388 1.100000 28.08600
16389 SI 16389 SI SI1 16389 1.100000 28.08600
16390 SI 16390 SI SI1 16390 1.100000 28.08600
16391 SI 16391 SI SI1 16391 1.100000 28.08600
16392 SI 16392 SI SI1 16392 1.100000 28.08600
16393 SI 16393 SI SI1 16393 1.100000 28.08600
16394 SI 16394 SI SI1 16394 1.100000 28.08600
16395 SI 16395 SI SI1 16395 1.100000 28.08600
16396 SI 16396 SI SI1 16396 1.100000 28.08600
16397 SI 16397 SI SI1 16397 1.100000 28.08600
16398 SI 16398 SI SI1 16398 1.100000 28.08600
16399 SI 16399 SI SI1 16399 1.100000 28.08600
16400 SI 16400 SI SI1 16400 1.100000 28.08600
16401 SI 16401 SI SI1 16401 1.100000 28.08600
16402 SI 16402 SI SI1 16402 1.100000 28.08600
16403 SI 16403 SI SI1 16403 1.100000 28.08600
16404 SI 16404 SI SI1 16404 1.100000 28.08600
16405 SI 16405 SI SI1 16405 1.100000 28.08600
16406 SI 16406 SI SI1 16406 1.100000 28.08600
16407 SI 16407 SI SI1 16407 1.100000 28.08600
16408 SI 16408 SI SI1 16408 1.100000 28.08600
16409 SI 16409 SI SI1 16409 1.100000 28.08600
16410 SI 16410 SI SI1 16410 1.100000 28.08600
16411 SI 16411 SI SI1 16411 1.100000 28.08600
16412 SI 16412 SI SI1 16412 1.100000 28.08600
16413 SI 16413 SI SI1 16413 1.100000 28.08600
16414 SI 16414 SI SI1 16414 1.100000 28.08600
16415 SI 16415 SI SI1 16415 1.100000 28.08600
16416 SI 16416 SI SI1 16416 1.100000 28.08600
16417 SI 16417 SI SI1 16417 1.100000 28.08600
16418 SI 16418 SI SI1 16418 1.100000 28.08600
16419 SI 16419 SI SI1 16419 1.100000 28.08600
16420 SI 16420 SI SI1 16420 1.100000 28.08600
16421 SI 16421 SI SI1 16421 1.100000 28.08600
16422 SI 16422 SI SI1 16422 1.100000 28.08600
16423 SI 16423 SI SI1 16423 1.100000 28.08600
16424 SI 16424 SI SI1 16424 1.100000 28.08600
16425 SI 16425 SI SI1 16425 1.100000 28.08600
16426 SI 16426 SI SI1 16426 1.100000 28.08600
16427 SI 16427 SI SI1 16427 1.100000 28.08600
16428 SI 16428 SI SI1 16428 1.100000 28.08600
16429 SI 16429 SI SI1 16429 1.100000 28.08600
16430 SI 16430 SI SI1 16430 1.100000 28.08600
16431 SI 16431 SI SI1 16431 1.100000 28.08600
16432 SI 16432 SI SI1 16432 1.100000 28.08600
16433 SI 16433 SI SI1 16433 1.100000 28.08600
16434 SI 16434 SI SI1 16434 1.100000 28.08600
16435 SI 16435 SI SI1 16435 1.100000 28.08600
16436 SI 16436 SI SI1 16436 1.100000 28.08600
16437 SI 16437 SI SI1 16437 1.100000 28.08600
16438 SI 16438 SI SI1 16438 1.100000 28.08600
16439 SI 16439 SI SI1 16439 1.100000 28.08600
16440 SI 16440 SI SI1 16440 1.100000 28.08600
16441 SI 16441 SI SI1 16441 1.100000 28.08600
16442 SI 16442 SI SI1 16442 1.100000 28.08600
16443 SI 16443 SI SI1 16443 1.100000 28.08600
16444 SI 16444 SI SI1 16444 1.100000 28.08600
16445 SI 16445 SI SI1 16445 1.100000 28.08600
16446 SI 16446 SI SI1 16446 1.100000 28.08600
16447 SI 16447 SI SI1 16447 1.100000 28.08600
16448 SI 16448 SI SI1 16448 1.100000 28.08600
16449 SI 16449 SI SI1 16449 1.100000 28.08600
16450 SI 16450 SI SI1 16450 1.100000 28.08600
16451 SI 16451 SI SI1 16451 1.100000 28.08600
16452 SI 16452 SI SI1 16452 1.100000 28.08600
16453 SI 16453 SI SI1 16453 1.100000 28.08600
16454 SI 16454 SI SI1 16454 1.100000 28.08600
16455 SI 16455 SI SI1 16455 1.100000 28.08600
16456 SI 16456 SI SI1 16456 1.100000 28.08600
16457 SI 16457 SI SI1 16457 1.100000 28.08600
16458 SI 16458 SI SI1 16458 1.100000 28.08600
16459 SI 16459 SI SI1 16459 1.100000 28.08600
16460 SI 16460 SI SI1 16460 1.100000 28.08600
16461 SI 16461 SI SI1 16461 1.100000 28.08600
16462 SI 16462 SI SI1 16462 1.100000 28.08600
16463 SI 16463 SI SI1 16463 1.100000 28.08600
16464 SI 16464 SI SI1 16464 1.100000 28.08600
16465 SI 16465 SI SI1 16465 1.100000 28.08600
16466 SI 16466 SI SI1 16466 1.100000 28.08600
16467 SI 16467 SI SI1 16467 1.100000 28.08600
16468 SI 16468 SI SI1 16468 1.100000 28.08600
16469 SI 16469 SI SI1 16469 1.100000 28.08600
16470 SI 16470 SI SI1 16470 1.100000 28.08600
16471 SI 16471 SI SI1 16471 1.100000 28.08600
16472 SI 16472 SI SI1 16472 1.100000 28.08600
16473 SI 16473 SI SI1 16473 1.100000 28.08600
16474 SI 16474 SI SI1 16474 1.100000 28.08600
16475 SI 16475 SI SI1 16475 1.100000 28.08600
16476 SI 16476 SI SI1 16476 1.100000 28.08600
16477 SI 16477 SI SI1 16477 1.100000 28.08600
16478 SI 16478 SI SI1 16478 1.100000 28.08600
16479 SI 16479 SI SI1 16479 1.100000 28.08600
16480 SI 16480 SI SI1 16480 1.100000 28.08600
16481 SI 16481 SI SI1 16481 1.100000 28.08600
16482 SI 16482 SI SI1 16482 1.100000 28.08600
16483 SI 16483 SI SI1 16483 1.100000 28.08600
16484 SI 16484 SI SI1 16484 1.100000 28.08600
16485 SI 16485 SI SI1 16485 1.100000 28.08600
16486 SI 16486 SI SI1 16486 1.100000 28.08600
16487 SI 16487 SI SI1 16487 1.100000 28.08600
16488 SI 16488 SI SI1 16488 1.100000 28.08600
16489 SI 16489 SI SI1 16489 1.100000 28.08600
16490 SI 16490 SI SI1 16490 1.100000 28.08600
16491 SI 16491 SI SI1 16491 1.100000 28.08600
16492 SI 16492 SI SI1 16492 1.100000 28.08600
16493 SI 16493 SI SI1 16493 1.100000 28.08600
16494 SI 16494 SI SI1 16494 1.100000 28.08600
16495 SI 16495 SI SI1 16495 1.100000 28.08600
16496 SI 16496 SI SI1 16496 1.100000 28.08600
16497 SI 16497 SI SI1 16497 1.100000 28.08600
16498 SI 16498 SI SI1 16498 1.100000 28.08600
16499 SI 16499 SI SI1 16499 1.100000 28.08600
16500 SI 16500 SI SI1 16500 1.100000 28.08600
16501 SI 16501 SI SI1 16501 1.100000 28.08600
16502 SI 16502 SI SI1 16502 1.100000 28.08600
16503 SI 16503 SI SI1 16503 1.100000 28.08600
16504 SI 16504 SI SI1 16504 1.100000 28.08600
16505 SI 16505 SI SI1 16505 1.100000 28.08600
16506 SI 16506 SI SI1 16506 1.100000 28.08600
16507 SI 16507 SI SI1 16507 1.100000 28.08600
16508 SI 16508 SI SI1 16508 1.100000 28.08600
16509 SI 16509 SI SI1 16509 1.100000 28.08600
16510 SI 16510 SI SI1 16510 1.100000 28.08600
16511 SI 16511 SI SI1 16511 1.100000 28.08600
16512 SI 16512 SI SI1 16512 1.100000 28.08600
16513 SI 16513 SI SI1 16513 1.100000 28.08600
16514 SI 16514 SI SI1 16514 1.100000 28.08600
16515 SI 16515 SI SI1 16515 1.100000 28.08600
16516 SI 16516 SI SI1 16516 1.100000 28.08600
16517 SI 16517 SI SI1 16517 1.100000 28.08600
16518 SI 16518 SI SI1 16518 1.100000 28.08600
16519 SI 16519 SI SI1 16519 1.100000 28.08600
16520 SI 16520 SI SI1 16520 1.100000 28.08600
16521 SI 16521 SI SI1 16521 1.100000 28.08600
16522 SI 16522 SI SI1 16522 1.100000 28.08600
16523 SI 16523 SI SI1 16523 1.100000 28.08600
16524 SI 16524 SI SI1 16524 1.100000 28.08600
16525 SI 16525 SI SI1 16525 1.100000 28.08600
16526 SI 16526 SI SI1 16526 1.100000 28.08600
16527 SI 16527 SI SI1 16527 1.100000 28.08600
16528 SI 16528 SI SI1 16528 1.100000 28.08600
16529 SI 16529 SI SI1 16529 1.100000 28.08600
16530 SI 16530 SI SI1 16530 1.100000 28.08600
16531 SI 16531 SI SI1 16531 1.100000 28.08600
16532 SI 16532 SI SI1 16532 1.100000 28.08600
16533 SI 16533 SI SI1 16533 1.100000 28.08600
16534 SI 16534 SI SI1 16534 1.100000 28.08600
16535 SI 16535 SI SI1 16535 1.100000 28.08600
16536 SI 16536 SI SI1 16536 1.100000 28.08600
16537 SI 16537 SI SI1 16537 1.100000 28.08600
16538 SI 16538 SI SI1 16538 1.100000 28.08600
16539 SI 16539 SI SI1 16539 1.100000 28.08600
16540 SI 16540 SI SI1 16540 1.100000 28.08600
16541 SI 16541 SI SI1 16541 1.100000 28.08600
16542 SI 16542 SI SI1 16542 1.100000 28.08600
16543 SI 16543 SI SI1 16543 1.100000 28.08600
16544 SI 16544 SI SI1 16544 1.100000 28.08600
16545 SI 16545 SI SI1 16545 1.100000 28.08600
16546 SI 16546 SI SI1 16546 1.100000 28.08600
16547 SI 16547 SI SI1 16547 1.100000 28.08600
16548 SI 16548 SI SI1 16548 1.100000 28.08600
16549 SI 16549 SI SI1 16549 1.100000 28.08600
16550 SI 16550 SI SI1 16550 1.100000 28.08600
16551 SI 16551 SI SI1 16551 1.100000 28.08600
16552 SI 16552 SI SI1 16552 1.100000 28.08600
16553 SI 16553 SI SI1 16553 1.100000 28.08600
16554 SI 16554 SI SI1 16554 1.100000 28.08600
16555 SI 16555 SI SI1 16555 1.100000 28.08600
16556 SI 16556 SI SI1 16556 1.100000 28.08600
16557 SI 16557 SI SI1 16557 1.100000 28.08600
16558 SI 16558 SI SI1 16558 1.100000 28.08600
16559 SI 16559 SI SI1 16559 1.100000 28.08600
16560 SI 16560 SI SI1 16560 1.100000 28.08600
16561 SI 16561 SI SI1 16561 1.100000 28.08600
16562 SI 16562 SI SI1 16562 1.100000 28.08600
16563 SI 16563 SI SI1 16563 1.100000 28.08600
16564 SI 16564 SI SI1 16564 1.100000 28.08600
16565 SI 16565 SI SI1 16565 1.100000 28.08600
16566 SI 16566 SI SI1 16566 1.100000 28.08600
16567 SI 16567 SI SI1 16567 1.100000 28.08600
16568 SI 16568 SI SI1 16568 1.100000 28.08600
16569 SI 16569 SI SI1 16569 1.100000 28.08600
16570 SI 16570 SI SI1 16570 1.100000 28.08600
16571 SI 16571 SI SI1 16571 1.100000 28.08600
16572 SI 16572 SI SI1 16572 1.100000 28.08600
16573 SI 16573 SI SI1 16573 1.100000 28.08600
16574 SI 16574 SI SI1 16574 1.100000 28.08600
16575 SI 16575 SI SI1 16575 1.100000 28.08600
16576 SI 16576 SI SI1 16576 1.100000 28.08600
16577 SI 16577 SI SI1 16577 1.100000 28.08600
16578 SI 16578 SI SI1 16578 1.100000 28.08600
16579 SI 16579 SI SI1 16579 1.100000 28.08600
16580 SI 16580 SI SI1 16580 1.100000 28.08600
16581 SI 16581 SI SI1 16581 1.100000 28.08600
16582 SI 16582 SI SI1 16582 1.100000 28.08600
16583 SI 16583 SI SI1 16583 1.100000 28.08600
16584 SI 16584 SI SI1 16584 1.100000 28.08600
16585 SI 16585 SI SI1 16585 1.100000 28.08600
16586 SI 16586 SI SI1 16586 1.100000 28.08600
16587 SI 16587 SI SI1 16587 1.100000 28.08600
16588 SI 16588 SI SI1 16588 1.100000 28.08600
16589 SI 16589 SI SI1 16589 1.100000 28.08600
16590 SI 16590 SI SI1 16590 1.100000 28.08600
16591 SI 16591 SI SI1 16591 1.100000 28.08600
16592 SI 16592 SI SI1 16592 1.100000 28.08600
16593 SI 16593 SI SI1 16593 1.100000 28.08600
16594 SI 16594 SI SI1 16594 1.100000 28.08600
16595 SI 16595 SI SI1 16595 1.100000 28.08600
16596 SI 16596 SI SI1 16596 1.100000 28.08600
16597 SI 16597 SI SI1 16597 1.100000 28.08600
16598 SI 16598 SI SI1 16598 1.100000 28.08600
16599 SI 16599 SI SI1 16599 1.100000 28.08600
16600 SI 16600 SI SI1 16600 1.100000 28.08600
16601 SI 16601 SI SI1 16601 1.100000 28.08600
16602 SI 16602 SI SI1 16602 1.100000 28.08600
16603 SI 16603 SI SI1 16603 1.100000 28.08600
16604 SI 16604 SI SI1 16604 1.100000 28.08600
16605 SI 16605 SI SI1 16605 1.100000 28.08600
16606 SI 16606 SI SI1 16606 1.100000 28.08600
16607 SI 16607 SI SI1 16607 1.100000 28.08600
16608 SI 16608 SI SI1 16608 1.100000 28.08600
16609 SI 16609 SI SI1 16609 1.100000 28.08600
16610 SI 16610 SI SI1 16610 1.100000 28.08600
16611 SI 16611 SI SI1 16611 1.100000 28.08600
16612 SI 16612 SI SI1 16612 1.100000 28.08600
16613 SI 16613 SI SI1 16613 1.100000 28.08600
16614 SI 16614 SI SI1 16614 1.100000 28.08600
16615 SI 16615 SI SI1 16615 1.100000 28.08600
16616 SI 16616 SI SI1 16616 1.100000 28.08600
16617 SI 16617 SI SI1 16617 1.100000 28.08600
16618 SI 16618 SI SI1 16618 1.100000 28.08600
16619 SI 16619 SI SI1 16619 1.100000 28.08600
16620 SI 16620 SI SI1 16620 1.100000 28.08600
16621 SI 16621 SI SI1 16621 1.100000 28.08600
16622 SI 16622 SI SI1 16622 1.100000 28.08600
16623 SI 16623 SI SI1 16623 1.100000 28.08600
16624 SI 16624 SI SI1 16624 1.100000 28.08600
16625 SI 16625 SI SI1 16625 1.100000 28.08600
16626 SI 16626 SI SI1 16626 1.100000 28.08600
16627 SI 16627 SI SI1 16627 1.100000 28.08600
16628 SI 16628 SI SI1 16628 1.100000 28.08600
16629 SI 16629 SI SI1 16629 1.100000 28.08600
16630 SI 16630 SI SI1 16630 1.100000 28.08600
16631 SI 16631 SI SI1 16631 1.100000 28.08600
16632 SI 16632 SI SI1 16632 1.100000 28.08600
16633 SI 16633 SI SI1 16633 1.100000 28.08600
16634 SI 16634 SI SI1 16634 1.100000 28.08600
16635 SI 16635 SI SI1 16635 1.100000 28.08600
16636 SI 16636 SI SI1 16636 1.100000 28.08600
16637 SI 16637 SI SI1 16637 1.100000 28.08600
16638 SI 16638 SI SI1 16638 1.100000 28.08600
16639 SI 16639 SI SI1 16639 1.100000 28.08600
16640 SI 16640 SI SI1 16640 1.100000 28.08600
16641 SI 16641 SI SI1 16641 1.100000 28.08600
16642 SI 16642 SI SI1 16642 1.100000 28.08600
16643 SI 16643 SI SI1 16643 1.100000 28.08600
16644 SI 16644 SI SI1 16644 1.100000 28.08600
16645 SI 16645 SI SI1 16645 1.100000 28.08600
16646 SI 16646 SI SI1 16646 1.100000 28.08600
16647 SI 16647 SI SI1 16647 1.100000 28.08600
16648 SI 16648 SI SI1 16648 1.100000 28.08600
16649 SI 16649 SI SI1 16649 1.100000 28.08600
16650 SI 16650 SI SI1 16650 1.100000 28.08600
16651 SI 16651 SI SI1 16651 1.100000 28.08600
16652 SI 16652 SI SI1 16652 1.100000 28.08600
16653 SI 16653 SI SI1 16653 1.100000 28.08600
16654 SI 16654 SI SI1 16654 1.100000 28.08600
16655 SI 16655 SI SI1 16655 1.100000 28.08600
16656 SI 16656 SI SI1 16656 1.100000 28.08600
16657 SI 16657 SI SI1 16657 1.100000 28.08600
16658 SI 16658 SI SI1 16658 1.100000 28.08600
16659 SI 16659 SI SI1 16659 1.100000 28.08600
16660 SI 16660 SI SI1 16660 1.100000 28.08600
16661 SI 16661 SI SI1 16661 1.100000 28.08600
16662 SI 16662 SI SI1 16662 1.100000 28.08600
16663 SI 16663 SI SI1 16663 1.100000 28.08600
16664 SI 16664 SI SI1 16664 1.100000 28.08600
16665 SI 16665 SI SI1 16665 1.100000 28.08600
16666 SI 16666 SI SI1 16666 1.100000 28.08600
16667 SI 16667 SI SI1 16667 1.100000 28.08600
16668 SI 16668 SI SI1 16668 1.100000 28.08600
16669 SI 16669 SI SI1 16669 1.100000 28.08600
16670 SI 16670 SI SI1 16670 1.100000 28.08600
16671 SI 16671 SI SI1 16671 1.100000 28.08600
16672 SI 16672 SI SI1 16672 1.100000 28.08600
16673 SI 16673 SI SI1 16673 1.100000 28.08600
16674 SI 16674 SI SI1 16674 1.100000 28.08600
16675 SI 16675 SI SI1 16675 1.100000 28.08600
16676 SI 16676 SI SI1 16676 1.100000 28.08600
16677 SI 16677 SI SI1 16677 1.100000 28.08600
16678 SI 16678 SI SI1 16678 1.100000 28.08600
16679 SI 16679 SI SI1 16679 1.100000 28.08600
16680 SI 16680 SI SI1 16680 1.100000 28.08600
16681 SI 16681 SI SI1 16681 1.100000 28.08600
16682 SI 16682 SI SI1 16682 1.100000 28.08600
16683 SI 16683 SI SI1 16683 1.100000 28.08600
16684 SI 16684 SI SI1 16684 1.100000 28.08600
16685 SI 16685 SI SI1 16685 1.100000 28.08600
16686 SI 16686 SI SI1 16686 1.100000 28.08600
16687 SI 16687 SI SI1 16687 1.100000 28.08600
16688 SI 16688 SI SI1 16688 1.100000 28.08600
16689 SI 16689 SI SI1 16689 1.100000 28.08600
16690 SI 16690 SI SI1 16690 1.100000 28.08600
16691 SI 16691 SI SI1 16691 1.100000 28.08600
16692 SI 16692 SI SI1 16692 1.100000 28.08600
16693 SI 16693 SI SI1 16693 1.100000 28.08600
16694 SI 16694 SI SI1 16694 1.100000 28.08600
16695 SI 16695 SI SI1 16695 1.100000 28.08600
16696 SI 16696 SI SI1 16696 1.100000 28.08600
16697 SI 16697 SI SI1 16697 1.100000 28.08600
16698 SI 16698 SI SI1 16698 1.100000 28.08600
16699 SI 16699 SI SI1 16699 1.100000 28.08600
16700 SI 16700 SI SI1 16700 1.100000 28.08600
16701 SI 16701 SI SI1 16701 1.100000 28.08600
16702 SI 16702 SI SI1 16702 1.100000 28.08600
16703 SI 16703 SI SI1 16703 1.100000 28.08600
16704 SI 16704 SI SI1 16704 1.100000 28.08600
16705 SI 16705 SI SI1 16705 1.100000 28.08600
16706 SI 16706 SI SI1 16706 1.100000 28.08600
16707 SI 16707 SI SI1 16707 1.100000 28.08600
16708 SI 16708 SI SI1 16708 1.100000 28.08600
16709 SI 16709 SI SI1 16709 1.100000 28.08600
16710 SI 16710 SI SI1 16710 1.100000 28.08600
16711 SI 16711 SI SI1 16711 1.100000 28.08600
16712 SI 16712 SI SI1 16712 1.100000 28.08600
16713 SI 16713 SI SI1 16713 1.100000 28.08600
16714 SI 16714 SI SI1 16714 1.100000 28.08600
16715 SI 16715 SI SI1 16715 1.100000 28.08600
16716 SI 16716 SI SI1 16716 1.100000 28.08600
16717 SI 16717 SI SI1 16717 1.100000 28.08600
16718 SI 16718 SI SI1 16718 1.100000 28.08600
16719 SI 16719 SI SI1 16719 1.100000 28.08600
16720 SI 16720 SI SI1 16720 1.100000 28.08600
16721 SI 16721 SI SI1 16721 1.100000 28.08600
16722 SI 16722 SI SI1 16722 1.100000 28.08600
16723 SI 16723 SI SI1 16723 1.100000 28.08600
16724 SI 16724 SI SI1 16724 1.100000 28.08600
16725 SI 16725 SI SI1 16725 1.100000 28.08600
16726 SI 16726 SI SI1 16726 1.100000 28.08600
16727 SI 16727 SI SI1 16727 1.100000 28.08600
16728 SI 16728 SI SI1 16728 1.100000 28.08600
16729 SI 16729 SI SI1 16729 1.100000 28.08600
16730 SI 16730 SI SI1 16730 1.100000 28.08600
16731 SI 16731 SI SI1 16731 1.100000 28.08600
16732 SI 16732 SI SI1 16732 1.100000 28.08600
16733 SI 16733 SI SI1 16733 1.100000 28.08600
16734 SI 16734 SI SI1 16734 1.100000 28.08600
16735 SI 16735 SI SI1 16735 1.100000 28.08600
16736 SI 16736 SI SI1 16736 1.100000 28.08600
16737 SI 16737 SI SI1 16737 1.100000 28.08600
16738 SI 16738 SI SI1 16738 1.100000 28.08600
16739 SI 16739 SI SI1 16739 1.100000 28.08600
16740 SI 16740 SI SI1 16740 1.100000 28.08600
16741 SI 16741 SI SI1 16741 1.100000 28.08600
16742 SI 16742 SI SI1 16742 1.100000 28.08600
16743 SI 16743 SI SI1 16743 1.100000 28.08600
16744 SI 16744 SI SI1 16744 1.100000 28.08600
16745 SI 16745 SI SI1 16745 1.100000 28.08600
16746 SI 16746 SI SI1 16746 1.100000 28.08600
16747 SI 16747 SI SI1 16747 1.100000 28.08600
16748 SI 16748 SI SI1 16748 1.100000 28.08600
16749 SI 16749 SI SI1 16749 1.100000 28.08600
16750 SI 16750 SI SI1 16750 1.100000 28.08600
16751 SI 16751 SI SI1 16751 1.100000 28.08600
16752 SI 16752 SI SI1 16752 1.100000 28.08600
16753 SI 16753 SI SI1 16753 1.100000 28.08600
16754 SI 16754 SI SI1 16754 1.100000 28.08600
16755 SI 16755 SI SI1 16755 1.100000 28.08600
16756 SI 16756 SI SI1 16756 1.100000 28.08600
16757 SI 16757 SI SI1 16757 1.100000 28.08600
16758 SI 16758 SI SI1 16758 1.100000 28.08600
16759 SI 16759 SI SI1 16759 1.100000 28.08600
16760 SI 16760 SI SI1 16760 1.100000 28.08600
16761 SI 16761 SI SI1 16761 1.100000 28.08600
16762 SI 16762 SI SI1 16762 1.100000 28.08600
16763 SI 16763 SI SI1 16763 1.100000 28.08600
16764 SI 16764 SI SI1 16764 1.100000 28.08600
16765 SI 16765 SI SI1 16765 1.100000 28.08600
16766 SI 16766 SI SI1 16766 1.100000 28.08600
16767 SI 16767 SI SI1 16767 1.100000 28.08600
16768 SI 16768 SI SI1 16768 1.100000 28.08600
16769 SI 16769 SI SI1 16769 1.100000 28.08600
16770 SI 16770 SI SI1 16770 1.100000 28.08600
16771 SI 16771 SI SI1 16771 1.100000 28.08600
16772 SI 16772 SI SI1 16772 1.100000 28.08600
16773 SI 16773 SI SI1 16773 1.100000 28.08600
16774 SI 16774 SI SI1 16774 1.100000 28.08600
16775 SI 16775 SI SI1 16775 1.100000 28.08600
16776 SI 16776 SI SI1 16776 1.100000 28.08600
16777 SI 16777 SI SI1 16777 1.100000 28.08600
16778 SI 16778 SI SI1 16778 1.100000 28.08600
16779 SI 16779 SI SI1 16779 1.100000 28.08600
16780 SI 16780 SI SI1 16780 1.100000 28.08600
16781 SI 16781 SI SI1 16781 1.100000 28.08600
16782 SI 16782 SI SI1 16782 1.100000 28.08600
16783 SI 16783 SI SI1 16783 1.100000 28.08600
16784 SI 16784 SI SI1 16784 1.100000 28.08600
16785 SI 16785 SI SI1 16785 1.100000 28.08600
16786 SI 16786 SI SI1 16786 1.100000 28.08600
16787 SI 16787 SI SI1 16787 1.100000 28.08600
16788 SI 16788 SI SI1 16788 1.100000 28.08600
16789 SI 16789 SI SI1 16789 1.100000 28.08600
16790 SI 16790 SI SI1 16790 1.100000 28.08600
16791 SI 16791 SI SI1 16791 1.100000 28.08600
16792 SI 16792 SI SI1 16792 1.100000 28.08600
16793 SI 16793 SI SI1 16793 1.100000 28.08600
16794 SI 16794 SI SI1 16794 1.100000 28.08600
16795 SI 16795 SI SI1 16795 1.100000 28.08600
16796 SI 16796 SI SI1 16796 1.100000 28.08600
16797 SI 16797 SI SI1 16797 1.100000 28.08600
16798 SI 16798 SI SI1 16798 1.100000 28.08600
16799 SI 16799 SI SI1 16799 1.100000 28.08600
16800 SI 16800 SI SI1 16800 1.100000 28.08600
16801 SI 16801 SI SI1 16801 1.100000 28.08600
16802 SI 16802 SI SI1 16802 1.100000 28.08600
16803 SI 16803 SI SI1 16803 1.100000 28.08600
16804 SI 16804 SI SI1 16804 1.100000 28.08600
16805 SI 16805 SI SI1 16805 1.100000 28.08600
16806 SI 16806 SI SI1 16806 1.100000 28.08600
16807 SI 16807 SI SI1 16807 1.100000 28.08600
16808 SI 16808 SI SI1 16808 1.100000 28.08600
16809 SI 16809 SI SI1 16809 1.100000 28.08600
16810 SI 16810 SI SI1 16810 1.100000 28.08600
16811 SI 16811 SI SI1 16811 1.100000 28.08600
16812 SI 16812 SI SI1 16812 1.100000 28.08600
16813 SI 16813 SI SI1 16813 1.100000 28.08600
16814 SI 16814 SI SI1 16814 1.100000 28.08600
16815 SI 16815 SI SI1 16815 1.100000 28.08600
16816 SI 16816 SI SI1 16816 1.100000 28.08600
16817 SI 16817 SI SI1 16817 1.100000 28.08600
16818 SI 16818 SI SI1 16818 1.100000 28.08600
16819 SI 16819 SI SI1 16819 1.100000 28.08600
16820 SI 16820 SI SI1 16820 1.100000 28.08600
16821 SI 16821 SI SI1 16821 1.100000 28.08600
16822 SI 16822 SI SI1 16822 1.100000 28.08600
16823 SI 16823 SI SI1 16823 1.100000 28.08600
16824 SI 16824 SI SI1 16824 1.100000 28.08600
16825 SI 16825 SI SI1 16825 1.100000 28.08600
16826 SI 16826 SI SI1 16826 1.100000 28.08600
16827 SI 16827 SI SI1 16827 1.100000 28.08600
16828 SI 16828 SI SI1 16828 1.100000 28.08600
16829 SI 16829 SI SI1 16829 1.100000 28.08600
16830 SI 16830 SI SI1 16830 1.100000 28.08600
16831 SI 16831 SI SI1 16831 1.100000 28.08600
16832 SI 16832 SI SI1 16832 1.100000 28.08600
16833 SI 16833 SI SI1 16833 1.100000 28.08600
16834 SI 16834 SI SI1 16834 1.100000 28.08600
16835 SI 16835 SI SI1 16835 1.100000 28.08600
16836 SI 16836 SI SI1 16836 1.100000 28.08600
16837 SI 16837 SI SI1 16837 1.100000 28.08600
16838 SI 16838 SI SI1 16838 1.100000 28.08600
16839 SI 16839 SI SI1 16839 1.100000 28.08600
16840 SI 16840 SI SI1 16840 1.100000 28.08600
16841 SI 16841 SI SI1 16841 1.100000 28.08600
16842 SI 16842 SI SI1 16842 1.100000 28.08600
16843 SI 16843 SI SI1 16843 1.100000 28.08600
16844 SI 16844 SI SI1 16844 1.100000 28.08600
16845 SI 16845 SI SI1 16845 1.100000 28.08600
16846 SI 16846 SI SI1 16846 1.100000 28.08600
16847 SI 16847 SI SI1 16847 1.100000 28.08600
16848 SI 16848 SI SI1 16848 1.100000 28.08600
16849 SI 16849 SI SI1 16849 1.100000 28.08600
16850 SI 16850 SI SI1 16850 1.100000 28.08600
16851 SI 16851 SI SI1 16851 1.100000 28.08600
16852 SI 16852 SI SI1 16852 1.100000 28.08600
16853 SI 16853 SI SI1 16853 1.100000 28.08600
16854 SI 16854 SI SI1 16854 1.100000 28.08600
16855 SI 16855 SI SI1 16855 1.100000 28.08600
16856 SI 16856 SI SI1 16856 1.100000 28.08600
16857 SI 16857 SI SI1 16857 1.100000 28.08600
16858 SI 16858 SI SI1 16858 1.100000 28.08600
16859 SI 16859 SI SI1 16859 1.100000 28.08600
16860 SI 16860 SI SI1 16860 1.100000 28.08600
16861 SI 16861 SI SI1 16861 1.100000 28.08600
16862 SI 16862 SI SI1 16862 1.100000 28.08600
16863 SI 16863 SI SI1 16863 1.100000 28.08600
16864 SI 16864 SI SI1 16864 1.100000 28.08600
16865 SI 16865 SI SI1 16865 1.100000 28.08600
16866 SI 16866 SI SI1 16866 1.100000 28.08600
16867 SI 16867 SI SI1 16867 1.100000 28.08600
16868 SI 16868 SI SI1 16868 1.100000 28.08600
16869 SI 16869 SI SI1 16869 1.100000 28.08600
16870 SI 16870 SI SI1 16870 1.100000 28.08600
16871 SI 16871 SI SI1 16871 1.100000 28.08600
16872 SI 16872 SI SI1 16872 1.100000 28.08600
16873 SI 16873 SI SI1 16873 1.100000 28.08600
16874 SI 16874 SI SI1 16874 1.100000 28.08600
16875 SI 16875 SI SI1 16875 1.100000 28.08600
16876 SI 16876 SI SI1 16876 1.100000 28.08600
16877 SI 16877 SI SI1 16877 1.100000 28.08600
16878 SI 16878 SI SI1 16878 1.100000 28.08600
16879 SI 16879 SI SI1 16879 1.100000 28.08600
16880 SI 16880 SI SI1 16880 1.100000 28.08600
16881 SI 16881 SI SI1 16881 1.100000 28.08600
16882 SI 16882 SI SI1 16882 1.100000 28.08600
16883 SI 16883 SI SI1 16883 1.100000 28.08600
16884 SI 16884 SI SI1 16884 1.100000 28.08600
16885 SI 16885 SI SI1 16885 1.100000 28.08600
16886 SI 16886 SI SI1 16886 1.100000 28.08600
16887 SI 16887 SI SI1 16887 1.100000 28.08600
16888 SI 16888 SI SI1 16888 1.100000 28.08600
16889 SI 16889 SI SI1 16889 1.100000 28.08600
16890 SI 16890 SI SI1 16890 1.100000 28.08600
16891 SI 16891 SI SI1 16891 1.100000 28.08600
16892 SI 16892 SI SI1 16892 1.100000 28.08600
16893 SI 16893 SI SI1 16893 1.100000 28.08600
16894 SI 16894 SI SI1 16894 1.100000 28.08600
16895 SI 16895 SI SI1 16895 1.100000 28.08600
16896 SI 16896 SI SI1 16896 1.100000 28.08600
16897 SI 16897 SI SI1 16897 1.100000 28.08600
16898 SI 16898 SI SI1 16898 1.100000 28.08600
16899 SI 16899 SI SI1 16899 1.100000 28.08600
16900 SI 16900 SI SI1 16900 1.100000 28.08600
16901 SI 16901 SI SI1 16901 1.100000 28.08600
16902 SI 16902 SI SI1 16902 1.100000 28.08600
16903 SI 16903 SI SI1 16903 1.100000 28.08600
16904 SI 16904 SI SI1 16904 1.100000 28.08600
16905 SI 16905 SI SI1 16905 1.100000 28.08600
16906 SI 16906 SI SI1 16906 1.100000 28.08600
16907 SI 16907 SI SI1 16907 1.100000 28.08600
16908 SI 16908 SI SI1 16908 1.100000 28.08600
16909 SI 16909 SI SI1 16909 1.100000 28.08600
16910 SI 16910 SI SI1 16910 1.100000 28.08600
16911 SI 16911 SI SI1 16911 1.100000 28.08600
16912 SI 16912 SI SI1 16912 1.100000 28.08600
16913 SI 16913 SI SI1 16913 1.100000 28.08600
16914 SI 16914 SI SI1 16914 1.100000 28.08600
16915 SI 16915 SI SI1 16915 1.100000 28.08600
16916 SI 16916 SI SI1 16916 1.100000 28.08600
16917 SI 16917 SI SI1 16917 1.100000 28.08600
16918 SI 16918 SI SI1 16918 1.100000 28.08600
16919 SI 16919 SI SI1 16919 1.100000 28.08600
16920 SI 16920 SI SI1 16920 1.100000 28.08600
16921 SI 16921 SI SI1 16921 1.100000 28.08600
16922 SI 16922 SI SI1 16922 1.100000 28.08600
16923 SI 16923 SI SI1 16923 1.100000 28.08600
16924 SI 16924 SI SI1 16924 1.100000 28.08600
16925 SI 16925 SI SI1 16925 1.100000 28.08600
16926 SI 16926 SI SI1 16926 1.100000 28.08600
16927 SI 16927 SI SI1 16927 1.100000 28.08600
16928 SI 16928 SI SI1 16928 1.100000 28.08600
16929 SI 16929 SI SI1 16929 1.100000 28.08600
16930 SI 16930 SI SI1 16930 1.100000 28.08600
16931 SI 16931 SI SI1 16931 1.100000 28.08600
16932 SI 16932 SI SI1 16932 1.100000 28.08600
16933 SI 16933 SI SI1 16933 1.100000 28.08600
16934 SI 16934 SI SI1 16934 1.100000 28.08600
16935 SI 16935 SI SI1 16935 1.100000 28.08600
16936 SI 16936 SI SI1 16936 1.100000 28.08600
16937 SI 16937 SI SI1 16937 1.100000 28.08600
16938 SI 16938 SI SI1 16938 1.100000 28.08600
16939 SI 16939 SI SI1 16939 1.100000 28.08600
16940 SI 16940 SI SI1 16940 1.100000 28.08600
16941 SI 16941 SI SI1 16941 1.100000 28.08600
16942 SI 16942 SI SI1 16942 1.100000 28.08600
16943 SI 16943 SI SI1 16943 1.100000 28.08600
16944 SI 16944 SI SI1 16944 1.100000 28.08600
16945 SI 16945 SI SI1 16945 1.100000 28.08600
16946 SI 16946 SI SI1 16946 1.100000 28.08600
16947 SI 16947 SI SI1 16947 1.100000 28.08600
16948 SI 16948 SI SI1 16948 1.100000 28.08600
16949 SI 16949 SI SI1 16949 1.100000 28.08600
16950 SI 16950 SI SI1 16950 1.100000 28.08600
16951 SI 16951 SI SI1 16951 1.100000 28.08600
16952 SI 16952 SI SI1 16952 1.100000 28.08600
16953 SI 16953 SI SI1 16953 1.100000 28.08600
16954 SI 16954 SI SI1 16954 1.100000 28.08600
16955 SI 16955 SI SI1 16955 1.100000 28.08600
16956 SI 16956 SI SI1 16956 1.100000 28.08600
16957 SI 16957 SI SI1 16957 1.100000 28.08600
16958 SI 16958 SI SI1 16958 1.100000 28.08600
16959 SI 16959 SI SI1 16959 1.100000 28.08600
16960 SI 16960 SI SI1 16960 1.100000 28.08600
16961 SI 16961 SI SI1 16961 1.100000 28.08600
16962 SI 16962 SI SI1 16962 1.100000 28.08600
16963 SI 16963 SI SI1 16963 1.100000 28.08600
16964 SI 16964 SI SI1 16964 1.100000 28.08600
16965 SI 16965 SI SI1 16965 1.100000 28.08600
16966 SI 16966 SI SI1 16966 1.100000 28.08600
16967 SI 16967 SI SI1 16967 1.100000 28.08600
16968 SI 16968 SI SI1 16968 1.100000 28.08600
16969 SI 16969 SI SI1 16969 1.100000 28.08600
16970 SI 16970 SI SI1 16970 1.100000 28.08600
16971 SI 16971 SI SI1 16971 1.100000 28.08600
16972 SI 16972 SI SI1 16972 1.100000 28.08600
16973 SI 16973 SI SI1 16973 1.100000 28.08600
16974 SI 16974 SI SI1 16974 1.100000 28.08600
16975 SI 16975 SI SI1 16975 1.100000 28.08600
16976 SI 16976 SI SI1 16976 1.100000 28.08600
16977 SI 16977 SI SI1 16977 1.100000 28.08600
16978 SI 16978 SI SI1 16978 1.100000 28.08600
16979 SI 16979 SI SI1 16979 1.100000 28.08600
16980 SI 16980 SI SI1 16980 1.100000 28.08600
16981 SI 16981 SI SI1 16981 1.100000 28.08600
16982 SI 16982 SI SI1 16982 1.100000 28.08600
16983 SI 16983 SI SI1 16983 1.100000 28.08600
16984 SI 16984 SI SI1 16984 1.100000 28.08600
16985 SI 16985 SI SI1 16985 1.100000 28.08600
16986 SI 16986 SI SI1 16986 1.100000 28.08600
16987 SI 16987 SI SI1 16987 1.100000 28.08600
16988 SI 16988 SI SI1 16988 1.100000 28.08600
16989 SI 16989 SI SI1 16989 1.100000 28.08600
16990 SI 16990 SI SI1 16990 1.100000 28.08600
16991 SI 16991 SI SI1 16991 1.100000 28.08600
16992 SI 16992 SI SI1 16992 1.100000 28.08600
16993 SI 16993 SI SI1 16993 1.100000 28.08600
16994 SI 16994 SI SI1 16994 1.100000 28.08600
16995 SI 16995 SI SI1 16995 1.100000 28.08600
16996 SI 16996 SI SI1 16996 1.100000 28.08600
16997 SI 16997 SI SI1 16997 1.100000 28.08600
16998 SI 16998 SI SI1 16998 1.100000 28.08600
16999 SI 16999 SI SI1 16999 1.100000 28.08600
17000 SI 17000 SI SI1 17000 1.100000 28.08600
17001 SI 17001 SI SI1 17001 1.100000 28.08600
17002 SI 17002 SI SI1 17002 1.100000 28.08600
17003 SI 17003 SI SI1 17003 1.100000 28.08600
17004 SI 17004 SI SI1 17004 1.100000 28.08600
17005 SI 17005 SI SI1 17005 1.100000 28.08600
17006 SI 17006 SI SI1 17006 1.100000 28.08600
17007 SI 17007 SI SI1 17007 1.100000 28.08600
17008 SI 17008 SI SI1 17008 1.100000 28.08600
17009 SI 17009 SI SI1 17009 1.100000 28.08600
17010 SI 17010 SI SI1 17010 1.100000 28.08600
17011 SI 17011 SI SI1 17011 1.100000 28.08600
17012 SI 17012 SI SI1 17012 1.100000 28.08600
17013 SI 17013 SI SI1 17013 1.100000 28.08600
17014 SI 17014 SI SI1 17014 1.100000 28.08600
17015 SI 17015 SI SI1 17015 1.100000 28.08600
17016 SI 17016 SI SI1 17016 1.100000 28.08600
17017 SI 17017 SI SI1 17017 1.100000 28.08600
17018 ha 17018 TPSG HA2 17018 0.1332 1.008000
17019 ca 17018 TPSG CA2 17019 -0.0753 12.010000
17020 ca 17018 TPSG CA1 17020 -0.361 12.010000
17021 si 17018 TPSG Si 17021 1.1 28.085000
17022 ca 17018 TPSG CA6 17022 -0.0753 12.010000
17023 ha 17018 TPSG HH6 17023 0.1332 1.008000
17024 ca 17018 TPSG CA5 17024 -0.1548 12.010000
17025 ha 17018 TPSG HA5 17025 0.1282 1.008000
17026 ca 17018 TPSG CA4 17026 -0.1028 12.010000
17027 ha 17018 TPSG HA4 17027 0.1262 1.008000
17028 ca 17018 TPSG CA3 17028 -0.1548 12.010000
17029 ha 17018 TPSG HA3 17029 0.1282 1.008000
17030 OA 17018 TPSG O1 17030 -0.675000 15.99940
17031 HG 17018 TPSG H6 17031 0.400000 2.01600
17032 ha 17019 TPSG HA2 17032 0.1332 1.008000
17033 ca 17019 TPSG CA2 17033 -0.0753 12.010000
17034 ca 17019 TPSG CA1 17034 -0.361 12.010000
17035 si 17019 TPSG Si 17035 1.1 28.085000
17036 ca 17019 TPSG CA6 17036 -0.0753 12.010000
17037 ha 17019 TPSG HH6 17037 0.1332 1.008000
17038 ca 17019 TPSG CA5 17038 -0.1548 12.010000
17039 ha 17019 TPSG HA5 17039 0.1282 1.008000
17040 ca 17019 TPSG CA4 17040 -0.1028 12.010000
17041 ha 17019 TPSG HA4 17041 0.1262 1.008000
17042 ca 17019 TPSG CA3 17042 -0.1548 12.010000
17043 ha 17019 TPSG HA3 17043 0.1282 1.008000
17044 OA 17019 TPSG O1 17044 -0.675000 15.99940
17045 HG 17019 TPSG H6 17045 0.400000 2.01600
17046 ha 17020 TPSG HA2 17046 0.1332 1.008000
17047 ca 17020 TPSG CA2 17047 -0.0753 12.010000
17048 ca 17020 TPSG CA1 17048 -0.361 12.010000
17049 si 17020 TPSG Si 17049 1.1 28.085000
17050 ca 17020 TPSG CA6 17050 -0.0753 12.010000
17051 ha 17020 TPSG HH6 17051 0.1332 1.008000
17052 ca 17020 TPSG CA5 17052 -0.1548 12.010000
17053 ha 17020 TPSG HA5 17053 0.1282 1.008000
17054 ca 17020 TPSG CA4 17054 -0.1028 12.010000
17055 ha 17020 TPSG HA4 17055 0.1262 1.008000
17056 ca 17020 TPSG CA3 17056 -0.1548 12.010000
17057 ha 17020 TPSG HA3 17057 0.1282 1.008000
17058 OA 17020 TPSG O1 17058 -0.675000 15.99940
17059 HG 17020 TPSG H6 17059 0.400000 2.01600
17060 ha 17021 TPSG HA2 17060 0.1332 1.008000
17061 ca 17021 TPSG CA2 17061 -0.0753 12.010000
17062 ca 17021 TPSG CA1 17062 -0.361 12.010000
17063 si 17021 TPSG Si 17063 1.1 28.085000
17064 ca 17021 TPSG CA6 17064 -0.0753 12.010000
17065 ha 17021 TPSG HH6 17065 0.1332 1.008000
17066 ca 17021 TPSG CA5 17066 -0.1548 12.010000
17067 ha 17021 TPSG HA5 17067 0.1282 1.008000
17068 ca 17021 TPSG CA4 17068 -0.1028 12.010000
17069 ha 17021 TPSG HA4 17069 0.1262 1.008000
17070 ca 17021 TPSG CA3 17070 -0.1548 12.010000
17071 ha 17021 TPSG HA3 17071 0.1282 1.008000
17072 OA 17021 TPSG O1 17072 -0.675000 15.99940
17073 HG 17021 TPSG H6 17073 0.400000 2.01600
17074 ha 17022 TPSG HA2 17074 0.1332 1.008000
17075 ca 17022 TPSG CA2 17075 -0.0753 12.010000
17076 ca 17022 TPSG CA1 17076 -0.361 12.010000
17077 si 17022 TPSG Si 17077 1.1 28.085000
17078 ca 17022 TPSG CA6 17078 -0.0753 12.010000
17079 ha 17022 TPSG HH6 17079 0.1332 1.008000
17080 ca 17022 TPSG CA5 17080 -0.1548 12.010000
17081 ha 17022 TPSG HA5 17081 0.1282 1.008000
17082 ca 17022 TPSG CA4 17082 -0.1028 12.010000
17083 ha 17022 TPSG HA4 17083 0.1262 1.008000
17084 ca 17022 TPSG CA3 17084 -0.1548 12.010000
17085 ha 17022 TPSG HA3 17085 0.1282 1.008000
17086 OA 17022 TPSG O1 17086 -0.675000 15.99940
17087 HG 17022 TPSG H6 17087 0.400000 2.01600
17088 ha 17023 TPSG HA2 17088 0.1332 1.008000
17089 ca 17023 TPSG CA2 17089 -0.0753 12.010000
17090 ca 17023 TPSG CA1 17090 -0.361 12.010000
17091 si 17023 TPSG Si 17091 1.1 28.085000
17092 ca 17023 TPSG CA6 17092 -0.0753 12.010000
17093 ha 17023 TPSG HH6 17093 0.1332 1.008000
17094 ca 17023 TPSG CA5 17094 -0.1548 12.010000
17095 ha 17023 TPSG HA5 17095 0.1282 1.008000
17096 ca 17023 TPSG CA4 17096 -0.1028 12.010000
17097 ha 17023 TPSG HA4 17097 0.1262 1.008000
17098 ca 17023 TPSG CA3 17098 -0.1548 12.010000
17099 ha 17023 TPSG HA3 17099 0.1282 1.008000
17100 OA 17023 TPSG O1 17100 -0.675000 15.99940
17101 HG 17023 TPSG H6 17101 0.400000 2.01600
17102 ha 17024 TPSG HA2 17102 0.1332 1.008000
17103 ca 17024 TPSG CA2 17103 -0.0753 12.010000
17104 ca 17024 TPSG CA1 17104 -0.361 12.010000
17105 si 17024 TPSG Si 17105 1.1 28.085000
17106 ca 17024 TPSG CA6 17106 -0.0753 12.010000
17107 ha 17024 TPSG HH6 17107 0.1332 1.008000
17108 ca 17024 TPSG CA5 17108 -0.1548 12.010000
17109 ha 17024 TPSG HA5 17109 0.1282 1.008000
17110 ca 17024 TPSG CA4 17110 -0.1028 12.010000
17111 ha 17024 TPSG HA4 17111 0.1262 1.008000
17112 ca 17024 TPSG CA3 17112 -0.1548 12.010000
17113 ha 17024 TPSG HA3 17113 0.1282 1.008000
17114 OA 17024 TPSG O1 17114 -0.675000 15.99940
17115 HG 17024 TPSG H6 17115 0.400000 2.01600
17116 ha 17025 TPSG HA2 17116 0.1332 1.008000
17117 ca 17025 TPSG CA2 17117 -0.0753 12.010000
17118 ca 17025 TPSG CA1 17118 -0.361 12.010000
17119 si 17025 TPSG Si 17119 1.1 28.085000
17120 ca 17025 TPSG CA6 17120 -0.0753 12.010000
17121 ha 17025 TPSG HH6 17121 0.1332 1.008000
17122 ca 17025 TPSG CA5 17122 -0.1548 12.010000
17123 ha 17025 TPSG HA5 17123 0.1282 1.008000
17124 ca 17025 TPSG CA4 17124 -0.1028 12.010000
17125 ha 17025 TPSG HA4 17125 0.1262 1.008000
17126 ca 17025 TPSG CA3 17126 -0.1548 12.010000
17127 ha 17025 TPSG HA3 17127 0.1282 1.008000
17128 OA 17025 TPSG O1 17128 -0.675000 15.99940
17129 HG 17025 TPSG H6 17129 0.400000 2.01600
17130 ha 17026 TPSG HA2 17130 0.1332 1.008000
17131 ca 17026 TPSG CA2 17131 -0.0753 12.010000
17132 ca 17026 TPSG CA1 17132 -0.361 12.010000
17133 si 17026 TPSG Si 17133 1.1 28.085000
17134 ca 17026 TPSG CA6 17134 -0.0753 12.010000
17135 ha 17026 TPSG HH6 17135 0.1332 1.008000
17136 ca 17026 TPSG CA5 17136 -0.1548 12.010000
17137 ha 17026 TPSG HA5 17137 0.1282 1.008000
17138 ca 17026 TPSG CA4 17138 -0.1028 12.010000
17139 ha 17026 TPSG HA4 17139 0.1262 1.008000
17140 ca 17026 TPSG CA3 17140 -0.1548 12.010000
17141 ha 17026 TPSG HA3 17141 0.1282 1.008000
17142 OA 17026 TPSG O1 17142 -0.675000 15.99940
17143 HG 17026 TPSG H6 17143 0.400000 2.01600
17144 ha 17027 TPSG HA2 17144 0.1332 1.008000
17145 ca 17027 TPSG CA2 17145 -0.0753 12.010000
17146 ca 17027 TPSG CA1 17146 -0.361 12.010000
17147 si 17027 TPSG Si 17147 1.1 28.085000
17148 ca 17027 TPSG CA6 17148 -0.0753 12.010000
17149 ha 17027 TPSG HH6 17149 0.1332 1.008000
17150 ca 17027 TPSG CA5 17150 -0.1548 12.010000
17151 ha 17027 TPSG HA5 17151 0.1282 1.008000
17152 ca 17027 TPSG CA4 17152 -0.1028 12.010000
17153 ha 17027 TPSG HA4 17153 0.1262 1.008000
17154 ca 17027 TPSG CA3 17154 -0.1548 12.010000
17155 ha 17027 TPSG HA3 17155 0.1282 1.008000
17156 OA 17027 TPSG O1 17156 -0.675000 15.99940
17157 HG 17027 TPSG H6 17157 0.400000 2.01600
17158 ha 17028 TPSG HA2 17158 0.1332 1.008000
17159 ca 17028 TPSG CA2 17159 -0.0753 12.010000
17160 ca 17028 TPSG CA1 17160 -0.361 12.010000
17161 si 17028 TPSG Si 17161 1.1 28.085000
17162 ca 17028 TPSG CA6 17162 -0.0753 12.010000
17163 ha 17028 TPSG HH6 17163 0.1332 1.008000
17164 ca 17028 TPSG CA5 17164 -0.1548 12.010000
17165 ha 17028 TPSG HA5 17165 0.1282 1.008000
17166 ca 17028 TPSG CA4 17166 -0.1028 12.010000
17167 ha 17028 TPSG HA4 17167 0.1262 1.008000
17168 ca 17028 TPSG CA3 17168 -0.1548 12.010000
17169 ha 17028 TPSG HA3 17169 0.1282 1.008000
17170 OA 17028 TPSG O1 17170 -0.675000 15.99940
17171 HG 17028 TPSG H6 17171 0.400000 2.01600
17172 ha 17029 TPSG HA2 17172 0.1332 1.008000
17173 ca 17029 TPSG CA2 17173 -0.0753 12.010000
17174 ca 17029 TPSG CA1 17174 -0.361 12.010000
17175 si 17029 TPSG Si 17175 1.1 28.085000
17176 ca 17029 TPSG CA6 17176 -0.0753 12.010000
17177 ha 17029 TPSG HH6 17177 0.1332 1.008000
17178 ca 17029 TPSG CA5 17178 -0.1548 12.010000
17179 ha 17029 TPSG HA5 17179 0.1282 1.008000
17180 ca 17029 TPSG CA4 17180 -0.1028 12.010000
17181 ha 17029 TPSG HA4 17181 0.1262 1.008000
17182 ca 17029 TPSG CA3 17182 -0.1548 12.010000
17183 ha 17029 TPSG HA3 17183 0.1282 1.008000
17184 OA 17029 TPSG O1 17184 -0.675000 15.99940
17185 HG 17029 TPSG H6 17185 0.400000 2.01600
17186 ha 17030 TPSG HA2 17186 0.1332 1.008000
17187 ca 17030 TPSG CA2 17187 -0.0753 12.010000
17188 ca 17030 TPSG CA1 17188 -0.361 12.010000
17189 si 17030 TPSG Si 17189 1.1 28.085000
17190 ca 17030 TPSG CA6 17190 -0.0753 12.010000
17191 ha 17030 TPSG HH6 17191 0.1332 1.008000
17192 ca 17030 TPSG CA5 17192 -0.1548 12.010000
17193 ha 17030 TPSG HA5 17193 0.1282 1.008000
17194 ca 17030 TPSG CA4 17194 -0.1028 12.010000
17195 ha 17030 TPSG HA4 17195 0.1262 1.008000
17196 ca 17030 TPSG CA3 17196 -0.1548 12.010000
17197 ha 17030 TPSG HA3 17197 0.1282 1.008000
17198 OA 17030 TPSG O1 17198 -0.675000 15.99940
17199 HG 17030 TPSG H6 17199 0.400000 2.01600
17200 ha 17031 TPSG HA2 17200 0.1332 1.008000
17201 ca 17031 TPSG CA2 17201 -0.0753 12.010000
17202 ca 17031 TPSG CA1 17202 -0.361 12.010000
17203 si 17031 TPSG Si 17203 1.1 28.085000
17204 ca 17031 TPSG CA6 17204 -0.0753 12.010000
17205 ha 17031 TPSG HH6 17205 0.1332 1.008000
17206 ca 17031 TPSG CA5 17206 -0.1548 12.010000
17207 ha 17031 TPSG HA5 17207 0.1282 1.008000
17208 ca 17031 TPSG CA4 17208 -0.1028 12.010000
17209 ha 17031 TPSG HA4 17209 0.1262 1.008000
17210 ca 17031 TPSG CA3 17210 -0.1548 12.010000
17211 ha 17031 TPSG HA3 17211 0.1282 1.008000
17212 OA 17031 TPSG O1 17212 -0.675000 15.99940
17213 HG 17031 TPSG H6 17213 0.400000 2.01600
17214 ha 17032 TPSG HA2 17214 0.1332 1.008000
17215 ca 17032 TPSG CA2 17215 -0.0753 12.010000
17216 ca 17032 TPSG CA1 17216 -0.361 12.010000
17217 si 17032 TPSG Si 17217 1.1 28.085000
17218 ca 17032 TPSG CA6 17218 -0.0753 12.010000
17219 ha 17032 TPSG HH6 17219 0.1332 1.008000
17220 ca 17032 TPSG CA5 17220 -0.1548 12.010000
17221 ha 17032 TPSG HA5 17221 0.1282 1.008000
17222 ca 17032 TPSG CA4 17222 -0.1028 12.010000
17223 ha 17032 TPSG HA4 17223 0.1262 1.008000
17224 ca 17032 TPSG CA3 17224 -0.1548 12.010000
17225 ha 17032 TPSG HA3 17225 0.1282 1.008000
17226 OA 17032 TPSG O1 17226 -0.675000 15.99940
17227 HG 17032 TPSG H6 17227 0.400000 2.01600
17228 ha 17033 TPSG HA2 17228 0.1332 1.008000
17229 ca 17033 TPSG CA2 17229 -0.0753 12.010000
17230 ca 17033 TPSG CA1 17230 -0.361 12.010000
17231 si 17033 TPSG Si 17231 1.1 28.085000
17232 ca 17033 TPSG CA6 17232 -0.0753 12.010000
17233 ha 17033 TPSG HH6 17233 0.1332 1.008000
17234 ca 17033 TPSG CA5 17234 -0.1548 12.010000
17235 ha 17033 TPSG HA5 17235 0.1282 1.008000
17236 ca 17033 TPSG CA4 17236 -0.1028 12.010000
17237 ha 17033 TPSG HA4 17237 0.1262 1.008000
17238 ca 17033 TPSG CA3 17238 -0.1548 12.010000
17239 ha 17033 TPSG HA3 17239 0.1282 1.008000
17240 OA 17033 TPSG O1 17240 -0.675000 15.99940
17241 HG 17033 TPSG H6 17241 0.400000 2.01600
17242 ha 17034 TPSG HA2 17242 0.1332 1.008000
17243 ca 17034 TPSG CA2 17243 -0.0753 12.010000
17244 ca 17034 TPSG CA1 17244 -0.361 12.010000
17245 si 17034 TPSG Si 17245 1.1 28.085000
17246 ca 17034 TPSG CA6 17246 -0.0753 12.010000
17247 ha 17034 TPSG HH6 17247 0.1332 1.008000
17248 ca 17034 TPSG CA5 17248 -0.1548 12.010000
17249 ha 17034 TPSG HA5 17249 0.1282 1.008000
17250 ca 17034 TPSG CA4 17250 -0.1028 12.010000
17251 ha 17034 TPSG HA4 17251 0.1262 1.008000
17252 ca 17034 TPSG CA3 17252 -0.1548 12.010000
17253 ha 17034 TPSG HA3 17253 0.1282 1.008000
17254 OA 17034 TPSG O1 17254 -0.675000 15.99940
17255 HG 17034 TPSG H6 17255 0.400000 2.01600
17256 ha 17035 TPSG HA2 17256 0.1332 1.008000
17257 ca 17035 TPSG CA2 17257 -0.0753 12.010000
17258 ca 17035 TPSG CA1 17258 -0.361 12.010000
17259 si 17035 TPSG Si 17259 1.1 28.085000
17260 ca 17035 TPSG CA6 17260 -0.0753 12.010000
17261 ha 17035 TPSG HH6 17261 0.1332 1.008000
17262 ca 17035 TPSG CA5 17262 -0.1548 12.010000
17263 ha 17035 TPSG HA5 17263 0.1282 1.008000
17264 ca 17035 TPSG CA4 17264 -0.1028 12.010000
17265 ha 17035 TPSG HA4 17265 0.1262 1.008000
17266 ca 17035 TPSG CA3 17266 -0.1548 12.010000
17267 ha 17035 TPSG HA3 17267 0.1282 1.008000
17268 OA 17035 TPSG O1 17268 -0.675000 15.99940
17269 HG 17035 TPSG H6 17269 0.400000 2.01600
17270 ha 17036 TPSG HA2 17270 0.1332 1.008000
17271 ca 17036 TPSG CA2 17271 -0.0753 12.010000
17272 ca 17036 TPSG CA1 17272 -0.361 12.010000
17273 si 17036 TPSG Si 17273 1.1 28.085000
17274 ca 17036 TPSG CA6 17274 -0.0753 12.010000
17275 ha 17036 TPSG HH6 17275 0.1332 1.008000
17276 ca 17036 TPSG CA5 17276 -0.1548 12.010000
17277 ha 17036 TPSG HA5 17277 0.1282 1.008000
17278 ca 17036 TPSG CA4 17278 -0.1028 12.010000
17279 ha 17036 TPSG HA4 17279 0.1262 1.008000
17280 ca 17036 TPSG CA3 17280 -0.1548 12.010000
17281 ha 17036 TPSG HA3 17281 0.1282 1.008000
17282 OA 17036 TPSG O1 17282 -0.675000 15.99940
17283 HG 17036 TPSG H6 17283 0.400000 2.01600
17284 ha 17037 TPSG HA2 17284 0.1332 1.008000
17285 ca 17037 TPSG CA2 17285 -0.0753 12.010000
17286 ca 17037 TPSG CA1 17286 -0.361 12.010000
17287 si 17037 TPSG Si 17287 1.1 28.085000
17288 ca 17037 TPSG CA6 17288 -0.0753 12.010000
17289 ha 17037 TPSG HH6 17289 0.1332 1.008000
17290 ca 17037 TPSG CA5 17290 -0.1548 12.010000
17291 ha 17037 TPSG HA5 17291 0.1282 1.008000
17292 ca 17037 TPSG CA4 17292 -0.1028 12.010000
17293 ha 17037 TPSG HA4 17293 0.1262 1.008000
17294 ca 17037 TPSG CA3 17294 -0.1548 12.010000
17295 ha 17037 TPSG HA3 17295 0.1282 1.008000
17296 OA 17037 TPSG O1 17296 -0.675000 15.99940
17297 HG 17037 TPSG H6 17297 0.400000 2.01600
17298 ha 17038 TPSG HA2 17298 0.1332 1.008000
17299 ca 17038 TPSG CA2 17299 -0.0753 12.010000
17300 ca 17038 TPSG CA1 17300 -0.361 12.010000
17301 si 17038 TPSG Si 17301 1.1 28.085000
17302 ca 17038 TPSG CA6 17302 -0.0753 12.010000
17303 ha 17038 TPSG HH6 17303 0.1332 1.008000
17304 ca 17038 TPSG CA5 17304 -0.1548 12.010000
17305 ha 17038 TPSG HA5 17305 0.1282 1.008000
17306 ca 17038 TPSG CA4 17306 -0.1028 12.010000
17307 ha 17038 TPSG HA4 17307 0.1262 1.008000
17308 ca 17038 TPSG CA3 17308 -0.1548 12.010000
17309 ha 17038 TPSG HA3 17309 0.1282 1.008000
17310 OA 17038 TPSG O1 17310 -0.675000 15.99940
17311 HG 17038 TPSG H6 17311 0.400000 2.01600
17312 ha 17039 TPSG HA2 17312 0.1332 1.008000
17313 ca 17039 TPSG CA2 17313 -0.0753 12.010000
17314 ca 17039 TPSG CA1 17314 -0.361 12.010000
17315 si 17039 TPSG Si 17315 1.1 28.085000
17316 ca 17039 TPSG CA6 17316 -0.0753 12.010000
17317 ha 17039 TPSG HH6 17317 0.1332 1.008000
17318 ca 17039 TPSG CA5 17318 -0.1548 12.010000
17319 ha 17039 TPSG HA5 17319 0.1282 1.008000
17320 ca 17039 TPSG CA4 17320 -0.1028 12.010000
17321 ha 17039 TPSG HA4 17321 0.1262 1.008000
17322 ca 17039 TPSG CA3 17322 -0.1548 12.010000
17323 ha 17039 TPSG HA3 17323 0.1282 1.008000
17324 OA 17039 TPSG O1 17324 -0.675000 15.99940
17325 HG 17039 TPSG H6 17325 0.400000 2.01600
17326 ha 17040 TPSG HA2 17326 0.1332 1.008000
17327 ca 17040 TPSG CA2 17327 -0.0753 12.010000
17328 ca 17040 TPSG CA1 17328 -0.361 12.010000
17329 si 17040 TPSG Si 17329 1.1 28.085000
17330 ca 17040 TPSG CA6 17330 -0.0753 12.010000
17331 ha 17040 TPSG HH6 17331 0.1332 1.008000
17332 ca 17040 TPSG CA5 17332 -0.1548 12.010000
17333 ha 17040 TPSG HA5 17333 0.1282 1.008000
17334 ca 17040 TPSG CA4 17334 -0.1028 12.010000
17335 ha 17040 TPSG HA4 17335 0.1262 1.008000
17336 ca 17040 TPSG CA3 17336 -0.1548 12.010000
17337 ha 17040 TPSG HA3 17337 0.1282 1.008000
17338 OA 17040 TPSG O1 17338 -0.675000 15.99940
17339 HG 17040 TPSG H6 17339 0.400000 2.01600
17340 ha 17041 TPSG HA2 17340 0.1332 1.008000
17341 ca 17041 TPSG CA2 17341 -0.0753 12.010000
17342 ca 17041 TPSG CA1 17342 -0.361 12.010000
17343 si 17041 TPSG Si 17343 1.1 28.085000
17344 ca 17041 TPSG CA6 17344 -0.0753 12.010000
17345 ha 17041 TPSG HH6 17345 0.1332 1.008000
17346 ca 17041 TPSG CA5 17346 -0.1548 12.010000
17347 ha 17041 TPSG HA5 17347 0.1282 1.008000
17348 ca 17041 TPSG CA4 17348 -0.1028 12.010000
17349 ha 17041 TPSG HA4 17349 0.1262 1.008000
17350 ca 17041 TPSG CA3 17350 -0.1548 12.010000
17351 ha 17041 TPSG HA3 17351 0.1282 1.008000
17352 OA 17041 TPSG O1 17352 -0.675000 15.99940
17353 HG 17041 TPSG H6 17353 0.400000 2.01600
17354 ha 17042 TPSG HA2 17354 0.1332 1.008000
17355 ca 17042 TPSG CA2 17355 -0.0753 12.010000
17356 ca 17042 TPSG CA1 17356 -0.361 12.010000
17357 si 17042 TPSG Si 17357 1.1 28.085000
17358 ca 17042 TPSG CA6 17358 -0.0753 12.010000
17359 ha 17042 TPSG HH6 17359 0.1332 1.008000
17360 ca 17042 TPSG CA5 17360 -0.1548 12.010000
17361 ha 17042 TPSG HA5 17361 0.1282 1.008000
17362 ca 17042 TPSG CA4 17362 -0.1028 12.010000
17363 ha 17042 TPSG HA4 17363 0.1262 1.008000
17364 ca 17042 TPSG CA3 17364 -0.1548 12.010000
17365 ha 17042 TPSG HA3 17365 0.1282 1.008000
17366 OA 17042 TPSG O1 17366 -0.675000 15.99940
17367 HG 17042 TPSG H6 17367 0.400000 2.01600
17368 ha 17043 TPSG HA2 17368 0.1332 1.008000
17369 ca 17043 TPSG CA2 17369 -0.0753 12.010000
17370 ca 17043 TPSG CA1 17370 -0.361 12.010000
17371 si 17043 TPSG Si 17371 1.1 28.085000
17372 ca 17043 TPSG CA6 17372 -0.0753 12.010000
17373 ha 17043 TPSG HH6 17373 0.1332 1.008000
17374 ca 17043 TPSG CA5 17374 -0.1548 12.010000
17375 ha 17043 TPSG HA5 17375 0.1282 1.008000
17376 ca 17043 TPSG CA4 17376 -0.1028 12.010000
17377 ha 17043 TPSG HA4 17377 0.1262 1.008000
17378 ca 17043 TPSG CA3 17378 -0.1548 12.010000
17379 ha 17043 TPSG HA3 17379 0.1282 1.008000
17380 OA 17043 TPSG O1 17380 -0.675000 15.99940
17381 HG 17043 TPSG H6 17381 0.400000 2.01600
17382 ha 17044 TPSG HA2 17382 0.1332 1.008000
17383 ca 17044 TPSG CA2 17383 -0.0753 12.010000
17384 ca 17044 TPSG CA1 17384 -0.361 12.010000
17385 si 17044 TPSG Si 17385 1.1 28.085000
17386 ca 17044 TPSG CA6 17386 -0.0753 12.010000
17387 ha 17044 TPSG HH6 17387 0.1332 1.008000
17388 ca 17044 TPSG CA5 17388 -0.1548 12.010000
17389 ha 17044 TPSG HA5 17389 0.1282 1.008000
17390 ca 17044 TPSG CA4 17390 -0.1028 12.010000
17391 ha 17044 TPSG HA4 17391 0.1262 1.008000
17392 ca 17044 TPSG CA3 17392 -0.1548 12.010000
17393 ha 17044 TPSG HA3 17393 0.1282 1.008000
17394 OA 17044 TPSG O1 17394 -0.675000 15.99940
17395 HG 17044 TPSG H6 17395 0.400000 2.01600
17396 ha 17045 TPSG HA2 17396 0.1332 1.008000
17397 ca 17045 TPSG CA2 17397 -0.0753 12.010000
17398 ca 17045 TPSG CA1 17398 -0.361 12.010000
17399 si 17045 TPSG Si 17399 1.1 28.085000
17400 ca 17045 TPSG CA6 17400 -0.0753 12.010000
17401 ha 17045 TPSG HH6 17401 0.1332 1.008000
17402 ca 17045 TPSG CA5 17402 -0.1548 12.010000
17403 ha 17045 TPSG HA5 17403 0.1282 1.008000
17404 ca 17045 TPSG CA4 17404 -0.1028 12.010000
17405 ha 17045 TPSG HA4 17405 0.1262 1.008000
17406 ca 17045 TPSG CA3 17406 -0.1548 12.010000
17407 ha 17045 TPSG HA3 17407 0.1282 1.008000
17408 OA 17045 TPSG O1 17408 -0.675000 15.99940
17409 HG 17045 TPSG H6 17409 0.400000 2.01600
17410 ha 17046 TPSG HA2 17410 0.1332 1.008000
17411 ca 17046 TPSG CA2 17411 -0.0753 12.010000
17412 ca 17046 TPSG CA1 17412 -0.361 12.010000
17413 si 17046 TPSG Si 17413 1.1 28.085000
17414 ca 17046 TPSG CA6 17414 -0.0753 12.010000
17415 ha 17046 TPSG HH6 17415 0.1332 1.008000
17416 ca 17046 TPSG CA5 17416 -0.1548 12.010000
17417 ha 17046 TPSG HA5 17417 0.1282 1.008000
17418 ca 17046 TPSG CA4 17418 -0.1028 12.010000
17419 ha 17046 TPSG HA4 17419 0.1262 1.008000
17420 ca 17046 TPSG CA3 17420 -0.1548 12.010000
17421 ha 17046 TPSG HA3 17421 0.1282 1.008000
17422 OA 17046 TPSG O1 17422 -0.675000 15.99940
17423 HG 17046 TPSG H6 17423 0.400000 2.01600
17424 ha 17047 TPSG HA2 17424 0.1332 1.008000
17425 ca 17047 TPSG CA2 17425 -0.0753 12.010000
17426 ca 17047 TPSG CA1 17426 -0.361 12.010000
17427 si 17047 TPSG Si 17427 1.1 28.085000
17428 ca 17047 TPSG CA6 17428 -0.0753 12.010000
17429 ha 17047 TPSG HH6 17429 0.1332 1.008000
17430 ca 17047 TPSG CA5 17430 -0.1548 12.010000
17431 ha 17047 TPSG HA5 17431 0.1282 1.008000
17432 ca 17047 TPSG CA4 17432 -0.1028 12.010000
17433 ha 17047 TPSG HA4 17433 0.1262 1.008000
17434 ca 17047 TPSG CA3 17434 -0.1548 12.010000
17435 ha 17047 TPSG HA3 17435 0.1282 1.008000
17436 OA 17047 TPSG O1 17436 -0.675000 15.99940
17437 HG 17047 TPSG H6 17437 0.400000 2.01600
17438 ha 17048 TPSG HA2 17438 0.1332 1.008000
17439 ca 17048 TPSG CA2 17439 -0.0753 12.010000
17440 ca 17048 TPSG CA1 17440 -0.361 12.010000
17441 si 17048 TPSG Si 17441 1.1 28.085000
17442 ca 17048 TPSG CA6 17442 -0.0753 12.010000
17443 ha 17048 TPSG HH6 17443 0.1332 1.008000
17444 ca 17048 TPSG CA5 17444 -0.1548 12.010000
17445 ha 17048 TPSG HA5 17445 0.1282 1.008000
17446 ca 17048 TPSG CA4 17446 -0.1028 12.010000
17447 ha 17048 TPSG HA4 17447 0.1262 1.008000
17448 ca 17048 TPSG CA3 17448 -0.1548 12.010000
17449 ha 17048 TPSG HA3 17449 0.1282 1.008000
17450 OA 17048 TPSG O1 17450 -0.675000 15.99940
17451 HG 17048 TPSG H6 17451 0.400000 2.01600
17452 ha 17049 TPSG HA2 17452 0.1332 1.008000
17453 ca 17049 TPSG CA2 17453 -0.0753 12.010000
17454 ca 17049 TPSG CA1 17454 -0.361 12.010000
17455 si 17049 TPSG Si 17455 1.1 28.085000
17456 ca 17049 TPSG CA6 17456 -0.0753 12.010000
17457 ha 17049 TPSG HH6 17457 0.1332 1.008000
17458 ca 17049 TPSG CA5 17458 -0.1548 12.010000
17459 ha 17049 TPSG HA5 17459 0.1282 1.008000
17460 ca 17049 TPSG CA4 17460 -0.1028 12.010000
17461 ha 17049 TPSG HA4 17461 0.1262 1.008000
17462 ca 17049 TPSG CA3 17462 -0.1548 12.010000
17463 ha 17049 TPSG HA3 17463 0.1282 1.008000
17464 OA 17049 TPSG O1 17464 -0.675000 15.99940
17465 HG 17049 TPSG H6 17465 0.400000 2.01600
17466 ha 17050 TPSG HA2 17466 0.1332 1.008000
17467 ca 17050 TPSG CA2 17467 -0.0753 12.010000
17468 ca 17050 TPSG CA1 17468 -0.361 12.010000
17469 si 17050 TPSG Si 17469 1.1 28.085000
17470 ca 17050 TPSG CA6 17470 -0.0753 12.010000
17471 ha 17050 TPSG HH6 17471 0.1332 1.008000
17472 ca 17050 TPSG CA5 17472 -0.1548 12.010000
17473 ha 17050 TPSG HA5 17473 0.1282 1.008000
17474 ca 17050 TPSG CA4 17474 -0.1028 12.010000
17475 ha 17050 TPSG HA4 17475 0.1262 1.008000
17476 ca 17050 TPSG CA3 17476 -0.1548 12.010000
17477 ha 17050 TPSG HA3 17477 0.1282 1.008000
17478 OA 17050 TPSG O1 17478 -0.675000 15.99940
17479 HG 17050 TPSG H6 17479 0.400000 2.01600
17480 ha 17051 TPS HA2 17480 0.1332 1.008000
17481 ca 17051 TPS CA2 17481 -0.0753 12.010000
17482 ca 17051 TPS CA1 17482 -0.361 12.010000
17483 si 17051 TPS Si 17483 1.1 28.085000
17484 ca 17051 TPS CA6 17484 -0.0753 12.010000
17485 ha 17051 TPS HH6 17485 0.1332 1.008000
17486 ca 17051 TPS CA5 17486 -0.1548 12.010000
17487 ha 17051 TPS HA5 17487 0.1282 1.008000
17488 ca 17051 TPS CA4 17488 -0.1028 12.010000
17489 ha 17051 TPS HA4 17489 0.1262 1.008000
17490 ca 17051 TPS CA3 17490 -0.1548 12.010000
17491 ha 17051 TPS HA3 17491 0.1282 1.008000
17492 ha 17052 TPS HA2 17492 0.1332 1.008000
17493 ca 17052 TPS CA2 17493 -0.0753 12.010000
17494 ca 17052 TPS CA1 17494 -0.361 12.010000
17495 si 17052 TPS Si 17495 1.1 28.085000
17496 ca 17052 TPS CA6 17496 -0.0753 12.010000
17497 ha 17052 TPS HH6 17497 0.1332 1.008000
17498 ca 17052 TPS CA5 17498 -0.1548 12.010000
17499 ha 17052 TPS HA5 17499 0.1282 1.008000
17500 ca 17052 TPS CA4 17500 -0.1028 12.010000
17501 ha 17052 TPS HA4 17501 0.1262 1.008000
17502 ca 17052 TPS CA3 17502 -0.1548 12.010000
17503 ha 17052 TPS HA3 17503 0.1282 1.008000
17504 ha 17053 TPS HA2 17504 0.1332 1.008000
17505 ca 17053 TPS CA2 17505 -0.0753 12.010000
17506 ca 17053 TPS CA1 17506 -0.361 12.010000
17507 si 17053 TPS Si 17507 1.1 28.085000
17508 ca 17053 TPS CA6 17508 -0.0753 12.010000
17509 ha 17053 TPS HH6 17509 0.1332 1.008000
17510 ca 17053 TPS CA5 17510 -0.1548 12.010000
17511 ha 17053 TPS HA5 17511 0.1282 1.008000
17512 ca 17053 TPS CA4 17512 -0.1028 12.010000
17513 ha 17053 TPS HA4 17513 0.1262 1.008000
17514 ca 17053 TPS CA3 17514 -0.1548 12.010000
17515 ha 17053 TPS HA3 17515 0.1282 1.008000
17516 ha 17054 TPS HA2 17516 0.1332 1.008000
17517 ca 17054 TPS CA2 17517 -0.0753 12.010000
17518 ca 17054 TPS CA1 17518 -0.361 12.010000
17519 si 17054 TPS Si 17519 1.1 28.085000
17520 ca 17054 TPS CA6 17520 -0.0753 12.010000
17521 ha 17054 TPS HH6 17521 0.1332 1.008000
17522 ca 17054 TPS CA5 17522 -0.1548 12.010000
17523 ha 17054 TPS HA5 17523 0.1282 1.008000
17524 ca 17054 TPS CA4 17524 -0.1028 12.010000
17525 ha 17054 TPS HA4 17525 0.1262 1.008000
17526 ca 17054 TPS CA3 17526 -0.1548 12.010000
17527 ha 17054 TPS HA3 17527 0.1282 1.008000
17528 ha 17055 TPS HA2 17528 0.1332 1.008000
17529 ca 17055 TPS CA2 17529 -0.0753 12.010000
17530 ca 17055 TPS CA1 17530 -0.361 12.010000
17531 si 17055 TPS Si 17531 1.1 28.085000
17532 ca 17055 TPS CA6 17532 -0.0753 12.010000
17533 ha 17055 TPS HH6 17533 0.1332 1.008000
17534 ca 17055 TPS CA5 17534 -0.1548 12.010000
17535 ha 17055 TPS HA5 17535 0.1282 1.008000
17536 ca 17055 TPS CA4 17536 -0.1028 12.010000
17537 ha 17055 TPS HA4 17537 0.1262 1.008000
17538 ca 17055 TPS CA3 17538 -0.1548 12.010000
17539 ha 17055 TPS HA3 17539 0.1282 1.008000
17540 ha 17056 TPS HA2 17540 0.1332 1.008000
17541 ca 17056 TPS CA2 17541 -0.0753 12.010000
17542 ca 17056 TPS CA1 17542 -0.361 12.010000
17543 si 17056 TPS Si 17543 1.1 28.085000
17544 ca 17056 TPS CA6 17544 -0.0753 12.010000
17545 ha 17056 TPS HH6 17545 0.1332 1.008000
17546 ca 17056 TPS CA5 17546 -0.1548 12.010000
17547 ha 17056 TPS HA5 17547 0.1282 1.008000
17548 ca 17056 TPS CA4 17548 -0.1028 12.010000
17549 ha 17056 TPS HA4 17549 0.1262 1.008000
17550 ca 17056 TPS CA3 17550 -0.1548 12.010000
17551 ha 17056 TPS HA3 17551 0.1282 1.008000
17552 ha 17057 TPS HA2 17552 0.1332 1.008000
17553 ca 17057 TPS CA2 17553 -0.0753 12.010000
17554 ca 17057 TPS CA1 17554 -0.361 12.010000
17555 si 17057 TPS Si 17555 1.1 28.085000
17556 ca 17057 TPS CA6 17556 -0.0753 12.010000
17557 ha 17057 TPS HH6 17557 0.1332 1.008000
17558 ca 17057 TPS CA5 17558 -0.1548 12.010000
17559 ha 17057 TPS HA5 17559 0.1282 1.008000
17560 ca 17057 TPS CA4 17560 -0.1028 12.010000
17561 ha 17057 TPS HA4 17561 0.1262 1.008000
17562 ca 17057 TPS CA3 17562 -0.1548 12.010000
17563 ha 17057 TPS HA3 17563 0.1282 1.008000
17564 ha 17058 TPS HA2 17564 0.1332 1.008000
17565 ca 17058 TPS CA2 17565 -0.0753 12.010000
17566 ca 17058 TPS CA1 17566 -0.361 12.010000
17567 si 17058 TPS Si 17567 1.1 28.085000
17568 ca 17058 TPS CA6 17568 -0.0753 12.010000
17569 ha 17058 TPS HH6 17569 0.1332 1.008000
17570 ca 17058 TPS CA5 17570 -0.1548 12.010000
17571 ha 17058 TPS HA5 17571 0.1282 1.008000
17572 ca 17058 TPS CA4 17572 -0.1028 12.010000
17573 ha 17058 TPS HA4 17573 0.1262 1.008000
17574 ca 17058 TPS CA3 17574 -0.1548 12.010000
17575 ha 17058 TPS HA3 17575 0.1282 1.008000
17576 ha 17059 TPS HA2 17576 0.1332 1.008000
17577 ca 17059 TPS CA2 17577 -0.0753 12.010000
17578 ca 17059 TPS CA1 17578 -0.361 12.010000
17579 si 17059 TPS Si 17579 1.1 28.085000
17580 ca 17059 TPS CA6 17580 -0.0753 12.010000
17581 ha 17059 TPS HH6 17581 0.1332 1.008000
17582 ca 17059 TPS CA5 17582 -0.1548 12.010000
17583 ha 17059 TPS HA5 17583 0.1282 1.008000
17584 ca 17059 TPS CA4 17584 -0.1028 12.010000
17585 ha 17059 TPS HA4 17585 0.1262 1.008000
17586 ca 17059 TPS CA3 17586 -0.1548 12.010000
17587 ha 17059 TPS HA3 17587 0.1282 1.008000
17588 ha 17060 TPS HA2 17588 0.1332 1.008000
17589 ca 17060 TPS CA2 17589 -0.0753 12.010000
17590 ca 17060 TPS CA1 17590 -0.361 12.010000
17591 si 17060 TPS Si 17591 1.1 28.085000
17592 ca 17060 TPS CA6 17592 -0.0753 12.010000
17593 ha 17060 TPS HH6 17593 0.1332 1.008000
17594 ca 17060 TPS CA5 17594 -0.1548 12.010000
17595 ha 17060 TPS HA5 17595 0.1282 1.008000
17596 ca 17060 TPS CA4 17596 -0.1028 12.010000
17597 ha 17060 TPS HA4 17597 0.1262 1.008000
17598 ca 17060 TPS CA3 17598 -0.1548 12.010000
17599 ha 17060 TPS HA3 17599 0.1282 1.008000
17600 ha 17061 TPS HA2 17600 0.1332 1.008000
17601 ca 17061 TPS CA2 17601 -0.0753 12.010000
17602 ca 17061 TPS CA1 17602 -0.361 12.010000
17603 si 17061 TPS Si 17603 1.1 28.085000
17604 ca 17061 TPS CA6 17604 -0.0753 12.010000
17605 ha 17061 TPS HH6 17605 0.1332 1.008000
17606 ca 17061 TPS CA5 17606 -0.1548 12.010000
17607 ha 17061 TPS HA5 17607 0.1282 1.008000
17608 ca 17061 TPS CA4 17608 -0.1028 12.010000
17609 ha 17061 TPS HA4 17609 0.1262 1.008000
17610 ca 17061 TPS CA3 17610 -0.1548 12.010000
17611 ha 17061 TPS HA3 17611 0.1282 1.008000
17612 ha 17062 TPS HA2 17612 0.1332 1.008000
17613 ca 17062 TPS CA2 17613 -0.0753 12.010000
17614 ca 17062 TPS CA1 17614 -0.361 12.010000
17615 si 17062 TPS Si 17615 1.1 28.085000
17616 ca 17062 TPS CA6 17616 -0.0753 12.010000
17617 ha 17062 TPS HH6 17617 0.1332 1.008000
17618 ca 17062 TPS CA5 17618 -0.1548 12.010000
17619 ha 17062 TPS HA5 17619 0.1282 1.008000
17620 ca 17062 TPS CA4 17620 -0.1028 12.010000
17621 ha 17062 TPS HA4 17621 0.1262 1.008000
17622 ca 17062 TPS CA3 17622 -0.1548 12.010000
17623 ha 17062 TPS HA3 17623 0.1282 1.008000
17624 ha 17063 TPS HA2 17624 0.1332 1.008000
17625 ca 17063 TPS CA2 17625 -0.0753 12.010000
17626 ca 17063 TPS CA1 17626 -0.361 12.010000
17627 si 17063 TPS Si 17627 1.1 28.085000
17628 ca 17063 TPS CA6 17628 -0.0753 12.010000
17629 ha 17063 TPS HH6 17629 0.1332 1.008000
17630 ca 17063 TPS CA5 17630 -0.1548 12.010000
17631 ha 17063 TPS HA5 17631 0.1282 1.008000
17632 ca 17063 TPS CA4 17632 -0.1028 12.010000
17633 ha 17063 TPS HA4 17633 0.1262 1.008000
17634 ca 17063 TPS CA3 17634 -0.1548 12.010000
17635 ha 17063 TPS HA3 17635 0.1282 1.008000
17636 ha 17064 TPS HA2 17636 0.1332 1.008000
17637 ca 17064 TPS CA2 17637 -0.0753 12.010000
17638 ca 17064 TPS CA1 17638 -0.361 12.010000
17639 si 17064 TPS Si 17639 1.1 28.085000
17640 ca 17064 TPS CA6 17640 -0.0753 12.010000
17641 ha 17064 TPS HH6 17641 0.1332 1.008000
17642 ca 17064 TPS CA5 17642 -0.1548 12.010000
17643 ha 17064 TPS HA5 17643 0.1282 1.008000
17644 ca 17064 TPS CA4 17644 -0.1028 12.010000
17645 ha 17064 TPS HA4 17645 0.1262 1.008000
17646 ca 17064 TPS CA3 17646 -0.1548 12.010000
17647 ha 17064 TPS HA3 17647 0.1282 1.008000
17648 ha 17065 TPS HA2 17648 0.1332 1.008000
17649 ca 17065 TPS CA2 17649 -0.0753 12.010000
17650 ca 17065 TPS CA1 17650 -0.361 12.010000
17651 si 17065 TPS Si 17651 1.1 28.085000
17652 ca 17065 TPS CA6 17652 -0.0753 12.010000
17653 ha 17065 TPS HH6 17653 0.1332 1.008000
17654 ca 17065 TPS CA5 17654 -0.1548 12.010000
17655 ha 17065 TPS HA5 17655 0.1282 1.008000
17656 ca 17065 TPS CA4 17656 -0.1028 12.010000
17657 ha 17065 TPS HA4 17657 0.1262 1.008000
17658 ca 17065 TPS CA3 17658 -0.1548 12.010000
17659 ha 17065 TPS HA3 17659 0.1282 1.008000
17660 ha 17066 TPS HA2 17660 0.1332 1.008000
17661 ca 17066 TPS CA2 17661 -0.0753 12.010000
17662 ca 17066 TPS CA1 17662 -0.361 12.010000
17663 si 17066 TPS Si 17663 1.1 28.085000
17664 ca 17066 TPS CA6 17664 -0.0753 12.010000
17665 ha 17066 TPS HH6 17665 0.1332 1.008000
17666 ca 17066 TPS CA5 17666 -0.1548 12.010000
17667 ha 17066 TPS HA5 17667 0.1282 1.008000
17668 ca 17066 TPS CA4 17668 -0.1028 12.010000
17669 ha 17066 TPS HA4 17669 0.1262 1.008000
17670 ca 17066 TPS CA3 17670 -0.1548 12.010000
17671 ha 17066 TPS HA3 17671 0.1282 1.008000
17672 ha 17067 TPS HA2 17672 0.1332 1.008000
17673 ca 17067 TPS CA2 17673 -0.0753 12.010000
17674 ca 17067 TPS CA1 17674 -0.361 12.010000
17675 si 17067 TPS Si 17675 1.1 28.085000
17676 ca 17067 TPS CA6 17676 -0.0753 12.010000
17677 ha 17067 TPS HH6 17677 0.1332 1.008000
17678 ca 17067 TPS CA5 17678 -0.1548 12.010000
17679 ha 17067 TPS HA5 17679 0.1282 1.008000
17680 ca 17067 TPS CA4 17680 -0.1028 12.010000
17681 ha 17067 TPS HA4 17681 0.1262 1.008000
17682 ca 17067 TPS CA3 17682 -0.1548 12.010000
17683 ha 17067 TPS HA3 17683 0.1282 1.008000
17684 ha 17068 TPS HA2 17684 0.1332 1.008000
17685 ca 17068 TPS CA2 17685 -0.0753 12.010000
17686 ca 17068 TPS CA1 17686 -0.361 12.010000
17687 si 17068 TPS Si 17687 1.1 28.085000
17688 ca 17068 TPS CA6 17688 -0.0753 12.010000
17689 ha 17068 TPS HH6 17689 0.1332 1.008000
17690 ca 17068 TPS CA5 17690 -0.1548 12.010000
17691 ha 17068 TPS HA5 17691 0.1282 1.008000
17692 ca 17068 TPS CA4 17692 -0.1028 12.010000
17693 ha 17068 TPS HA4 17693 0.1262 1.008000
17694 ca 17068 TPS CA3 17694 -0.1548 12.010000
17695 ha 17068 TPS HA3 17695 0.1282 1.008000
17696 ha 17069 TPS HA2 17696 0.1332 1.008000
17697 ca 17069 TPS CA2 17697 -0.0753 12.010000
17698 ca 17069 TPS CA1 17698 -0.361 12.010000
17699 si 17069 TPS Si 17699 1.1 28.085000
17700 ca 17069 TPS CA6 17700 -0.0753 12.010000
17701 ha 17069 TPS HH6 17701 0.1332 1.008000
17702 ca 17069 TPS CA5 17702 -0.1548 12.010000
17703 ha 17069 TPS HA5 17703 0.1282 1.008000
17704 ca 17069 TPS CA4 17704 -0.1028 12.010000
17705 ha 17069 TPS HA4 17705 0.1262 1.008000
17706 ca 17069 TPS CA3 17706 -0.1548 12.010000
17707 ha 17069 TPS HA3 17707 0.1282 1.008000
17708 ha 17070 TPS HA2 17708 0.1332 1.008000
17709 ca 17070 TPS CA2 17709 -0.0753 12.010000
17710 ca 17070 TPS CA1 17710 -0.361 12.010000
17711 si 17070 TPS Si 17711 1.1 28.085000
17712 ca 17070 TPS CA6 17712 -0.0753 12.010000
17713 ha 17070 TPS HH6 17713 0.1332 1.008000
17714 ca 17070 TPS CA5 17714 -0.1548 12.010000
17715 ha 17070 TPS HA5 17715 0.1282 1.008000
17716 ca 17070 TPS CA4 17716 -0.1028 12.010000
17717 ha 17070 TPS HA4 17717 0.1262 1.008000
17718 ca 17070 TPS CA3 17718 -0.1548 12.010000
17719 ha 17070 TPS HA3 17719 0.1282 1.008000
17720 ha 17071 TPS HA2 17720 0.1332 1.008000
17721 ca 17071 TPS CA2 17721 -0.0753 12.010000
17722 ca 17071 TPS CA1 17722 -0.361 12.010000
17723 si 17071 TPS Si 17723 1.1 28.085000
17724 ca 17071 TPS CA6 17724 -0.0753 12.010000
17725 ha 17071 TPS HH6 17725 0.1332 1.008000
17726 ca 17071 TPS CA5 17726 -0.1548 12.010000
17727 ha 17071 TPS HA5 17727 0.1282 1.008000
17728 ca 17071 TPS CA4 17728 -0.1028 12.010000
17729 ha 17071 TPS HA4 17729 0.1262 1.008000
17730 ca 17071 TPS CA3 17730 -0.1548 12.010000
17731 ha 17071 TPS HA3 17731 0.1282 1.008000
17732 ha 17072 TPS HA2 17732 0.1332 1.008000
17733 ca 17072 TPS CA2 17733 -0.0753 12.010000
17734 ca 17072 TPS CA1 17734 -0.361 12.010000
17735 si 17072 TPS Si 17735 1.1 28.085000
17736 ca 17072 TPS CA6 17736 -0.0753 12.010000
17737 ha 17072 TPS HH6 17737 0.1332 1.008000
17738 ca 17072 TPS CA5 17738 -0.1548 12.010000
17739 ha 17072 TPS HA5 17739 0.1282 1.008000
17740 ca 17072 TPS CA4 17740 -0.1028 12.010000
17741 ha 17072 TPS HA4 17741 0.1262 1.008000
17742 ca 17072 TPS CA3 17742 -0.1548 12.010000
17743 ha 17072 TPS HA3 17743 0.1282 1.008000
17744 ha 17073 TPS HA2 17744 0.1332 1.008000
17745 ca 17073 TPS CA2 17745 -0.0753 12.010000
17746 ca 17073 TPS CA1 17746 -0.361 12.010000
17747 si 17073 TPS Si 17747 1.1 28.085000
17748 ca 17073 TPS CA6 17748 -0.0753 12.010000
17749 ha 17073 TPS HH6 17749 0.1332 1.008000
17750 ca 17073 TPS CA5 17750 -0.1548 12.010000
17751 ha 17073 TPS HA5 17751 0.1282 1.008000
17752 ca 17073 TPS CA4 17752 -0.1028 12.010000
17753 ha 17073 TPS HA4 17753 0.1262 1.008000
17754 ca 17073 TPS CA3 17754 -0.1548 12.010000
17755 ha 17073 TPS HA3 17755 0.1282 1.008000
17756 ha 17074 TPS HA2 17756 0.1332 1.008000
17757 ca 17074 TPS CA2 17757 -0.0753 12.010000
17758 ca 17074 TPS CA1 17758 -0.361 12.010000
17759 si 17074 TPS Si 17759 1.1 28.085000
17760 ca 17074 TPS CA6 17760 -0.0753 12.010000
17761 ha 17074 TPS HH6 17761 0.1332 1.008000
17762 ca 17074 TPS CA5 17762 -0.1548 12.010000
17763 ha 17074 TPS HA5 17763 0.1282 1.008000
17764 ca 17074 TPS CA4 17764 -0.1028 12.010000
17765 ha 17074 TPS HA4 17765 0.1262 1.008000
17766 ca 17074 TPS CA3 17766 -0.1548 12.010000
17767 ha 17074 TPS HA3 17767 0.1282 1.008000
17768 ha 17075 TPS HA2 17768 0.1332 1.008000
17769 ca 17075 TPS CA2 17769 -0.0753 12.010000
17770 ca 17075 TPS CA1 17770 -0.361 12.010000
17771 si 17075 TPS Si 17771 1.1 28.085000
17772 ca 17075 TPS CA6 17772 -0.0753 12.010000
17773 ha 17075 TPS HH6 17773 0.1332 1.008000
17774 ca 17075 TPS CA5 17774 -0.1548 12.010000
17775 ha 17075 TPS HA5 17775 0.1282 1.008000
17776 ca 17075 TPS CA4 17776 -0.1028 12.010000
17777 ha 17075 TPS HA4 17777 0.1262 1.008000
17778 ca 17075 TPS CA3 17778 -0.1548 12.010000
17779 ha 17075 TPS HA3 17779 0.1282 1.008000
17780 ha 17076 TPS HA2 17780 0.1332 1.008000
17781 ca 17076 TPS CA2 17781 -0.0753 12.010000
17782 ca 17076 TPS CA1 17782 -0.361 12.010000
17783 si 17076 TPS Si 17783 1.1 28.085000
17784 ca 17076 TPS CA6 17784 -0.0753 12.010000
17785 ha 17076 TPS HH6 17785 0.1332 1.008000
17786 ca 17076 TPS CA5 17786 -0.1548 12.010000
17787 ha 17076 TPS HA5 17787 0.1282 1.008000
17788 ca 17076 TPS CA4 17788 -0.1028 12.010000
17789 ha 17076 TPS HA4 17789 0.1262 1.008000
17790 ca 17076 TPS CA3 17790 -0.1548 12.010000
17791 ha 17076 TPS HA3 17791 0.1282 1.008000
17792 ha 17077 TPS HA2 17792 0.1332 1.008000
17793 ca 17077 TPS CA2 17793 -0.0753 12.010000
17794 ca 17077 TPS CA1 17794 -0.361 12.010000
17795 si 17077 TPS Si 17795 1.1 28.085000
17796 ca 17077 TPS CA6 17796 -0.0753 12.010000
17797 ha 17077 TPS HH6 17797 0.1332 1.008000
17798 ca 17077 TPS CA5 17798 -0.1548 12.010000
17799 ha 17077 TPS HA5 17799 0.1282 1.008000
17800 ca 17077 TPS CA4 17800 -0.1028 12.010000
17801 ha 17077 TPS HA4 17801 0.1262 1.008000
17802 ca 17077 TPS CA3 17802 -0.1548 12.010000
17803 ha 17077 TPS HA3 17803 0.1282 1.008000
17804 ha 17078 TPS HA2 17804 0.1332 1.008000
17805 ca 17078 TPS CA2 17805 -0.0753 12.010000
17806 ca 17078 TPS CA1 17806 -0.361 12.010000
17807 si 17078 TPS Si 17807 1.1 28.085000
17808 ca 17078 TPS CA6 17808 -0.0753 12.010000
17809 ha 17078 TPS HH6 17809 0.1332 1.008000
17810 ca 17078 TPS CA5 17810 -0.1548 12.010000
17811 ha 17078 TPS HA5 17811 0.1282 1.008000
17812 ca 17078 TPS CA4 17812 -0.1028 12.010000
17813 ha 17078 TPS HA4 17813 0.1262 1.008000
17814 ca 17078 TPS CA3 17814 -0.1548 12.010000
17815 ha 17078 TPS HA3 17815 0.1282 1.008000
17816 ha 17079 TPS HA2 17816 0.1332 1.008000
17817 ca 17079 TPS CA2 17817 -0.0753 12.010000
17818 ca 17079 TPS CA1 17818 -0.361 12.010000
17819 si 17079 TPS Si 17819 1.1 28.085000
17820 ca 17079 TPS CA6 17820 -0.0753 12.010000
17821 ha 17079 TPS HH6 17821 0.1332 1.008000
17822 ca 17079 TPS CA5 17822 -0.1548 12.010000
17823 ha 17079 TPS HA5 17823 0.1282 1.008000
17824 ca 17079 TPS CA4 17824 -0.1028 12.010000
17825 ha 17079 TPS HA4 17825 0.1262 1.008000
17826 ca 17079 TPS CA3 17826 -0.1548 12.010000
17827 ha 17079 TPS HA3 17827 0.1282 1.008000
17828 ha 17080 TPS HA2 17828 0.1332 1.008000
17829 ca 17080 TPS CA2 17829 -0.0753 12.010000
17830 ca 17080 TPS CA1 17830 -0.361 12.010000
17831 si 17080 TPS Si 17831 1.1 28.085000
17832 ca 17080 TPS CA6 17832 -0.0753 12.010000
17833 ha 17080 TPS HH6 17833 0.1332 1.008000
17834 ca 17080 TPS CA5 17834 -0.1548 12.010000
17835 ha 17080 TPS HA5 17835 0.1282 1.008000
17836 ca 17080 TPS CA4 17836 -0.1028 12.010000
17837 ha 17080 TPS HA4 17837 0.1262 1.008000
17838 ca 17080 TPS CA3 17838 -0.1548 12.010000
17839 ha 17080 TPS HA3 17839 0.1282 1.008000
17840 ha 17081 TPS HA2 17840 0.1332 1.008000
17841 ca 17081 TPS CA2 17841 -0.0753 12.010000
17842 ca 17081 TPS CA1 17842 -0.361 12.010000
17843 si 17081 TPS Si 17843 1.1 28.085000
17844 ca 17081 TPS CA6 17844 -0.0753 12.010000
17845 ha 17081 TPS HH6 17845 0.1332 1.008000
17846 ca 17081 TPS CA5 17846 -0.1548 12.010000
17847 ha 17081 TPS HA5 17847 0.1282 1.008000
17848 ca 17081 TPS CA4 17848 -0.1028 12.010000
17849 ha 17081 TPS HA4 17849 0.1262 1.008000
17850 ca 17081 TPS CA3 17850 -0.1548 12.010000
17851 ha 17081 TPS HA3 17851 0.1282 1.008000
17852 ha 17082 TPS HA2 17852 0.1332 1.008000
17853 ca 17082 TPS CA2 17853 -0.0753 12.010000
17854 ca 17082 TPS CA1 17854 -0.361 12.010000
17855 si 17082 TPS Si 17855 1.1 28.085000
17856 ca 17082 TPS CA6 17856 -0.0753 12.010000
17857 ha 17082 TPS HH6 17857 0.1332 1.008000
17858 ca 17082 TPS CA5 17858 -0.1548 12.010000
17859 ha 17082 TPS HA5 17859 0.1282 1.008000
17860 ca 17082 TPS CA4 17860 -0.1028 12.010000
17861 ha 17082 TPS HA4 17861 0.1262 1.008000
17862 ca 17082 TPS CA3 17862 -0.1548 12.010000
17863 ha 17082 TPS HA3 17863 0.1282 1.008000
17864 ha 17083 TPS HA2 17864 0.1332 1.008000
17865 ca 17083 TPS CA2 17865 -0.0753 12.010000
17866 ca 17083 TPS CA1 17866 -0.361 12.010000
17867 si 17083 TPS Si 17867 1.1 28.085000
17868 ca 17083 TPS CA6 17868 -0.0753 12.010000
17869 ha 17083 TPS HH6 17869 0.1332 1.008000
17870 ca 17083 TPS CA5 17870 -0.1548 12.010000
17871 ha 17083 TPS HA5 17871 0.1282 1.008000
17872 ca 17083 TPS CA4 17872 -0.1028 12.010000
17873 ha 17083 TPS HA4 17873 0.1262 1.008000
17874 ca 17083 TPS CA3 17874 -0.1548 12.010000
17875 ha 17083 TPS HA3 17875 0.1282 1.008000
17876 ha 17084 TPS HA2 17876 0.1332 1.008000
17877 ca 17084 TPS CA2 17877 -0.0753 12.010000
17878 ca 17084 TPS CA1 17878 -0.361 12.010000
17879 si 17084 TPS Si 17879 1.1 28.085000
17880 ca 17084 TPS CA6 17880 -0.0753 12.010000
17881 ha 17084 TPS HH6 17881 0.1332 1.008000
17882 ca 17084 TPS CA5 17882 -0.1548 12.010000
17883 ha 17084 TPS HA5 17883 0.1282 1.008000
17884 ca 17084 TPS CA4 17884 -0.1028 12.010000
17885 ha 17084 TPS HA4 17885 0.1262 1.008000
17886 ca 17084 TPS CA3 17886 -0.1548 12.010000
17887 ha 17084 TPS HA3 17887 0.1282 1.008000
17888 ha 17085 TPS HA2 17888 0.1332 1.008000
17889 ca 17085 TPS CA2 17889 -0.0753 12.010000
17890 ca 17085 TPS CA1 17890 -0.361 12.010000
17891 si 17085 TPS Si 17891 1.1 28.085000
17892 ca 17085 TPS CA6 17892 -0.0753 12.010000
17893 ha 17085 TPS HH6 17893 0.1332 1.008000
17894 ca 17085 TPS CA5 17894 -0.1548 12.010000
17895 ha 17085 TPS HA5 17895 0.1282 1.008000
17896 ca 17085 TPS CA4 17896 -0.1028 12.010000
17897 ha 17085 TPS HA4 17897 0.1262 1.008000
17898 ca 17085 TPS CA3 17898 -0.1548 12.010000
17899 ha 17085 TPS HA3 17899 0.1282 1.008000
17900 ha 17086 TPS HA2 17900 0.1332 1.008000
17901 ca 17086 TPS CA2 17901 -0.0753 12.010000
17902 ca 17086 TPS CA1 17902 -0.361 12.010000
17903 si 17086 TPS Si 17903 1.1 28.085000
17904 ca 17086 TPS CA6 17904 -0.0753 12.010000
17905 ha 17086 TPS HH6 17905 0.1332 1.008000
17906 ca 17086 TPS CA5 17906 -0.1548 12.010000
17907 ha 17086 TPS HA5 17907 0.1282 1.008000
17908 ca 17086 TPS CA4 17908 -0.1028 12.010000
17909 ha 17086 TPS HA4 17909 0.1262 1.008000
17910 ca 17086 TPS CA3 17910 -0.1548 12.010000
17911 ha 17086 TPS HA3 17911 0.1282 1.008000
17912 ha 17087 TPS HA2 17912 0.1332 1.008000
17913 ca 17087 TPS CA2 17913 -0.0753 12.010000
17914 ca 17087 TPS CA1 17914 -0.361 12.010000
17915 si 17087 TPS Si 17915 1.1 28.085000
17916 ca 17087 TPS CA6 17916 -0.0753 12.010000
17917 ha 17087 TPS HH6 17917 0.1332 1.008000
17918 ca 17087 TPS CA5 17918 -0.1548 12.010000
17919 ha 17087 TPS HA5 17919 0.1282 1.008000
17920 ca 17087 TPS CA4 17920 -0.1028 12.010000
17921 ha 17087 TPS HA4 17921 0.1262 1.008000
17922 ca 17087 TPS CA3 17922 -0.1548 12.010000
17923 ha 17087 TPS HA3 17923 0.1282 1.008000
17924 ha 17088 TPS HA2 17924 0.1332 1.008000
17925 ca 17088 TPS CA2 17925 -0.0753 12.010000
17926 ca 17088 TPS CA1 17926 -0.361 12.010000
17927 si 17088 TPS Si 17927 1.1 28.085000
17928 ca 17088 TPS CA6 17928 -0.0753 12.010000
17929 ha 17088 TPS HH6 17929 0.1332 1.008000
17930 ca 17088 TPS CA5 17930 -0.1548 12.010000
17931 ha 17088 TPS HA5 17931 0.1282 1.008000
17932 ca 17088 TPS CA4 17932 -0.1028 12.010000
17933 ha 17088 TPS HA4 17933 0.1262 1.008000
17934 ca 17088 TPS CA3 17934 -0.1548 12.010000
17935 ha 17088 TPS HA3 17935 0.1282 1.008000
17936 ha 17089 TPS HA2 17936 0.1332 1.008000
17937 ca 17089 TPS CA2 17937 -0.0753 12.010000
17938 ca 17089 TPS CA1 17938 -0.361 12.010000
17939 si 17089 TPS Si 17939 1.1 28.085000
17940 ca 17089 TPS CA6 17940 -0.0753 12.010000
17941 ha 17089 TPS HH6 17941 0.1332 1.008000
17942 ca 17089 TPS CA5 17942 -0.1548 12.010000
17943 ha 17089 TPS HA5 17943 0.1282 1.008000
17944 ca 17089 TPS CA4 17944 -0.1028 12.010000
17945 ha 17089 TPS HA4 17945 0.1262 1.008000
17946 ca 17089 TPS CA3 17946 -0.1548 12.010000
17947 ha 17089 TPS HA3 17947 0.1282 1.008000
17948 ha 17090 TPS HA2 17948 0.1332 1.008000
17949 ca 17090 TPS CA2 17949 -0.0753 12.010000
17950 ca 17090 TPS CA1 17950 -0.361 12.010000
17951 si 17090 TPS Si 17951 1.1 28.085000
17952 ca 17090 TPS CA6 17952 -0.0753 12.010000
17953 ha 17090 TPS HH6 17953 0.1332 1.008000
17954 ca 17090 TPS CA5 17954 -0.1548 12.010000
17955 ha 17090 TPS HA5 17955 0.1282 1.008000
17956 ca 17090 TPS CA4 17956 -0.1028 12.010000
17957 ha 17090 TPS HA4 17957 0.1262 1.008000
17958 ca 17090 TPS CA3 17958 -0.1548 12.010000
17959 ha 17090 TPS HA3 17959 0.1282 1.008000
17960 ha 17091 TPS HA2 17960 0.1332 1.008000
17961 ca 17091 TPS CA2 17961 -0.0753 12.010000
17962 ca 17091 TPS CA1 17962 -0.361 12.010000
17963 si 17091 TPS Si 17963 1.1 28.085000
17964 ca 17091 TPS CA6 17964 -0.0753 12.010000
17965 ha 17091 TPS HH6 17965 0.1332 1.008000
17966 ca 17091 TPS CA5 17966 -0.1548 12.010000
17967 ha 17091 TPS HA5 17967 0.1282 1.008000
17968 ca 17091 TPS CA4 17968 -0.1028 12.010000
17969 ha 17091 TPS HA4 17969 0.1262 1.008000
17970 ca 17091 TPS CA3 17970 -0.1548 12.010000
17971 ha 17091 TPS HA3 17971 0.1282 1.008000
17972 ha 17092 TPS HA2 17972 0.1332 1.008000
17973 ca 17092 TPS CA2 17973 -0.0753 12.010000
17974 ca 17092 TPS CA1 17974 -0.361 12.010000
17975 si 17092 TPS Si 17975 1.1 28.085000
17976 ca 17092 TPS CA6 17976 -0.0753 12.010000
17977 ha 17092 TPS HH6 17977 0.1332 1.008000
17978 ca 17092 TPS CA5 17978 -0.1548 12.010000
17979 ha 17092 TPS HA5 17979 0.1282 1.008000
17980 ca 17092 TPS CA4 17980 -0.1028 12.010000
17981 ha 17092 TPS HA4 17981 0.1262 1.008000
17982 ca 17092 TPS CA3 17982 -0.1548 12.010000
17983 ha 17092 TPS HA3 17983 0.1282 1.008000
17984 ha 17093 TPS HA2 17984 0.1332 1.008000
17985 ca 17093 TPS CA2 17985 -0.0753 12.010000
17986 ca 17093 TPS CA1 17986 -0.361 12.010000
17987 si 17093 TPS Si 17987 1.1 28.085000
17988 ca 17093 TPS CA6 17988 -0.0753 12.010000
17989 ha 17093 TPS HH6 17989 0.1332 1.008000
17990 ca 17093 TPS CA5 17990 -0.1548 12.010000
17991 ha 17093 TPS HA5 17991 0.1282 1.008000
17992 ca 17093 TPS CA4 17992 -0.1028 12.010000
17993 ha 17093 TPS HA4 17993 0.1262 1.008000
17994 ca 17093 TPS CA3 17994 -0.1548 12.010000
17995 ha 17093 TPS HA3 17995 0.1282 1.008000
17996 ha 17094 TPS HA2 17996 0.1332 1.008000
17997 ca 17094 TPS CA2 17997 -0.0753 12.010000
17998 ca 17094 TPS CA1 17998 -0.361 12.010000
17999 si 17094 TPS Si 17999 1.1 28.085000
18000 ca 17094 TPS CA6 18000 -0.0753 12.010000
18001 ha 17094 TPS HH6 18001 0.1332 1.008000
18002 ca 17094 TPS CA5 18002 -0.1548 12.010000
18003 ha 17094 TPS HA5 18003 0.1282 1.008000
18004 ca 17094 TPS CA4 18004 -0.1028 12.010000
18005 ha 17094 TPS HA4 18005 0.1262 1.008000
18006 ca 17094 TPS CA3 18006 -0.1548 12.010000
18007 ha 17094 TPS HA3 18007 0.1282 1.008000
18008 ha 17095 TPS HA2 18008 0.1332 1.008000
18009 ca 17095 TPS CA2 18009 -0.0753 12.010000
18010 ca 17095 TPS CA1 18010 -0.361 12.010000
18011 si 17095 TPS Si 18011 1.1 28.085000
18012 ca 17095 TPS CA6 18012 -0.0753 12.010000
18013 ha 17095 TPS HH6 18013 0.1332 1.008000
18014 ca 17095 TPS CA5 18014 -0.1548 12.010000
18015 ha 17095 TPS HA5 18015 0.1282 1.008000
18016 ca 17095 TPS CA4 18016 -0.1028 12.010000
18017 ha 17095 TPS HA4 18017 0.1262 1.008000
18018 ca 17095 TPS CA3 18018 -0.1548 12.010000
18019 ha 17095 TPS HA3 18019 0.1282 1.008000
18020 ha 17096 TPS HA2 18020 0.1332 1.008000
18021 ca 17096 TPS CA2 18021 -0.0753 12.010000
18022 ca 17096 TPS CA1 18022 -0.361 12.010000
18023 si 17096 TPS Si 18023 1.1 28.085000
18024 ca 17096 TPS CA6 18024 -0.0753 12.010000
18025 ha 17096 TPS HH6 18025 0.1332 1.008000
18026 ca 17096 TPS CA5 18026 -0.1548 12.010000
18027 ha 17096 TPS HA5 18027 0.1282 1.008000
18028 ca 17096 TPS CA4 18028 -0.1028 12.010000
18029 ha 17096 TPS HA4 18029 0.1262 1.008000
18030 ca 17096 TPS CA3 18030 -0.1548 12.010000
18031 ha 17096 TPS HA3 18031 0.1282 1.008000
18032 ha 17097 TPS HA2 18032 0.1332 1.008000
18033 ca 17097 TPS CA2 18033 -0.0753 12.010000
18034 ca 17097 TPS CA1 18034 -0.361 12.010000
18035 si 17097 TPS Si 18035 1.1 28.085000
18036 ca 17097 TPS CA6 18036 -0.0753 12.010000
18037 ha 17097 TPS HH6 18037 0.1332 1.008000
18038 ca 17097 TPS CA5 18038 -0.1548 12.010000
18039 ha 17097 TPS HA5 18039 0.1282 1.008000
18040 ca 17097 TPS CA4 18040 -0.1028 12.010000
18041 ha 17097 TPS HA4 18041 0.1262 1.008000
18042 ca 17097 TPS CA3 18042 -0.1548 12.010000
18043 ha 17097 TPS HA3 18043 0.1282 1.008000
18044 ha 17098 TPS HA2 18044 0.1332 1.008000
18045 ca 17098 TPS CA2 18045 -0.0753 12.010000
18046 ca 17098 TPS CA1 18046 -0.361 12.010000
18047 si 17098 TPS Si 18047 1.1 28.085000
18048 ca 17098 TPS CA6 18048 -0.0753 12.010000
18049 ha 17098 TPS HH6 18049 0.1332 1.008000
18050 ca 17098 TPS CA5 18050 -0.1548 12.010000
18051 ha 17098 TPS HA5 18051 0.1282 1.008000
18052 ca 17098 TPS CA4 18052 -0.1028 12.010000
18053 ha 17098 TPS HA4 18053 0.1262 1.008000
18054 ca 17098 TPS CA3 18054 -0.1548 12.010000
18055 ha 17098 TPS HA3 18055 0.1282 1.008000
18056 ha 17099 TPS HA2 18056 0.1332 1.008000
18057 ca 17099 TPS CA2 18057 -0.0753 12.010000
18058 ca 17099 TPS CA1 18058 -0.361 12.010000
18059 si 17099 TPS Si 18059 1.1 28.085000
18060 ca 17099 TPS CA6 18060 -0.0753 12.010000
18061 ha 17099 TPS HH6 18061 0.1332 1.008000
18062 ca 17099 TPS CA5 18062 -0.1548 12.010000
18063 ha 17099 TPS HA5 18063 0.1282 1.008000
18064 ca 17099 TPS CA4 18064 -0.1028 12.010000
18065 ha 17099 TPS HA4 18065 0.1262 1.008000
18066 ca 17099 TPS CA3 18066 -0.1548 12.010000
18067 ha 17099 TPS HA3 18067 0.1282 1.008000
18068 ha 17100 TPS HA2 18068 0.1332 1.008000
18069 ca 17100 TPS CA2 18069 -0.0753 12.010000
18070 ca 17100 TPS CA1 18070 -0.361 12.010000
18071 si 17100 TPS Si 18071 1.1 28.085000
18072 ca 17100 TPS CA6 18072 -0.0753 12.010000
18073 ha 17100 TPS HH6 18073 0.1332 1.008000
18074 ca 17100 TPS CA5 18074 -0.1548 12.010000
18075 ha 17100 TPS HA5 18075 0.1282 1.008000
18076 ca 17100 TPS CA4 18076 -0.1028 12.010000
18077 ha 17100 TPS HA4 18077 0.1262 1.008000
18078 ca 17100 TPS CA3 18078 -0.1548 12.010000
18079 ha 17100 TPS HA3 18079 0.1282 1.008000
18080 ha 17101 TPS HA2 18080 0.1332 1.008000
18081 ca 17101 TPS CA2 18081 -0.0753 12.010000
18082 ca 17101 TPS CA1 18082 -0.361 12.010000
18083 si 17101 TPS Si 18083 1.1 28.085000
18084 ca 17101 TPS CA6 18084 -0.0753 12.010000
18085 ha 17101 TPS HH6 18085 0.1332 1.008000
18086 ca 17101 TPS CA5 18086 -0.1548 12.010000
18087 ha 17101 TPS HA5 18087 0.1282 1.008000
18088 ca 17101 TPS CA4 18088 -0.1028 12.010000
18089 ha 17101 TPS HA4 18089 0.1262 1.008000
18090 ca 17101 TPS CA3 18090 -0.1548 12.010000
18091 ha 17101 TPS HA3 18091 0.1282 1.008000
18092 ha 17102 TPS HA2 18092 0.1332 1.008000
18093 ca 17102 TPS CA2 18093 -0.0753 12.010000
18094 ca 17102 TPS CA1 18094 -0.361 12.010000
18095 si 17102 TPS Si 18095 1.1 28.085000
18096 ca 17102 TPS CA6 18096 -0.0753 12.010000
18097 ha 17102 TPS HH6 18097 0.1332 1.008000
18098 ca 17102 TPS CA5 18098 -0.1548 12.010000
18099 ha 17102 TPS HA5 18099 0.1282 1.008000
18100 ca 17102 TPS CA4 18100 -0.1028 12.010000
18101 ha 17102 TPS HA4 18101 0.1262 1.008000
18102 ca 17102 TPS CA3 18102 -0.1548 12.010000
18103 ha 17102 TPS HA3 18103 0.1282 1.008000
18104 ha 17103 TPS HA2 18104 0.1332 1.008000
18105 ca 17103 TPS CA2 18105 -0.0753 12.010000
18106 ca 17103 TPS CA1 18106 -0.361 12.010000
18107 si 17103 TPS Si 18107 1.1 28.085000
18108 ca 17103 TPS CA6 18108 -0.0753 12.010000
18109 ha 17103 TPS HH6 18109 0.1332 1.008000
18110 ca 17103 TPS CA5 18110 -0.1548 12.010000
18111 ha 17103 TPS HA5 18111 0.1282 1.008000
18112 ca 17103 TPS CA4 18112 -0.1028 12.010000
18113 ha 17103 TPS HA4 18113 0.1262 1.008000
18114 ca 17103 TPS CA3 18114 -0.1548 12.010000
18115 ha 17103 TPS HA3 18115 0.1282 1.008000
18116 ha 17104 TPS HA2 18116 0.1332 1.008000
18117 ca 17104 TPS CA2 18117 -0.0753 12.010000
18118 ca 17104 TPS CA1 18118 -0.361 12.010000
18119 si 17104 TPS Si 18119 1.1 28.085000
18120 ca 17104 TPS CA6 18120 -0.0753 12.010000
18121 ha 17104 TPS HH6 18121 0.1332 1.008000
18122 ca 17104 TPS CA5 18122 -0.1548 12.010000
18123 ha 17104 TPS HA5 18123 0.1282 1.008000
18124 ca 17104 TPS CA4 18124 -0.1028 12.010000
18125 ha 17104 TPS HA4 18125 0.1262 1.008000
18126 ca 17104 TPS CA3 18126 -0.1548 12.010000
18127 ha 17104 TPS HA3 18127 0.1282 1.008000
18128 ha 17105 TPS HA2 18128 0.1332 1.008000
18129 ca 17105 TPS CA2 18129 -0.0753 12.010000
18130 ca 17105 TPS CA1 18130 -0.361 12.010000
18131 si 17105 TPS Si 18131 1.1 28.085000
18132 ca 17105 TPS CA6 18132 -0.0753 12.010000
18133 ha 17105 TPS HH6 18133 0.1332 1.008000
18134 ca 17105 TPS CA5 18134 -0.1548 12.010000
18135 ha 17105 TPS HA5 18135 0.1282 1.008000
18136 ca 17105 TPS CA4 18136 -0.1028 12.010000
18137 ha 17105 TPS HA4 18137 0.1262 1.008000
18138 ca 17105 TPS CA3 18138 -0.1548 12.010000
18139 ha 17105 TPS HA3 18139 0.1282 1.008000
18140 ha 17106 TPS HA2 18140 0.1332 1.008000
18141 ca 17106 TPS CA2 18141 -0.0753 12.010000
18142 ca 17106 TPS CA1 18142 -0.361 12.010000
18143 si 17106 TPS Si 18143 1.1 28.085000
18144 ca 17106 TPS CA6 18144 -0.0753 12.010000
18145 ha 17106 TPS HH6 18145 0.1332 1.008000
18146 ca 17106 TPS CA5 18146 -0.1548 12.010000
18147 ha 17106 TPS HA5 18147 0.1282 1.008000
18148 ca 17106 TPS CA4 18148 -0.1028 12.010000
18149 ha 17106 TPS HA4 18149 0.1262 1.008000
18150 ca 17106 TPS CA3 18150 -0.1548 12.010000
18151 ha 17106 TPS HA3 18151 0.1282 1.008000
18152 ha 17107 TPS HA2 18152 0.1332 1.008000
18153 ca 17107 TPS CA2 18153 -0.0753 12.010000
18154 ca 17107 TPS CA1 18154 -0.361 12.010000
18155 si 17107 TPS Si 18155 1.1 28.085000
18156 ca 17107 TPS CA6 18156 -0.0753 12.010000
18157 ha 17107 TPS HH6 18157 0.1332 1.008000
18158 ca 17107 TPS CA5 18158 -0.1548 12.010000
18159 ha 17107 TPS HA5 18159 0.1282 1.008000
18160 ca 17107 TPS CA4 18160 -0.1028 12.010000
18161 ha 17107 TPS HA4 18161 0.1262 1.008000
18162 ca 17107 TPS CA3 18162 -0.1548 12.010000
18163 ha 17107 TPS HA3 18163 0.1282 1.008000
18164 ha 17108 TPS HA2 18164 0.1332 1.008000
18165 ca 17108 TPS CA2 18165 -0.0753 12.010000
18166 ca 17108 TPS CA1 18166 -0.361 12.010000
18167 si 17108 TPS Si 18167 1.1 28.085000
18168 ca 17108 TPS CA6 18168 -0.0753 12.010000
18169 ha 17108 TPS HH6 18169 0.1332 1.008000
18170 ca 17108 TPS CA5 18170 -0.1548 12.010000
18171 ha 17108 TPS HA5 18171 0.1282 1.008000
18172 ca 17108 TPS CA4 18172 -0.1028 12.010000
18173 ha 17108 TPS HA4 18173 0.1262 1.008000
18174 ca 17108 TPS CA3 18174 -0.1548 12.010000
18175 ha 17108 TPS HA3 18175 0.1282 1.008000
18176 ha 17109 TPS HA2 18176 0.1332 1.008000
18177 ca 17109 TPS CA2 18177 -0.0753 12.010000
18178 ca 17109 TPS CA1 18178 -0.361 12.010000
18179 si 17109 TPS Si 18179 1.1 28.085000
18180 ca 17109 TPS CA6 18180 -0.0753 12.010000
18181 ha 17109 TPS HH6 18181 0.1332 1.008000
18182 ca 17109 TPS CA5 18182 -0.1548 12.010000
18183 ha 17109 TPS HA5 18183 0.1282 1.008000
18184 ca 17109 TPS CA4 18184 -0.1028 12.010000
18185 ha 17109 TPS HA4 18185 0.1262 1.008000
18186 ca 17109 TPS CA3 18186 -0.1548 12.010000
18187 ha 17109 TPS HA3 18187 0.1282 1.008000
18188 ha 17110 TPS HA2 18188 0.1332 1.008000
18189 ca 17110 TPS CA2 18189 -0.0753 12.010000
18190 ca 17110 TPS CA1 18190 -0.361 12.010000
18191 si 17110 TPS Si 18191 1.1 28.085000
18192 ca 17110 TPS CA6 18192 -0.0753 12.010000
18193 ha 17110 TPS HH6 18193 0.1332 1.008000
18194 ca 17110 TPS CA5 18194 -0.1548 12.010000
18195 ha 17110 TPS HA5 18195 0.1282 1.008000
18196 ca 17110 TPS CA4 18196 -0.1028 12.010000
18197 ha 17110 TPS HA4 18197 0.1262 1.008000
18198 ca 17110 TPS CA3 18198 -0.1548 12.010000
18199 ha 17110 TPS HA3 18199 0.1282 1.008000
18200 ha 17111 TPS HA2 18200 0.1332 1.008000
18201 ca 17111 TPS CA2 18201 -0.0753 12.010000
18202 ca 17111 TPS CA1 18202 -0.361 12.010000
18203 si 17111 TPS Si 18203 1.1 28.085000
18204 ca 17111 TPS CA6 18204 -0.0753 12.010000
18205 ha 17111 TPS HH6 18205 0.1332 1.008000
18206 ca 17111 TPS CA5 18206 -0.1548 12.010000
18207 ha 17111 TPS HA5 18207 0.1282 1.008000
18208 ca 17111 TPS CA4 18208 -0.1028 12.010000
18209 ha 17111 TPS HA4 18209 0.1262 1.008000
18210 ca 17111 TPS CA3 18210 -0.1548 12.010000
18211 ha 17111 TPS HA3 18211 0.1282 1.008000
18212 SI 17112 SL Si1 18212 1.100000 28.08600
18213 OA 17112 SL O1 18213 -0.675000 15.99940
18214 HG 17112 SL H1 18214 0.400000 2.01600
18215 SI 17113 SL Si1 18215 1.100000 28.08600
18216 OA 17113 SL O1 18216 -0.675000 15.99940
18217 HG 17113 SL H1 18217 0.400000 2.01600
18218 SI 17114 SL Si1 18218 1.100000 28.08600
18219 OA 17114 SL O1 18219 -0.675000 15.99940
18220 HG 17114 SL H1 18220 0.400000 2.01600
18221 SI 17115 SL Si1 18221 1.100000 28.08600
18222 OA 17115 SL O1 18222 -0.675000 15.99940
18223 HG 17115 SL H1 18223 0.400000 2.01600
18224 SI 17116 SL Si1 18224 1.100000 28.08600
18225 OA 17116 SL O1 18225 -0.675000 15.99940
18226 HG 17116 SL H1 18226 0.400000 2.01600
18227 SI 17117 SL Si1 18227 1.100000 28.08600
18228 OA 17117 SL O1 18228 -0.675000 15.99940
18229 HG 17117 SL H1 18229 0.400000 2.01600
18230 SI 17118 SL Si1 18230 1.100000 28.08600
18231 OA 17118 SL O1 18231 -0.675000 15.99940
18232 HG 17118 SL H1 18232 0.400000 2.01600
18233 SI 17119 SL Si1 18233 1.100000 28.08600
18234 OA 17119 SL O1 18234 -0.675000 15.99940
18235 HG 17119 SL H1 18235 0.400000 2.01600
18236 SI 17120 SL Si1 18236 1.100000 28.08600
18237 OA 17120 SL O1 18237 -0.675000 15.99940
18238 HG 17120 SL H1 18238 0.400000 2.01600
18239 SI 17121 SL Si1 18239 1.100000 28.08600
18240 OA 17121 SL O1 18240 -0.675000 15.99940
18241 HG 17121 SL H1 18241 0.400000 2.01600
18242 SI 17122 SL Si1 18242 1.100000 28.08600
18243 OA 17122 SL O1 18243 -0.675000 15.99940
18244 HG 17122 SL H1 18244 0.400000 2.01600
18245 SI 17123 SL Si1 18245 1.100000 28.08600
18246 OA 17123 SL O1 18246 -0.675000 15.99940
18247 HG 17123 SL H1 18247 0.400000 2.01600
18248 SI 17124 SL Si1 18248 1.100000 28.08600
18249 OA 17124 SL O1 18249 -0.675000 15.99940
18250 HG 17124 SL H1 18250 0.400000 2.01600
18251 SI 17125 SL Si1 18251 1.100000 28.08600
18252 OA 17125 SL O1 18252 -0.675000 15.99940
18253 HG 17125 SL H1 18253 0.400000 2.01600
18254 SI 17126 SL Si1 18254 1.100000 28.08600
18255 OA 17126 SL O1 18255 -0.675000 15.99940
18256 HG 17126 SL H1 18256 0.400000 2.01600
18257 SI 17127 SL Si1 18257 1.100000 28.08600
18258 OA 17127 SL O1 18258 -0.675000 15.99940
18259 HG 17127 SL H1 18259 0.400000 2.01600
18260 SI 17128 SL Si1 18260 1.100000 28.08600
18261 OA 17128 SL O1 18261 -0.675000 15.99940
18262 HG 17128 SL H1 18262 0.400000 2.01600
18263 SI 17129 SL Si1 18263 1.100000 28.08600
18264 OA 17129 SL O1 18264 -0.675000 15.99940
18265 HG 17129 SL H1 18265 0.400000 2.01600
18266 SI 17130 SL Si1 18266 1.100000 28.08600
18267 OA 17130 SL O1 18267 -0.675000 15.99940
18268 HG 17130 SL H1 18268 0.400000 2.01600
18269 SI 17131 SL Si1 18269 1.100000 28.08600
18270 OA 17131 SL O1 18270 -0.675000 15.99940
18271 HG 17131 SL H1 18271 0.400000 2.01600
18272 SI 17132 SL Si1 18272 1.100000 28.08600
18273 OA 17132 SL O1 18273 -0.675000 15.99940
18274 HG 17132 SL H1 18274 0.400000 2.01600
18275 SI 17133 SL Si1 18275 1.100000 28.08600
18276 OA 17133 SL O1 18276 -0.675000 15.99940
18277 HG 17133 SL H1 18277 0.400000 2.01600
18278 SI 17134 SL Si1 18278 1.100000 28.08600
18279 OA 17134 SL O1 18279 -0.675000 15.99940
18280 HG 17134 SL H1 18280 0.400000 2.01600
18281 SI 17135 SL Si1 18281 1.100000 28.08600
18282 OA 17135 SL O1 18282 -0.675000 15.99940
18283 HG 17135 SL H1 18283 0.400000 2.01600
18284 SI 17136 SL Si1 18284 1.100000 28.08600
18285 OA 17136 SL O1 18285 -0.675000 15.99940
18286 HG 17136 SL H1 18286 0.400000 2.01600
18287 SI 17137 SL Si1 18287 1.100000 28.08600
18288 OA 17137 SL O1 18288 -0.675000 15.99940
18289 HG 17137 SL H1 18289 0.400000 2.01600
18290 SI 17138 SL Si1 18290 1.100000 28.08600
18291 OA 17138 SL O1 18291 -0.675000 15.99940
18292 HG 17138 SL H1 18292 0.400000 2.01600
18293 SI 17139 SL Si1 18293 1.100000 28.08600
18294 OA 17139 SL O1 18294 -0.675000 15.99940
18295 HG 17139 SL H1 18295 0.400000 2.01600
18296 SI 17140 SL Si1 18296 1.100000 28.08600
18297 OA 17140 SL O1 18297 -0.675000 15.99940
18298 HG 17140 SL H1 18298 0.400000 2.01600
18299 SI 17141 SL Si1 18299 1.100000 28.08600
18300 OA 17141 SL O1 18300 -0.675000 15.99940
18301 HG 17141 SL H1 18301 0.400000 2.01600
18302 SI 17142 SL Si1 18302 1.100000 28.08600
18303 OA 17142 SL O1 18303 -0.675000 15.99940
18304 HG 17142 SL H1 18304 0.400000 2.01600
18305 SI 17143 SL Si1 18305 1.100000 28.08600
18306 OA 17143 SL O1 18306 -0.675000 15.99940
18307 HG 17143 SL H1 18307 0.400000 2.01600
18308 SI 17144 SL Si1 18308 1.100000 28.08600
18309 OA 17144 SL O1 18309 -0.675000 15.99940
18310 HG 17144 SL H1 18310 0.400000 2.01600
18311 SI 17145 SL Si1 18311 1.100000 28.08600
18312 OA 17145 SL O1 18312 -0.675000 15.99940
18313 HG 17145 SL H1 18313 0.400000 2.01600
18314 SI 17146 SL Si1 18314 1.100000 28.08600
18315 OA 17146 SL O1 18315 -0.675000 15.99940
18316 HG 17146 SL H1 18316 0.400000 2.01600
18317 SI 17147 SL Si1 18317 1.100000 28.08600
18318 OA 17147 SL O1 18318 -0.675000 15.99940
18319 HG 17147 SL H1 18319 0.400000 2.01600
18320 SI 17148 SL Si1 18320 1.100000 28.08600
18321 OA 17148 SL O1 18321 -0.675000 15.99940
18322 HG 17148 SL H1 18322 0.400000 2.01600
18323 SI 17149 SL Si1 18323 1.100000 28.08600
18324 OA 17149 SL O1 18324 -0.675000 15.99940
18325 HG 17149 SL H1 18325 0.400000 2.01600
18326 SI 17150 SL Si1 18326 1.100000 28.08600
18327 OA 17150 SL O1 18327 -0.675000 15.99940
18328 HG 17150 SL H1 18328 0.400000 2.01600
18329 SI 17151 SL Si1 18329 1.100000 28.08600
18330 OA 17151 SL O1 18330 -0.675000 15.99940
18331 HG 17151 SL H1 18331 0.400000 2.01600
18332 SI 17152 SL Si1 18332 1.100000 28.08600
18333 OA 17152 SL O1 18333 -0.675000 15.99940
18334 HG 17152 SL H1 18334 0.400000 2.01600
18335 SI 17153 SL Si1 18335 1.100000 28.08600
18336 OA 17153 SL O1 18336 -0.675000 15.99940
18337 HG 17153 SL H1 18337 0.400000 2.01600
18338 SI 17154 SL Si1 18338 1.100000 28.08600
18339 OA 17154 SL O1 18339 -0.675000 15.99940
18340 HG 17154 SL H1 18340 0.400000 2.01600
18341 SI 17155 SL Si1 18341 1.100000 28.08600
18342 OA 17155 SL O1 18342 -0.675000 15.99940
18343 HG 17155 SL H1 18343 0.400000 2.01600
18344 SI 17156 SL Si1 18344 1.100000 28.08600
18345 OA 17156 SL O1 18345 -0.675000 15.99940
18346 HG 17156 SL H1 18346 0.400000 2.01600
18347 SI 17157 SL Si1 18347 1.100000 28.08600
18348 OA 17157 SL O1 18348 -0.675000 15.99940
18349 HG 17157 SL H1 18349 0.400000 2.01600
18350 SI 17158 SL Si1 18350 1.100000 28.08600
18351 OA 17158 SL O1 18351 -0.675000 15.99940
18352 HG 17158 SL H1 18352 0.400000 2.01600
18353 SI 17159 SL Si1 18353 1.100000 28.08600
18354 OA 17159 SL O1 18354 -0.675000 15.99940
18355 HG 17159 SL H1 18355 0.400000 2.01600
18356 SI 17160 SL Si1 18356 1.100000 28.08600
18357 OA 17160 SL O1 18357 -0.675000 15.99940
18358 HG 17160 SL H1 18358 0.400000 2.01600
18359 SI 17161 SL Si1 18359 1.100000 28.08600
18360 OA 17161 SL O1 18360 -0.675000 15.99940
18361 HG 17161 SL H1 18361 0.400000 2.01600
18362 SI 17162 SL Si1 18362 1.100000 28.08600
18363 OA 17162 SL O1 18363 -0.675000 15.99940
18364 HG 17162 SL H1 18364 0.400000 2.01600
18365 SI 17163 SL Si1 18365 1.100000 28.08600
18366 OA 17163 SL O1 18366 -0.675000 15.99940
18367 HG 17163 SL H1 18367 0.400000 2.01600
18368 SI 17164 SL Si1 18368 1.100000 28.08600
18369 OA 17164 SL O1 18369 -0.675000 15.99940
18370 HG 17164 SL H1 18370 0.400000 2.01600
18371 SI 17165 SL Si1 18371 1.100000 28.08600
18372 OA 17165 SL O1 18372 -0.675000 15.99940
18373 HG 17165 SL H1 18373 0.400000 2.01600
18374 SI 17166 SL Si1 18374 1.100000 28.08600
18375 OA 17166 SL O1 18375 -0.675000 15.99940
18376 HG 17166 SL H1 18376 0.400000 2.01600
18377 SI 17167 SL Si1 18377 1.100000 28.08600
18378 OA 17167 SL O1 18378 -0.675000 15.99940
18379 HG 17167 SL H1 18379 0.400000 2.01600
18380 SI 17168 SL Si1 18380 1.100000 28.08600
18381 OA 17168 SL O1 18381 -0.675000 15.99940
18382 HG 17168 SL H1 18382 0.400000 2.01600
18383 SI 17169 SL Si1 18383 1.100000 28.08600
18384 OA 17169 SL O1 18384 -0.675000 15.99940
18385 HG 17169 SL H1 18385 0.400000 2.01600
18386 SI 17170 SL Si1 18386 1.100000 28.08600
18387 OA 17170 SL O1 18387 -0.675000 15.99940
18388 HG 17170 SL H1 18388 0.400000 2.01600
18389 SI 17171 SL Si1 18389 1.100000 28.08600
18390 OA 17171 SL O1 18390 -0.675000 15.99940
18391 HG 17171 SL H1 18391 0.400000 2.01600
18392 SI 17172 SL Si1 18392 1.100000 28.08600
18393 OA 17172 SL O1 18393 -0.675000 15.99940
18394 HG 17172 SL H1 18394 0.400000 2.01600
18395 SI 17173 SL Si1 18395 1.100000 28.08600
18396 OA 17173 SL O1 18396 -0.675000 15.99940
18397 HG 17173 SL H1 18397 0.400000 2.01600
18398 SI 17174 SL Si1 18398 1.100000 28.08600
18399 OA 17174 SL O1 18399 -0.675000 15.99940
18400 HG 17174 SL H1 18400 0.400000 2.01600
18401 SI 17175 SL Si1 18401 1.100000 28.08600
18402 OA 17175 SL O1 18402 -0.675000 15.99940
18403 HG 17175 SL H1 18403 0.400000 2.01600
18404 SI 17176 SL Si1 18404 1.100000 28.08600
18405 OA 17176 SL O1 18405 -0.675000 15.99940
18406 HG 17176 SL H1 18406 0.400000 2.01600
18407 SI 17177 SL Si1 18407 1.100000 28.08600
18408 OA 17177 SL O1 18408 -0.675000 15.99940
18409 HG 17177 SL H1 18409 0.400000 2.01600
18410 SI 17178 SL Si1 18410 1.100000 28.08600
18411 OA 17178 SL O1 18411 -0.675000 15.99940
18412 HG 17178 SL H1 18412 0.400000 2.01600
18413 SI 17179 SL Si1 18413 1.100000 28.08600
18414 OA 17179 SL O1 18414 -0.675000 15.99940
18415 HG 17179 SL H1 18415 0.400000 2.01600
18416 SI 17180 SL Si1 18416 1.100000 28.08600
18417 OA 17180 SL O1 18417 -0.675000 15.99940
18418 HG 17180 SL H1 18418 0.400000 2.01600
18419 SI 17181 SL Si1 18419 1.100000 28.08600
18420 OA 17181 SL O1 18420 -0.675000 15.99940
18421 HG 17181 SL H1 18421 0.400000 2.01600
18422 SI 17182 SL Si1 18422 1.100000 28.08600
18423 OA 17182 SL O1 18423 -0.675000 15.99940
18424 HG 17182 SL H1 18424 0.400000 2.01600
18425 SI 17183 SL Si1 18425 1.100000 28.08600
18426 OA 17183 SL O1 18426 -0.675000 15.99940
18427 HG 17183 SL H1 18427 0.400000 2.01600
18428 SI 17184 SL Si1 18428 1.100000 28.08600
18429 OA 17184 SL O1 18429 -0.675000 15.99940
18430 HG 17184 SL H1 18430 0.400000 2.01600
18431 SI 17185 SL Si1 18431 1.100000 28.08600
18432 OA 17185 SL O1 18432 -0.675000 15.99940
18433 HG 17185 SL H1 18433 0.400000 2.01600
18434 SI 17186 SL Si1 18434 1.100000 28.08600
18435 OA 17186 SL O1 18435 -0.675000 15.99940
18436 HG 17186 SL H1 18436 0.400000 2.01600
18437 SI 17187 SL Si1 18437 1.100000 28.08600
18438 OA 17187 SL O1 18438 -0.675000 15.99940
18439 HG 17187 SL H1 18439 0.400000 2.01600
18440 SI 17188 SL Si1 18440 1.100000 28.08600
18441 OA 17188 SL O1 18441 -0.675000 15.99940
18442 HG 17188 SL H1 18442 0.400000 2.01600
18443 SI 17189 SL Si1 18443 1.100000 28.08600
18444 OA 17189 SL O1 18444 -0.675000 15.99940
18445 HG 17189 SL H1 18445 0.400000 2.01600
18446 SI 17190 SL Si1 18446 1.100000 28.08600
18447 OA 17190 SL O1 18447 -0.675000 15.99940
18448 HG 17190 SL H1 18448 0.400000 2.01600
18449 SI 17191 SL Si1 18449 1.100000 28.08600
18450 OA 17191 SL O1 18450 -0.675000 15.99940
18451 HG 17191 SL H1 18451 0.400000 2.01600
18452 SI 17192 SL Si1 18452 1.100000 28.08600
18453 OA 17192 SL O1 18453 -0.675000 15.99940
18454 HG 17192 SL H1 18454 0.400000 2.01600
18455 SI 17193 SL Si1 18455 1.100000 28.08600
18456 OA 17193 SL O1 18456 -0.675000 15.99940
18457 HG 17193 SL H1 18457 0.400000 2.01600
18458 SI 17194 SL Si1 18458 1.100000 28.08600
18459 OA 17194 SL O1 18459 -0.675000 15.99940
18460 HG 17194 SL H1 18460 0.400000 2.01600
18461 SI 17195 SL Si1 18461 1.100000 28.08600
18462 OA 17195 SL O1 18462 -0.675000 15.99940
18463 HG 17195 SL H1 18463 0.400000 2.01600
18464 SI 17196 SL Si1 18464 1.100000 28.08600
18465 OA 17196 SL O1 18465 -0.675000 15.99940
18466 HG 17196 SL H1 18466 0.400000 2.01600
18467 SI 17197 SL Si1 18467 1.100000 28.08600
18468 OA 17197 SL O1 18468 -0.675000 15.99940
18469 HG 17197 SL H1 18469 0.400000 2.01600
18470 SI 17198 SL Si1 18470 1.100000 28.08600
18471 OA 17198 SL O1 18471 -0.675000 15.99940
18472 HG 17198 SL H1 18472 0.400000 2.01600
18473 SI 17199 SL Si1 18473 1.100000 28.08600
18474 OA 17199 SL O1 18474 -0.675000 15.99940
18475 HG 17199 SL H1 18475 0.400000 2.01600
18476 SI 17200 SL Si1 18476 1.100000 28.08600
18477 OA 17200 SL O1 18477 -0.675000 15.99940
18478 HG 17200 SL H1 18478 0.400000 2.01600
18479 SI 17201 SL Si1 18479 1.100000 28.08600
18480 OA 17201 SL O1 18480 -0.675000 15.99940
18481 HG 17201 SL H1 18481 0.400000 2.01600
18482 SI 17202 SL Si1 18482 1.100000 28.08600
18483 OA 17202 SL O1 18483 -0.675000 15.99940
18484 HG 17202 SL H1 18484 0.400000 2.01600
18485 SI 17203 SL Si1 18485 1.100000 28.08600
18486 OA 17203 SL O1 18486 -0.675000 15.99940
18487 HG 17203 SL H1 18487 0.400000 2.01600
18488 SI 17204 SL Si1 18488 1.100000 28.08600
18489 OA 17204 SL O1 18489 -0.675000 15.99940
18490 HG 17204 SL H1 18490 0.400000 2.01600
18491 SI 17205 SL Si1 18491 1.100000 28.08600
18492 OA 17205 SL O1 18492 -0.675000 15.99940
18493 HG 17205 SL H1 18493 0.400000 2.01600
18494 SI 17206 SL Si1 18494 1.100000 28.08600
18495 OA 17206 SL O1 18495 -0.675000 15.99940
18496 HG 17206 SL H1 18496 0.400000 2.01600
18497 SI 17207 SL Si1 18497 1.100000 28.08600
18498 OA 17207 SL O1 18498 -0.675000 15.99940
18499 HG 17207 SL H1 18499 0.400000 2.01600
18500 SI 17208 SL Si1 18500 1.100000 28.08600
18501 OA 17208 SL O1 18501 -0.675000 15.99940
18502 HG 17208 SL H1 18502 0.400000 2.01600
18503 SI 17209 SL Si1 18503 1.100000 28.08600
18504 OA 17209 SL O1 18504 -0.675000 15.99940
18505 HG 17209 SL H1 18505 0.400000 2.01600
18506 SI 17210 SL Si1 18506 1.100000 28.08600
18507 OA 17210 SL O1 18507 -0.675000 15.99940
18508 HG 17210 SL H1 18508 0.400000 2.01600
18509 SI 17211 SL Si1 18509 1.100000 28.08600
18510 OA 17211 SL O1 18510 -0.675000 15.99940
18511 HG 17211 SL H1 18511 0.400000 2.01600
18512 SI 17212 SL Si1 18512 1.100000 28.08600
18513 OA 17212 SL O1 18513 -0.675000 15.99940
18514 HG 17212 SL H1 18514 0.400000 2.01600
18515 SI 17213 SL Si1 18515 1.100000 28.08600
18516 OA 17213 SL O1 18516 -0.675000 15.99940
18517 HG 17213 SL H1 18517 0.400000 2.01600
18518 SI 17214 SL Si1 18518 1.100000 28.08600
18519 OA 17214 SL O1 18519 -0.675000 15.99940
18520 HG 17214 SL H1 18520 0.400000 2.01600
18521 SI 17215 SL Si1 18521 1.100000 28.08600
18522 OA 17215 SL O1 18522 -0.675000 15.99940
18523 HG 17215 SL H1 18523 0.400000 2.01600
18524 SI 17216 SL Si1 18524 1.100000 28.08600
18525 OA 17216 SL O1 18525 -0.675000 15.99940
18526 HG 17216 SL H1 18526 0.400000 2.01600
18527 SI 17217 SL Si1 18527 1.100000 28.08600
18528 OA 17217 SL O1 18528 -0.675000 15.99940
18529 HG 17217 SL H1 18529 0.400000 2.01600
18530 SI 17218 SL Si1 18530 1.100000 28.08600
18531 OA 17218 SL O1 18531 -0.675000 15.99940
18532 HG 17218 SL H1 18532 0.400000 2.01600
18533 SI 17219 SL Si1 18533 1.100000 28.08600
18534 OA 17219 SL O1 18534 -0.675000 15.99940
18535 HG 17219 SL H1 18535 0.400000 2.01600
18536 SI 17220 SL Si1 18536 1.100000 28.08600
18537 OA 17220 SL O1 18537 -0.675000 15.99940
18538 HG 17220 SL H1 18538 0.400000 2.01600
18539 SI 17221 SL Si1 18539 1.100000 28.08600
18540 OA 17221 SL O1 18540 -0.675000 15.99940
18541 HG 17221 SL H1 18541 0.400000 2.01600
18542 SI 17222 SL Si1 18542 1.100000 28.08600
18543 OA 17222 SL O1 18543 -0.675000 15.99940
18544 HG 17222 SL H1 18544 0.400000 2.01600
18545 SI 17223 SL Si1 18545 1.100000 28.08600
18546 OA 17223 SL O1 18546 -0.675000 15.99940
18547 HG 17223 SL H1 18547 0.400000 2.01600
18548 SI 17224 SL Si1 18548 1.100000 28.08600
18549 OA 17224 SL O1 18549 -0.675000 15.99940
18550 HG 17224 SL H1 18550 0.400000 2.01600
18551 SI 17225 SL Si1 18551 1.100000 28.08600
18552 OA 17225 SL O1 18552 -0.675000 15.99940
18553 HG 17225 SL H1 18553 0.400000 2.01600
18554 SI 17226 SL Si1 18554 1.100000 28.08600
18555 OA 17226 SL O1 18555 -0.675000 15.99940
18556 HG 17226 SL H1 18556 0.400000 2.01600
18557 SI 17227 SL Si1 18557 1.100000 28.08600
18558 OA 17227 SL O1 18558 -0.675000 15.99940
18559 HG 17227 SL H1 18559 0.400000 2.01600
18560 SI 17228 SL Si1 18560 1.100000 28.08600
18561 OA 17228 SL O1 18561 -0.675000 15.99940
18562 HG 17228 SL H1 18562 0.400000 2.01600
18563 SI 17229 SL Si1 18563 1.100000 28.08600
18564 OA 17229 SL O1 18564 -0.675000 15.99940
18565 HG 17229 SL H1 18565 0.400000 2.01600
18566 SI 17230 SL Si1 18566 1.100000 28.08600
18567 OA 17230 SL O1 18567 -0.675000 15.99940
18568 HG 17230 SL H1 18568 0.400000 2.01600
18569 SI 17231 SL Si1 18569 1.100000 28.08600
18570 OA 17231 SL O1 18570 -0.675000 15.99940
18571 HG 17231 SL H1 18571 0.400000 2.01600
18572 SI 17232 SL Si1 18572 1.100000 28.08600
18573 OA 17232 SL O1 18573 -0.675000 15.99940
18574 HG 17232 SL H1 18574 0.400000 2.01600
18575 SI 17233 SL Si1 18575 1.100000 28.08600
18576 OA 17233 SL O1 18576 -0.675000 15.99940
18577 HG 17233 SL H1 18577 0.400000 2.01600
18578 SI 17234 SL Si1 18578 1.100000 28.08600
18579 OA 17234 SL O1 18579 -0.675000 15.99940
18580 HG 17234 SL H1 18580 0.400000 2.01600
18581 SI 17235 SL Si1 18581 1.100000 28.08600
18582 OA 17235 SL O1 18582 -0.675000 15.99940
18583 HG 17235 SL H1 18583 0.400000 2.01600
18584 SI 17236 SL Si1 18584 1.100000 28.08600
18585 OA 17236 SL O1 18585 -0.675000 15.99940
18586 HG 17236 SL H1 18586 0.400000 2.01600
18587 SI 17237 SL Si1 18587 1.100000 28.08600
18588 OA 17237 SL O1 18588 -0.675000 15.99940
18589 HG 17237 SL H1 18589 0.400000 2.01600
18590 SI 17238 SL Si1 18590 1.100000 28.08600
18591 OA 17238 SL O1 18591 -0.675000 15.99940
18592 HG 17238 SL H1 18592 0.400000 2.01600
18593 SI 17239 SL Si1 18593 1.100000 28.08600
18594 OA 17239 SL O1 18594 -0.675000 15.99940
18595 HG 17239 SL H1 18595 0.400000 2.01600
18596 SI 17240 SL Si1 18596 1.100000 28.08600
18597 OA 17240 SL O1 18597 -0.675000 15.99940
18598 HG 17240 SL H1 18598 0.400000 2.01600
18599 SI 17241 SL Si1 18599 1.100000 28.08600
18600 OA 17241 SL O1 18600 -0.675000 15.99940
18601 HG 17241 SL H1 18601 0.400000 2.01600
18602 SI 17242 SL Si1 18602 1.100000 28.08600
18603 OA 17242 SL O1 18603 -0.675000 15.99940
18604 HG 17242 SL H1 18604 0.400000 2.01600
18605 SI 17243 SL Si1 18605 1.100000 28.08600
18606 OA 17243 SL O1 18606 -0.675000 15.99940
18607 HG 17243 SL H1 18607 0.400000 2.01600
18608 SI 17244 SL Si1 18608 1.100000 28.08600
18609 OA 17244 SL O1 18609 -0.675000 15.99940
18610 HG 17244 SL H1 18610 0.400000 2.01600
18611 SI 17245 SL Si1 18611 1.100000 28.08600
18612 OA 17245 SL O1 18612 -0.675000 15.99940
18613 HG 17245 SL H1 18613 0.400000 2.01600
18614 SI 17246 SL Si1 18614 1.100000 28.08600
18615 OA 17246 SL O1 18615 -0.675000 15.99940
18616 HG 17246 SL H1 18616 0.400000 2.01600
18617 SI 17247 SL Si1 18617 1.100000 28.08600
18618 OA 17247 SL O1 18618 -0.675000 15.99940
18619 HG 17247 SL H1 18619 0.400000 2.01600
18620 SI 17248 SL Si1 18620 1.100000 28.08600
18621 OA 17248 SL O1 18621 -0.675000 15.99940
18622 HG 17248 SL H1 18622 0.400000 2.01600
18623 SI 17249 SL Si1 18623 1.100000 28.08600
18624 OA 17249 SL O1 18624 -0.675000 15.99940
18625 HG 17249 SL H1 18625 0.400000 2.01600
18626 SI 17250 SL Si1 18626 1.100000 28.08600
18627 OA 17250 SL O1 18627 -0.675000 15.99940
18628 HG 17250 SL H1 18628 0.400000 2.01600
18629 SI 17251 SL Si1 18629 1.100000 28.08600
18630 OA 17251 SL O1 18630 -0.675000 15.99940
18631 HG 17251 SL H1 18631 0.400000 2.01600
18632 SI 17252 SL Si1 18632 1.100000 28.08600
18633 OA 17252 SL O1 18633 -0.675000 15.99940
18634 HG 17252 SL H1 18634 0.400000 2.01600
18635 SI 17253 SL Si1 18635 1.100000 28.08600
18636 OA 17253 SL O1 18636 -0.675000 15.99940
18637 HG 17253 SL H1 18637 0.400000 2.01600
18638 SI 17254 SL Si1 18638 1.100000 28.08600
18639 OA 17254 SL O1 18639 -0.675000 15.99940
18640 HG 17254 SL H1 18640 0.400000 2.01600
18641 SI 17255 SL Si1 18641 1.100000 28.08600
18642 OA 17255 SL O1 18642 -0.675000 15.99940
18643 HG 17255 SL H1 18643 0.400000 2.01600
18644 SI 17256 SL Si1 18644 1.100000 28.08600
18645 OA 17256 SL O1 18645 -0.675000 15.99940
18646 HG 17256 SL H1 18646 0.400000 2.01600
18647 SI 17257 SL Si1 18647 1.100000 28.08600
18648 OA 17257 SL O1 18648 -0.675000 15.99940
18649 HG 17257 SL H1 18649 0.400000 2.01600
18650 SI 17258 SL Si1 18650 1.100000 28.08600
18651 OA 17258 SL O1 18651 -0.675000 15.99940
18652 HG 17258 SL H1 18652 0.400000 2.01600
18653 SI 17259 SL Si1 18653 1.100000 28.08600
18654 OA 17259 SL O1 18654 -0.675000 15.99940
18655 HG 17259 SL H1 18655 0.400000 2.01600
18656 SI 17260 SL Si1 18656 1.100000 28.08600
18657 OA 17260 SL O1 18657 -0.675000 15.99940
18658 HG 17260 SL H1 18658 0.400000 2.01600
18659 SI 17261 SL Si1 18659 1.100000 28.08600
18660 OA 17261 SL O1 18660 -0.675000 15.99940
18661 HG 17261 SL H1 18661 0.400000 2.01600
18662 SI 17262 SL Si1 18662 1.100000 28.08600
18663 OA 17262 SL O1 18663 -0.675000 15.99940
18664 HG 17262 SL H1 18664 0.400000 2.01600
18665 SI 17263 SL Si1 18665 1.100000 28.08600
18666 OA 17263 SL O1 18666 -0.675000 15.99940
18667 HG 17263 SL H1 18667 0.400000 2.01600
18668 SI 17264 SL Si1 18668 1.100000 28.08600
18669 OA 17264 SL O1 18669 -0.675000 15.99940
18670 HG 17264 SL H1 18670 0.400000 2.01600
18671 SI 17265 SL Si1 18671 1.100000 28.08600
18672 OA 17265 SL O1 18672 -0.675000 15.99940
18673 HG 17265 SL H1 18673 0.400000 2.01600
18674 SI 17266 SL Si1 18674 1.100000 28.08600
18675 OA 17266 SL O1 18675 -0.675000 15.99940
18676 HG 17266 SL H1 18676 0.400000 2.01600
18677 SI 17267 SL Si1 18677 1.100000 28.08600
18678 OA 17267 SL O1 18678 -0.675000 15.99940
18679 HG 17267 SL H1 18679 0.400000 2.01600
18680 SI 17268 SL Si1 18680 1.100000 28.08600
18681 OA 17268 SL O1 18681 -0.675000 15.99940
18682 HG 17268 SL H1 18682 0.400000 2.01600
18683 SI 17269 SL Si1 18683 1.100000 28.08600
18684 OA 17269 SL O1 18684 -0.675000 15.99940
18685 HG 17269 SL H1 18685 0.400000 2.01600
18686 SI 17270 SL Si1 18686 1.100000 28.08600
18687 OA 17270 SL O1 18687 -0.675000 15.99940
18688 HG 17270 SL H1 18688 0.400000 2.01600
18689 SI 17271 SL Si1 18689 1.100000 28.08600
18690 OA 17271 SL O1 18690 -0.675000 15.99940
18691 HG 17271 SL H1 18691 0.400000 2.01600
18692 SI 17272 SL Si1 18692 1.100000 28.08600
18693 OA 17272 SL O1 18693 -0.675000 15.99940
18694 HG 17272 SL H1 18694 0.400000 2.01600
18695 SI 17273 SL Si1 18695 1.100000 28.08600
18696 OA 17273 SL O1 18696 -0.675000 15.99940
18697 HG 17273 SL H1 18697 0.400000 2.01600
18698 SI 17274 SL Si1 18698 1.100000 28.08600
18699 OA 17274 SL O1 18699 -0.675000 15.99940
18700 HG 17274 SL H1 18700 0.400000 2.01600
18701 SI 17275 SL Si1 18701 1.100000 28.08600
18702 OA 17275 SL O1 18702 -0.675000 15.99940
18703 HG 17275 SL H1 18703 0.400000 2.01600
18704 SI 17276 SL Si1 18704 1.100000 28.08600
18705 OA 17276 SL O1 18705 -0.675000 15.99940
18706 HG 17276 SL H1 18706 0.400000 2.01600
18707 SI 17277 SL Si1 18707 1.100000 28.08600
18708 OA 17277 SL O1 18708 -0.675000 15.99940
18709 HG 17277 SL H1 18709 0.400000 2.01600
18710 SI 17278 SL Si1 18710 1.100000 28.08600
18711 OA 17278 SL O1 18711 -0.675000 15.99940
18712 HG 17278 SL H1 18712 0.400000 2.01600
18713 SI 17279 SL Si1 18713 1.100000 28.08600
18714 OA 17279 SL O1 18714 -0.675000 15.99940
18715 HG 17279 SL H1 18715 0.400000 2.01600
18716 SI 17280 SL Si1 18716 1.100000 28.08600
18717 OA 17280 SL O1 18717 -0.675000 15.99940
18718 HG 17280 SL H1 18718 0.400000 2.01600
18719 SI 17281 SL Si1 18719 1.100000 28.08600
18720 OA 17281 SL O1 18720 -0.675000 15.99940
18721 HG 17281 SL H1 18721 0.400000 2.01600
18722 SI 17282 SL Si1 18722 1.100000 28.08600
18723 OA 17282 SL O1 18723 -0.675000 15.99940
18724 HG 17282 SL H1 18724 0.400000 2.01600
18725 SI 17283 SL Si1 18725 1.100000 28.08600
18726 OA 17283 SL O1 18726 -0.675000 15.99940
18727 HG 17283 SL H1 18727 0.400000 2.01600
18728 SI 17284 SL Si1 18728 1.100000 28.08600
18729 OA 17284 SL O1 18729 -0.675000 15.99940
18730 HG 17284 SL H1 18730 0.400000 2.01600
18731 SI 17285 SL Si1 18731 1.100000 28.08600
18732 OA 17285 SL O1 18732 -0.675000 15.99940
18733 HG 17285 SL H1 18733 0.400000 2.01600
18734 SI 17286 SL Si1 18734 1.100000 28.08600
18735 OA 17286 SL O1 18735 -0.675000 15.99940
18736 HG 17286 SL H1 18736 0.400000 2.01600
18737 SI 17287 SL Si1 18737 1.100000 28.08600
18738 OA 17287 SL O1 18738 -0.675000 15.99940
18739 HG 17287 SL H1 18739 0.400000 2.01600
18740 SI 17288 SL Si1 18740 1.100000 28.08600
18741 OA 17288 SL O1 18741 -0.675000 15.99940
18742 HG 17288 SL H1 18742 0.400000 2.01600
18743 SI 17289 SL Si1 18743 1.100000 28.08600
18744 OA 17289 SL O1 18744 -0.675000 15.99940
18745 HG 17289 SL H1 18745 0.400000 2.01600
18746 SI 17290 SL Si1 18746 1.100000 28.08600
18747 OA 17290 SL O1 18747 -0.675000 15.99940
18748 HG 17290 SL H1 18748 0.400000 2.01600
18749 SI 17291 SL Si1 18749 1.100000 28.08600
18750 OA 17291 SL O1 18750 -0.675000 15.99940
18751 HG 17291 SL H1 18751 0.400000 2.01600
18752 SI 17292 SL Si1 18752 1.100000 28.08600
18753 OA 17292 SL O1 18753 -0.675000 15.99940
18754 HG 17292 SL H1 18754 0.400000 2.01600
18755 SI 17293 SL Si1 18755 1.100000 28.08600
18756 OA 17293 SL O1 18756 -0.675000 15.99940
18757 HG 17293 SL H1 18757 0.400000 2.01600
18758 SI 17294 SL Si1 18758 1.100000 28.08600
18759 OA 17294 SL O1 18759 -0.675000 15.99940
18760 HG 17294 SL H1 18760 0.400000 2.01600
18761 SI 17295 SL Si1 18761 1.100000 28.08600
18762 OA 17295 SL O1 18762 -0.675000 15.99940
18763 HG 17295 SL H1 18763 0.400000 2.01600
18764 SI 17296 SL Si1 18764 1.100000 28.08600
18765 OA 17296 SL O1 18765 -0.675000 15.99940
18766 HG 17296 SL H1 18766 0.400000 2.01600
18767 SI 17297 SL Si1 18767 1.100000 28.08600
18768 OA 17297 SL O1 18768 -0.675000 15.99940
18769 HG 17297 SL H1 18769 0.400000 2.01600
18770 SI 17298 SL Si1 18770 1.100000 28.08600
18771 OA 17298 SL O1 18771 -0.675000 15.99940
18772 HG 17298 SL H1 18772 0.400000 2.01600
18773 SI 17299 SL Si1 18773 1.100000 28.08600
18774 OA 17299 SL O1 18774 -0.675000 15.99940
18775 HG 17299 SL H1 18775 0.400000 2.01600
18776 SI 17300 SL Si1 18776 1.100000 28.08600
18777 OA 17300 SL O1 18777 -0.675000 15.99940
18778 HG 17300 SL H1 18778 0.400000 2.01600
18779 SI 17301 SL Si1 18779 1.100000 28.08600
18780 OA 17301 SL O1 18780 -0.675000 15.99940
18781 HG 17301 SL H1 18781 0.400000 2.01600
18782 SI 17302 SL Si1 18782 1.100000 28.08600
18783 OA 17302 SL O1 18783 -0.675000 15.99940
18784 HG 17302 SL H1 18784 0.400000 2.01600
18785 SI 17303 SL Si1 18785 1.100000 28.08600
18786 OA 17303 SL O1 18786 -0.675000 15.99940
18787 HG 17303 SL H1 18787 0.400000 2.01600
18788 SI 17304 SL Si1 18788 1.100000 28.08600
18789 OA 17304 SL O1 18789 -0.675000 15.99940
18790 HG 17304 SL H1 18790 0.400000 2.01600
18791 SI 17305 SL Si1 18791 1.100000 28.08600
18792 OA 17305 SL O1 18792 -0.675000 15.99940
18793 HG 17305 SL H1 18793 0.400000 2.01600
18794 SI 17306 SL Si1 18794 1.100000 28.08600
18795 OA 17306 SL O1 18795 -0.675000 15.99940
18796 HG 17306 SL H1 18796 0.400000 2.01600
18797 SI 17307 SL Si1 18797 1.100000 28.08600
18798 OA 17307 SL O1 18798 -0.675000 15.99940
18799 HG 17307 SL H1 18799 0.400000 2.01600
18800 SI 17308 SL Si1 18800 1.100000 28.08600
18801 OA 17308 SL O1 18801 -0.675000 15.99940
18802 HG 17308 SL H1 18802 0.400000 2.01600
18803 SI 17309 SL Si1 18803 1.100000 28.08600
18804 OA 17309 SL O1 18804 -0.675000 15.99940
18805 HG 17309 SL H1 18805 0.400000 2.01600
18806 SI 17310 SL Si1 18806 1.100000 28.08600
18807 OA 17310 SL O1 18807 -0.675000 15.99940
18808 HG 17310 SL H1 18808 0.400000 2.01600
18809 SI 17311 SL Si1 18809 1.100000 28.08600
18810 OA 17311 SL O1 18810 -0.675000 15.99940
18811 HG 17311 SL H1 18811 0.400000 2.01600
18812 SI 17312 SL Si1 18812 1.100000 28.08600
18813 OA 17312 SL O1 18813 -0.675000 15.99940
18814 HG 17312 SL H1 18814 0.400000 2.01600
18815 SI 17313 SL Si1 18815 1.100000 28.08600
18816 OA 17313 SL O1 18816 -0.675000 15.99940
18817 HG 17313 SL H1 18817 0.400000 2.01600
18818 SI 17314 SL Si1 18818 1.100000 28.08600
18819 OA 17314 SL O1 18819 -0.675000 15.99940
18820 HG 17314 SL H1 18820 0.400000 2.01600
18821 SI 17315 SL Si1 18821 1.100000 28.08600
18822 OA 17315 SL O1 18822 -0.675000 15.99940
18823 HG 17315 SL H1 18823 0.400000 2.01600
18824 SI 17316 SL Si1 18824 1.100000 28.08600
18825 OA 17316 SL O1 18825 -0.675000 15.99940
18826 HG 17316 SL H1 18826 0.400000 2.01600
18827 SI 17317 SL Si1 18827 1.100000 28.08600
18828 OA 17317 SL O1 18828 -0.675000 15.99940
18829 HG 17317 SL H1 18829 0.400000 2.01600
18830 SI 17318 SL Si1 18830 1.100000 28.08600
18831 OA 17318 SL O1 18831 -0.675000 15.99940
18832 HG 17318 SL H1 18832 0.400000 2.01600
18833 SI 17319 SL Si1 18833 1.100000 28.08600
18834 OA 17319 SL O1 18834 -0.675000 15.99940
18835 HG 17319 SL H1 18835 0.400000 2.01600
18836 SI 17320 SL Si1 18836 1.100000 28.08600
18837 OA 17320 SL O1 18837 -0.675000 15.99940
18838 HG 17320 SL H1 18838 0.400000 2.01600
18839 SI 17321 SL Si1 18839 1.100000 28.08600
18840 OA 17321 SL O1 18840 -0.675000 15.99940
18841 HG 17321 SL H1 18841 0.400000 2.01600
18842 SI 17322 SL Si1 18842 1.100000 28.08600
18843 OA 17322 SL O1 18843 -0.675000 15.99940
18844 HG 17322 SL H1 18844 0.400000 2.01600
18845 SI 17323 SL Si1 18845 1.100000 28.08600
18846 OA 17323 SL O1 18846 -0.675000 15.99940
18847 HG 17323 SL H1 18847 0.400000 2.01600
18848 SI 17324 SL Si1 18848 1.100000 28.08600
18849 OA 17324 SL O1 18849 -0.675000 15.99940
18850 HG 17324 SL H1 18850 0.400000 2.01600
18851 SI 17325 SL Si1 18851 1.100000 28.08600
18852 OA 17325 SL O1 18852 -0.675000 15.99940
18853 HG 17325 SL H1 18853 0.400000 2.01600
18854 SI 17326 SL Si1 18854 1.100000 28.08600
18855 OA 17326 SL O1 18855 -0.675000 15.99940
18856 HG 17326 SL H1 18856 0.400000 2.01600
18857 SI 17327 SL Si1 18857 1.100000 28.08600
18858 OA 17327 SL O1 18858 -0.675000 15.99940
18859 HG 17327 SL H1 18859 0.400000 2.01600
18860 SI 17328 SL Si1 18860 1.100000 28.08600
18861 OA 17328 SL O1 18861 -0.675000 15.99940
18862 HG 17328 SL H1 18862 0.400000 2.01600
18863 SI 17329 SL Si1 18863 1.100000 28.08600
18864 OA 17329 SL O1 18864 -0.675000 15.99940
18865 HG 17329 SL H1 18865 0.400000 2.01600
18866 SI 17330 SL Si1 18866 1.100000 28.08600
18867 OA 17330 SL O1 18867 -0.675000 15.99940
18868 HG 17330 SL H1 18868 0.400000 2.01600
18869 SI 17331 SL Si1 18869 1.100000 28.08600
18870 OA 17331 SL O1 18870 -0.675000 15.99940
18871 HG 17331 SL H1 18871 0.400000 2.01600
18872 SI 17332 SL Si1 18872 1.100000 28.08600
18873 OA 17332 SL O1 18873 -0.675000 15.99940
18874 HG 17332 SL H1 18874 0.400000 2.01600
18875 SI 17333 SL Si1 18875 1.100000 28.08600
18876 OA 17333 SL O1 18876 -0.675000 15.99940
18877 HG 17333 SL H1 18877 0.400000 2.01600
18878 SI 17334 SL Si1 18878 1.100000 28.08600
18879 OA 17334 SL O1 18879 -0.675000 15.99940
18880 HG 17334 SL H1 18880 0.400000 2.01600
18881 SI 17335 SL Si1 18881 1.100000 28.08600
18882 OA 17335 SL O1 18882 -0.675000 15.99940
18883 HG 17335 SL H1 18883 0.400000 2.01600
18884 SI 17336 SL Si1 18884 1.100000 28.08600
18885 OA 17336 SL O1 18885 -0.675000 15.99940
18886 HG 17336 SL H1 18886 0.400000 2.01600
18887 SI 17337 SL Si1 18887 1.100000 28.08600
18888 OA 17337 SL O1 18888 -0.675000 15.99940
18889 HG 17337 SL H1 18889 0.400000 2.01600
18890 SI 17338 SL Si1 18890 1.100000 28.08600
18891 OA 17338 SL O1 18891 -0.675000 15.99940
18892 HG 17338 SL H1 18892 0.400000 2.01600
18893 SI 17339 SL Si1 18893 1.100000 28.08600
18894 OA 17339 SL O1 18894 -0.675000 15.99940
18895 HG 17339 SL H1 18895 0.400000 2.01600
18896 SI 17340 SL Si1 18896 1.100000 28.08600
18897 OA 17340 SL O1 18897 -0.675000 15.99940
18898 HG 17340 SL H1 18898 0.400000 2.01600
18899 SI 17341 SL Si1 18899 1.100000 28.08600
18900 OA 17341 SL O1 18900 -0.675000 15.99940
18901 HG 17341 SL H1 18901 0.400000 2.01600
18902 SI 17342 SL Si1 18902 1.100000 28.08600
18903 OA 17342 SL O1 18903 -0.675000 15.99940
18904 HG 17342 SL H1 18904 0.400000 2.01600
18905 SI 17343 SL Si1 18905 1.100000 28.08600
18906 OA 17343 SL O1 18906 -0.675000 15.99940
18907 HG 17343 SL H1 18907 0.400000 2.01600
18908 SI 17344 SL Si1 18908 1.100000 28.08600
18909 OA 17344 SL O1 18909 -0.675000 15.99940
18910 HG 17344 SL H1 18910 0.400000 2.01600
18911 SI 17345 SL Si1 18911 1.100000 28.08600
18912 OA 17345 SL O1 18912 -0.675000 15.99940
18913 HG 17345 SL H1 18913 0.400000 2.01600
18914 SI 17346 SL Si1 18914 1.100000 28.08600
18915 OA 17346 SL O1 18915 -0.675000 15.99940
18916 HG 17346 SL H1 18916 0.400000 2.01600
18917 SI 17347 SL Si1 18917 1.100000 28.08600
18918 OA 17347 SL O1 18918 -0.675000 15.99940
18919 HG 17347 SL H1 18919 0.400000 2.01600
18920 SI 17348 SL Si1 18920 1.100000 28.08600
18921 OA 17348 SL O1 18921 -0.675000 15.99940
18922 HG 17348 SL H1 18922 0.400000 2.01600
18923 SI 17349 SL Si1 18923 1.100000 28.08600
18924 OA 17349 SL O1 18924 -0.675000 15.99940
18925 HG 17349 SL H1 18925 0.400000 2.01600
18926 SI 17350 SL Si1 18926 1.100000 28.08600
18927 OA 17350 SL O1 18927 -0.675000 15.99940
18928 HG 17350 SL H1 18928 0.400000 2.01600
18929 SI 17351 SL Si1 18929 1.100000 28.08600
18930 OA 17351 SL O1 18930 -0.675000 15.99940
18931 HG 17351 SL H1 18931 0.400000 2.01600
18932 SI 17352 SL Si1 18932 1.100000 28.08600
18933 OA 17352 SL O1 18933 -0.675000 15.99940
18934 HG 17352 SL H1 18934 0.400000 2.01600
18935 SI 17353 SL Si1 18935 1.100000 28.08600
18936 OA 17353 SL O1 18936 -0.675000 15.99940
18937 HG 17353 SL H1 18937 0.400000 2.01600
18938 SI 17354 SL Si1 18938 1.100000 28.08600
18939 OA 17354 SL O1 18939 -0.675000 15.99940
18940 HG 17354 SL H1 18940 0.400000 2.01600
18941 SI 17355 SL Si1 18941 1.100000 28.08600
18942 OA 17355 SL O1 18942 -0.675000 15.99940
18943 HG 17355 SL H1 18943 0.400000 2.01600
18944 SI 17356 SL Si1 18944 1.100000 28.08600
18945 OA 17356 SL O1 18945 -0.675000 15.99940
18946 HG 17356 SL H1 18946 0.400000 2.01600
18947 SI 17357 SL Si1 18947 1.100000 28.08600
18948 OA 17357 SL O1 18948 -0.675000 15.99940
18949 HG 17357 SL H1 18949 0.400000 2.01600
18950 SI 17358 SL Si1 18950 1.100000 28.08600
18951 OA 17358 SL O1 18951 -0.675000 15.99940
18952 HG 17358 SL H1 18952 0.400000 2.01600
18953 SI 17359 SL Si1 18953 1.100000 28.08600
18954 OA 17359 SL O1 18954 -0.675000 15.99940
18955 HG 17359 SL H1 18955 0.400000 2.01600
18956 SI 17360 SL Si1 18956 1.100000 28.08600
18957 OA 17360 SL O1 18957 -0.675000 15.99940
18958 HG 17360 SL H1 18958 0.400000 2.01600
18959 SI 17361 SL Si1 18959 1.100000 28.08600
18960 OA 17361 SL O1 18960 -0.675000 15.99940
18961 HG 17361 SL H1 18961 0.400000 2.01600
18962 SI 17362 SL Si1 18962 1.100000 28.08600
18963 OA 17362 SL O1 18963 -0.675000 15.99940
18964 HG 17362 SL H1 18964 0.400000 2.01600
18965 SI 17363 SL Si1 18965 1.100000 28.08600
18966 OA 17363 SL O1 18966 -0.675000 15.99940
18967 HG 17363 SL H1 18967 0.400000 2.01600
18968 SI 17364 SL Si1 18968 1.100000 28.08600
18969 OA 17364 SL O1 18969 -0.675000 15.99940
18970 HG 17364 SL H1 18970 0.400000 2.01600
18971 SI 17365 SL Si1 18971 1.100000 28.08600
18972 OA 17365 SL O1 18972 -0.675000 15.99940
18973 HG 17365 SL H1 18973 0.400000 2.01600
18974 SI 17366 SL Si1 18974 1.100000 28.08600
18975 OA 17366 SL O1 18975 -0.675000 15.99940
18976 HG 17366 SL H1 18976 0.400000 2.01600
18977 SI 17367 SL Si1 18977 1.100000 28.08600
18978 OA 17367 SL O1 18978 -0.675000 15.99940
18979 HG 17367 SL H1 18979 0.400000 2.01600
18980 SI 17368 SL Si1 18980 1.100000 28.08600
18981 OA 17368 SL O1 18981 -0.675000 15.99940
18982 HG 17368 SL H1 18982 0.400000 2.01600
18983 SI 17369 SL Si1 18983 1.100000 28.08600
18984 OA 17369 SL O1 18984 -0.675000 15.99940
18985 HG 17369 SL H1 18985 0.400000 2.01600
18986 SI 17370 SL Si1 18986 1.100000 28.08600
18987 OA 17370 SL O1 18987 -0.675000 15.99940
18988 HG 17370 SL H1 18988 0.400000 2.01600
18989 SI 17371 SL Si1 18989 1.100000 28.08600
18990 OA 17371 SL O1 18990 -0.675000 15.99940
18991 HG 17371 SL H1 18991 0.400000 2.01600
18992 SI 17372 SL Si1 18992 1.100000 28.08600
18993 OA 17372 SL O1 18993 -0.675000 15.99940
18994 HG 17372 SL H1 18994 0.400000 2.01600
18995 SI 17373 SL Si1 18995 1.100000 28.08600
18996 OA 17373 SL O1 18996 -0.675000 15.99940
18997 HG 17373 SL H1 18997 0.400000 2.01600
18998 SI 17374 SL Si1 18998 1.100000 28.08600
18999 OA 17374 SL O1 18999 -0.675000 15.99940
19000 HG 17374 SL H1 19000 0.400000 2.01600
19001 SI 17375 SL Si1 19001 1.100000 28.08600
19002 OA 17375 SL O1 19002 -0.675000 15.99940
19003 HG 17375 SL H1 19003 0.400000 2.01600
19004 SI 17376 SL Si1 19004 1.100000 28.08600
19005 OA 17376 SL O1 19005 -0.675000 15.99940
19006 HG 17376 SL H1 19006 0.400000 2.01600
19007 SI 17377 SL Si1 19007 1.100000 28.08600
19008 OA 17377 SL O1 19008 -0.675000 15.99940
19009 HG 17377 SL H1 19009 0.400000 2.01600
19010 SI 17378 SL Si1 19010 1.100000 28.08600
19011 OA 17378 SL O1 19011 -0.675000 15.99940
19012 HG 17378 SL H1 19012 0.400000 2.01600
19013 SI 17379 SL Si1 19013 1.100000 28.08600
19014 OA 17379 SL O1 19014 -0.675000 15.99940
19015 HG 17379 SL H1 19015 0.400000 2.01600
19016 SI 17380 SL Si1 19016 1.100000 28.08600
19017 OA 17380 SL O1 19017 -0.675000 15.99940
19018 HG 17380 SL H1 19018 0.400000 2.01600
19019 SI 17381 SL Si1 19019 1.100000 28.08600
19020 OA 17381 SL O1 19020 -0.675000 15.99940
19021 HG 17381 SL H1 19021 0.400000 2.01600
19022 SI 17382 SL Si1 19022 1.100000 28.08600
19023 OA 17382 SL O1 19023 -0.675000 15.99940
19024 HG 17382 SL H1 19024 0.400000 2.01600
19025 SI 17383 SL Si1 19025 1.100000 28.08600
19026 OA 17383 SL O1 19026 -0.675000 15.99940
19027 HG 17383 SL H1 19027 0.400000 2.01600
19028 SI 17384 SL Si1 19028 1.100000 28.08600
19029 OA 17384 SL O1 19029 -0.675000 15.99940
19030 HG 17384 SL H1 19030 0.400000 2.01600
19031 SI 17385 SL Si1 19031 1.100000 28.08600
19032 OA 17385 SL O1 19032 -0.675000 15.99940
19033 HG 17385 SL H1 19033 0.400000 2.01600
19034 SI 17386 SL Si1 19034 1.100000 28.08600
19035 OA 17386 SL O1 19035 -0.675000 15.99940
19036 HG 17386 SL H1 19036 0.400000 2.01600
19037 SI 17387 SL Si1 19037 1.100000 28.08600
19038 OA 17387 SL O1 19038 -0.675000 15.99940
19039 HG 17387 SL H1 19039 0.400000 2.01600
19040 SI 17388 SL Si1 19040 1.100000 28.08600
19041 OA 17388 SL O1 19041 -0.675000 15.99940
19042 HG 17388 SL H1 19042 0.400000 2.01600
19043 SI 17389 SL Si1 19043 1.100000 28.08600
19044 OA 17389 SL O1 19044 -0.675000 15.99940
19045 HG 17389 SL H1 19045 0.400000 2.01600
19046 SI 17390 SL Si1 19046 1.100000 28.08600
19047 OA 17390 SL O1 19047 -0.675000 15.99940
19048 HG 17390 SL H1 19048 0.400000 2.01600
19049 SI 17391 SL Si1 19049 1.100000 28.08600
19050 OA 17391 SL O1 19050 -0.675000 15.99940
19051 HG 17391 SL H1 19051 0.400000 2.01600
19052 SI 17392 SL Si1 19052 1.100000 28.08600
19053 OA 17392 SL O1 19053 -0.675000 15.99940
19054 HG 17392 SL H1 19054 0.400000 2.01600
19055 SI 17393 SL Si1 19055 1.100000 28.08600
19056 OA 17393 SL O1 19056 -0.675000 15.99940
19057 HG 17393 SL H1 19057 0.400000 2.01600
19058 SI 17394 SL Si1 19058 1.100000 28.08600
19059 OA 17394 SL O1 19059 -0.675000 15.99940
19060 HG 17394 SL H1 19060 0.400000 2.01600
19061 SI 17395 SL Si1 19061 1.100000 28.08600
19062 OA 17395 SL O1 19062 -0.675000 15.99940
19063 HG 17395 SL H1 19063 0.400000 2.01600
19064 SI 17396 SL Si1 19064 1.100000 28.08600
19065 OA 17396 SL O1 19065 -0.675000 15.99940
19066 HG 17396 SL H1 19066 0.400000 2.01600
19067 SI 17397 SL Si1 19067 1.100000 28.08600
19068 OA 17397 SL O1 19068 -0.675000 15.99940
19069 HG 17397 SL H1 19069 0.400000 2.01600
19070 SI 17398 SL Si1 19070 1.100000 28.08600
19071 OA 17398 SL O1 19071 -0.675000 15.99940
19072 HG 17398 SL H1 19072 0.400000 2.01600
19073 SI 17399 SL Si1 19073 1.100000 28.08600
19074 OA 17399 SL O1 19074 -0.675000 15.99940
19075 HG 17399 SL H1 19075 0.400000 2.01600
19076 SI 17400 SL Si1 19076 1.100000 28.08600
19077 OA 17400 SL O1 19077 -0.675000 15.99940
19078 HG 17400 SL H1 19078 0.400000 2.01600
19079 SI 17401 SL Si1 19079 1.100000 28.08600
19080 OA 17401 SL O1 19080 -0.675000 15.99940
19081 HG 17401 SL H1 19081 0.400000 2.01600
19082 SI 17402 SL Si1 19082 1.100000 28.08600
19083 OA 17402 SL O1 19083 -0.675000 15.99940
19084 HG 17402 SL H1 19084 0.400000 2.01600
19085 SI 17403 SLG Si1 19085 1.100000 28.08600
19086 OA 17403 SLG O1 19086 -0.675000 15.99940
19087 HG 17403 SLG H1 19087 0.400000 2.01600
19088 OA 17403 SLG O2 19088 -0.675000 15.99940
19089 HG 17403 SLG H2 19089 0.400000 2.01600
19090 SI 17404 SLG Si1 19090 1.100000 28.08600
19091 OA 17404 SLG O1 19091 -0.675000 15.99940
19092 HG 17404 SLG H1 19092 0.400000 2.01600
19093 OA 17404 SLG O2 19093 -0.675000 15.99940
19094 HG 17404 SLG H2 19094 0.400000 2.01600
19095 SI 17405 SLG Si1 19095 1.100000 28.08600
19096 OA 17405 SLG O1 19096 -0.675000 15.99940
19097 HG 17405 SLG H1 19097 0.400000 2.01600
19098 OA 17405 SLG O2 19098 -0.675000 15.99940
19099 HG 17405 SLG H2 19099 0.400000 2.01600
19100 SI 17406 SLG Si1 19100 1.100000 28.08600
19101 OA 17406 SLG O1 19101 -0.675000 15.99940
19102 HG 17406 SLG H1 19102 0.400000 2.01600
19103 OA 17406 SLG O2 19103 -0.675000 15.99940
19104 HG 17406 SLG H2 19104 0.400000 2.01600
19105 SI 17407 SLG Si1 19105 1.100000 28.08600
19106 OA 17407 SLG O1 19106 -0.675000 15.99940
19107 HG 17407 SLG H1 19107 0.400000 2.01600
19108 OA 17407 SLG O2 19108 -0.675000 15.99940
19109 HG 17407 SLG H2 19109 0.400000 2.01600
19110 SI 17408 SLG Si1 19110 1.100000 28.08600
19111 OA 17408 SLG O1 19111 -0.675000 15.99940
19112 HG 17408 SLG H1 19112 0.400000 2.01600
19113 OA 17408 SLG O2 19113 -0.675000 15.99940
19114 HG 17408 SLG H2 19114 0.400000 2.01600
19115 SI 17409 SLG Si1 19115 1.100000 28.08600
19116 OA 17409 SLG O1 19116 -0.675000 15.99940
19117 HG 17409 SLG H1 19117 0.400000 2.01600
19118 OA 17409 SLG O2 19118 -0.675000 15.99940
19119 HG 17409 SLG H2 19119 0.400000 2.01600
19120 SI 17410 SLG Si1 19120 1.100000 28.08600
19121 OA 17410 SLG O1 19121 -0.675000 15.99940
19122 HG 17410 SLG H1 19122 0.400000 2.01600
19123 OA 17410 SLG O2 19123 -0.675000 15.99940
19124 HG 17410 SLG H2 19124 0.400000 2.01600
19125 SI 17411 SLG Si1 19125 1.100000 28.08600
19126 OA 17411 SLG O1 19126 -0.675000 15.99940
19127 HG 17411 SLG H1 19127 0.400000 2.01600
19128 OA 17411 SLG O2 19128 -0.675000 15.99940
19129 HG 17411 SLG H2 19129 0.400000 2.01600
19130 SI 17412 SLG Si1 19130 1.100000 28.08600
19131 OA 17412 SLG O1 19131 -0.675000 15.99940
19132 HG 17412 SLG H1 19132 0.400000 2.01600
19133 OA 17412 SLG O2 19133 -0.675000 15.99940
19134 HG 17412 SLG H2 19134 0.400000 2.01600
19135 SI 17413 SLG Si1 19135 1.100000 28.08600
19136 OA 17413 SLG O1 19136 -0.675000 15.99940
19137 HG 17413 SLG H1 19137 0.400000 2.01600
19138 OA 17413 SLG O2 19138 -0.675000 15.99940
19139 HG 17413 SLG H2 19139 0.400000 2.01600
19140 SI 17414 SLG Si1 19140 1.100000 28.08600
19141 OA 17414 SLG O1 19141 -0.675000 15.99940
19142 HG 17414 SLG H1 19142 0.400000 2.01600
19143 OA 17414 SLG O2 19143 -0.675000 15.99940
19144 HG 17414 SLG H2 19144 0.400000 2.01600
19145 SI 17415 SLG Si1 19145 1.100000 28.08600
19146 OA 17415 SLG O1 19146 -0.675000 15.99940
19147 HG 17415 SLG H1 19147 0.400000 2.01600
19148 OA 17415 SLG O2 19148 -0.675000 15.99940
19149 HG 17415 SLG H2 19149 0.400000 2.01600
19150 SI 17416 SLG Si1 19150 1.100000 28.08600
19151 OA 17416 SLG O1 19151 -0.675000 15.99940
19152 HG 17416 SLG H1 19152 0.400000 2.01600
19153 OA 17416 SLG O2 19153 -0.675000 15.99940
19154 HG 17416 SLG H2 19154 0.400000 2.01600
19155 SI 17417 SLG Si1 19155 1.100000 28.08600
19156 OA 17417 SLG O1 19156 -0.675000 15.99940
19157 HG 17417 SLG H1 19157 0.400000 2.01600
19158 OA 17417 SLG O2 19158 -0.675000 15.99940
19159 HG 17417 SLG H2 19159 0.400000 2.01600
19160 SI 17418 SLG Si1 19160 1.100000 28.08600
19161 OA 17418 SLG O1 19161 -0.675000 15.99940
19162 HG 17418 SLG H1 19162 0.400000 2.01600
19163 OA 17418 SLG O2 19163 -0.675000 15.99940
19164 HG 17418 SLG H2 19164 0.400000 2.01600
19165 SI 17419 SLG Si1 19165 1.100000 28.08600
19166 OA 17419 SLG O1 19166 -0.675000 15.99940
19167 HG 17419 SLG H1 19167 0.400000 2.01600
19168 OA 17419 SLG O2 19168 -0.675000 15.99940
19169 HG 17419 SLG H2 19169 0.400000 2.01600
19170 SI 17420 SLG Si1 19170 1.100000 28.08600
19171 OA 17420 SLG O1 19171 -0.675000 15.99940
19172 HG 17420 SLG H1 19172 0.400000 2.01600
19173 OA 17420 SLG O2 19173 -0.675000 15.99940
19174 HG 17420 SLG H2 19174 0.400000 2.01600
19175 SI 17421 SLG Si1 19175 1.100000 28.08600
19176 OA 17421 SLG O1 19176 -0.675000 15.99940
19177 HG 17421 SLG H1 19177 0.400000 2.01600
19178 OA 17421 SLG O2 19178 -0.675000 15.99940
19179 HG 17421 SLG H2 19179 0.400000 2.01600
19180 SI 17422 SLG Si1 19180 1.100000 28.08600
19181 OA 17422 SLG O1 19181 -0.675000 15.99940
19182 HG 17422 SLG H1 19182 0.400000 2.01600
19183 OA 17422 SLG O2 19183 -0.675000 15.99940
19184 HG 17422 SLG H2 19184 0.400000 2.01600
19185 SI 17423 SLG Si1 19185 1.100000 28.08600
19186 OA 17423 SLG O1 19186 -0.675000 15.99940
19187 HG 17423 SLG H1 19187 0.400000 2.01600
19188 OA 17423 SLG O2 19188 -0.675000 15.99940
19189 HG 17423 SLG H2 19189 0.400000 2.01600
19190 SI 17424 SLG Si1 19190 1.100000 28.08600
19191 OA 17424 SLG O1 19191 -0.675000 15.99940
19192 HG 17424 SLG H1 19192 0.400000 2.01600
19193 OA 17424 SLG O2 19193 -0.675000 15.99940
19194 HG 17424 SLG H2 19194 0.400000 2.01600

[ bonds ]
; ai aj funct params
1 11540 1 0.16500 119244.000000
1 15223 1 0.16500 119244.000000
2 11540 1 0.16500 119244.000000
2 15948 1 0.16500 119244.000000
3 11540 1 0.16500 119244.000000
3 16145 1 0.16500 119244.000000
4 11540 1 0.16500 119244.000000
4 11886 1 0.16500 119244.000000
5 11671 1 0.16500 119244.000000
5 18212 1 0.16500 119244.000000
6 18011 1 0.16500 119244.000000
6 18212 1 0.16500 119244.000000
7 11541 1 0.16500 119244.000000
7 16064 1 0.16500 119244.000000
8 11541 1 0.16500 119244.000000
8 16927 1 0.16500 119244.000000
9 11541 1 0.16500 119244.000000
9 11942 1 0.16500 119244.000000
10 11541 1 0.16500 119244.000000
10 12635 1 0.16500 119244.000000
11 11542 1 0.16500 119244.000000
11 12452 1 0.16500 119244.000000
12 11542 1 0.16500 119244.000000
12 12786 1 0.16500 119244.000000
13 11542 1 0.16500 119244.000000
13 13852 1 0.16500 119244.000000
14 11543 1 0.16500 119244.000000
14 11576 1 0.16500 119244.000000
15 11543 1 0.16500 119244.000000
15 13780 1 0.16500 119244.000000
16 11543 1 0.16500 119244.000000
16 14054 1 0.16500 119244.000000
17 11543 1 0.16500 119244.000000
17 12719 1 0.16500 119244.000000
18 12543 1 0.16500 119244.000000
18 15510 1 0.16500 119244.000000
19 11544 1 0.16500 119244.000000
19 15697 1 0.16500 119244.000000
20 11544 1 0.16500 119244.000000
20 14434 1 0.16500 119244.000000
21 11544 1 0.16500 119244.000000
21 14350 1 0.16500 119244.000000
22 11545 1 0.16500 119244.000000
22 15495 1 0.16500 119244.000000
23 11545 1 0.16500 119244.000000
23 16502 1 0.16500 119244.000000
24 11545 1 0.16500 119244.000000
24 19125 1 0.16500 119244.000000
25 11545 1 0.16500 119244.000000
25 13028 1 0.16500 119244.000000
26 11546 1 0.16500 119244.000000
26 12447 1 0.16500 119244.000000
27 11546 1 0.16500 119244.000000
27 14097 1 0.16500 119244.000000
28 11546 1 0.16500 119244.000000
28 15329 1 0.16500 119244.000000
29 11546 1 0.16500 119244.000000
29 16798 1 0.16500 119244.000000
30 13569 1 0.16500 119244.000000
30 18215 1 0.16500 119244.000000
31 15732 1 0.16500 119244.000000
31 18215 1 0.16500 119244.000000
32 14124 1 0.16500 119244.000000
32 18215 1 0.16500 119244.000000
33 11547 1 0.16500 119244.000000
33 14469 1 0.16500 119244.000000
34 11547 1 0.16500 119244.000000
34 15860 1 0.16500 119244.000000
35 11547 1 0.16500 119244.000000
35 12962 1 0.16500 119244.000000
36 11547 1 0.16500 119244.000000
36 15513 1 0.16500 119244.000000
37 11548 1 0.16500 119244.000000
37 14419 1 0.16500 119244.000000
38 11548 1 0.16500 119244.000000
38 13738 1 0.16500 119244.000000
39 11548 1 0.16500 119244.000000
39 12882 1 0.16500 119244.000000
40 11548 1 0.16500 119244.000000
40 14304 1 0.16500 119244.000000
41 11549 1 0.16500 119244.000000
41 15487 1 0.16500 119244.000000
42 11549 1 0.16500 119244.000000
42 14814 1 0.16500 119244.000000
43 11549 1 0.16500 119244.000000
43 16195 1 0.16500 119244.000000
44 11549 1 0.16500 119244.000000
44 16580 1 0.16500 119244.000000
45 11550 1 0.16500 119244.000000
45 15609 1 0.16500 119244.000000
46 11550 1 0.16500 119244.000000
46 18719 1 0.16500 119244.000000
47 11550 1 0.16500 119244.000000
47 14498 1 0.16500 119244.000000
48 11550 1 0.16500 119244.000000
48 16016 1 0.16500 119244.000000
49 11551 1 0.16500 119244.000000
49 14800 1 0.16500 119244.000000
50 11551 1 0.16500 119244.000000
50 15152 1 0.16500 119244.000000
51 11551 1 0.16500 119244.000000
51 14208 1 0.16500 119244.000000
52 11551 1 0.16500 119244.000000
52 12384 1 0.16500 119244.000000
53 11552 1 0.16500 119244.000000
53 14280 1 0.16500 119244.000000
54 11552 1 0.16500 119244.000000
54 12857 1 0.16500 119244.000000
55 11552 1 0.16500 119244.000000
55 16128 1 0.16500 119244.000000
56 11552 1 0.16500 119244.000000
56 12460 1 0.16500 119244.000000
57 11553 1 0.16500 119244.000000
57 14308 1 0.16500 119244.000000
58 11553 1 0.16500 119244.000000
58 14132 1 0.16500 119244.000000
59 11553 1 0.16500 119244.000000
59 12002 1 0.16500 119244.000000
60 11553 1 0.16500 119244.000000
60 15676 1 0.16500 119244.000000
61 11554 1 0.16500 119244.000000
61 14550 1 0.16500 119244.000000
62 11554 1 0.16500 119244.000000
62 12639 1 0.16500 119244.000000
63 11554 1 0.16500 119244.000000
63 11579 1 0.16500 119244.000000
64 11554 1 0.16500 119244.000000
64 12362 1 0.16500 119244.000000
65 11732 1 0.16500 119244.000000
65 18155 1 0.16500 119244.000000
66 16342 1 0.16500 119244.000000
66 18155 1 0.16500 119244.000000
67 16391 1 0.16500 119244.000000
67 18155 1 0.16500 119244.000000
68 16957 1 0.16500 119244.000000
68 18218 1 0.16500 119244.000000
69 15260 1 0.16500 119244.000000
69 18218 1 0.16500 119244.000000
70 11555 1 0.16500 119244.000000
70 15556 1 0.16500 119244.000000
71 11555 1 0.16500 119244.000000
71 14083 1 0.16500 119244.000000
72 11555 1 0.16500 119244.000000
72 16704 1 0.16500 119244.000000
73 11555 1 0.16500 119244.000000
73 16272 1 0.16500 119244.000000
74 11556 1 0.16500 119244.000000
74 18767 1 0.16500 119244.000000
75 11556 1 0.16500 119244.000000
75 14601 1 0.16500 119244.000000
76 11556 1 0.16500 119244.000000
76 16118 1 0.16500 119244.000000
77 11556 1 0.16500 119244.000000
77 16984 1 0.16500 119244.000000
78 11557 1 0.16500 119244.000000
78 12641 1 0.16500 119244.000000
79 11557 1 0.16500 119244.000000
79 11955 1 0.16500 119244.000000
80 11557 1 0.16500 119244.000000
80 15439 1 0.16500 119244.000000
81 11557 1 0.16500 119244.000000
81 14971 1 0.16500 119244.000000
82 11558 1 0.16500 119244.000000
82 14053 1 0.16500 119244.000000
83 11558 1 0.16500 119244.000000
83 16987 1 0.16500 119244.000000
84 11558 1 0.16500 119244.000000
84 14990 1 0.16500 119244.000000
85 11558 1 0.16500 119244.000000
85 16834 1 0.16500 119244.000000
86 13797 1 0.16500 119244.000000
86 13826 1 0.16500 119244.000000
87 11559 1 0.16500 119244.000000
87 13403 1 0.16500 119244.000000
88 11559 1 0.16500 119244.000000
88 13826 1 0.16500 119244.000000
89 11559 1 0.16500 119244.000000
89 16122 1 0.16500 119244.000000
90 11560 1 0.16500 119244.000000
90 15799 1 0.16500 119244.000000
91 11560 1 0.16500 119244.000000
91 16234 1 0.16500 119244.000000
92 11560 1 0.16500 119244.000000
92 15803 1 0.16500 119244.000000
93 11561 1 0.16500 119244.000000
93 14016 1 0.16500 119244.000000
94 11561 1 0.16500 119244.000000
94 13757 1 0.16500 119244.000000
95 11561 1 0.16500 119244.000000
95 16545 1 0.16500 119244.000000
96 11561 1 0.16500 119244.000000
96 12833 1 0.16500 119244.000000
97 11562 1 0.16500 119244.000000
97 15842 1 0.16500 119244.000000
98 11562 1 0.16500 119244.000000
98 13188 1 0.16500 119244.000000
99 11562 1 0.16500 119244.000000
99 14123 1 0.16500 119244.000000
100 11562 1 0.16500 119244.000000
100 16409 1 0.16500 119244.000000
101 11563 1 0.16500 119244.000000
101 11816 1 0.16500 119244.000000
102 11563 1 0.16500 119244.000000
102 14222 1 0.16500 119244.000000
103 11563 1 0.16500 119244.000000
103 12607 1 0.16500 119244.000000
104 11563 1 0.16500 119244.000000
104 16554 1 0.16500 119244.000000
105 11564 1 0.16500 119244.000000
105 12289 1 0.16500 119244.000000
106 11564 1 0.16500 119244.000000
106 16935 1 0.16500 119244.000000
107 11564 1 0.16500 119244.000000
107 16304 1 0.16500 119244.000000
108 11564 1 0.16500 119244.000000
108 16557 1 0.16500 119244.000000
109 11565 1 0.16500 119244.000000
109 14958 1 0.16500 119244.000000
110 11565 1 0.16500 119244.000000
110 16477 1 0.16500 119244.000000
111 11565 1 0.16500 119244.000000
111 13768 1 0.16500 119244.000000
112 11565 1 0.16500 119244.000000
112 16169 1 0.16500 119244.000000
113 11566 1 0.16500 119244.000000
113 11945 1 0.16500 119244.000000
114 11566 1 0.16500 119244.000000
114 12736 1 0.16500 119244.000000
115 11566 1 0.16500 119244.000000
115 16464 1 0.16500 119244.000000
116 11566 1 0.16500 119244.000000
116 12006 1 0.16500 119244.000000
117 11567 1 0.16500 119244.000000
117 14618 1 0.16500 119244.000000
118 11567 1 0.16500 119244.000000
118 12003 1 0.16500 119244.000000
119 11567 1 0.16500 119244.000000
119 15426 1 0.16500 119244.000000
120 11567 1 0.16500 119244.000000
120 12806 1 0.16500 119244.000000
121 16957 1 0.16500 119244.000000
121 18221 1 0.16500 119244.000000
122 16899 1 0.16500 119244.000000
122 18221 1 0.16500 119244.000000
123 11664 1 0.16500 119244.000000
123 18224 1 0.16500 119244.000000
124 16867 1 0.16500 119244.000000
124 18224 1 0.16500 119244.000000
125 18224 1 0.16500 119244.000000
125 18374 1 0.16500 119244.000000
126 11568 1 0.16500 119244.000000
126 12011 1 0.16500 119244.000000
127 11568 1 0.16500 119244.000000
127 11570 1 0.16500 119244.000000
128 11568 1 0.16500 119244.000000
128 12018 1 0.16500 119244.000000
129 11568 1 0.16500 119244.000000
129 11906 1 0.16500 119244.000000
130 11569 1 0.16500 119244.000000
130 13053 1 0.16500 119244.000000
131 11569 1 0.16500 119244.000000
131 13984 1 0.16500 119244.000000
132 11569 1 0.16500 119244.000000
132 13899 1 0.16500 119244.000000
133 11569 1 0.16500 119244.000000
133 15899 1 0.16500 119244.000000
134 11570 1 0.16500 119244.000000
134 13443 1 0.16500 119244.000000
135 11570 1 0.16500 119244.000000
135 13743 1 0.16500 119244.000000
136 11570 1 0.16500 119244.000000
136 15544 1 0.16500 119244.000000
137 11571 1 0.16500 119244.000000
137 18248 1 0.16500 119244.000000
138 11571 1 0.16500 119244.000000
138 15531 1 0.16500 119244.000000
139 11571 1 0.16500 119244.000000
139 12405 1 0.16500 119244.000000
140 11572 1 0.16500 119244.000000
140 12812 1 0.16500 119244.000000
141 11572 1 0.16500 119244.000000
141 13945 1 0.16500 119244.000000
142 11572 1 0.16500 119244.000000
142 12138 1 0.16500 119244.000000
143 11572 1 0.16500 119244.000000
143 12037 1 0.16500 119244.000000
144 11573 1 0.16500 119244.000000
144 15527 1 0.16500 119244.000000
145 11573 1 0.16500 119244.000000
145 12886 1 0.16500 119244.000000
146 11573 1 0.16500 119244.000000
146 12414 1 0.16500 119244.000000
147 11573 1 0.16500 119244.000000
147 19105 1 0.16500 119244.000000
148 14100 1 0.16500 119244.000000
148 15335 1 0.16500 119244.000000
149 11574 1 0.16500 119244.000000
149 15126 1 0.16500 119244.000000
150 11574 1 0.16500 119244.000000
150 15335 1 0.16500 119244.000000
151 11574 1 0.16500 119244.000000
151 11828 1 0.16500 119244.000000
152 11575 1 0.16500 119244.000000
152 14883 1 0.16500 119244.000000
153 11575 1 0.16500 119244.000000
153 11966 1 0.16500 119244.000000
154 11575 1 0.16500 119244.000000
154 15006 1 0.16500 119244.000000
155 11575 1 0.16500 119244.000000
155 12024 1 0.16500 119244.000000
156 11576 1 0.16500 119244.000000
156 12303 1 0.16500 119244.000000
157 11576 1 0.16500 119244.000000
157 13686 1 0.16500 119244.000000
158 11576 1 0.16500 119244.000000
158 14309 1 0.16500 119244.000000
159 13810 1 0.16500 119244.000000
159 13935 1 0.16500 119244.000000
160 11577 1 0.16500 119244.000000
160 11857 1 0.16500 119244.000000
161 11577 1 0.16500 119244.000000
161 12897 1 0.16500 119244.000000
162 11577 1 0.16500 119244.000000
162 15484 1 0.16500 119244.000000
163 11578 1 0.16500 119244.000000
163 13440 1 0.16500 119244.000000
164 11578 1 0.16500 119244.000000
164 13672 1 0.16500 119244.000000
165 11578 1 0.16500 119244.000000
165 16488 1 0.16500 119244.000000
166 11578 1 0.16500 119244.000000
166 14951 1 0.16500 119244.000000
167 11579 1 0.16500 119244.000000
167 13946 1 0.16500 119244.000000
168 11579 1 0.16500 119244.000000
168 12655 1 0.16500 119244.000000
169 11579 1 0.16500 119244.000000
169 14380 1 0.16500 119244.000000
170 11580 1 0.16500 119244.000000
170 16557 1 0.16500 119244.000000
171 11580 1 0.16500 119244.000000
171 12263 1 0.16500 119244.000000
172 11580 1 0.16500 119244.000000
172 13663 1 0.16500 119244.000000
173 11580 1 0.16500 119244.000000
173 15914 1 0.16500 119244.000000
174 11581 1 0.16500 119244.000000
174 18593 1 0.16500 119244.000000
175 11581 1 0.16500 119244.000000
175 15390 1 0.16500 119244.000000
176 11581 1 0.16500 119244.000000
176 11714 1 0.16500 119244.000000
177 11581 1 0.16500 119244.000000
177 17007 1 0.16500 119244.000000
178 11582 1 0.16500 119244.000000
178 17371 1 0.16500 119244.000000
179 11582 1 0.16500 119244.000000
179 16519 1 0.16500 119244.000000
180 11583 1 0.16500 119244.000000
180 12920 1 0.16500 119244.000000
181 11583 1 0.16500 119244.000000
181 14080 1 0.16500 119244.000000
182 11583 1 0.16500 119244.000000
182 16392 1 0.16500 119244.000000
183 11583 1 0.16500 119244.000000
183 16459 1 0.16500 119244.000000
184 11584 1 0.16500 119244.000000
184 14749 1 0.16500 119244.000000
185 11584 1 0.16500 119244.000000
185 13524 1 0.16500 119244.000000
186 11584 1 0.16500 119244.000000
186 12820 1 0.16500 119244.000000
187 11584 1 0.16500 119244.000000
187 14025 1 0.16500 119244.000000
188 11585 1 0.16500 119244.000000
188 16034 1 0.16500 119244.000000
189 11585 1 0.16500 119244.000000
189 13922 1 0.16500 119244.000000
190 11585 1 0.16500 119244.000000
190 15696 1 0.16500 119244.000000
191 11585 1 0.16500 119244.000000
191 12272 1 0.16500 119244.000000
192 14359 1 0.16500 119244.000000
192 17939 1 0.16500 119244.000000
193 11586 1 0.16500 119244.000000
193 13209 1 0.16500 119244.000000
194 11586 1 0.16500 119244.000000
194 15012 1 0.16500 119244.000000
195 11586 1 0.16500 119244.000000
195 14835 1 0.16500 119244.000000
196 11586 1 0.16500 119244.000000
196 12667 1 0.16500 119244.000000
197 11587 1 0.16500 119244.000000
197 16735 1 0.16500 119244.000000
198 11587 1 0.16500 119244.000000
198 14234 1 0.16500 119244.000000
199 11587 1 0.16500 119244.000000
199 14522 1 0.16500 119244.000000
200 11587 1 0.16500 119244.000000
200 12586 1 0.16500 119244.000000
201 11588 1 0.16500 119244.000000
201 15583 1 0.16500 119244.000000
202 11588 1 0.16500 119244.000000
202 15366 1 0.16500 119244.000000
203 11588 1 0.16500 119244.000000
203 13532 1 0.16500 119244.000000
204 12681 1 0.16500 119244.000000
204 15366 1 0.16500 119244.000000
205 14968 1 0.16500 119244.000000
205 17441 1 0.16500 119244.000000
206 11589 1 0.16500 119244.000000
206 16266 1 0.16500 119244.000000
207 11589 1 0.16500 119244.000000
207 14968 1 0.16500 119244.000000
208 11589 1 0.16500 119244.000000
208 11939 1 0.16500 119244.000000
209 11590 1 0.16500 119244.000000
209 13203 1 0.16500 119244.000000
210 11590 1 0.16500 119244.000000
210 16913 1 0.16500 119244.000000
211 11590 1 0.16500 119244.000000
211 16074 1 0.16500 119244.000000
212 11590 1 0.16500 119244.000000
212 16726 1 0.16500 119244.000000
213 13305 1 0.16500 119244.000000
213 16898 1 0.16500 119244.000000
214 11591 1 0.16500 119244.000000
214 13305 1 0.16500 119244.000000
215 11591 1 0.16500 119244.000000
215 14483 1 0.16500 119244.000000
216 11591 1 0.16500 119244.000000
216 13466 1 0.16500 119244.000000
217 11592 1 0.16500 119244.000000
217 14498 1 0.16500 119244.000000
218 11592 1 0.16500 119244.000000
218 15838 1 0.16500 119244.000000
219 11592 1 0.16500 119244.000000
219 12481 1 0.16500 119244.000000
220 11592 1 0.16500 119244.000000
220 16021 1 0.16500 119244.000000
221 18095 1 0.16500 119244.000000
221 18227 1 0.16500 119244.000000
222 13285 1 0.16500 119244.000000
222 18227 1 0.16500 119244.000000
223 16739 1 0.16500 119244.000000
223 18227 1 0.16500 119244.000000
224 11593 1 0.16500 119244.000000
224 16891 1 0.16500 119244.000000
225 11593 1 0.16500 119244.000000
225 14094 1 0.16500 119244.000000
226 11593 1 0.16500 119244.000000
226 11943 1 0.16500 119244.000000
227 11593 1 0.16500 119244.000000
227 16764 1 0.16500 119244.000000
228 11594 1 0.16500 119244.000000
228 13662 1 0.16500 119244.000000
229 11594 1 0.16500 119244.000000
229 14282 1 0.16500 119244.000000
230 11594 1 0.16500 119244.000000
230 12200 1 0.16500 119244.000000
231 11594 1 0.16500 119244.000000
231 16418 1 0.16500 119244.000000
232 18131 1 0.16500 119244.000000
232 18230 1 0.16500 119244.000000
233 16508 1 0.16500 119244.000000
233 18230 1 0.16500 119244.000000
234 15496 1 0.16500 119244.000000
234 18230 1 0.16500 119244.000000
235 14339 1 0.16500 119244.000000
235 16637 1 0.16500 119244.000000
236 14339 1 0.16500 119244.000000
236 14810 1 0.16500 119244.000000
237 11595 1 0.16500 119244.000000
237 14339 1 0.16500 119244.000000
238 13492 1 0.16500 119244.000000
238 14339 1 0.16500 119244.000000
239 11596 1 0.16500 119244.000000
239 16018 1 0.16500 119244.000000
240 11596 1 0.16500 119244.000000
240 16176 1 0.16500 119244.000000
241 11596 1 0.16500 119244.000000
241 15358 1 0.16500 119244.000000
242 16359 1 0.16500 119244.000000
242 18083 1 0.16500 119244.000000
243 13699 1 0.16500 119244.000000
243 18083 1 0.16500 119244.000000
244 15172 1 0.16500 119244.000000
244 18083 1 0.16500 119244.000000
245 17119 1 0.16500 119244.000000
245 19046 1 0.16500 119244.000000
246 11597 1 0.16500 119244.000000
246 13088 1 0.16500 119244.000000
247 11597 1 0.16500 119244.000000
247 16850 1 0.16500 119244.000000
248 11597 1 0.16500 119244.000000
248 13140 1 0.16500 119244.000000
249 11597 1 0.16500 119244.000000
249 11674 1 0.16500 119244.000000
250 11974 1 0.16500 119244.000000
250 13878 1 0.16500 119244.000000
251 11598 1 0.16500 119244.000000
251 15450 1 0.16500 119244.000000
252 11598 1 0.16500 119244.000000
252 14517 1 0.16500 119244.000000
253 11598 1 0.16500 119244.000000
253 13878 1 0.16500 119244.000000
254 12075 1 0.16500 119244.000000
254 18233 1 0.16500 119244.000000
255 12058 1 0.16500 119244.000000
255 18233 1 0.16500 119244.000000
256 11599 1 0.16500 119244.000000
256 14272 1 0.16500 119244.000000
257 11599 1 0.16500 119244.000000
257 14064 1 0.16500 119244.000000
258 11599 1 0.16500 119244.000000
258 15105 1 0.16500 119244.000000
259 11599 1 0.16500 119244.000000
259 14338 1 0.16500 119244.000000
260 11600 1 0.16500 119244.000000
260 12173 1 0.16500 119244.000000
261 11600 1 0.16500 119244.000000
261 12291 1 0.16500 119244.000000
262 11600 1 0.16500 119244.000000
262 18983 1 0.16500 119244.000000
263 11600 1 0.16500 119244.000000
263 11614 1 0.16500 119244.000000
264 11601 1 0.16500 119244.000000
264 16351 1 0.16500 119244.000000
265 11601 1 0.16500 119244.000000
265 14751 1 0.16500 119244.000000
266 11601 1 0.16500 119244.000000
266 16959 1 0.16500 119244.000000
267 11601 1 0.16500 119244.000000
267 12478 1 0.16500 119244.000000
268 11602 1 0.16500 119244.000000
268 13043 1 0.16500 119244.000000
269 11602 1 0.16500 119244.000000
269 13182 1 0.16500 119244.000000
270 11602 1 0.16500 119244.000000
270 15958 1 0.16500 119244.000000
271 11602 1 0.16500 119244.000000
271 11641 1 0.16500 119244.000000
272 11603 1 0.16500 119244.000000
272 18995 1 0.16500 119244.000000
273 11603 1 0.16500 119244.000000
273 14374 1 0.16500 119244.000000
274 11603 1 0.16500 119244.000000
274 18464 1 0.16500 119244.000000
275 11604 1 0.16500 119244.000000
275 15057 1 0.16500 119244.000000
276 11604 1 0.16500 119244.000000
276 15963 1 0.16500 119244.000000
277 11604 1 0.16500 119244.000000
277 12361 1 0.16500 119244.000000
278 11604 1 0.16500 119244.000000
278 14749 1 0.16500 119244.000000
279 11605 1 0.16500 119244.000000
279 13682 1 0.16500 119244.000000
280 11605 1 0.16500 119244.000000
280 12185 1 0.16500 119244.000000
281 11605 1 0.16500 119244.000000
281 15642 1 0.16500 119244.000000
282 11605 1 0.16500 119244.000000
282 14202 1 0.16500 119244.000000
283 11606 1 0.16500 119244.000000
283 15170 1 0.16500 119244.000000
284 11606 1 0.16500 119244.000000
284 13308 1 0.16500 119244.000000
285 11606 1 0.16500 119244.000000
285 17927 1 0.16500 119244.000000
286 11607 1 0.16500 119244.000000
286 12497 1 0.16500 119244.000000
287 11607 1 0.16500 119244.000000
287 13298 1 0.16500 119244.000000
288 11607 1 0.16500 119244.000000
288 14836 1 0.16500 119244.000000
289 11607 1 0.16500 119244.000000
289 11616 1 0.16500 119244.000000
290 11608 1 0.16500 119244.000000
290 12066 1 0.16500 119244.000000
291 11608 1 0.16500 119244.000000
291 12425 1 0.16500 119244.000000
292 11608 1 0.16500 119244.000000
292 11694 1 0.16500 119244.000000
293 12066 1 0.16500 119244.000000
293 12984 1 0.16500 119244.000000
294 11609 1 0.16500 119244.000000
294 14908 1 0.16500 119244.000000
295 11609 1 0.16500 119244.000000
295 16374 1 0.16500 119244.000000
296 11609 1 0.16500 119244.000000
296 13755 1 0.16500 119244.000000
297 13755 1 0.16500 119244.000000
297 14093 1 0.16500 119244.000000
298 11610 1 0.16500 119244.000000
298 15738 1 0.16500 119244.000000
299 11610 1 0.16500 119244.000000
299 15873 1 0.16500 119244.000000
300 11610 1 0.16500 119244.000000
300 12287 1 0.16500 119244.000000
301 11610 1 0.16500 119244.000000
301 12270 1 0.16500 119244.000000
302 11611 1 0.16500 119244.000000
302 14742 1 0.16500 119244.000000
303 11611 1 0.16500 119244.000000
303 12346 1 0.16500 119244.000000
304 11611 1 0.16500 119244.000000
304 14551 1 0.16500 119244.000000
305 11611 1 0.16500 119244.000000
305 15959 1 0.16500 119244.000000
306 11612 1 0.16500 119244.000000
306 14738 1 0.16500 119244.000000
307 11612 1 0.16500 119244.000000
307 13323 1 0.16500 119244.000000
308 11612 1 0.16500 119244.000000
308 14875 1 0.16500 119244.000000
309 11612 1 0.16500 119244.000000
309 19022 1 0.16500 119244.000000
310 11613 1 0.16500 119244.000000
310 12768 1 0.16500 119244.000000
311 11613 1 0.16500 119244.000000
311 11878 1 0.16500 119244.000000
312 11613 1 0.16500 119244.000000
312 15653 1 0.16500 119244.000000
313 11613 1 0.16500 119244.000000
313 16922 1 0.16500 119244.000000
314 11614 1 0.16500 119244.000000
314 18806 1 0.16500 119244.000000
315 11614 1 0.16500 119244.000000
315 13069 1 0.16500 119244.000000
316 11615 1 0.16500 119244.000000
316 11843 1 0.16500 119244.000000
317 11615 1 0.16500 119244.000000
317 13009 1 0.16500 119244.000000
318 11615 1 0.16500 119244.000000
318 14466 1 0.16500 119244.000000
319 11615 1 0.16500 119244.000000
319 16139 1 0.16500 119244.000000
320 12143 1 0.16500 119244.000000
320 16281 1 0.16500 119244.000000
321 11616 1 0.16500 119244.000000
321 15639 1 0.16500 119244.000000
322 11616 1 0.16500 119244.000000
322 12272 1 0.16500 119244.000000
323 11616 1 0.16500 119244.000000
323 16587 1 0.16500 119244.000000
324 11617 1 0.16500 119244.000000
324 15400 1 0.16500 119244.000000
325 11617 1 0.16500 119244.000000
325 14497 1 0.16500 119244.000000
326 11617 1 0.16500 119244.000000
326 15789 1 0.16500 119244.000000
327 11617 1 0.16500 119244.000000
327 14179 1 0.16500 119244.000000
328 11618 1 0.16500 119244.000000
328 11957 1 0.16500 119244.000000
329 11618 1 0.16500 119244.000000
329 15022 1 0.16500 119244.000000
330 11618 1 0.16500 119244.000000
330 16934 1 0.16500 119244.000000
331 11618 1 0.16500 119244.000000
331 11786 1 0.16500 119244.000000
332 11619 1 0.16500 119244.000000
332 16043 1 0.16500 119244.000000
333 11619 1 0.16500 119244.000000
333 12423 1 0.16500 119244.000000
334 11619 1 0.16500 119244.000000
334 12305 1 0.16500 119244.000000
335 11619 1 0.16500 119244.000000
335 14204 1 0.16500 119244.000000
336 13029 1 0.16500 119244.000000
336 15812 1 0.16500 119244.000000
337 15413 1 0.16500 119244.000000
337 15812 1 0.16500 119244.000000
338 11620 1 0.16500 119244.000000
338 16845 1 0.16500 119244.000000
339 11901 1 0.16500 119244.000000
339 15812 1 0.16500 119244.000000
340 11621 1 0.16500 119244.000000
340 12887 1 0.16500 119244.000000
341 11621 1 0.16500 119244.000000
341 14184 1 0.16500 119244.000000
342 11621 1 0.16500 119244.000000
342 12986 1 0.16500 119244.000000
343 11621 1 0.16500 119244.000000
343 14872 1 0.16500 119244.000000
344 11622 1 0.16500 119244.000000
344 15075 1 0.16500 119244.000000
345 11622 1 0.16500 119244.000000
345 11949 1 0.16500 119244.000000
346 11622 1 0.16500 119244.000000
346 15422 1 0.16500 119244.000000
347 11622 1 0.16500 119244.000000
347 11682 1 0.16500 119244.000000
348 13081 1 0.16500 119244.000000
348 16191 1 0.16500 119244.000000
349 14403 1 0.16500 119244.000000
349 16191 1 0.16500 119244.000000
350 16191 1 0.16500 119244.000000
350 18236 1 0.16500 119244.000000
351 14682 1 0.16500 119244.000000
351 18236 1 0.16500 119244.000000
352 11623 1 0.16500 119244.000000
352 16292 1 0.16500 119244.000000
353 11623 1 0.16500 119244.000000
353 13944 1 0.16500 119244.000000
354 11623 1 0.16500 119244.000000
354 14755 1 0.16500 119244.000000
355 11623 1 0.16500 119244.000000
355 16729 1 0.16500 119244.000000
356 11624 1 0.16500 119244.000000
356 13017 1 0.16500 119244.000000
357 11624 1 0.16500 119244.000000
357 18941 1 0.16500 119244.000000
358 11624 1 0.16500 119244.000000
358 15441 1 0.16500 119244.000000
359 11624 1 0.16500 119244.000000
359 14268 1 0.16500 119244.000000
360 11625 1 0.16500 119244.000000
360 12973 1 0.16500 119244.000000
361 11625 1 0.16500 119244.000000
361 16268 1 0.16500 119244.000000
362 11625 1 0.16500 119244.000000
362 11733 1 0.16500 119244.000000
363 11625 1 0.16500 119244.000000
363 12709 1 0.16500 119244.000000
364 11626 1 0.16500 119244.000000
364 16854 1 0.16500 119244.000000
365 11626 1 0.16500 119244.000000
365 16609 1 0.16500 119244.000000
366 11626 1 0.16500 119244.000000
366 12934 1 0.16500 119244.000000
367 11626 1 0.16500 119244.000000
367 14668 1 0.16500 119244.000000
368 14125 1 0.16500 119244.000000
368 16648 1 0.16500 119244.000000
369 11627 1 0.16500 119244.000000
369 16648 1 0.16500 119244.000000
370 12594 1 0.16500 119244.000000
370 16648 1 0.16500 119244.000000
371 13378 1 0.16500 119244.000000
371 15149 1 0.16500 119244.000000
372 11628 1 0.16500 119244.000000
372 13378 1 0.16500 119244.000000
373 13378 1 0.16500 119244.000000
373 15878 1 0.16500 119244.000000
374 11628 1 0.16500 119244.000000
374 11976 1 0.16500 119244.000000
375 11693 1 0.16500 119244.000000
375 12036 1 0.16500 119244.000000
376 12036 1 0.16500 119244.000000
376 12961 1 0.16500 119244.000000
377 11629 1 0.16500 119244.000000
377 12135 1 0.16500 119244.000000
378 11629 1 0.16500 119244.000000
378 12036 1 0.16500 119244.000000
379 11630 1 0.16500 119244.000000
379 12867 1 0.16500 119244.000000
380 11630 1 0.16500 119244.000000
380 13898 1 0.16500 119244.000000
381 11630 1 0.16500 119244.000000
381 14438 1 0.16500 119244.000000
382 11630 1 0.16500 119244.000000
382 16846 1 0.16500 119244.000000
383 11631 1 0.16500 119244.000000
383 14008 1 0.16500 119244.000000
384 11631 1 0.16500 119244.000000
384 15688 1 0.16500 119244.000000
385 11631 1 0.16500 119244.000000
385 16230 1 0.16500 119244.000000
386 11631 1 0.16500 119244.000000
386 14724 1 0.16500 119244.000000
387 11632 1 0.16500 119244.000000
387 15817 1 0.16500 119244.000000
388 11632 1 0.16500 119244.000000
388 11701 1 0.16500 119244.000000
389 11632 1 0.16500 119244.000000
389 13192 1 0.16500 119244.000000
390 11632 1 0.16500 119244.000000
390 11852 1 0.16500 119244.000000
391 11633 1 0.16500 119244.000000
391 13630 1 0.16500 119244.000000
392 11633 1 0.16500 119244.000000
392 13359 1 0.16500 119244.000000
393 11633 1 0.16500 119244.000000
393 12068 1 0.16500 119244.000000
394 11633 1 0.16500 119244.000000
394 12794 1 0.16500 119244.000000
395 11634 1 0.16500 119244.000000
395 15107 1 0.16500 119244.000000
396 11634 1 0.16500 119244.000000
396 12028 1 0.16500 119244.000000
397 11635 1 0.16500 119244.000000
397 14513 1 0.16500 119244.000000
398 11801 1 0.16500 119244.000000
398 14706 1 0.16500 119244.000000
399 11635 1 0.16500 119244.000000
399 12809 1 0.16500 119244.000000
400 11635 1 0.16500 119244.000000
400 14706 1 0.16500 119244.000000
401 11636 1 0.16500 119244.000000
401 11711 1 0.16500 119244.000000
402 11636 1 0.16500 119244.000000
402 14425 1 0.16500 119244.000000
403 11636 1 0.16500 119244.000000
403 16938 1 0.16500 119244.000000
404 11636 1 0.16500 119244.000000
404 11744 1 0.16500 119244.000000
405 11637 1 0.16500 119244.000000
405 16019 1 0.16500 119244.000000
406 11637 1 0.16500 119244.000000
406 13284 1 0.16500 119244.000000
407 13863 1 0.16500 119244.000000
407 15634 1 0.16500 119244.000000
408 11637 1 0.16500 119244.000000
408 15634 1 0.16500 119244.000000
409 11638 1 0.16500 119244.000000
409 12654 1 0.16500 119244.000000
410 11638 1 0.16500 119244.000000
410 13227 1 0.16500 119244.000000
411 11638 1 0.16500 119244.000000
411 14445 1 0.16500 119244.000000
412 11638 1 0.16500 119244.000000
412 16669 1 0.16500 119244.000000
413 11639 1 0.16500 119244.000000
413 13370 1 0.16500 119244.000000
414 11639 1 0.16500 119244.000000
414 16958 1 0.16500 119244.000000
415 11639 1 0.16500 119244.000000
415 12795 1 0.16500 119244.000000
416 11639 1 0.16500 119244.000000
416 17329 1 0.16500 119244.000000
417 18239 1 0.16500 119244.000000
417 18947 1 0.16500 119244.000000
418 13500 1 0.16500 119244.000000
418 18239 1 0.16500 119244.000000
419 16812 1 0.16500 119244.000000
419 18239 1 0.16500 119244.000000
420 11640 1 0.16500 119244.000000
420 13465 1 0.16500 119244.000000
421 11640 1 0.16500 119244.000000
421 14348 1 0.16500 119244.000000
422 11640 1 0.16500 119244.000000
422 14246 1 0.16500 119244.000000
423 11640 1 0.16500 119244.000000
423 13411 1 0.16500 119244.000000
424 11641 1 0.16500 119244.000000
424 14572 1 0.16500 119244.000000
425 11641 1 0.16500 119244.000000
425 12962 1 0.16500 119244.000000
426 11641 1 0.16500 119244.000000
426 11674 1 0.16500 119244.000000
427 11642 1 0.16500 119244.000000
427 16229 1 0.16500 119244.000000
428 11642 1 0.16500 119244.000000
428 16825 1 0.16500 119244.000000
429 11642 1 0.16500 119244.000000
429 14473 1 0.16500 119244.000000
430 11642 1 0.16500 119244.000000
430 11749 1 0.16500 119244.000000
431 11643 1 0.16500 119244.000000
431 12947 1 0.16500 119244.000000
432 11643 1 0.16500 119244.000000
432 13025 1 0.16500 119244.000000
433 11643 1 0.16500 119244.000000
433 13702 1 0.16500 119244.000000
434 11643 1 0.16500 119244.000000
434 16117 1 0.16500 119244.000000
435 12277 1 0.16500 119244.000000
435 14643 1 0.16500 119244.000000
436 11644 1 0.16500 119244.000000
436 12277 1 0.16500 119244.000000
437 11644 1 0.16500 119244.000000
437 13345 1 0.16500 119244.000000
438 11644 1 0.16500 119244.000000
438 14224 1 0.16500 119244.000000
439 11645 1 0.16500 119244.000000
439 13731 1 0.16500 119244.000000
440 11645 1 0.16500 119244.000000
440 18359 1 0.16500 119244.000000
441 11646 1 0.16500 119244.000000
441 16086 1 0.16500 119244.000000
442 11646 1 0.16500 119244.000000
442 17999 1 0.16500 119244.000000
443 11646 1 0.16500 119244.000000
443 15587 1 0.16500 119244.000000
444 11646 1 0.16500 119244.000000
444 16125 1 0.16500 119244.000000
445 11647 1 0.16500 119244.000000
445 11698 1 0.16500 119244.000000
446 11647 1 0.16500 119244.000000
446 12945 1 0.16500 119244.000000
447 11647 1 0.16500 119244.000000
447 14334 1 0.16500 119244.000000
448 11647 1 0.16500 119244.000000
448 15061 1 0.16500 119244.000000
449 11648 1 0.16500 119244.000000
449 13361 1 0.16500 119244.000000
450 11648 1 0.16500 119244.000000
450 12113 1 0.16500 119244.000000
451 11649 1 0.16500 119244.000000
451 13768 1 0.16500 119244.000000
452 11649 1 0.16500 119244.000000
452 16280 1 0.16500 119244.000000
453 11649 1 0.16500 119244.000000
453 14641 1 0.16500 119244.000000
454 11649 1 0.16500 119244.000000
454 13045 1 0.16500 119244.000000
455 11650 1 0.16500 119244.000000
455 14725 1 0.16500 119244.000000
456 11650 1 0.16500 119244.000000
456 12074 1 0.16500 119244.000000
457 11650 1 0.16500 119244.000000
457 12590 1 0.16500 119244.000000
458 11650 1 0.16500 119244.000000
458 18401 1 0.16500 119244.000000
459 11651 1 0.16500 119244.000000
459 16750 1 0.16500 119244.000000
460 11651 1 0.16500 119244.000000
460 12899 1 0.16500 119244.000000
461 11652 1 0.16500 119244.000000
461 15889 1 0.16500 119244.000000
462 11652 1 0.16500 119244.000000
462 13613 1 0.16500 119244.000000
463 11652 1 0.16500 119244.000000
463 15186 1 0.16500 119244.000000
464 11652 1 0.16500 119244.000000
464 15900 1 0.16500 119244.000000
465 11653 1 0.16500 119244.000000
465 16881 1 0.16500 119244.000000
466 11653 1 0.16500 119244.000000
466 16666 1 0.16500 119244.000000
467 11653 1 0.16500 119244.000000
467 14170 1 0.16500 119244.000000
468 11653 1 0.16500 119244.000000
468 13235 1 0.16500 119244.000000
469 11654 1 0.16500 119244.000000
469 15355 1 0.16500 119244.000000
470 11654 1 0.16500 119244.000000
470 12291 1 0.16500 119244.000000
471 11654 1 0.16500 119244.000000
471 15931 1 0.16500 119244.000000
472 11654 1 0.16500 119244.000000
472 14736 1 0.16500 119244.000000
473 13358 1 0.16500 119244.000000
473 18242 1 0.16500 119244.000000
474 15288 1 0.16500 119244.000000
474 18242 1 0.16500 119244.000000
475 11655 1 0.16500 119244.000000
475 14159 1 0.16500 119244.000000
476 11655 1 0.16500 119244.000000
476 15104 1 0.16500 119244.000000
477 11655 1 0.16500 119244.000000
477 15207 1 0.16500 119244.000000
478 11655 1 0.16500 119244.000000
478 13591 1 0.16500 119244.000000
479 11656 1 0.16500 119244.000000
479 15875 1 0.16500 119244.000000
480 14273 1 0.16500 119244.000000
480 18419 1 0.16500 119244.000000
481 15125 1 0.16500 119244.000000
481 16727 1 0.16500 119244.000000
482 11656 1 0.16500 119244.000000
482 15125 1 0.16500 119244.000000
483 11657 1 0.16500 119244.000000
483 13166 1 0.16500 119244.000000
484 11657 1 0.16500 119244.000000
484 13085 1 0.16500 119244.000000
485 11657 1 0.16500 119244.000000
485 14880 1 0.16500 119244.000000
486 11657 1 0.16500 119244.000000
486 14449 1 0.16500 119244.000000
487 11658 1 0.16500 119244.000000
487 12167 1 0.16500 119244.000000
488 11658 1 0.16500 119244.000000
488 11767 1 0.16500 119244.000000
489 11658 1 0.16500 119244.000000
489 16575 1 0.16500 119244.000000
490 11658 1 0.16500 119244.000000
490 13485 1 0.16500 119244.000000
491 11659 1 0.16500 119244.000000
491 13473 1 0.16500 119244.000000
492 11659 1 0.16500 119244.000000
492 14281 1 0.16500 119244.000000
493 11659 1 0.16500 119244.000000
493 16958 1 0.16500 119244.000000
494 11659 1 0.16500 119244.000000
494 16208 1 0.16500 119244.000000
495 13951 1 0.16500 119244.000000
495 16545 1 0.16500 119244.000000
496 11660 1 0.16500 119244.000000
496 15964 1 0.16500 119244.000000
497 11660 1 0.16500 119244.000000
497 13951 1 0.16500 119244.000000
498 11660 1 0.16500 119244.000000
498 15756 1 0.16500 119244.000000
499 13489 1 0.16500 119244.000000
499 15180 1 0.16500 119244.000000
500 11661 1 0.16500 119244.000000
500 15191 1 0.16500 119244.000000
501 11661 1 0.16500 119244.000000
501 12051 1 0.16500 119244.000000
502 11661 1 0.16500 119244.000000
502 15490 1 0.16500 119244.000000
503 11661 1 0.16500 119244.000000
503 11670 1 0.16500 119244.000000
504 11662 1 0.16500 119244.000000
504 15565 1 0.16500 119244.000000
505 11662 1 0.16500 119244.000000
505 13478 1 0.16500 119244.000000
506 11662 1 0.16500 119244.000000
506 14970 1 0.16500 119244.000000
507 11662 1 0.16500 119244.000000
507 12635 1 0.16500 119244.000000
508 11663 1 0.16500 119244.000000
508 13745 1 0.16500 119244.000000
509 11663 1 0.16500 119244.000000
509 13887 1 0.16500 119244.000000
510 11663 1 0.16500 119244.000000
510 13664 1 0.16500 119244.000000
511 11663 1 0.16500 119244.000000
511 15915 1 0.16500 119244.000000
512 11664 1 0.16500 119244.000000
512 13517 1 0.16500 119244.000000
513 11664 1 0.16500 119244.000000
513 12444 1 0.16500 119244.000000
514 11664 1 0.16500 119244.000000
514 15747 1 0.16500 119244.000000
515 11665 1 0.16500 119244.000000
515 13418 1 0.16500 119244.000000
516 11665 1 0.16500 119244.000000
516 16372 1 0.16500 119244.000000
517 11665 1 0.16500 119244.000000
517 15150 1 0.16500 119244.000000
518 11666 1 0.16500 119244.000000
518 16305 1 0.16500 119244.000000
519 11666 1 0.16500 119244.000000
519 12850 1 0.16500 119244.000000
520 11666 1 0.16500 119244.000000
520 16831 1 0.16500 119244.000000
521 11667 1 0.16500 119244.000000
521 17723 1 0.16500 119244.000000
522 11667 1 0.16500 119244.000000
522 15700 1 0.16500 119244.000000
523 17723 1 0.16500 119244.000000
523 18476 1 0.16500 119244.000000
524 11667 1 0.16500 119244.000000
524 12448 1 0.16500 119244.000000
525 11668 1 0.16500 119244.000000
525 16714 1 0.16500 119244.000000
526 11668 1 0.16500 119244.000000
526 16931 1 0.16500 119244.000000
527 11668 1 0.16500 119244.000000
527 16773 1 0.16500 119244.000000
528 11668 1 0.16500 119244.000000
528 12087 1 0.16500 119244.000000
529 11669 1 0.16500 119244.000000
529 12780 1 0.16500 119244.000000
530 11669 1 0.16500 119244.000000
530 15929 1 0.16500 119244.000000
531 11669 1 0.16500 119244.000000
531 11835 1 0.16500 119244.000000
532 11669 1 0.16500 119244.000000
532 16076 1 0.16500 119244.000000
533 11670 1 0.16500 119244.000000
533 12351 1 0.16500 119244.000000
534 11670 1 0.16500 119244.000000
534 15750 1 0.16500 119244.000000
535 11670 1 0.16500 119244.000000
535 13216 1 0.16500 119244.000000
536 11671 1 0.16500 119244.000000
536 16173 1 0.16500 119244.000000
537 11671 1 0.16500 119244.000000
537 12597 1 0.16500 119244.000000
538 11671 1 0.16500 119244.000000
538 16274 1 0.16500 119244.000000
539 11672 1 0.16500 119244.000000
539 14256 1 0.16500 119244.000000
540 11672 1 0.16500 119244.000000
540 16073 1 0.16500 119244.000000
541 11672 1 0.16500 119244.000000
541 13821 1 0.16500 119244.000000
542 11672 1 0.16500 119244.000000
542 13093 1 0.16500 119244.000000
543 12510 1 0.16500 119244.000000
543 12820 1 0.16500 119244.000000
544 12820 1 0.16500 119244.000000
544 16690 1 0.16500 119244.000000
545 11673 1 0.16500 119244.000000
545 12820 1 0.16500 119244.000000
546 11674 1 0.16500 119244.000000
546 13110 1 0.16500 119244.000000
547 11674 1 0.16500 119244.000000
547 12676 1 0.16500 119244.000000
548 11675 1 0.16500 119244.000000
548 16443 1 0.16500 119244.000000
549 11675 1 0.16500 119244.000000
549 14604 1 0.16500 119244.000000
550 11675 1 0.16500 119244.000000
550 15949 1 0.16500 119244.000000
551 11675 1 0.16500 119244.000000
551 16232 1 0.16500 119244.000000
552 11676 1 0.16500 119244.000000
552 13486 1 0.16500 119244.000000
553 11676 1 0.16500 119244.000000
553 11823 1 0.16500 119244.000000
554 11676 1 0.16500 119244.000000
554 16144 1 0.16500 119244.000000
555 11823 1 0.16500 119244.000000
555 13280 1 0.16500 119244.000000
556 16609 1 0.16500 119244.000000
556 18245 1 0.16500 119244.000000
557 13714 1 0.16500 119244.000000
557 18245 1 0.16500 119244.000000
558 14207 1 0.16500 119244.000000
558 18245 1 0.16500 119244.000000
559 11677 1 0.16500 119244.000000
559 12716 1 0.16500 119244.000000
560 11677 1 0.16500 119244.000000
560 11975 1 0.16500 119244.000000
561 11677 1 0.16500 119244.000000
561 13018 1 0.16500 119244.000000
562 11678 1 0.16500 119244.000000
562 16914 1 0.16500 119244.000000
563 11678 1 0.16500 119244.000000
563 12599 1 0.16500 119244.000000
564 11678 1 0.16500 119244.000000
564 15398 1 0.16500 119244.000000
565 11678 1 0.16500 119244.000000
565 14351 1 0.16500 119244.000000
566 11679 1 0.16500 119244.000000
566 12310 1 0.16500 119244.000000
567 11679 1 0.16500 119244.000000
567 14347 1 0.16500 119244.000000
568 11679 1 0.16500 119244.000000
568 15320 1 0.16500 119244.000000
569 11679 1 0.16500 119244.000000
569 13460 1 0.16500 119244.000000
570 11680 1 0.16500 119244.000000
570 11807 1 0.16500 119244.000000
571 11680 1 0.16500 119244.000000
571 12747 1 0.16500 119244.000000
572 11680 1 0.16500 119244.000000
572 16783 1 0.16500 119244.000000
573 11680 1 0.16500 119244.000000
573 13659 1 0.16500 119244.000000
574 11681 1 0.16500 119244.000000
574 15070 1 0.16500 119244.000000
575 11681 1 0.16500 119244.000000
575 15794 1 0.16500 119244.000000
576 11681 1 0.16500 119244.000000
576 13546 1 0.16500 119244.000000
577 11681 1 0.16500 119244.000000
577 12624 1 0.16500 119244.000000
578 14904 1 0.16500 119244.000000
578 18248 1 0.16500 119244.000000
579 17915 1 0.16500 119244.000000
579 18248 1 0.16500 119244.000000
580 11682 1 0.16500 119244.000000
580 12304 1 0.16500 119244.000000
581 11682 1 0.16500 119244.000000
581 12146 1 0.16500 119244.000000
582 11682 1 0.16500 119244.000000
582 13874 1 0.16500 119244.000000
583 11683 1 0.16500 119244.000000
583 14973 1 0.16500 119244.000000
584 11683 1 0.16500 119244.000000
584 13580 1 0.16500 119244.000000
585 11684 1 0.16500 119244.000000
585 16461 1 0.16500 119244.000000
586 11684 1 0.16500 119244.000000
586 15797 1 0.16500 119244.000000
587 11684 1 0.16500 119244.000000
587 16850 1 0.16500 119244.000000
588 11684 1 0.16500 119244.000000
588 12445 1 0.16500 119244.000000
589 11685 1 0.16500 119244.000000
589 14915 1 0.16500 119244.000000
590 11685 1 0.16500 119244.000000
590 16703 1 0.16500 119244.000000
591 11685 1 0.16500 119244.000000
591 12569 1 0.16500 119244.000000
592 11685 1 0.16500 119244.000000
592 13344 1 0.16500 119244.000000
593 11686 1 0.16500 119244.000000
593 12385 1 0.16500 119244.000000
594 11686 1 0.16500 119244.000000
594 14934 1 0.16500 119244.000000
595 11686 1 0.16500 119244.000000
595 15981 1 0.16500 119244.000000
596 11686 1 0.16500 119244.000000
596 15108 1 0.16500 119244.000000
597 11687 1 0.16500 119244.000000
597 14708 1 0.16500 119244.000000
598 11687 1 0.16500 119244.000000
598 14699 1 0.16500 119244.000000
599 11687 1 0.16500 119244.000000
599 11737 1 0.16500 119244.000000
600 11687 1 0.16500 119244.000000
600 13481 1 0.16500 119244.000000
601 17735 1 0.16500 119244.000000
601 18251 1 0.16500 119244.000000
602 15815 1 0.16500 119244.000000
602 18251 1 0.16500 119244.000000
603 15062 1 0.16500 119244.000000
603 18251 1 0.16500 119244.000000
604 11688 1 0.16500 119244.000000
604 14761 1 0.16500 119244.000000
605 11688 1 0.16500 119244.000000
605 14996 1 0.16500 119244.000000
606 11688 1 0.16500 119244.000000
606 11689 1 0.16500 119244.000000
607 11688 1 0.16500 119244.000000
607 16501 1 0.16500 119244.000000
608 11689 1 0.16500 119244.000000
608 13033 1 0.16500 119244.000000
609 11689 1 0.16500 119244.000000
609 11813 1 0.16500 119244.000000
610 11689 1 0.16500 119244.000000
610 12928 1 0.16500 119244.000000
611 11690 1 0.16500 119244.000000
611 13877 1 0.16500 119244.000000
612 11690 1 0.16500 119244.000000
612 12502 1 0.16500 119244.000000
613 11690 1 0.16500 119244.000000
613 16097 1 0.16500 119244.000000
614 11690 1 0.16500 119244.000000
614 16993 1 0.16500 119244.000000
615 11691 1 0.16500 119244.000000
615 15253 1 0.16500 119244.000000
616 11691 1 0.16500 119244.000000
616 14726 1 0.16500 119244.000000
617 11691 1 0.16500 119244.000000
617 15592 1 0.16500 119244.000000
618 11691 1 0.16500 119244.000000
618 14453 1 0.16500 119244.000000
619 15221 1 0.16500 119244.000000
619 18254 1 0.16500 119244.000000
620 15770 1 0.16500 119244.000000
620 18254 1 0.16500 119244.000000
621 14876 1 0.16500 119244.000000
621 18254 1 0.16500 119244.000000
622 11692 1 0.16500 119244.000000
622 15898 1 0.16500 119244.000000
623 11692 1 0.16500 119244.000000
623 12837 1 0.16500 119244.000000
624 11692 1 0.16500 119244.000000
624 13642 1 0.16500 119244.000000
625 11692 1 0.16500 119244.000000
625 14067 1 0.16500 119244.000000
626 11693 1 0.16500 119244.000000
626 15480 1 0.16500 119244.000000
627 11693 1 0.16500 119244.000000
627 15800 1 0.16500 119244.000000
628 11693 1 0.16500 119244.000000
628 12215 1 0.16500 119244.000000
629 11694 1 0.16500 119244.000000
629 11701 1 0.16500 119244.000000
630 11694 1 0.16500 119244.000000
630 14075 1 0.16500 119244.000000
631 11694 1 0.16500 119244.000000
631 16042 1 0.16500 119244.000000
632 11695 1 0.16500 119244.000000
632 16120 1 0.16500 119244.000000
633 11695 1 0.16500 119244.000000
633 14260 1 0.16500 119244.000000
634 11695 1 0.16500 119244.000000
634 12616 1 0.16500 119244.000000
635 11695 1 0.16500 119244.000000
635 12283 1 0.16500 119244.000000
636 11696 1 0.16500 119244.000000
636 15766 1 0.16500 119244.000000
637 11696 1 0.16500 119244.000000
637 12349 1 0.16500 119244.000000
638 11696 1 0.16500 119244.000000
638 14572 1 0.16500 119244.000000
639 11696 1 0.16500 119244.000000
639 15513 1 0.16500 119244.000000
640 11697 1 0.16500 119244.000000
640 11993 1 0.16500 119244.000000
641 11697 1 0.16500 119244.000000
641 12512 1 0.16500 119244.000000
642 11697 1 0.16500 119244.000000
642 14364 1 0.16500 119244.000000
643 11697 1 0.16500 119244.000000
643 15488 1 0.16500 119244.000000
644 11698 1 0.16500 119244.000000
644 12501 1 0.16500 119244.000000
645 11698 1 0.16500 119244.000000
645 17009 1 0.16500 119244.000000
646 11698 1 0.16500 119244.000000
646 11964 1 0.16500 119244.000000
647 11699 1 0.16500 119244.000000
647 12956 1 0.16500 119244.000000
648 11699 1 0.16500 119244.000000
648 14916 1 0.16500 119244.000000
649 11699 1 0.16500 119244.000000
649 14427 1 0.16500 119244.000000
650 11699 1 0.16500 119244.000000
650 15954 1 0.16500 119244.000000
651 11700 1 0.16500 119244.000000
651 13869 1 0.16500 119244.000000
652 11700 1 0.16500 119244.000000
652 17495 1 0.16500 119244.000000
653 11700 1 0.16500 119244.000000
653 14451 1 0.16500 119244.000000
654 11700 1 0.16500 119244.000000
654 18497 1 0.16500 119244.000000
655 11701 1 0.16500 119244.000000
655 12315 1 0.16500 119244.000000
656 11701 1 0.16500 119244.000000
656 12103 1 0.16500 119244.000000
657 11702 1 0.16500 119244.000000
657 13990 1 0.16500 119244.000000
658 11702 1 0.16500 119244.000000
658 12713 1 0.16500 119244.000000
659 11702 1 0.16500 119244.000000
659 13554 1 0.16500 119244.000000
660 12713 1 0.16500 119244.000000
660 17000 1 0.16500 119244.000000
661 11703 1 0.16500 119244.000000
661 16451 1 0.16500 119244.000000
662 11703 1 0.16500 119244.000000
662 16921 1 0.16500 119244.000000
663 14825 1 0.16500 119244.000000
663 16921 1 0.16500 119244.000000
664 11703 1 0.16500 119244.000000
664 12742 1 0.16500 119244.000000
665 11704 1 0.16500 119244.000000
665 16137 1 0.16500 119244.000000
666 14802 1 0.16500 119244.000000
666 16137 1 0.16500 119244.000000
667 11704 1 0.16500 119244.000000
667 13480 1 0.16500 119244.000000
668 11704 1 0.16500 119244.000000
668 11866 1 0.16500 119244.000000
669 11705 1 0.16500 119244.000000
669 12511 1 0.16500 119244.000000
670 11705 1 0.16500 119244.000000
670 15321 1 0.16500 119244.000000
671 11706 1 0.16500 119244.000000
671 14386 1 0.16500 119244.000000
672 11706 1 0.16500 119244.000000
672 15351 1 0.16500 119244.000000
673 12539 1 0.16500 119244.000000
673 14386 1 0.16500 119244.000000
674 11706 1 0.16500 119244.000000
674 13025 1 0.16500 119244.000000
675 11707 1 0.16500 119244.000000
675 12738 1 0.16500 119244.000000
676 11707 1 0.16500 119244.000000
676 15643 1 0.16500 119244.000000
677 11707 1 0.16500 119244.000000
677 12042 1 0.16500 119244.000000
678 11708 1 0.16500 119244.000000
678 11750 1 0.16500 119244.000000
679 11708 1 0.16500 119244.000000
679 14176 1 0.16500 119244.000000
680 11708 1 0.16500 119244.000000
680 16784 1 0.16500 119244.000000
681 11750 1 0.16500 119244.000000
681 16180 1 0.16500 119244.000000
682 11709 1 0.16500 119244.000000
682 13088 1 0.16500 119244.000000
683 14342 1 0.16500 119244.000000
683 15958 1 0.16500 119244.000000
684 11709 1 0.16500 119244.000000
684 13955 1 0.16500 119244.000000
685 11709 1 0.16500 119244.000000
685 14342 1 0.16500 119244.000000
686 11710 1 0.16500 119244.000000
686 13433 1 0.16500 119244.000000
687 11710 1 0.16500 119244.000000
687 11851 1 0.16500 119244.000000
688 11710 1 0.16500 119244.000000
688 16168 1 0.16500 119244.000000
689 11710 1 0.16500 119244.000000
689 15388 1 0.16500 119244.000000
690 11711 1 0.16500 119244.000000
690 12205 1 0.16500 119244.000000
691 11983 1 0.16500 119244.000000
691 13209 1 0.16500 119244.000000
692 11711 1 0.16500 119244.000000
692 11983 1 0.16500 119244.000000
693 11712 1 0.16500 119244.000000
693 13945 1 0.16500 119244.000000
694 11712 1 0.16500 119244.000000
694 14229 1 0.16500 119244.000000
695 11712 1 0.16500 119244.000000
695 12236 1 0.16500 119244.000000
696 11712 1 0.16500 119244.000000
696 12138 1 0.16500 119244.000000
697 11713 1 0.16500 119244.000000
697 13956 1 0.16500 119244.000000
698 11713 1 0.16500 119244.000000
698 13744 1 0.16500 119244.000000
699 11713 1 0.16500 119244.000000
699 12273 1 0.16500 119244.000000
700 11713 1 0.16500 119244.000000
700 12982 1 0.16500 119244.000000
701 11714 1 0.16500 119244.000000
701 13174 1 0.16500 119244.000000
702 11714 1 0.16500 119244.000000
702 14590 1 0.16500 119244.000000
703 11714 1 0.16500 119244.000000
703 14851 1 0.16500 119244.000000
704 11715 1 0.16500 119244.000000
704 12700 1 0.16500 119244.000000
705 11715 1 0.16500 119244.000000
705 14360 1 0.16500 119244.000000
706 11715 1 0.16500 119244.000000
706 14437 1 0.16500 119244.000000
707 11715 1 0.16500 119244.000000
707 13675 1 0.16500 119244.000000
708 11716 1 0.16500 119244.000000
708 16425 1 0.16500 119244.000000
709 11716 1 0.16500 119244.000000
709 12934 1 0.16500 119244.000000
710 11716 1 0.16500 119244.000000
710 14995 1 0.16500 119244.000000
711 11716 1 0.16500 119244.000000
711 13606 1 0.16500 119244.000000
712 11717 1 0.16500 119244.000000
712 16986 1 0.16500 119244.000000
713 11717 1 0.16500 119244.000000
713 14852 1 0.16500 119244.000000
714 11717 1 0.16500 119244.000000
714 14969 1 0.16500 119244.000000
715 14969 1 0.16500 119244.000000
715 15424 1 0.16500 119244.000000
716 13594 1 0.16500 119244.000000
716 15815 1 0.16500 119244.000000
717 11718 1 0.16500 119244.000000
717 15815 1 0.16500 119244.000000
718 11718 1 0.16500 119244.000000
718 12632 1 0.16500 119244.000000
719 11719 1 0.16500 119244.000000
719 15457 1 0.16500 119244.000000
720 11719 1 0.16500 119244.000000
720 12483 1 0.16500 119244.000000
721 11719 1 0.16500 119244.000000
721 19037 1 0.16500 119244.000000
722 14625 1 0.16500 119244.000000
722 17091 1 0.16500 119244.000000
723 11755 1 0.16500 119244.000000
723 14287 1 0.16500 119244.000000
724 14287 1 0.16500 119244.000000
724 14625 1 0.16500 119244.000000
725 11720 1 0.16500 119244.000000
725 13957 1 0.16500 119244.000000
726 11720 1 0.16500 119244.000000
726 13834 1 0.16500 119244.000000
727 11720 1 0.16500 119244.000000
727 12597 1 0.16500 119244.000000
728 11720 1 0.16500 119244.000000
728 13183 1 0.16500 119244.000000
729 11721 1 0.16500 119244.000000
729 12471 1 0.16500 119244.000000
730 11721 1 0.16500 119244.000000
730 16401 1 0.16500 119244.000000
731 11721 1 0.16500 119244.000000
731 16635 1 0.16500 119244.000000
732 11721 1 0.16500 119244.000000
732 12902 1 0.16500 119244.000000
733 11722 1 0.16500 119244.000000
733 15950 1 0.16500 119244.000000
734 11722 1 0.16500 119244.000000
734 12266 1 0.16500 119244.000000
735 11722 1 0.16500 119244.000000
735 16664 1 0.16500 119244.000000
736 11722 1 0.16500 119244.000000
736 15108 1 0.16500 119244.000000
737 11723 1 0.16500 119244.000000
737 16041 1 0.16500 119244.000000
738 11723 1 0.16500 119244.000000
738 12587 1 0.16500 119244.000000
739 11723 1 0.16500 119244.000000
739 12582 1 0.16500 119244.000000
740 11723 1 0.16500 119244.000000
740 12720 1 0.16500 119244.000000
741 11724 1 0.16500 119244.000000
741 12079 1 0.16500 119244.000000
742 11724 1 0.16500 119244.000000
742 13121 1 0.16500 119244.000000
743 11724 1 0.16500 119244.000000
743 15115 1 0.16500 119244.000000
744 11724 1 0.16500 119244.000000
744 13811 1 0.16500 119244.000000
745 11725 1 0.16500 119244.000000
745 12493 1 0.16500 119244.000000
746 11725 1 0.16500 119244.000000
746 13854 1 0.16500 119244.000000
747 11725 1 0.16500 119244.000000
747 14422 1 0.16500 119244.000000
748 11725 1 0.16500 119244.000000
748 15209 1 0.16500 119244.000000
749 11726 1 0.16500 119244.000000
749 15759 1 0.16500 119244.000000
750 11726 1 0.16500 119244.000000
750 15076 1 0.16500 119244.000000
751 11726 1 0.16500 119244.000000
751 15622 1 0.16500 119244.000000
752 11726 1 0.16500 119244.000000
752 13790 1 0.16500 119244.000000
753 11727 1 0.16500 119244.000000
753 12815 1 0.16500 119244.000000
754 11727 1 0.16500 119244.000000
754 12796 1 0.16500 119244.000000
755 11727 1 0.16500 119244.000000
755 12496 1 0.16500 119244.000000
756 11727 1 0.16500 119244.000000
756 12235 1 0.16500 119244.000000
757 11728 1 0.16500 119244.000000
757 12735 1 0.16500 119244.000000
758 11728 1 0.16500 119244.000000
758 11822 1 0.16500 119244.000000
759 11728 1 0.16500 119244.000000
759 13147 1 0.16500 119244.000000
760 11709 1 0.16500 119244.000000
760 11728 1 0.16500 119244.000000
761 11729 1 0.16500 119244.000000
761 13291 1 0.16500 119244.000000
762 11729 1 0.16500 119244.000000
762 13252 1 0.16500 119244.000000
763 11729 1 0.16500 119244.000000
763 15322 1 0.16500 119244.000000
764 11729 1 0.16500 119244.000000
764 16124 1 0.16500 119244.000000
765 11730 1 0.16500 119244.000000
765 14168 1 0.16500 119244.000000
766 11730 1 0.16500 119244.000000
766 14800 1 0.16500 119244.000000
767 11730 1 0.16500 119244.000000
767 14271 1 0.16500 119244.000000
768 11730 1 0.16500 119244.000000
768 15007 1 0.16500 119244.000000
769 11731 1 0.16500 119244.000000
769 12236 1 0.16500 119244.000000
770 11620 1 0.16500 119244.000000
770 11731 1 0.16500 119244.000000
771 11731 1 0.16500 119244.000000
771 14408 1 0.16500 119244.000000
772 11731 1 0.16500 119244.000000
772 14983 1 0.16500 119244.000000
773 11732 1 0.16500 119244.000000
773 13823 1 0.16500 119244.000000
774 11732 1 0.16500 119244.000000
774 15621 1 0.16500 119244.000000
775 11732 1 0.16500 119244.000000
775 17021 1 0.16500 119244.000000
776 11733 1 0.16500 119244.000000
776 16370 1 0.16500 119244.000000
777 11733 1 0.16500 119244.000000
777 14083 1 0.16500 119244.000000
778 14083 1 0.16500 119244.000000
778 14707 1 0.16500 119244.000000
779 11734 1 0.16500 119244.000000
779 15728 1 0.16500 119244.000000
780 11734 1 0.16500 119244.000000
780 14092 1 0.16500 119244.000000
781 11734 1 0.16500 119244.000000
781 12671 1 0.16500 119244.000000
782 11734 1 0.16500 119244.000000
782 16798 1 0.16500 119244.000000
783 18257 1 0.16500 119244.000000
783 18815 1 0.16500 119244.000000
784 12469 1 0.16500 119244.000000
784 18257 1 0.16500 119244.000000
785 16794 1 0.16500 119244.000000
785 18257 1 0.16500 119244.000000
786 11735 1 0.16500 119244.000000
786 14685 1 0.16500 119244.000000
787 11735 1 0.16500 119244.000000
787 13482 1 0.16500 119244.000000
788 11735 1 0.16500 119244.000000
788 14557 1 0.16500 119244.000000
789 11735 1 0.16500 119244.000000
789 16430 1 0.16500 119244.000000
790 11736 1 0.16500 119244.000000
790 16733 1 0.16500 119244.000000
791 11736 1 0.16500 119244.000000
791 16540 1 0.16500 119244.000000
792 11736 1 0.16500 119244.000000
792 18929 1 0.16500 119244.000000
793 14766 1 0.16500 119244.000000
793 18893 1 0.16500 119244.000000
794 11737 1 0.16500 119244.000000
794 15768 1 0.16500 119244.000000
795 11737 1 0.16500 119244.000000
795 16334 1 0.16500 119244.000000
796 11737 1 0.16500 119244.000000
796 12783 1 0.16500 119244.000000
797 12866 1 0.16500 119244.000000
797 17951 1 0.16500 119244.000000
798 14371 1 0.16500 119244.000000
798 17951 1 0.16500 119244.000000
799 14525 1 0.16500 119244.000000
799 17951 1 0.16500 119244.000000
800 11738 1 0.16500 119244.000000
800 13265 1 0.16500 119244.000000
801 11738 1 0.16500 119244.000000
801 12430 1 0.16500 119244.000000
802 11739 1 0.16500 119244.000000
802 16065 1 0.16500 119244.000000
803 11739 1 0.16500 119244.000000
803 15588 1 0.16500 119244.000000
804 11739 1 0.16500 119244.000000
804 13031 1 0.16500 119244.000000
805 11739 1 0.16500 119244.000000
805 13911 1 0.16500 119244.000000
806 11740 1 0.16500 119244.000000
806 12072 1 0.16500 119244.000000
807 11740 1 0.16500 119244.000000
807 16580 1 0.16500 119244.000000
808 11740 1 0.16500 119244.000000
808 13436 1 0.16500 119244.000000
809 12072 1 0.16500 119244.000000
809 14299 1 0.16500 119244.000000
810 15116 1 0.16500 119244.000000
810 16193 1 0.16500 119244.000000
811 11973 1 0.16500 119244.000000
811 16193 1 0.16500 119244.000000
812 16193 1 0.16500 119244.000000
812 16631 1 0.16500 119244.000000
813 11741 1 0.16500 119244.000000
813 16193 1 0.16500 119244.000000
814 11742 1 0.16500 119244.000000
814 15803 1 0.16500 119244.000000
815 11742 1 0.16500 119244.000000
815 13559 1 0.16500 119244.000000
816 11742 1 0.16500 119244.000000
816 14156 1 0.16500 119244.000000
817 11742 1 0.16500 119244.000000
817 16750 1 0.16500 119244.000000
818 11743 1 0.16500 119244.000000
818 13420 1 0.16500 119244.000000
819 11743 1 0.16500 119244.000000
819 16526 1 0.16500 119244.000000
820 11743 1 0.16500 119244.000000
820 15156 1 0.16500 119244.000000
821 11743 1 0.16500 119244.000000
821 15557 1 0.16500 119244.000000
822 11744 1 0.16500 119244.000000
822 12527 1 0.16500 119244.000000
823 11744 1 0.16500 119244.000000
823 13774 1 0.16500 119244.000000
824 11744 1 0.16500 119244.000000
824 16841 1 0.16500 119244.000000
825 11745 1 0.16500 119244.000000
825 16807 1 0.16500 119244.000000
826 16328 1 0.16500 119244.000000
826 16807 1 0.16500 119244.000000
827 11745 1 0.16500 119244.000000
827 15760 1 0.16500 119244.000000
828 11745 1 0.16500 119244.000000
828 12253 1 0.16500 119244.000000
829 11746 1 0.16500 119244.000000
829 15401 1 0.16500 119244.000000
830 11746 1 0.16500 119244.000000
830 14528 1 0.16500 119244.000000
831 11746 1 0.16500 119244.000000
831 14791 1 0.16500 119244.000000
832 11746 1 0.16500 119244.000000
832 14412 1 0.16500 119244.000000
833 11747 1 0.16500 119244.000000
833 16590 1 0.16500 119244.000000
834 11747 1 0.16500 119244.000000
834 16541 1 0.16500 119244.000000
835 11747 1 0.16500 119244.000000
835 16073 1 0.16500 119244.000000
836 11747 1 0.16500 119244.000000
836 16309 1 0.16500 119244.000000
837 12870 1 0.16500 119244.000000
837 18260 1 0.16500 119244.000000
838 13570 1 0.16500 119244.000000
838 18260 1 0.16500 119244.000000
839 16139 1 0.16500 119244.000000
839 18260 1 0.16500 119244.000000
840 18263 1 0.16500 119244.000000
840 18413 1 0.16500 119244.000000
841 11748 1 0.16500 119244.000000
841 12894 1 0.16500 119244.000000
842 11748 1 0.16500 119244.000000
842 16637 1 0.16500 119244.000000
843 11741 1 0.16500 119244.000000
843 11748 1 0.16500 119244.000000
844 11748 1 0.16500 119244.000000
844 15029 1 0.16500 119244.000000
845 14817 1 0.16500 119244.000000
845 18323 1 0.16500 119244.000000
846 11749 1 0.16500 119244.000000
846 15018 1 0.16500 119244.000000
847 11749 1 0.16500 119244.000000
847 12214 1 0.16500 119244.000000
848 11749 1 0.16500 119244.000000
848 13022 1 0.16500 119244.000000
849 11750 1 0.16500 119244.000000
849 14589 1 0.16500 119244.000000
850 11708 1 0.16500 119244.000000
850 13371 1 0.16500 119244.000000
851 11750 1 0.16500 119244.000000
851 15690 1 0.16500 119244.000000
852 11751 1 0.16500 119244.000000
852 16396 1 0.16500 119244.000000
853 11751 1 0.16500 119244.000000
853 16009 1 0.16500 119244.000000
854 11751 1 0.16500 119244.000000
854 12080 1 0.16500 119244.000000
855 11751 1 0.16500 119244.000000
855 12507 1 0.16500 119244.000000
856 11752 1 0.16500 119244.000000
856 11804 1 0.16500 119244.000000
857 11752 1 0.16500 119244.000000
857 14768 1 0.16500 119244.000000
858 11752 1 0.16500 119244.000000
858 13059 1 0.16500 119244.000000
859 11752 1 0.16500 119244.000000
859 16207 1 0.16500 119244.000000
860 11753 1 0.16500 119244.000000
860 15145 1 0.16500 119244.000000
861 11753 1 0.16500 119244.000000
861 13027 1 0.16500 119244.000000
862 11753 1 0.16500 119244.000000
862 16720 1 0.16500 119244.000000
863 11753 1 0.16500 119244.000000
863 16772 1 0.16500 119244.000000
864 11754 1 0.16500 119244.000000
864 18545 1 0.16500 119244.000000
865 11754 1 0.16500 119244.000000
865 11784 1 0.16500 119244.000000
866 11784 1 0.16500 119244.000000
866 15460 1 0.16500 119244.000000
867 11754 1 0.16500 119244.000000
867 16899 1 0.16500 119244.000000
868 11755 1 0.16500 119244.000000
868 13770 1 0.16500 119244.000000
869 11755 1 0.16500 119244.000000
869 11799 1 0.16500 119244.000000
870 11755 1 0.16500 119244.000000
870 13488 1 0.16500 119244.000000
871 11756 1 0.16500 119244.000000
871 13059 1 0.16500 119244.000000
872 11756 1 0.16500 119244.000000
872 13909 1 0.16500 119244.000000
873 11756 1 0.16500 119244.000000
873 15619 1 0.16500 119244.000000
874 11756 1 0.16500 119244.000000
874 16089 1 0.16500 119244.000000
875 11757 1 0.16500 119244.000000
875 12233 1 0.16500 119244.000000
876 11757 1 0.16500 119244.000000
876 12314 1 0.16500 119244.000000
877 11757 1 0.16500 119244.000000
877 15903 1 0.16500 119244.000000
878 11757 1 0.16500 119244.000000
878 13373 1 0.16500 119244.000000
879 11758 1 0.16500 119244.000000
879 16441 1 0.16500 119244.000000
880 11758 1 0.16500 119244.000000
880 15678 1 0.16500 119244.000000
881 11758 1 0.16500 119244.000000
881 14845 1 0.16500 119244.000000
882 11758 1 0.16500 119244.000000
882 12611 1 0.16500 119244.000000
883 11759 1 0.16500 119244.000000
883 13715 1 0.16500 119244.000000
884 11759 1 0.16500 119244.000000
884 15765 1 0.16500 119244.000000
885 11759 1 0.16500 119244.000000
885 15597 1 0.16500 119244.000000
886 11759 1 0.16500 119244.000000
886 14796 1 0.16500 119244.000000
887 14296 1 0.16500 119244.000000
887 18266 1 0.16500 119244.000000
888 14689 1 0.16500 119244.000000
888 18266 1 0.16500 119244.000000
889 18266 1 0.16500 119244.000000
889 18476 1 0.16500 119244.000000
890 11760 1 0.16500 119244.000000
890 14866 1 0.16500 119244.000000
891 11760 1 0.16500 119244.000000
891 13873 1 0.16500 119244.000000
892 11760 1 0.16500 119244.000000
892 16564 1 0.16500 119244.000000
893 11760 1 0.16500 119244.000000
893 12774 1 0.16500 119244.000000
894 11761 1 0.16500 119244.000000
894 11846 1 0.16500 119244.000000
895 12217 1 0.16500 119244.000000
895 12633 1 0.16500 119244.000000
896 11846 1 0.16500 119244.000000
896 16023 1 0.16500 119244.000000
897 12633 1 0.16500 119244.000000
897 15203 1 0.16500 119244.000000
898 11762 1 0.16500 119244.000000
898 14332 1 0.16500 119244.000000
899 11762 1 0.16500 119244.000000
899 14017 1 0.16500 119244.000000
900 11762 1 0.16500 119244.000000
900 12372 1 0.16500 119244.000000
901 11762 1 0.16500 119244.000000
901 16416 1 0.16500 119244.000000
902 12331 1 0.16500 119244.000000
902 13094 1 0.16500 119244.000000
903 12479 1 0.16500 119244.000000
903 13094 1 0.16500 119244.000000
904 11763 1 0.16500 119244.000000
904 13094 1 0.16500 119244.000000
905 13094 1 0.16500 119244.000000
905 14993 1 0.16500 119244.000000
906 12304 1 0.16500 119244.000000
906 14722 1 0.16500 119244.000000
907 11764 1 0.16500 119244.000000
907 15845 1 0.16500 119244.000000
908 11764 1 0.16500 119244.000000
908 15682 1 0.16500 119244.000000
909 11764 1 0.16500 119244.000000
909 14722 1 0.16500 119244.000000
910 11765 1 0.16500 119244.000000
910 15801 1 0.16500 119244.000000
911 11765 1 0.16500 119244.000000
911 12269 1 0.16500 119244.000000
912 11765 1 0.16500 119244.000000
912 16605 1 0.16500 119244.000000
913 11765 1 0.16500 119244.000000
913 16499 1 0.16500 119244.000000
914 11766 1 0.16500 119244.000000
914 15975 1 0.16500 119244.000000
915 11766 1 0.16500 119244.000000
915 13534 1 0.16500 119244.000000
916 11766 1 0.16500 119244.000000
916 15694 1 0.16500 119244.000000
917 11766 1 0.16500 119244.000000
917 14949 1 0.16500 119244.000000
918 11767 1 0.16500 119244.000000
918 12347 1 0.16500 119244.000000
919 11767 1 0.16500 119244.000000
919 16456 1 0.16500 119244.000000
920 11767 1 0.16500 119244.000000
920 16814 1 0.16500 119244.000000
921 11768 1 0.16500 119244.000000
921 15675 1 0.16500 119244.000000
922 11768 1 0.16500 119244.000000
922 14244 1 0.16500 119244.000000
923 11768 1 0.16500 119244.000000
923 13198 1 0.16500 119244.000000
924 11768 1 0.16500 119244.000000
924 12034 1 0.16500 119244.000000
925 11769 1 0.16500 119244.000000
925 11778 1 0.16500 119244.000000
926 11769 1 0.16500 119244.000000
926 14122 1 0.16500 119244.000000
927 11769 1 0.16500 119244.000000
927 12097 1 0.16500 119244.000000
928 11769 1 0.16500 119244.000000
928 16674 1 0.16500 119244.000000
929 11770 1 0.16500 119244.000000
929 16122 1 0.16500 119244.000000
930 11770 1 0.16500 119244.000000
930 15421 1 0.16500 119244.000000
931 11770 1 0.16500 119244.000000
931 13979 1 0.16500 119244.000000
932 11770 1 0.16500 119244.000000
932 15842 1 0.16500 119244.000000
933 11771 1 0.16500 119244.000000
933 14017 1 0.16500 119244.000000
934 11771 1 0.16500 119244.000000
934 16745 1 0.16500 119244.000000
935 11771 1 0.16500 119244.000000
935 13583 1 0.16500 119244.000000
936 11771 1 0.16500 119244.000000
936 15110 1 0.16500 119244.000000
937 11772 1 0.16500 119244.000000
937 18935 1 0.16500 119244.000000
938 11772 1 0.16500 119244.000000
938 19022 1 0.16500 119244.000000
939 11772 1 0.16500 119244.000000
939 13356 1 0.16500 119244.000000
940 11772 1 0.16500 119244.000000
940 13048 1 0.16500 119244.000000
941 11773 1 0.16500 119244.000000
941 11830 1 0.16500 119244.000000
942 11773 1 0.16500 119244.000000
942 16206 1 0.16500 119244.000000
943 11773 1 0.16500 119244.000000
943 18710 1 0.16500 119244.000000
944 11773 1 0.16500 119244.000000
944 14928 1 0.16500 119244.000000
945 11774 1 0.16500 119244.000000
945 15856 1 0.16500 119244.000000
946 11774 1 0.16500 119244.000000
946 11944 1 0.16500 119244.000000
947 11774 1 0.16500 119244.000000
947 16851 1 0.16500 119244.000000
948 11774 1 0.16500 119244.000000
948 17008 1 0.16500 119244.000000
949 11864 1 0.16500 119244.000000
949 15096 1 0.16500 119244.000000
950 11775 1 0.16500 119244.000000
950 12533 1 0.16500 119244.000000
951 11775 1 0.16500 119244.000000
951 15096 1 0.16500 119244.000000
952 11775 1 0.16500 119244.000000
952 13920 1 0.16500 119244.000000
953 11776 1 0.16500 119244.000000
953 11793 1 0.16500 119244.000000
954 11776 1 0.16500 119244.000000
954 13762 1 0.16500 119244.000000
955 11776 1 0.16500 119244.000000
955 12883 1 0.16500 119244.000000
956 11776 1 0.16500 119244.000000
956 15694 1 0.16500 119244.000000
957 11777 1 0.16500 119244.000000
957 11842 1 0.16500 119244.000000
958 11777 1 0.16500 119244.000000
958 12553 1 0.16500 119244.000000
959 11842 1 0.16500 119244.000000
959 13695 1 0.16500 119244.000000
960 12553 1 0.16500 119244.000000
960 12912 1 0.16500 119244.000000
961 11778 1 0.16500 119244.000000
961 15888 1 0.16500 119244.000000
962 11778 1 0.16500 119244.000000
962 14921 1 0.16500 119244.000000
963 11778 1 0.16500 119244.000000
963 14811 1 0.16500 119244.000000
964 16525 1 0.16500 119244.000000
964 18269 1 0.16500 119244.000000
965 13507 1 0.16500 119244.000000
965 18269 1 0.16500 119244.000000
966 11779 1 0.16500 119244.000000
966 13059 1 0.16500 119244.000000
967 11779 1 0.16500 119244.000000
967 14443 1 0.16500 119244.000000
968 11779 1 0.16500 119244.000000
968 14953 1 0.16500 119244.000000
969 11779 1 0.16500 119244.000000
969 16714 1 0.16500 119244.000000
970 11780 1 0.16500 119244.000000
970 16183 1 0.16500 119244.000000
971 11780 1 0.16500 119244.000000
971 12071 1 0.16500 119244.000000
972 11780 1 0.16500 119244.000000
972 12425 1 0.16500 119244.000000
973 11780 1 0.16500 119244.000000
973 11979 1 0.16500 119244.000000
974 11781 1 0.16500 119244.000000
974 14992 1 0.16500 119244.000000
975 11781 1 0.16500 119244.000000
975 14335 1 0.16500 119244.000000
976 11781 1 0.16500 119244.000000
976 16300 1 0.16500 119244.000000
977 11781 1 0.16500 119244.000000
977 14980 1 0.16500 119244.000000
978 11782 1 0.16500 119244.000000
978 16719 1 0.16500 119244.000000
979 11782 1 0.16500 119244.000000
979 15624 1 0.16500 119244.000000
980 11782 1 0.16500 119244.000000
980 13219 1 0.16500 119244.000000
981 11783 1 0.16500 119244.000000
981 15219 1 0.16500 119244.000000
982 12254 1 0.16500 119244.000000
982 15219 1 0.16500 119244.000000
983 11783 1 0.16500 119244.000000
983 12412 1 0.16500 119244.000000
984 11783 1 0.16500 119244.000000
984 11900 1 0.16500 119244.000000
985 12091 1 0.16500 119244.000000
985 16325 1 0.16500 119244.000000
986 11754 1 0.16500 119244.000000
986 12602 1 0.16500 119244.000000
987 11784 1 0.16500 119244.000000
987 13000 1 0.16500 119244.000000
988 11784 1 0.16500 119244.000000
988 16055 1 0.16500 119244.000000
989 11785 1 0.16500 119244.000000
989 16802 1 0.16500 119244.000000
990 11785 1 0.16500 119244.000000
990 16996 1 0.16500 119244.000000
991 11785 1 0.16500 119244.000000
991 15647 1 0.16500 119244.000000
992 11785 1 0.16500 119244.000000
992 11822 1 0.16500 119244.000000
993 11786 1 0.16500 119244.000000
993 13596 1 0.16500 119244.000000
994 11786 1 0.16500 119244.000000
994 16821 1 0.16500 119244.000000
995 11786 1 0.16500 119244.000000
995 11957 1 0.16500 119244.000000
996 11787 1 0.16500 119244.000000
996 16934 1 0.16500 119244.000000
997 11787 1 0.16500 119244.000000
997 16781 1 0.16500 119244.000000
998 11787 1 0.16500 119244.000000
998 16438 1 0.16500 119244.000000
999 11787 1 0.16500 119244.000000
999 12739 1 0.16500 119244.000000
1000 11788 1 0.16500 119244.000000
1000 13454 1 0.16500 119244.000000
1001 11788 1 0.16500 119244.000000
1001 16872 1 0.16500 119244.000000
1002 11788 1 0.16500 119244.000000
1002 16536 1 0.16500 119244.000000
1003 11788 1 0.16500 119244.000000
1003 15696 1 0.16500 119244.000000
1004 11789 1 0.16500 119244.000000
1004 12538 1 0.16500 119244.000000
1005 11789 1 0.16500 119244.000000
1005 12233 1 0.16500 119244.000000
1006 11789 1 0.16500 119244.000000
1006 15204 1 0.16500 119244.000000
1007 11789 1 0.16500 119244.000000
1007 14500 1 0.16500 119244.000000
1008 11790 1 0.16500 119244.000000
1008 11821 1 0.16500 119244.000000
1009 11790 1 0.16500 119244.000000
1009 15633 1 0.16500 119244.000000
1010 15281 1 0.16500 119244.000000
1010 15644 1 0.16500 119244.000000
1011 11790 1 0.16500 119244.000000
1011 15281 1 0.16500 119244.000000
1012 11791 1 0.16500 119244.000000
1012 14921 1 0.16500 119244.000000
1013 11791 1 0.16500 119244.000000
1013 16030 1 0.16500 119244.000000
1014 11791 1 0.16500 119244.000000
1014 16674 1 0.16500 119244.000000
1015 11791 1 0.16500 119244.000000
1015 12762 1 0.16500 119244.000000
1016 11792 1 0.16500 119244.000000
1016 12082 1 0.16500 119244.000000
1017 11792 1 0.16500 119244.000000
1017 16306 1 0.16500 119244.000000
1018 11792 1 0.16500 119244.000000
1018 14292 1 0.16500 119244.000000
1019 11792 1 0.16500 119244.000000
1019 12623 1 0.16500 119244.000000
1020 11793 1 0.16500 119244.000000
1020 13452 1 0.16500 119244.000000
1021 11793 1 0.16500 119244.000000
1021 15679 1 0.16500 119244.000000
1022 11793 1 0.16500 119244.000000
1022 12172 1 0.16500 119244.000000
1023 11794 1 0.16500 119244.000000
1023 16088 1 0.16500 119244.000000
1024 11794 1 0.16500 119244.000000
1024 16507 1 0.16500 119244.000000
1025 11794 1 0.16500 119244.000000
1025 13431 1 0.16500 119244.000000
1026 11794 1 0.16500 119244.000000
1026 16669 1 0.16500 119244.000000
1027 11795 1 0.16500 119244.000000
1027 12284 1 0.16500 119244.000000
1028 11795 1 0.16500 119244.000000
1028 12388 1 0.16500 119244.000000
1029 11795 1 0.16500 119244.000000
1029 15846 1 0.16500 119244.000000
1030 11763 1 0.16500 119244.000000
1030 11796 1 0.16500 119244.000000
1031 11796 1 0.16500 119244.000000
1031 16199 1 0.16500 119244.000000
1032 11796 1 0.16500 119244.000000
1032 14975 1 0.16500 119244.000000
1033 11796 1 0.16500 119244.000000
1033 15701 1 0.16500 119244.000000
1034 11797 1 0.16500 119244.000000
1034 19140 1 0.16500 119244.000000
1035 11797 1 0.16500 119244.000000
1035 14434 1 0.16500 119244.000000
1036 15594 1 0.16500 119244.000000
1036 18299 1 0.16500 119244.000000
1037 15594 1 0.16500 119244.000000
1037 16136 1 0.16500 119244.000000
1038 13327 1 0.16500 119244.000000
1038 15594 1 0.16500 119244.000000
1039 11798 1 0.16500 119244.000000
1039 15594 1 0.16500 119244.000000
1040 11799 1 0.16500 119244.000000
1040 18905 1 0.16500 119244.000000
1041 11799 1 0.16500 119244.000000
1041 15516 1 0.16500 119244.000000
1042 11799 1 0.16500 119244.000000
1042 18272 1 0.16500 119244.000000
1043 15033 1 0.16500 119244.000000
1043 18272 1 0.16500 119244.000000
1044 12143 1 0.16500 119244.000000
1044 18272 1 0.16500 119244.000000
1045 11800 1 0.16500 119244.000000
1045 15612 1 0.16500 119244.000000
1046 11800 1 0.16500 119244.000000
1046 16180 1 0.16500 119244.000000
1047 11800 1 0.16500 119244.000000
1047 11869 1 0.16500 119244.000000
1048 11800 1 0.16500 119244.000000
1048 15690 1 0.16500 119244.000000
1049 11801 1 0.16500 119244.000000
1049 15456 1 0.16500 119244.000000
1050 11801 1 0.16500 119244.000000
1050 16043 1 0.16500 119244.000000
1051 11801 1 0.16500 119244.000000
1051 14944 1 0.16500 119244.000000
1052 11802 1 0.16500 119244.000000
1052 11940 1 0.16500 119244.000000
1053 11802 1 0.16500 119244.000000
1053 15944 1 0.16500 119244.000000
1054 11802 1 0.16500 119244.000000
1054 15626 1 0.16500 119244.000000
1055 11802 1 0.16500 119244.000000
1055 12763 1 0.16500 119244.000000
1056 11803 1 0.16500 119244.000000
1056 11995 1 0.16500 119244.000000
1057 11803 1 0.16500 119244.000000
1057 16315 1 0.16500 119244.000000
1058 11803 1 0.16500 119244.000000
1058 14683 1 0.16500 119244.000000
1059 11803 1 0.16500 119244.000000
1059 15674 1 0.16500 119244.000000
1060 11804 1 0.16500 119244.000000
1060 16095 1 0.16500 119244.000000
1061 11804 1 0.16500 119244.000000
1061 15820 1 0.16500 119244.000000
1062 13111 1 0.16500 119244.000000
1062 16095 1 0.16500 119244.000000
1063 13485 1 0.16500 119244.000000
1063 13712 1 0.16500 119244.000000
1064 11805 1 0.16500 119244.000000
1064 13485 1 0.16500 119244.000000
1065 13485 1 0.16500 119244.000000
1065 15133 1 0.16500 119244.000000
1066 11806 1 0.16500 119244.000000
1066 13995 1 0.16500 119244.000000
1067 11806 1 0.16500 119244.000000
1067 14882 1 0.16500 119244.000000
1068 11806 1 0.16500 119244.000000
1068 14912 1 0.16500 119244.000000
1069 11806 1 0.16500 119244.000000
1069 12554 1 0.16500 119244.000000
1070 11807 1 0.16500 119244.000000
1070 16283 1 0.16500 119244.000000
1071 11807 1 0.16500 119244.000000
1071 16892 1 0.16500 119244.000000
1072 11807 1 0.16500 119244.000000
1072 15341 1 0.16500 119244.000000
1073 11808 1 0.16500 119244.000000
1073 18299 1 0.16500 119244.000000
1074 11808 1 0.16500 119244.000000
1074 17004 1 0.16500 119244.000000
1075 11808 1 0.16500 119244.000000
1075 15568 1 0.16500 119244.000000
1076 11808 1 0.16500 119244.000000
1076 15067 1 0.16500 119244.000000
1077 11809 1 0.16500 119244.000000
1077 13841 1 0.16500 119244.000000
1078 11809 1 0.16500 119244.000000
1078 14137 1 0.16500 119244.000000
1079 11809 1 0.16500 119244.000000
1079 16857 1 0.16500 119244.000000
1080 11809 1 0.16500 119244.000000
1080 15552 1 0.16500 119244.000000
1081 11810 1 0.16500 119244.000000
1081 16125 1 0.16500 119244.000000
1082 11810 1 0.16500 119244.000000
1082 12841 1 0.16500 119244.000000
1083 11810 1 0.16500 119244.000000
1083 16932 1 0.16500 119244.000000
1084 11810 1 0.16500 119244.000000
1084 14780 1 0.16500 119244.000000
1085 11811 1 0.16500 119244.000000
1085 13658 1 0.16500 119244.000000
1086 11811 1 0.16500 119244.000000
1086 12663 1 0.16500 119244.000000
1087 11811 1 0.16500 119244.000000
1087 14346 1 0.16500 119244.000000
1088 11811 1 0.16500 119244.000000
1088 13300 1 0.16500 119244.000000
1089 11812 1 0.16500 119244.000000
1089 14387 1 0.16500 119244.000000
1090 11812 1 0.16500 119244.000000
1090 15054 1 0.16500 119244.000000
1091 11812 1 0.16500 119244.000000
1091 13362 1 0.16500 119244.000000
1092 11812 1 0.16500 119244.000000
1092 16585 1 0.16500 119244.000000
1093 11813 1 0.16500 119244.000000
1093 13337 1 0.16500 119244.000000
1094 11813 1 0.16500 119244.000000
1094 14504 1 0.16500 119244.000000
1095 11813 1 0.16500 119244.000000
1095 16651 1 0.16500 119244.000000
1096 11814 1 0.16500 119244.000000
1096 14529 1 0.16500 119244.000000
1097 11814 1 0.16500 119244.000000
1097 13467 1 0.16500 119244.000000
1098 11814 1 0.16500 119244.000000
1098 14591 1 0.16500 119244.000000
1099 11814 1 0.16500 119244.000000
1099 12928 1 0.16500 119244.000000
1100 11815 1 0.16500 119244.000000
1100 13314 1 0.16500 119244.000000
1101 11815 1 0.16500 119244.000000
1101 13354 1 0.16500 119244.000000
1102 11815 1 0.16500 119244.000000
1102 15455 1 0.16500 119244.000000
1103 11815 1 0.16500 119244.000000
1103 16856 1 0.16500 119244.000000
1104 11816 1 0.16500 119244.000000
1104 16340 1 0.16500 119244.000000
1105 11816 1 0.16500 119244.000000
1105 15207 1 0.16500 119244.000000
1106 11816 1 0.16500 119244.000000
1106 16969 1 0.16500 119244.000000
1107 11817 1 0.16500 119244.000000
1107 12347 1 0.16500 119244.000000
1108 12347 1 0.16500 119244.000000
1108 16790 1 0.16500 119244.000000
1109 12347 1 0.16500 119244.000000
1109 13536 1 0.16500 119244.000000
1110 18275 1 0.16500 119244.000000
1110 18632 1 0.16500 119244.000000
1111 13676 1 0.16500 119244.000000
1111 18275 1 0.16500 119244.000000
1112 16619 1 0.16500 119244.000000
1112 18275 1 0.16500 119244.000000
1113 11818 1 0.16500 119244.000000
1113 16758 1 0.16500 119244.000000
1114 14789 1 0.16500 119244.000000
1114 16758 1 0.16500 119244.000000
1115 11818 1 0.16500 119244.000000
1115 15680 1 0.16500 119244.000000
1116 11818 1 0.16500 119244.000000
1116 11937 1 0.16500 119244.000000
1117 11819 1 0.16500 119244.000000
1117 14031 1 0.16500 119244.000000
1118 11819 1 0.16500 119244.000000
1118 12514 1 0.16500 119244.000000
1119 11819 1 0.16500 119244.000000
1119 15962 1 0.16500 119244.000000
1120 11819 1 0.16500 119244.000000
1120 19046 1 0.16500 119244.000000
1121 11820 1 0.16500 119244.000000
1121 13365 1 0.16500 119244.000000
1122 11820 1 0.16500 119244.000000
1122 16066 1 0.16500 119244.000000
1123 11820 1 0.16500 119244.000000
1123 17759 1 0.16500 119244.000000
1124 11820 1 0.16500 119244.000000
1124 15543 1 0.16500 119244.000000
1125 11821 1 0.16500 119244.000000
1125 16356 1 0.16500 119244.000000
1126 11821 1 0.16500 119244.000000
1126 15859 1 0.16500 119244.000000
1127 11821 1 0.16500 119244.000000
1127 16634 1 0.16500 119244.000000
1128 11822 1 0.16500 119244.000000
1128 12149 1 0.16500 119244.000000
1129 11822 1 0.16500 119244.000000
1129 13080 1 0.16500 119244.000000
1130 11823 1 0.16500 119244.000000
1130 15850 1 0.16500 119244.000000
1131 11676 1 0.16500 119244.000000
1131 15429 1 0.16500 119244.000000
1132 11823 1 0.16500 119244.000000
1132 15477 1 0.16500 119244.000000
1133 11824 1 0.16500 119244.000000
1133 14176 1 0.16500 119244.000000
1134 11824 1 0.16500 119244.000000
1134 12551 1 0.16500 119244.000000
1135 11824 1 0.16500 119244.000000
1135 14225 1 0.16500 119244.000000
1136 11824 1 0.16500 119244.000000
1136 14134 1 0.16500 119244.000000
1137 16192 1 0.16500 119244.000000
1137 18713 1 0.16500 119244.000000
1138 11825 1 0.16500 119244.000000
1138 15704 1 0.16500 119244.000000
1139 11825 1 0.16500 119244.000000
1139 12955 1 0.16500 119244.000000
1140 11825 1 0.16500 119244.000000
1140 15772 1 0.16500 119244.000000
1141 11825 1 0.16500 119244.000000
1141 11999 1 0.16500 119244.000000
1142 11826 1 0.16500 119244.000000
1142 12294 1 0.16500 119244.000000
1143 11826 1 0.16500 119244.000000
1143 11840 1 0.16500 119244.000000
1144 11826 1 0.16500 119244.000000
1144 13466 1 0.16500 119244.000000
1145 11826 1 0.16500 119244.000000
1145 13730 1 0.16500 119244.000000
1146 11827 1 0.16500 119244.000000
1146 16806 1 0.16500 119244.000000
1147 11827 1 0.16500 119244.000000
1147 13060 1 0.16500 119244.000000
1148 11827 1 0.16500 119244.000000
1148 18554 1 0.16500 119244.000000
1149 11827 1 0.16500 119244.000000
1149 16264 1 0.16500 119244.000000
1150 11828 1 0.16500 119244.000000
1150 13812 1 0.16500 119244.000000
1151 13812 1 0.16500 119244.000000
1151 14295 1 0.16500 119244.000000
1152 11828 1 0.16500 119244.000000
1152 12551 1 0.16500 119244.000000
1153 11829 1 0.16500 119244.000000
1153 16917 1 0.16500 119244.000000
1154 11829 1 0.16500 119244.000000
1154 13272 1 0.16500 119244.000000
1155 11829 1 0.16500 119244.000000
1155 15047 1 0.16500 119244.000000
1156 11829 1 0.16500 119244.000000
1156 15298 1 0.16500 119244.000000
1157 11830 1 0.16500 119244.000000
1157 16493 1 0.16500 119244.000000
1158 11830 1 0.16500 119244.000000
1158 12133 1 0.16500 119244.000000
1159 11830 1 0.16500 119244.000000
1159 15171 1 0.16500 119244.000000
1160 13287 1 0.16500 119244.000000
1160 16001 1 0.16500 119244.000000
1161 11831 1 0.16500 119244.000000
1161 12235 1 0.16500 119244.000000
1162 11831 1 0.16500 119244.000000
1162 13287 1 0.16500 119244.000000
1163 13287 1 0.16500 119244.000000
1163 13632 1 0.16500 119244.000000
1164 11832 1 0.16500 119244.000000
1164 14560 1 0.16500 119244.000000
1165 11832 1 0.16500 119244.000000
1165 16700 1 0.16500 119244.000000
1166 11832 1 0.16500 119244.000000
1166 13843 1 0.16500 119244.000000
1167 11832 1 0.16500 119244.000000
1167 14219 1 0.16500 119244.000000
1168 11833 1 0.16500 119244.000000
1168 16812 1 0.16500 119244.000000
1169 11833 1 0.16500 119244.000000
1169 15370 1 0.16500 119244.000000
1170 11833 1 0.16500 119244.000000
1170 18416 1 0.16500 119244.000000
1171 11833 1 0.16500 119244.000000
1171 13750 1 0.16500 119244.000000
1172 11834 1 0.16500 119244.000000
1172 14178 1 0.16500 119244.000000
1173 11834 1 0.16500 119244.000000
1173 15225 1 0.16500 119244.000000
1174 11834 1 0.16500 119244.000000
1174 13030 1 0.16500 119244.000000
1175 11834 1 0.16500 119244.000000
1175 14387 1 0.16500 119244.000000
1176 11835 1 0.16500 119244.000000
1176 16275 1 0.16500 119244.000000
1177 11835 1 0.16500 119244.000000
1177 14630 1 0.16500 119244.000000
1178 11835 1 0.16500 119244.000000
1178 16290 1 0.16500 119244.000000
1179 16412 1 0.16500 119244.000000
1179 18278 1 0.16500 119244.000000
1180 17747 1 0.16500 119244.000000
1180 18278 1 0.16500 119244.000000
1181 11836 1 0.16500 119244.000000
1181 15530 1 0.16500 119244.000000
1182 11836 1 0.16500 119244.000000
1182 14631 1 0.16500 119244.000000
1183 11836 1 0.16500 119244.000000
1183 16406 1 0.16500 119244.000000
1184 11836 1 0.16500 119244.000000
1184 15769 1 0.16500 119244.000000
1185 11837 1 0.16500 119244.000000
1185 14052 1 0.16500 119244.000000
1186 11837 1 0.16500 119244.000000
1186 12282 1 0.16500 119244.000000
1187 11837 1 0.16500 119244.000000
1187 11948 1 0.16500 119244.000000
1188 11837 1 0.16500 119244.000000
1188 16783 1 0.16500 119244.000000
1189 11838 1 0.16500 119244.000000
1189 13257 1 0.16500 119244.000000
1190 11838 1 0.16500 119244.000000
1190 16691 1 0.16500 119244.000000
1191 11838 1 0.16500 119244.000000
1191 14850 1 0.16500 119244.000000
1192 13257 1 0.16500 119244.000000
1192 14659 1 0.16500 119244.000000
1193 11839 1 0.16500 119244.000000
1193 14244 1 0.16500 119244.000000
1194 11839 1 0.16500 119244.000000
1194 14071 1 0.16500 119244.000000
1195 11839 1 0.16500 119244.000000
1195 12089 1 0.16500 119244.000000
1196 11839 1 0.16500 119244.000000
1196 13036 1 0.16500 119244.000000
1197 11591 1 0.16500 119244.000000
1197 11840 1 0.16500 119244.000000
1198 11840 1 0.16500 119244.000000
1198 16477 1 0.16500 119244.000000
1199 13813 1 0.16500 119244.000000
1199 15118 1 0.16500 119244.000000
1200 11841 1 0.16500 119244.000000
1200 14585 1 0.16500 119244.000000
1201 11841 1 0.16500 119244.000000
1201 13813 1 0.16500 119244.000000
1202 11841 1 0.16500 119244.000000
1202 15148 1 0.16500 119244.000000
1203 11777 1 0.16500 119244.000000
1203 12748 1 0.16500 119244.000000
1204 11842 1 0.16500 119244.000000
1204 13006 1 0.16500 119244.000000
1205 11842 1 0.16500 119244.000000
1205 12988 1 0.16500 119244.000000
1206 12295 1 0.16500 119244.000000
1206 19085 1 0.16500 119244.000000
1207 18047 1 0.16500 119244.000000
1207 19085 1 0.16500 119244.000000
1208 11843 1 0.16500 119244.000000
1208 15329 1 0.16500 119244.000000
1209 11843 1 0.16500 119244.000000
1209 14092 1 0.16500 119244.000000
1210 11843 1 0.16500 119244.000000
1210 13763 1 0.16500 119244.000000
1211 11844 1 0.16500 119244.000000
1211 14224 1 0.16500 119244.000000
1212 11608 1 0.16500 119244.000000
1212 11844 1 0.16500 119244.000000
1213 11844 1 0.16500 119244.000000
1213 15656 1 0.16500 119244.000000
1214 11844 1 0.16500 119244.000000
1214 12664 1 0.16500 119244.000000
1215 11845 1 0.16500 119244.000000
1215 16660 1 0.16500 119244.000000
1216 11845 1 0.16500 119244.000000
1216 18341 1 0.16500 119244.000000
1217 11845 1 0.16500 119244.000000
1217 15099 1 0.16500 119244.000000
1218 11845 1 0.16500 119244.000000
1218 11896 1 0.16500 119244.000000
1219 11846 1 0.16500 119244.000000
1219 14748 1 0.16500 119244.000000
1220 11761 1 0.16500 119244.000000
1220 15992 1 0.16500 119244.000000
1221 11846 1 0.16500 119244.000000
1221 16354 1 0.16500 119244.000000
1222 18203 1 0.16500 119244.000000
1222 18959 1 0.16500 119244.000000
1223 12688 1 0.16500 119244.000000
1223 18203 1 0.16500 119244.000000
1224 18203 1 0.16500 119244.000000
1224 19049 1 0.16500 119244.000000
1225 11847 1 0.16500 119244.000000
1225 11870 1 0.16500 119244.000000
1226 11847 1 0.16500 119244.000000
1226 15477 1 0.16500 119244.000000
1227 11847 1 0.16500 119244.000000
1227 16673 1 0.16500 119244.000000
1228 11847 1 0.16500 119244.000000
1228 13280 1 0.16500 119244.000000
1229 11848 1 0.16500 119244.000000
1229 14104 1 0.16500 119244.000000
1230 11848 1 0.16500 119244.000000
1230 16641 1 0.16500 119244.000000
1231 11848 1 0.16500 119244.000000
1231 19052 1 0.16500 119244.000000
1232 11848 1 0.16500 119244.000000
1232 13366 1 0.16500 119244.000000
1233 11849 1 0.16500 119244.000000
1233 15154 1 0.16500 119244.000000
1234 11849 1 0.16500 119244.000000
1234 15641 1 0.16500 119244.000000
1235 11849 1 0.16500 119244.000000
1235 13456 1 0.16500 119244.000000
1236 11849 1 0.16500 119244.000000
1236 15045 1 0.16500 119244.000000
1237 11850 1 0.16500 119244.000000
1237 18809 1 0.16500 119244.000000
1238 11850 1 0.16500 119244.000000
1238 16008 1 0.16500 119244.000000
1239 11850 1 0.16500 119244.000000
1239 13895 1 0.16500 119244.000000
1240 11851 1 0.16500 119244.000000
1240 14864 1 0.16500 119244.000000
1241 11851 1 0.16500 119244.000000
1241 13758 1 0.16500 119244.000000
1242 11851 1 0.16500 119244.000000
1242 13019 1 0.16500 119244.000000
1243 11852 1 0.16500 119244.000000
1243 15427 1 0.16500 119244.000000
1244 11852 1 0.16500 119244.000000
1244 16042 1 0.16500 119244.000000
1245 11852 1 0.16500 119244.000000
1245 16430 1 0.16500 119244.000000
1246 11853 1 0.16500 119244.000000
1246 14162 1 0.16500 119244.000000
1247 11853 1 0.16500 119244.000000
1247 12019 1 0.16500 119244.000000
1248 11853 1 0.16500 119244.000000
1248 15586 1 0.16500 119244.000000
1249 11853 1 0.16500 119244.000000
1249 14378 1 0.16500 119244.000000
1250 11854 1 0.16500 119244.000000
1250 15985 1 0.16500 119244.000000
1251 11854 1 0.16500 119244.000000
1251 13123 1 0.16500 119244.000000
1252 11854 1 0.16500 119244.000000
1252 12658 1 0.16500 119244.000000
1253 11854 1 0.16500 119244.000000
1253 14559 1 0.16500 119244.000000
1254 11855 1 0.16500 119244.000000
1254 14505 1 0.16500 119244.000000
1255 11855 1 0.16500 119244.000000
1255 14302 1 0.16500 119244.000000
1256 11855 1 0.16500 119244.000000
1256 11908 1 0.16500 119244.000000
1257 11855 1 0.16500 119244.000000
1257 16598 1 0.16500 119244.000000
1258 13011 1 0.16500 119244.000000
1258 18308 1 0.16500 119244.000000
1259 11856 1 0.16500 119244.000000
1259 18944 1 0.16500 119244.000000
1260 11856 1 0.16500 119244.000000
1260 16611 1 0.16500 119244.000000
1261 11856 1 0.16500 119244.000000
1261 13446 1 0.16500 119244.000000
1262 11856 1 0.16500 119244.000000
1262 16893 1 0.16500 119244.000000
1263 11857 1 0.16500 119244.000000
1263 16949 1 0.16500 119244.000000
1264 11857 1 0.16500 119244.000000
1264 15900 1 0.16500 119244.000000
1265 11857 1 0.16500 119244.000000
1265 12546 1 0.16500 119244.000000
1266 11858 1 0.16500 119244.000000
1266 13890 1 0.16500 119244.000000
1267 11858 1 0.16500 119244.000000
1267 15724 1 0.16500 119244.000000
1268 11858 1 0.16500 119244.000000
1268 14011 1 0.16500 119244.000000
1269 11858 1 0.16500 119244.000000
1269 14525 1 0.16500 119244.000000
1270 11859 1 0.16500 119244.000000
1270 14833 1 0.16500 119244.000000
1271 11859 1 0.16500 119244.000000
1271 17007 1 0.16500 119244.000000
1272 11859 1 0.16500 119244.000000
1272 14197 1 0.16500 119244.000000
1273 11859 1 0.16500 119244.000000
1273 12626 1 0.16500 119244.000000
1274 11860 1 0.16500 119244.000000
1274 16720 1 0.16500 119244.000000
1275 11860 1 0.16500 119244.000000
1275 13387 1 0.16500 119244.000000
1276 11860 1 0.16500 119244.000000
1276 14027 1 0.16500 119244.000000
1277 11860 1 0.16500 119244.000000
1277 13385 1 0.16500 119244.000000
1278 11861 1 0.16500 119244.000000
1278 12658 1 0.16500 119244.000000
1279 11861 1 0.16500 119244.000000
1279 12360 1 0.16500 119244.000000
1280 11861 1 0.16500 119244.000000
1280 14459 1 0.16500 119244.000000
1281 11861 1 0.16500 119244.000000
1281 15988 1 0.16500 119244.000000
1282 11862 1 0.16500 119244.000000
1282 15129 1 0.16500 119244.000000
1283 11862 1 0.16500 119244.000000
1283 15268 1 0.16500 119244.000000
1284 12450 1 0.16500 119244.000000
1284 16842 1 0.16500 119244.000000
1285 11862 1 0.16500 119244.000000
1285 16842 1 0.16500 119244.000000
1286 11863 1 0.16500 119244.000000
1286 15220 1 0.16500 119244.000000
1287 15220 1 0.16500 119244.000000
1287 16879 1 0.16500 119244.000000
1288 11863 1 0.16500 119244.000000
1288 13010 1 0.16500 119244.000000
1289 11864 1 0.16500 119244.000000
1289 13588 1 0.16500 119244.000000
1290 11864 1 0.16500 119244.000000
1290 15161 1 0.16500 119244.000000
1291 11864 1 0.16500 119244.000000
1291 18623 1 0.16500 119244.000000
1292 11865 1 0.16500 119244.000000
1292 16013 1 0.16500 119244.000000
1293 11865 1 0.16500 119244.000000
1293 16429 1 0.16500 119244.000000
1294 11865 1 0.16500 119244.000000
1294 16270 1 0.16500 119244.000000
1295 11865 1 0.16500 119244.000000
1295 16847 1 0.16500 119244.000000
1296 11866 1 0.16500 119244.000000
1296 15902 1 0.16500 119244.000000
1297 11866 1 0.16500 119244.000000
1297 15403 1 0.16500 119244.000000
1298 11866 1 0.16500 119244.000000
1298 12221 1 0.16500 119244.000000
1299 11867 1 0.16500 119244.000000
1299 11987 1 0.16500 119244.000000
1300 11867 1 0.16500 119244.000000
1300 16391 1 0.16500 119244.000000
1301 11867 1 0.16500 119244.000000
1301 12413 1 0.16500 119244.000000
1302 11867 1 0.16500 119244.000000
1302 12909 1 0.16500 119244.000000
1303 11868 1 0.16500 119244.000000
1303 15515 1 0.16500 119244.000000
1304 14585 1 0.16500 119244.000000
1304 16451 1 0.16500 119244.000000
1305 11868 1 0.16500 119244.000000
1305 14585 1 0.16500 119244.000000
1306 11868 1 0.16500 119244.000000
1306 16343 1 0.16500 119244.000000
1307 11869 1 0.16500 119244.000000
1307 14971 1 0.16500 119244.000000
1308 11869 1 0.16500 119244.000000
1308 11927 1 0.16500 119244.000000
1309 11869 1 0.16500 119244.000000
1309 13021 1 0.16500 119244.000000
1310 11870 1 0.16500 119244.000000
1310 16497 1 0.16500 119244.000000
1311 11870 1 0.16500 119244.000000
1311 14715 1 0.16500 119244.000000
1312 11798 1 0.16500 119244.000000
1312 11870 1 0.16500 119244.000000
1313 11871 1 0.16500 119244.000000
1313 12222 1 0.16500 119244.000000
1314 11871 1 0.16500 119244.000000
1314 16758 1 0.16500 119244.000000
1315 11871 1 0.16500 119244.000000
1315 13615 1 0.16500 119244.000000
1316 11871 1 0.16500 119244.000000
1316 12355 1 0.16500 119244.000000
1317 11872 1 0.16500 119244.000000
1317 13039 1 0.16500 119244.000000
1318 11872 1 0.16500 119244.000000
1318 14884 1 0.16500 119244.000000
1319 11872 1 0.16500 119244.000000
1319 16673 1 0.16500 119244.000000
1320 11872 1 0.16500 119244.000000
1320 14715 1 0.16500 119244.000000
1321 11873 1 0.16500 119244.000000
1321 14833 1 0.16500 119244.000000
1322 11873 1 0.16500 119244.000000
1322 14851 1 0.16500 119244.000000
1323 11873 1 0.16500 119244.000000
1323 16491 1 0.16500 119244.000000
1324 11873 1 0.16500 119244.000000
1324 12190 1 0.16500 119244.000000
1325 11874 1 0.16500 119244.000000
1325 12210 1 0.16500 119244.000000
1326 11874 1 0.16500 119244.000000
1326 15060 1 0.16500 119244.000000
1327 11874 1 0.16500 119244.000000
1327 18932 1 0.16500 119244.000000
1328 11874 1 0.16500 119244.000000
1328 14612 1 0.16500 119244.000000
1329 11875 1 0.16500 119244.000000
1329 13126 1 0.16500 119244.000000
1330 13126 1 0.16500 119244.000000
1330 15246 1 0.16500 119244.000000
1331 11875 1 0.16500 119244.000000
1331 12650 1 0.16500 119244.000000
1332 11876 1 0.16500 119244.000000
1332 15823 1 0.16500 119244.000000
1333 11876 1 0.16500 119244.000000
1333 15526 1 0.16500 119244.000000
1334 11876 1 0.16500 119244.000000
1334 14664 1 0.16500 119244.000000
1335 11876 1 0.16500 119244.000000
1335 14011 1 0.16500 119244.000000
1336 11877 1 0.16500 119244.000000
1336 14315 1 0.16500 119244.000000
1337 11877 1 0.16500 119244.000000
1337 15896 1 0.16500 119244.000000
1338 11877 1 0.16500 119244.000000
1338 12743 1 0.16500 119244.000000
1339 11877 1 0.16500 119244.000000
1339 14546 1 0.16500 119244.000000
1340 11878 1 0.16500 119244.000000
1340 16202 1 0.16500 119244.000000
1341 11878 1 0.16500 119244.000000
1341 13906 1 0.16500 119244.000000
1342 11878 1 0.16500 119244.000000
1342 16491 1 0.16500 119244.000000
1343 12056 1 0.16500 119244.000000
1343 18281 1 0.16500 119244.000000
1344 11967 1 0.16500 119244.000000
1344 18281 1 0.16500 119244.000000
1345 11879 1 0.16500 119244.000000
1345 12617 1 0.16500 119244.000000
1346 11879 1 0.16500 119244.000000
1346 12087 1 0.16500 119244.000000
1347 11879 1 0.16500 119244.000000
1347 14598 1 0.16500 119244.000000
1348 11879 1 0.16500 119244.000000
1348 16722 1 0.16500 119244.000000
1349 13791 1 0.16500 119244.000000
1349 16068 1 0.16500 119244.000000
1350 13791 1 0.16500 119244.000000
1350 15755 1 0.16500 119244.000000
1351 11880 1 0.16500 119244.000000
1351 13791 1 0.16500 119244.000000
1352 15634 1 0.16500 119244.000000
1352 15755 1 0.16500 119244.000000
1353 11881 1 0.16500 119244.000000
1353 14398 1 0.16500 119244.000000
1354 15475 1 0.16500 119244.000000
1354 15574 1 0.16500 119244.000000
1355 11881 1 0.16500 119244.000000
1355 16699 1 0.16500 119244.000000
1356 11881 1 0.16500 119244.000000
1356 15475 1 0.16500 119244.000000
1357 12399 1 0.16500 119244.000000
1357 16277 1 0.16500 119244.000000
1358 11882 1 0.16500 119244.000000
1358 15754 1 0.16500 119244.000000
1359 12399 1 0.16500 119244.000000
1359 14758 1 0.16500 119244.000000
1360 11882 1 0.16500 119244.000000
1360 12399 1 0.16500 119244.000000
1361 11883 1 0.16500 119244.000000
1361 16745 1 0.16500 119244.000000
1362 11883 1 0.16500 119244.000000
1362 16263 1 0.16500 119244.000000
1363 11883 1 0.16500 119244.000000
1363 14065 1 0.16500 119244.000000
1364 11883 1 0.16500 119244.000000
1364 12033 1 0.16500 119244.000000
1365 11884 1 0.16500 119244.000000
1365 14313 1 0.16500 119244.000000
1366 11884 1 0.16500 119244.000000
1366 12364 1 0.16500 119244.000000
1367 11884 1 0.16500 119244.000000
1367 15330 1 0.16500 119244.000000
1368 11884 1 0.16500 119244.000000
1368 13942 1 0.16500 119244.000000
1369 11885 1 0.16500 119244.000000
1369 13340 1 0.16500 119244.000000
1370 11885 1 0.16500 119244.000000
1370 15086 1 0.16500 119244.000000
1371 11885 1 0.16500 119244.000000
1371 14372 1 0.16500 119244.000000
1372 11885 1 0.16500 119244.000000
1372 12062 1 0.16500 119244.000000
1373 11886 1 0.16500 119244.000000
1373 12332 1 0.16500 119244.000000
1374 11886 1 0.16500 119244.000000
1374 13911 1 0.16500 119244.000000
1375 11886 1 0.16500 119244.000000
1375 15668 1 0.16500 119244.000000
1376 11887 1 0.16500 119244.000000
1376 13053 1 0.16500 119244.000000
1377 11887 1 0.16500 119244.000000
1377 16001 1 0.16500 119244.000000
1378 11887 1 0.16500 119244.000000
1378 14660 1 0.16500 119244.000000
1379 11887 1 0.16500 119244.000000
1379 12654 1 0.16500 119244.000000
1380 11888 1 0.16500 119244.000000
1380 14940 1 0.16500 119244.000000
1381 11888 1 0.16500 119244.000000
1381 12135 1 0.16500 119244.000000
1382 11888 1 0.16500 119244.000000
1382 18920 1 0.16500 119244.000000
1383 11889 1 0.16500 119244.000000
1383 15326 1 0.16500 119244.000000
1384 11889 1 0.16500 119244.000000
1384 16638 1 0.16500 119244.000000
1385 11889 1 0.16500 119244.000000
1385 15966 1 0.16500 119244.000000
1386 11889 1 0.16500 119244.000000
1386 15084 1 0.16500 119244.000000
1387 13107 1 0.16500 119244.000000
1387 18284 1 0.16500 119244.000000
1388 14990 1 0.16500 119244.000000
1388 18284 1 0.16500 119244.000000
1389 16146 1 0.16500 119244.000000
1389 18284 1 0.16500 119244.000000
1390 11890 1 0.16500 119244.000000
1390 15459 1 0.16500 119244.000000
1391 11890 1 0.16500 119244.000000
1391 13614 1 0.16500 119244.000000
1392 11890 1 0.16500 119244.000000
1392 13504 1 0.16500 119244.000000
1393 11890 1 0.16500 119244.000000
1393 12816 1 0.16500 119244.000000
1394 11891 1 0.16500 119244.000000
1394 15573 1 0.16500 119244.000000
1395 11891 1 0.16500 119244.000000
1395 13881 1 0.16500 119244.000000
1396 11891 1 0.16500 119244.000000
1396 12533 1 0.16500 119244.000000
1397 11891 1 0.16500 119244.000000
1397 15161 1 0.16500 119244.000000
1398 11892 1 0.16500 119244.000000
1398 14430 1 0.16500 119244.000000
1399 11892 1 0.16500 119244.000000
1399 13176 1 0.16500 119244.000000
1400 11892 1 0.16500 119244.000000
1400 14776 1 0.16500 119244.000000
1401 11892 1 0.16500 119244.000000
1401 13931 1 0.16500 119244.000000
1402 11893 1 0.16500 119244.000000
1402 15345 1 0.16500 119244.000000
1403 14332 1 0.16500 119244.000000
1403 16448 1 0.16500 119244.000000
1404 11893 1 0.16500 119244.000000
1404 13913 1 0.16500 119244.000000
1405 11893 1 0.16500 119244.000000
1405 14332 1 0.16500 119244.000000
1406 11894 1 0.16500 119244.000000
1406 12437 1 0.16500 119244.000000
1407 11894 1 0.16500 119244.000000
1407 16629 1 0.16500 119244.000000
1408 11894 1 0.16500 119244.000000
1408 15776 1 0.16500 119244.000000
1409 12416 1 0.16500 119244.000000
1409 15428 1 0.16500 119244.000000
1410 11895 1 0.16500 119244.000000
1410 15428 1 0.16500 119244.000000
1411 11895 1 0.16500 119244.000000
1411 16084 1 0.16500 119244.000000
1412 11895 1 0.16500 119244.000000
1412 15570 1 0.16500 119244.000000
1413 14957 1 0.16500 119244.000000
1413 18287 1 0.16500 119244.000000
1414 18287 1 0.16500 119244.000000
1414 19110 1 0.16500 119244.000000
1415 11896 1 0.16500 119244.000000
1415 16751 1 0.16500 119244.000000
1416 11896 1 0.16500 119244.000000
1416 12028 1 0.16500 119244.000000
1417 11896 1 0.16500 119244.000000
1417 15049 1 0.16500 119244.000000
1418 11897 1 0.16500 119244.000000
1418 15710 1 0.16500 119244.000000
1419 11897 1 0.16500 119244.000000
1419 16319 1 0.16500 119244.000000
1420 11897 1 0.16500 119244.000000
1420 13432 1 0.16500 119244.000000
1421 11897 1 0.16500 119244.000000
1421 13453 1 0.16500 119244.000000
1422 11898 1 0.16500 119244.000000
1422 13916 1 0.16500 119244.000000
1423 11898 1 0.16500 119244.000000
1423 12606 1 0.16500 119244.000000
1424 11898 1 0.16500 119244.000000
1424 12880 1 0.16500 119244.000000
1425 11898 1 0.16500 119244.000000
1425 15899 1 0.16500 119244.000000
1426 11899 1 0.16500 119244.000000
1426 13138 1 0.16500 119244.000000
1427 11899 1 0.16500 119244.000000
1427 13128 1 0.16500 119244.000000
1428 11899 1 0.16500 119244.000000
1428 16972 1 0.16500 119244.000000
1429 11899 1 0.16500 119244.000000
1429 14862 1 0.16500 119244.000000
1430 11900 1 0.16500 119244.000000
1430 15497 1 0.16500 119244.000000
1431 11900 1 0.16500 119244.000000
1431 14393 1 0.16500 119244.000000
1432 11900 1 0.16500 119244.000000
1432 15511 1 0.16500 119244.000000
1433 11901 1 0.16500 119244.000000
1433 13494 1 0.16500 119244.000000
1434 11901 1 0.16500 119244.000000
1434 12229 1 0.16500 119244.000000
1435 11901 1 0.16500 119244.000000
1435 15632 1 0.16500 119244.000000
1436 11902 1 0.16500 119244.000000
1436 16248 1 0.16500 119244.000000
1437 11902 1 0.16500 119244.000000
1437 13977 1 0.16500 119244.000000
1438 11902 1 0.16500 119244.000000
1438 16038 1 0.16500 119244.000000
1439 11902 1 0.16500 119244.000000
1439 12462 1 0.16500 119244.000000
1440 11903 1 0.16500 119244.000000
1440 14176 1 0.16500 119244.000000
1441 11903 1 0.16500 119244.000000
1441 15331 1 0.16500 119244.000000
1442 11903 1 0.16500 119244.000000
1442 16711 1 0.16500 119244.000000
1443 16270 1 0.16500 119244.000000
1443 17231 1 0.16500 119244.000000
1444 16397 1 0.16500 119244.000000
1444 17231 1 0.16500 119244.000000
1445 11904 1 0.16500 119244.000000
1445 14665 1 0.16500 119244.000000
1446 11904 1 0.16500 119244.000000
1446 16746 1 0.16500 119244.000000
1447 11904 1 0.16500 119244.000000
1447 17011 1 0.16500 119244.000000
1448 11904 1 0.16500 119244.000000
1448 13149 1 0.16500 119244.000000
1449 11905 1 0.16500 119244.000000
1449 16848 1 0.16500 119244.000000
1450 11905 1 0.16500 119244.000000
1450 19115 1 0.16500 119244.000000
1451 11906 1 0.16500 119244.000000
1451 12896 1 0.16500 119244.000000
1452 11906 1 0.16500 119244.000000
1452 16259 1 0.16500 119244.000000
1453 11906 1 0.16500 119244.000000
1453 14873 1 0.16500 119244.000000
1454 11907 1 0.16500 119244.000000
1454 14753 1 0.16500 119244.000000
1455 11907 1 0.16500 119244.000000
1455 18620 1 0.16500 119244.000000
1456 11907 1 0.16500 119244.000000
1456 15896 1 0.16500 119244.000000
1457 11908 1 0.16500 119244.000000
1457 14057 1 0.16500 119244.000000
1458 11908 1 0.16500 119244.000000
1458 16815 1 0.16500 119244.000000
1459 11908 1 0.16500 119244.000000
1459 16722 1 0.16500 119244.000000
1460 12707 1 0.16500 119244.000000
1460 15571 1 0.16500 119244.000000
1461 11909 1 0.16500 119244.000000
1461 15297 1 0.16500 119244.000000
1462 11909 1 0.16500 119244.000000
1462 16255 1 0.16500 119244.000000
1463 14174 1 0.16500 119244.000000
1463 15442 1 0.16500 119244.000000
1464 11910 1 0.16500 119244.000000
1464 14960 1 0.16500 119244.000000
1465 11910 1 0.16500 119244.000000
1465 14574 1 0.16500 119244.000000
1466 11910 1 0.16500 119244.000000
1466 14614 1 0.16500 119244.000000
1467 11910 1 0.16500 119244.000000
1467 15445 1 0.16500 119244.000000
1468 12310 1 0.16500 119244.000000
1468 16493 1 0.16500 119244.000000
1469 12660 1 0.16500 119244.000000
1469 14461 1 0.16500 119244.000000
1470 12310 1 0.16500 119244.000000
1470 18167 1 0.16500 119244.000000
1471 12660 1 0.16500 119244.000000
1471 18167 1 0.16500 119244.000000
1472 11911 1 0.16500 119244.000000
1472 12462 1 0.16500 119244.000000
1473 11911 1 0.16500 119244.000000
1473 13615 1 0.16500 119244.000000
1474 11911 1 0.16500 119244.000000
1474 12838 1 0.16500 119244.000000
1475 11911 1 0.16500 119244.000000
1475 13383 1 0.16500 119244.000000
1476 13859 1 0.16500 119244.000000
1476 19090 1 0.16500 119244.000000
1477 14720 1 0.16500 119244.000000
1477 19090 1 0.16500 119244.000000
1478 11912 1 0.16500 119244.000000
1478 15348 1 0.16500 119244.000000
1479 11912 1 0.16500 119244.000000
1479 16292 1 0.16500 119244.000000
1480 11912 1 0.16500 119244.000000
1480 15607 1 0.16500 119244.000000
1481 11912 1 0.16500 119244.000000
1481 17963 1 0.16500 119244.000000
1482 11913 1 0.16500 119244.000000
1482 14508 1 0.16500 119244.000000
1483 11913 1 0.16500 119244.000000
1483 15850 1 0.16500 119244.000000
1484 11913 1 0.16500 119244.000000
1484 12356 1 0.16500 119244.000000
1485 11913 1 0.16500 119244.000000
1485 16279 1 0.16500 119244.000000
1486 11914 1 0.16500 119244.000000
1486 14460 1 0.16500 119244.000000
1487 11914 1 0.16500 119244.000000
1487 15827 1 0.16500 119244.000000
1488 11914 1 0.16500 119244.000000
1488 16402 1 0.16500 119244.000000
1489 11914 1 0.16500 119244.000000
1489 15335 1 0.16500 119244.000000
1490 11915 1 0.16500 119244.000000
1490 13787 1 0.16500 119244.000000
1491 11915 1 0.16500 119244.000000
1491 14101 1 0.16500 119244.000000
1492 11915 1 0.16500 119244.000000
1492 12404 1 0.16500 119244.000000
1493 11915 1 0.16500 119244.000000
1493 15204 1 0.16500 119244.000000
1494 11916 1 0.16500 119244.000000
1494 12279 1 0.16500 119244.000000
1495 11916 1 0.16500 119244.000000
1495 13677 1 0.16500 119244.000000
1496 11916 1 0.16500 119244.000000
1496 13184 1 0.16500 119244.000000
1497 11916 1 0.16500 119244.000000
1497 13014 1 0.16500 119244.000000
1498 11917 1 0.16500 119244.000000
1498 16171 1 0.16500 119244.000000
1499 12506 1 0.16500 119244.000000
1499 13941 1 0.16500 119244.000000
1500 11917 1 0.16500 119244.000000
1500 12506 1 0.16500 119244.000000
1501 11917 1 0.16500 119244.000000
1501 12123 1 0.16500 119244.000000
1502 11918 1 0.16500 119244.000000
1502 12433 1 0.16500 119244.000000
1503 11918 1 0.16500 119244.000000
1503 13111 1 0.16500 119244.000000
1504 11918 1 0.16500 119244.000000
1504 15279 1 0.16500 119244.000000
1505 11918 1 0.16500 119244.000000
1505 14675 1 0.16500 119244.000000
1506 11919 1 0.16500 119244.000000
1506 14415 1 0.16500 119244.000000
1507 11919 1 0.16500 119244.000000
1507 13988 1 0.16500 119244.000000
1508 11919 1 0.16500 119244.000000
1508 15287 1 0.16500 119244.000000
1509 11919 1 0.16500 119244.000000
1509 16515 1 0.16500 119244.000000
1510 11920 1 0.16500 119244.000000
1510 14031 1 0.16500 119244.000000
1511 11920 1 0.16500 119244.000000
1511 14802 1 0.16500 119244.000000
1512 11920 1 0.16500 119244.000000
1512 15819 1 0.16500 119244.000000
1513 11920 1 0.16500 119244.000000
1513 15761 1 0.16500 119244.000000
1514 11921 1 0.16500 119244.000000
1514 13142 1 0.16500 119244.000000
1515 11921 1 0.16500 119244.000000
1515 15498 1 0.16500 119244.000000
1516 11921 1 0.16500 119244.000000
1516 15141 1 0.16500 119244.000000
1517 11921 1 0.16500 119244.000000
1517 15120 1 0.16500 119244.000000
1518 11922 1 0.16500 119244.000000
1518 14578 1 0.16500 119244.000000
1519 11922 1 0.16500 119244.000000
1519 14641 1 0.16500 119244.000000
1520 11922 1 0.16500 119244.000000
1520 12257 1 0.16500 119244.000000
1521 11922 1 0.16500 119244.000000
1521 16495 1 0.16500 119244.000000
1522 11923 1 0.16500 119244.000000
1522 14705 1 0.16500 119244.000000
1523 11923 1 0.16500 119244.000000
1523 14914 1 0.16500 119244.000000
1524 11923 1 0.16500 119244.000000
1524 14134 1 0.16500 119244.000000
1525 11923 1 0.16500 119244.000000
1525 15745 1 0.16500 119244.000000
1526 11924 1 0.16500 119244.000000
1526 18524 1 0.16500 119244.000000
1527 11924 1 0.16500 119244.000000
1527 14912 1 0.16500 119244.000000
1528 11924 1 0.16500 119244.000000
1528 16361 1 0.16500 119244.000000
1529 11924 1 0.16500 119244.000000
1529 14096 1 0.16500 119244.000000
1530 11925 1 0.16500 119244.000000
1530 15882 1 0.16500 119244.000000
1531 11925 1 0.16500 119244.000000
1531 16642 1 0.16500 119244.000000
1532 11925 1 0.16500 119244.000000
1532 14783 1 0.16500 119244.000000
1533 11925 1 0.16500 119244.000000
1533 14202 1 0.16500 119244.000000
1534 11926 1 0.16500 119244.000000
1534 14993 1 0.16500 119244.000000
1535 11926 1 0.16500 119244.000000
1535 15235 1 0.16500 119244.000000
1536 11926 1 0.16500 119244.000000
1536 15285 1 0.16500 119244.000000
1537 11926 1 0.16500 119244.000000
1537 15802 1 0.16500 119244.000000
1538 11927 1 0.16500 119244.000000
1538 16784 1 0.16500 119244.000000
1539 11927 1 0.16500 119244.000000
1539 13176 1 0.16500 119244.000000
1540 11927 1 0.16500 119244.000000
1540 14879 1 0.16500 119244.000000
1541 11928 1 0.16500 119244.000000
1541 13769 1 0.16500 119244.000000
1542 11928 1 0.16500 119244.000000
1542 14943 1 0.16500 119244.000000
1543 11929 1 0.16500 119244.000000
1543 16840 1 0.16500 119244.000000
1544 11929 1 0.16500 119244.000000
1544 12709 1 0.16500 119244.000000
1545 11929 1 0.16500 119244.000000
1545 14367 1 0.16500 119244.000000
1546 11929 1 0.16500 119244.000000
1546 13982 1 0.16500 119244.000000
1547 11930 1 0.16500 119244.000000
1547 12611 1 0.16500 119244.000000
1548 11930 1 0.16500 119244.000000
1548 12144 1 0.16500 119244.000000
1549 11930 1 0.16500 119244.000000
1549 15449 1 0.16500 119244.000000
1550 11930 1 0.16500 119244.000000
1550 13958 1 0.16500 119244.000000
1551 11931 1 0.16500 119244.000000
1551 15369 1 0.16500 119244.000000
1552 11931 1 0.16500 119244.000000
1552 14021 1 0.16500 119244.000000
1553 11931 1 0.16500 119244.000000
1553 15742 1 0.16500 119244.000000
1554 11931 1 0.16500 119244.000000
1554 15045 1 0.16500 119244.000000
1555 11932 1 0.16500 119244.000000
1555 12512 1 0.16500 119244.000000
1556 11932 1 0.16500 119244.000000
1556 14283 1 0.16500 119244.000000
1557 11932 1 0.16500 119244.000000
1557 14897 1 0.16500 119244.000000
1558 11932 1 0.16500 119244.000000
1558 15118 1 0.16500 119244.000000
1559 11933 1 0.16500 119244.000000
1559 15533 1 0.16500 119244.000000
1560 11933 1 0.16500 119244.000000
1560 15423 1 0.16500 119244.000000
1561 11933 1 0.16500 119244.000000
1561 15895 1 0.16500 119244.000000
1562 11933 1 0.16500 119244.000000
1562 16725 1 0.16500 119244.000000
1563 11934 1 0.16500 119244.000000
1563 14624 1 0.16500 119244.000000
1564 11934 1 0.16500 119244.000000
1564 14310 1 0.16500 119244.000000
1565 11934 1 0.16500 119244.000000
1565 12474 1 0.16500 119244.000000
1566 11934 1 0.16500 119244.000000
1566 12098 1 0.16500 119244.000000
1567 11935 1 0.16500 119244.000000
1567 12000 1 0.16500 119244.000000
1568 12614 1 0.16500 119244.000000
1568 16535 1 0.16500 119244.000000
1569 11935 1 0.16500 119244.000000
1569 12614 1 0.16500 119244.000000
1570 11935 1 0.16500 119244.000000
1570 13993 1 0.16500 119244.000000
1571 11936 1 0.16500 119244.000000
1571 12461 1 0.16500 119244.000000
1572 11936 1 0.16500 119244.000000
1572 16345 1 0.16500 119244.000000
1573 11936 1 0.16500 119244.000000
1573 16112 1 0.16500 119244.000000
1574 11936 1 0.16500 119244.000000
1574 12438 1 0.16500 119244.000000
1575 11937 1 0.16500 119244.000000
1575 16278 1 0.16500 119244.000000
1576 12178 1 0.16500 119244.000000
1576 16278 1 0.16500 119244.000000
1577 11937 1 0.16500 119244.000000
1577 16598 1 0.16500 119244.000000
1578 11937 1 0.16500 119244.000000
1578 15015 1 0.16500 119244.000000
1579 11938 1 0.16500 119244.000000
1579 13817 1 0.16500 119244.000000
1580 11938 1 0.16500 119244.000000
1580 15146 1 0.16500 119244.000000
1581 11938 1 0.16500 119244.000000
1581 13243 1 0.16500 119244.000000
1582 11938 1 0.16500 119244.000000
1582 14844 1 0.16500 119244.000000
1583 11939 1 0.16500 119244.000000
1583 12329 1 0.16500 119244.000000
1584 11939 1 0.16500 119244.000000
1584 13290 1 0.16500 119244.000000
1585 11939 1 0.16500 119244.000000
1585 13893 1 0.16500 119244.000000
1586 11940 1 0.16500 119244.000000
1586 12663 1 0.16500 119244.000000
1587 11940 1 0.16500 119244.000000
1587 16906 1 0.16500 119244.000000
1588 12576 1 0.16500 119244.000000
1588 16906 1 0.16500 119244.000000
1589 11941 1 0.16500 119244.000000
1589 16028 1 0.16500 119244.000000
1590 11941 1 0.16500 119244.000000
1590 14006 1 0.16500 119244.000000
1591 11941 1 0.16500 119244.000000
1591 15869 1 0.16500 119244.000000
1592 11941 1 0.16500 119244.000000
1592 15978 1 0.16500 119244.000000
1593 11942 1 0.16500 119244.000000
1593 16206 1 0.16500 119244.000000
1594 11942 1 0.16500 119244.000000
1594 13478 1 0.16500 119244.000000
1595 11942 1 0.16500 119244.000000
1595 15290 1 0.16500 119244.000000
1596 11943 1 0.16500 119244.000000
1596 16811 1 0.16500 119244.000000
1597 11673 1 0.16500 119244.000000
1597 11943 1 0.16500 119244.000000
1598 11943 1 0.16500 119244.000000
1598 15795 1 0.16500 119244.000000
1599 11944 1 0.16500 119244.000000
1599 14397 1 0.16500 119244.000000
1600 11944 1 0.16500 119244.000000
1600 14135 1 0.16500 119244.000000
1601 11944 1 0.16500 119244.000000
1601 11991 1 0.16500 119244.000000
1602 11945 1 0.16500 119244.000000
1602 12394 1 0.16500 119244.000000
1603 11945 1 0.16500 119244.000000
1603 13535 1 0.16500 119244.000000
1604 11945 1 0.16500 119244.000000
1604 14055 1 0.16500 119244.000000
1605 11946 1 0.16500 119244.000000
1605 13457 1 0.16500 119244.000000
1606 11946 1 0.16500 119244.000000
1606 14503 1 0.16500 119244.000000
1607 11946 1 0.16500 119244.000000
1607 14798 1 0.16500 119244.000000
1608 11946 1 0.16500 119244.000000
1608 12581 1 0.16500 119244.000000
1609 11947 1 0.16500 119244.000000
1609 13992 1 0.16500 119244.000000
1610 11947 1 0.16500 119244.000000
1610 14529 1 0.16500 119244.000000
1611 11947 1 0.16500 119244.000000
1611 13131 1 0.16500 119244.000000
1612 13992 1 0.16500 119244.000000
1612 16075 1 0.16500 119244.000000
1613 11948 1 0.16500 119244.000000
1613 13056 1 0.16500 119244.000000
1614 11948 1 0.16500 119244.000000
1614 16480 1 0.16500 119244.000000
1615 11948 1 0.16500 119244.000000
1615 16568 1 0.16500 119244.000000
1616 11949 1 0.16500 119244.000000
1616 12855 1 0.16500 119244.000000
1617 11949 1 0.16500 119244.000000
1617 13069 1 0.16500 119244.000000
1618 11949 1 0.16500 119244.000000
1618 14154 1 0.16500 119244.000000
1619 11964 1 0.16500 119244.000000
1619 13990 1 0.16500 119244.000000
1620 11950 1 0.16500 119244.000000
1620 13990 1 0.16500 119244.000000
1621 11950 1 0.16500 119244.000000
1621 14662 1 0.16500 119244.000000
1622 11950 1 0.16500 119244.000000
1622 15061 1 0.16500 119244.000000
1623 18290 1 0.16500 119244.000000
1623 19016 1 0.16500 119244.000000
1624 13271 1 0.16500 119244.000000
1624 18290 1 0.16500 119244.000000
1625 12095 1 0.16500 119244.000000
1625 18290 1 0.16500 119244.000000
1626 11951 1 0.16500 119244.000000
1626 14241 1 0.16500 119244.000000
1627 11951 1 0.16500 119244.000000
1627 12566 1 0.16500 119244.000000
1628 11951 1 0.16500 119244.000000
1628 13982 1 0.16500 119244.000000
1629 11951 1 0.16500 119244.000000
1629 14999 1 0.16500 119244.000000
1630 11952 1 0.16500 119244.000000
1630 16196 1 0.16500 119244.000000
1631 11952 1 0.16500 119244.000000
1631 16683 1 0.16500 119244.000000
1632 11952 1 0.16500 119244.000000
1632 16285 1 0.16500 119244.000000
1633 13575 1 0.16500 119244.000000
1633 16683 1 0.16500 119244.000000
1634 11953 1 0.16500 119244.000000
1634 18872 1 0.16500 119244.000000
1635 11953 1 0.16500 119244.000000
1635 15698 1 0.16500 119244.000000
1636 11953 1 0.16500 119244.000000
1636 13893 1 0.16500 119244.000000
1637 11954 1 0.16500 119244.000000
1637 16403 1 0.16500 119244.000000
1638 11954 1 0.16500 119244.000000
1638 15279 1 0.16500 119244.000000
1639 11954 1 0.16500 119244.000000
1639 14427 1 0.16500 119244.000000
1640 11954 1 0.16500 119244.000000
1640 15578 1 0.16500 119244.000000
1641 11955 1 0.16500 119244.000000
1641 13815 1 0.16500 119244.000000
1642 11955 1 0.16500 119244.000000
1642 12941 1 0.16500 119244.000000
1643 11955 1 0.16500 119244.000000
1643 18515 1 0.16500 119244.000000
1644 11956 1 0.16500 119244.000000
1644 19028 1 0.16500 119244.000000
1645 11956 1 0.16500 119244.000000
1645 16009 1 0.16500 119244.000000
1646 11956 1 0.16500 119244.000000
1646 14965 1 0.16500 119244.000000
1647 11817 1 0.16500 119244.000000
1647 14692 1 0.16500 119244.000000
1648 12494 1 0.16500 119244.000000
1648 13588 1 0.16500 119244.000000
1649 11817 1 0.16500 119244.000000
1649 12494 1 0.16500 119244.000000
1650 13475 1 0.16500 119244.000000
1650 19095 1 0.16500 119244.000000
1651 16785 1 0.16500 119244.000000
1651 19095 1 0.16500 119244.000000
1652 11958 1 0.16500 119244.000000
1652 11959 1 0.16500 119244.000000
1653 11958 1 0.16500 119244.000000
1653 12975 1 0.16500 119244.000000
1654 11958 1 0.16500 119244.000000
1654 12120 1 0.16500 119244.000000
1655 11959 1 0.16500 119244.000000
1655 13460 1 0.16500 119244.000000
1656 11960 1 0.16500 119244.000000
1656 16823 1 0.16500 119244.000000
1657 11960 1 0.16500 119244.000000
1657 13685 1 0.16500 119244.000000
1658 11960 1 0.16500 119244.000000
1658 14868 1 0.16500 119244.000000
1659 11960 1 0.16500 119244.000000
1659 12577 1 0.16500 119244.000000
1660 11961 1 0.16500 119244.000000
1660 12954 1 0.16500 119244.000000
1661 11961 1 0.16500 119244.000000
1661 17004 1 0.16500 119244.000000
1662 11961 1 0.16500 119244.000000
1662 15928 1 0.16500 119244.000000
1663 11961 1 0.16500 119244.000000
1663 14026 1 0.16500 119244.000000
1664 11962 1 0.16500 119244.000000
1664 13477 1 0.16500 119244.000000
1665 11962 1 0.16500 119244.000000
1665 12862 1 0.16500 119244.000000
1666 11962 1 0.16500 119244.000000
1666 13030 1 0.16500 119244.000000
1667 11962 1 0.16500 119244.000000
1667 16011 1 0.16500 119244.000000
1668 11963 1 0.16500 119244.000000
1668 15611 1 0.16500 119244.000000
1669 11963 1 0.16500 119244.000000
1669 15973 1 0.16500 119244.000000
1670 11963 1 0.16500 119244.000000
1670 16979 1 0.16500 119244.000000
1671 11963 1 0.16500 119244.000000
1671 12415 1 0.16500 119244.000000
1672 11964 1 0.16500 119244.000000
1672 13910 1 0.16500 119244.000000
1673 11964 1 0.16500 119244.000000
1673 14088 1 0.16500 119244.000000
1674 11965 1 0.16500 119244.000000
1674 16178 1 0.16500 119244.000000
1675 11965 1 0.16500 119244.000000
1675 14343 1 0.16500 119244.000000
1676 11965 1 0.16500 119244.000000
1676 15281 1 0.16500 119244.000000
1677 11965 1 0.16500 119244.000000
1677 13108 1 0.16500 119244.000000
1678 11966 1 0.16500 119244.000000
1678 15994 1 0.16500 119244.000000
1679 11966 1 0.16500 119244.000000
1679 12860 1 0.16500 119244.000000
1680 11966 1 0.16500 119244.000000
1680 14791 1 0.16500 119244.000000
1681 11967 1 0.16500 119244.000000
1681 15046 1 0.16500 119244.000000
1682 11967 1 0.16500 119244.000000
1682 14760 1 0.16500 119244.000000
1683 11967 1 0.16500 119244.000000
1683 13727 1 0.16500 119244.000000
1684 17301 1 0.16500 119244.000000
1684 18623 1 0.16500 119244.000000
1685 11968 1 0.16500 119244.000000
1685 18551 1 0.16500 119244.000000
1686 14268 1 0.16500 119244.000000
1686 17399 1 0.16500 119244.000000
1687 14268 1 0.16500 119244.000000
1687 18293 1 0.16500 119244.000000
1688 13661 1 0.16500 119244.000000
1688 18293 1 0.16500 119244.000000
1689 18296 1 0.16500 119244.000000
1689 18410 1 0.16500 119244.000000
1690 15197 1 0.16500 119244.000000
1690 18296 1 0.16500 119244.000000
1691 15367 1 0.16500 119244.000000
1691 18296 1 0.16500 119244.000000
1692 11969 1 0.16500 119244.000000
1692 14153 1 0.16500 119244.000000
1693 11969 1 0.16500 119244.000000
1693 13579 1 0.16500 119244.000000
1694 11969 1 0.16500 119244.000000
1694 16046 1 0.16500 119244.000000
1695 11969 1 0.16500 119244.000000
1695 14566 1 0.16500 119244.000000
1696 12648 1 0.16500 119244.000000
1696 16686 1 0.16500 119244.000000
1697 11970 1 0.16500 119244.000000
1697 12648 1 0.16500 119244.000000
1698 11970 1 0.16500 119244.000000
1698 12111 1 0.16500 119244.000000
1699 11970 1 0.16500 119244.000000
1699 18428 1 0.16500 119244.000000
1700 11971 1 0.16500 119244.000000
1700 16421 1 0.16500 119244.000000
1701 11971 1 0.16500 119244.000000
1701 18716 1 0.16500 119244.000000
1702 11971 1 0.16500 119244.000000
1702 13897 1 0.16500 119244.000000
1703 11971 1 0.16500 119244.000000
1703 13177 1 0.16500 119244.000000
1704 11972 1 0.16500 119244.000000
1704 15433 1 0.16500 119244.000000
1705 11972 1 0.16500 119244.000000
1705 13248 1 0.16500 119244.000000
1706 11972 1 0.16500 119244.000000
1706 16804 1 0.16500 119244.000000
1707 11972 1 0.16500 119244.000000
1707 14943 1 0.16500 119244.000000
1708 11973 1 0.16500 119244.000000
1708 12636 1 0.16500 119244.000000
1709 11973 1 0.16500 119244.000000
1709 15445 1 0.16500 119244.000000
1710 11973 1 0.16500 119244.000000
1710 15371 1 0.16500 119244.000000
1711 11974 1 0.16500 119244.000000
1711 15691 1 0.16500 119244.000000
1712 15450 1 0.16500 119244.000000
1712 15691 1 0.16500 119244.000000
1713 11974 1 0.16500 119244.000000
1713 16099 1 0.16500 119244.000000
1714 11974 1 0.16500 119244.000000
1714 14978 1 0.16500 119244.000000
1715 11975 1 0.16500 119244.000000
1715 18896 1 0.16500 119244.000000
1716 11975 1 0.16500 119244.000000
1716 13464 1 0.16500 119244.000000
1717 11975 1 0.16500 119244.000000
1717 18605 1 0.16500 119244.000000
1718 11976 1 0.16500 119244.000000
1718 13351 1 0.16500 119244.000000
1719 11977 1 0.16500 119244.000000
1719 14993 1 0.16500 119244.000000
1720 13084 1 0.16500 119244.000000
1720 16590 1 0.16500 119244.000000
1721 13084 1 0.16500 119244.000000
1721 16504 1 0.16500 119244.000000
1722 11977 1 0.16500 119244.000000
1722 13084 1 0.16500 119244.000000
1723 11978 1 0.16500 119244.000000
1723 13650 1 0.16500 119244.000000
1724 11978 1 0.16500 119244.000000
1724 15947 1 0.16500 119244.000000
1725 11978 1 0.16500 119244.000000
1725 15955 1 0.16500 119244.000000
1726 11978 1 0.16500 119244.000000
1726 16796 1 0.16500 119244.000000
1727 16291 1 0.16500 119244.000000
1727 18299 1 0.16500 119244.000000
1728 11979 1 0.16500 119244.000000
1728 16420 1 0.16500 119244.000000
1729 11979 1 0.16500 119244.000000
1729 14576 1 0.16500 119244.000000
1730 11979 1 0.16500 119244.000000
1730 12349 1 0.16500 119244.000000
1731 11980 1 0.16500 119244.000000
1731 15388 1 0.16500 119244.000000
1732 11980 1 0.16500 119244.000000
1732 16351 1 0.16500 119244.000000
1733 11980 1 0.16500 119244.000000
1733 13544 1 0.16500 119244.000000
1734 11980 1 0.16500 119244.000000
1734 13432 1 0.16500 119244.000000
1735 15153 1 0.16500 119244.000000
1735 18302 1 0.16500 119244.000000
1736 15901 1 0.16500 119244.000000
1736 18302 1 0.16500 119244.000000
1737 14300 1 0.16500 119244.000000
1737 18302 1 0.16500 119244.000000
1738 11981 1 0.16500 119244.000000
1738 16201 1 0.16500 119244.000000
1739 11981 1 0.16500 119244.000000
1739 16982 1 0.16500 119244.000000
1740 14568 1 0.16500 119244.000000
1740 16201 1 0.16500 119244.000000
1741 12603 1 0.16500 119244.000000
1741 16982 1 0.16500 119244.000000
1742 18305 1 0.16500 119244.000000
1742 18698 1 0.16500 119244.000000
1743 11982 1 0.16500 119244.000000
1743 12486 1 0.16500 119244.000000
1744 11982 1 0.16500 119244.000000
1744 12520 1 0.16500 119244.000000
1745 11982 1 0.16500 119244.000000
1745 15002 1 0.16500 119244.000000
1746 11982 1 0.16500 119244.000000
1746 15933 1 0.16500 119244.000000
1747 11983 1 0.16500 119244.000000
1747 13201 1 0.16500 119244.000000
1748 11983 1 0.16500 119244.000000
1748 15780 1 0.16500 119244.000000
1749 11711 1 0.16500 119244.000000
1749 15364 1 0.16500 119244.000000
1750 16667 1 0.16500 119244.000000
1750 17175 1 0.16500 119244.000000
1751 11984 1 0.16500 119244.000000
1751 19043 1 0.16500 119244.000000
1752 11984 1 0.16500 119244.000000
1752 14275 1 0.16500 119244.000000
1753 11984 1 0.16500 119244.000000
1753 14543 1 0.16500 119244.000000
1754 11985 1 0.16500 119244.000000
1754 16127 1 0.16500 119244.000000
1755 11985 1 0.16500 119244.000000
1755 15664 1 0.16500 119244.000000
1756 11985 1 0.16500 119244.000000
1756 18818 1 0.16500 119244.000000
1757 11985 1 0.16500 119244.000000
1757 13391 1 0.16500 119244.000000
1758 11986 1 0.16500 119244.000000
1758 16607 1 0.16500 119244.000000
1759 11986 1 0.16500 119244.000000
1759 14543 1 0.16500 119244.000000
1760 11986 1 0.16500 119244.000000
1760 16143 1 0.16500 119244.000000
1761 11987 1 0.16500 119244.000000
1761 13239 1 0.16500 119244.000000
1762 11987 1 0.16500 119244.000000
1762 15932 1 0.16500 119244.000000
1763 11987 1 0.16500 119244.000000
1763 12288 1 0.16500 119244.000000
1764 11988 1 0.16500 119244.000000
1764 12415 1 0.16500 119244.000000
1765 11988 1 0.16500 119244.000000
1765 14048 1 0.16500 119244.000000
1766 11988 1 0.16500 119244.000000
1766 12516 1 0.16500 119244.000000
1767 11988 1 0.16500 119244.000000
1767 12582 1 0.16500 119244.000000
1768 11989 1 0.16500 119244.000000
1768 14511 1 0.16500 119244.000000
1769 11989 1 0.16500 119244.000000
1769 13043 1 0.16500 119244.000000
1770 11989 1 0.16500 119244.000000
1770 12980 1 0.16500 119244.000000
1771 11989 1 0.16500 119244.000000
1771 14397 1 0.16500 119244.000000
1772 11990 1 0.16500 119244.000000
1772 18740 1 0.16500 119244.000000
1773 11990 1 0.16500 119244.000000
1773 12627 1 0.16500 119244.000000
1774 11990 1 0.16500 119244.000000
1774 14514 1 0.16500 119244.000000
1775 11990 1 0.16500 119244.000000
1775 14682 1 0.16500 119244.000000
1776 17002 1 0.16500 119244.000000
1776 18308 1 0.16500 119244.000000
1777 12922 1 0.16500 119244.000000
1777 18308 1 0.16500 119244.000000
1778 11991 1 0.16500 119244.000000
1778 14854 1 0.16500 119244.000000
1779 11991 1 0.16500 119244.000000
1779 13100 1 0.16500 119244.000000
1780 11991 1 0.16500 119244.000000
1780 16721 1 0.16500 119244.000000
1781 11992 1 0.16500 119244.000000
1781 19007 1 0.16500 119244.000000
1782 11992 1 0.16500 119244.000000
1782 13006 1 0.16500 119244.000000
1783 11992 1 0.16500 119244.000000
1783 14144 1 0.16500 119244.000000
1784 11992 1 0.16500 119244.000000
1784 16419 1 0.16500 119244.000000
1785 11993 1 0.16500 119244.000000
1785 14306 1 0.16500 119244.000000
1786 11993 1 0.16500 119244.000000
1786 15403 1 0.16500 119244.000000
1787 11993 1 0.16500 119244.000000
1787 15230 1 0.16500 119244.000000
1788 11994 1 0.16500 119244.000000
1788 15296 1 0.16500 119244.000000
1789 11994 1 0.16500 119244.000000
1789 14820 1 0.16500 119244.000000
1790 11994 1 0.16500 119244.000000
1790 15052 1 0.16500 119244.000000
1791 11994 1 0.16500 119244.000000
1791 13099 1 0.16500 119244.000000
1792 11995 1 0.16500 119244.000000
1792 13038 1 0.16500 119244.000000
1793 11995 1 0.16500 119244.000000
1793 13148 1 0.16500 119244.000000
1794 11995 1 0.16500 119244.000000
1794 14279 1 0.16500 119244.000000
1795 11996 1 0.16500 119244.000000
1795 13854 1 0.16500 119244.000000
1796 11996 1 0.16500 119244.000000
1796 15233 1 0.16500 119244.000000
1797 11996 1 0.16500 119244.000000
1797 16633 1 0.16500 119244.000000
1798 11996 1 0.16500 119244.000000
1798 14428 1 0.16500 119244.000000
1799 11997 1 0.16500 119244.000000
1799 14345 1 0.16500 119244.000000
1800 11997 1 0.16500 119244.000000
1800 13527 1 0.16500 119244.000000
1801 11997 1 0.16500 119244.000000
1801 12822 1 0.16500 119244.000000
1802 11997 1 0.16500 119244.000000
1802 12526 1 0.16500 119244.000000
1803 11998 1 0.16500 119244.000000
1803 12281 1 0.16500 119244.000000
1804 11998 1 0.16500 119244.000000
1804 14851 1 0.16500 119244.000000
1805 11998 1 0.16500 119244.000000
1805 17007 1 0.16500 119244.000000
1806 11998 1 0.16500 119244.000000
1806 14954 1 0.16500 119244.000000
1807 15373 1 0.16500 119244.000000
1807 17455 1 0.16500 119244.000000
1808 13518 1 0.16500 119244.000000
1808 17455 1 0.16500 119244.000000
1809 11999 1 0.16500 119244.000000
1809 12665 1 0.16500 119244.000000
1810 11999 1 0.16500 119244.000000
1810 12302 1 0.16500 119244.000000
1811 11999 1 0.16500 119244.000000
1811 13726 1 0.16500 119244.000000
1812 12000 1 0.16500 119244.000000
1812 13950 1 0.16500 119244.000000
1813 12000 1 0.16500 119244.000000
1813 12070 1 0.16500 119244.000000
1814 12000 1 0.16500 119244.000000
1814 14442 1 0.16500 119244.000000
1815 12001 1 0.16500 119244.000000
1815 12855 1 0.16500 119244.000000
1816 12001 1 0.16500 119244.000000
1816 13160 1 0.16500 119244.000000
1817 12001 1 0.16500 119244.000000
1817 14539 1 0.16500 119244.000000
1818 12001 1 0.16500 119244.000000
1818 16779 1 0.16500 119244.000000
1819 12002 1 0.16500 119244.000000
1819 12261 1 0.16500 119244.000000
1820 12002 1 0.16500 119244.000000
1820 13267 1 0.16500 119244.000000
1821 12002 1 0.16500 119244.000000
1821 15884 1 0.16500 119244.000000
1822 12003 1 0.16500 119244.000000
1822 13668 1 0.16500 119244.000000
1823 12003 1 0.16500 119244.000000
1823 15094 1 0.16500 119244.000000
1824 12003 1 0.16500 119244.000000
1824 17011 1 0.16500 119244.000000
1825 12004 1 0.16500 119244.000000
1825 15723 1 0.16500 119244.000000
1826 12004 1 0.16500 119244.000000
1826 16311 1 0.16500 119244.000000
1827 12004 1 0.16500 119244.000000
1827 14272 1 0.16500 119244.000000
1828 12004 1 0.16500 119244.000000
1828 16257 1 0.16500 119244.000000
1829 13648 1 0.16500 119244.000000
1829 18311 1 0.16500 119244.000000
1830 14008 1 0.16500 119244.000000
1830 18311 1 0.16500 119244.000000
1831 14237 1 0.16500 119244.000000
1831 18311 1 0.16500 119244.000000
1832 12005 1 0.16500 119244.000000
1832 14420 1 0.16500 119244.000000
1833 12005 1 0.16500 119244.000000
1833 12757 1 0.16500 119244.000000
1834 12005 1 0.16500 119244.000000
1834 15654 1 0.16500 119244.000000
1835 12005 1 0.16500 119244.000000
1835 15899 1 0.16500 119244.000000
1836 12006 1 0.16500 119244.000000
1836 13973 1 0.16500 119244.000000
1837 12006 1 0.16500 119244.000000
1837 13157 1 0.16500 119244.000000
1838 12006 1 0.16500 119244.000000
1838 16075 1 0.16500 119244.000000
1839 12007 1 0.16500 119244.000000
1839 14755 1 0.16500 119244.000000
1840 12007 1 0.16500 119244.000000
1840 13546 1 0.16500 119244.000000
1841 12007 1 0.16500 119244.000000
1841 12624 1 0.16500 119244.000000
1842 12007 1 0.16500 119244.000000
1842 14769 1 0.16500 119244.000000
1843 12008 1 0.16500 119244.000000
1843 16661 1 0.16500 119244.000000
1844 12008 1 0.16500 119244.000000
1844 16251 1 0.16500 119244.000000
1845 12008 1 0.16500 119244.000000
1845 12530 1 0.16500 119244.000000
1846 12008 1 0.16500 119244.000000
1846 15724 1 0.16500 119244.000000
1847 12009 1 0.16500 119244.000000
1847 12818 1 0.16500 119244.000000
1848 12009 1 0.16500 119244.000000
1848 12702 1 0.16500 119244.000000
1849 12009 1 0.16500 119244.000000
1849 12938 1 0.16500 119244.000000
1850 12009 1 0.16500 119244.000000
1850 14469 1 0.16500 119244.000000
1851 12010 1 0.16500 119244.000000
1851 14764 1 0.16500 119244.000000
1852 12010 1 0.16500 119244.000000
1852 13215 1 0.16500 119244.000000
1853 12010 1 0.16500 119244.000000
1853 16490 1 0.16500 119244.000000
1854 12010 1 0.16500 119244.000000
1854 12081 1 0.16500 119244.000000
1855 12011 1 0.16500 119244.000000
1855 15203 1 0.16500 119244.000000
1856 12011 1 0.16500 119244.000000
1856 15660 1 0.16500 119244.000000
1857 12011 1 0.16500 119244.000000
1857 15992 1 0.16500 119244.000000
1858 17771 1 0.16500 119244.000000
1858 17939 1 0.16500 119244.000000
1859 12012 1 0.16500 119244.000000
1859 15577 1 0.16500 119244.000000
1860 12012 1 0.16500 119244.000000
1860 15757 1 0.16500 119244.000000
1861 12012 1 0.16500 119244.000000
1861 12753 1 0.16500 119244.000000
1862 12012 1 0.16500 119244.000000
1862 13253 1 0.16500 119244.000000
1863 13118 1 0.16500 119244.000000
1863 18071 1 0.16500 119244.000000
1864 12985 1 0.16500 119244.000000
1864 18071 1 0.16500 119244.000000
1865 15269 1 0.16500 119244.000000
1865 18071 1 0.16500 119244.000000
1866 12013 1 0.16500 119244.000000
1866 16954 1 0.16500 119244.000000
1867 12013 1 0.16500 119244.000000
1867 15910 1 0.16500 119244.000000
1868 12014 1 0.16500 119244.000000
1868 14528 1 0.16500 119244.000000
1869 12014 1 0.16500 119244.000000
1869 16950 1 0.16500 119244.000000
1870 12014 1 0.16500 119244.000000
1870 16249 1 0.16500 119244.000000
1871 12014 1 0.16500 119244.000000
1871 16476 1 0.16500 119244.000000
1872 12015 1 0.16500 119244.000000
1872 13469 1 0.16500 119244.000000
1873 12015 1 0.16500 119244.000000
1873 12052 1 0.16500 119244.000000
1874 12015 1 0.16500 119244.000000
1874 14035 1 0.16500 119244.000000
1875 12015 1 0.16500 119244.000000
1875 16726 1 0.16500 119244.000000
1876 12016 1 0.16500 119244.000000
1876 16228 1 0.16500 119244.000000
1877 12016 1 0.16500 119244.000000
1877 15976 1 0.16500 119244.000000
1878 12016 1 0.16500 119244.000000
1878 16980 1 0.16500 119244.000000
1879 12017 1 0.16500 119244.000000
1879 14471 1 0.16500 119244.000000
1880 12017 1 0.16500 119244.000000
1880 16443 1 0.16500 119244.000000
1881 12017 1 0.16500 119244.000000
1881 13268 1 0.16500 119244.000000
1882 12017 1 0.16500 119244.000000
1882 12673 1 0.16500 119244.000000
1883 12018 1 0.16500 119244.000000
1883 14361 1 0.16500 119244.000000
1884 12018 1 0.16500 119244.000000
1884 13242 1 0.16500 119244.000000
1885 12018 1 0.16500 119244.000000
1885 14394 1 0.16500 119244.000000
1886 12019 1 0.16500 119244.000000
1886 12488 1 0.16500 119244.000000
1887 12019 1 0.16500 119244.000000
1887 14939 1 0.16500 119244.000000
1888 12019 1 0.16500 119244.000000
1888 13609 1 0.16500 119244.000000
1889 12020 1 0.16500 119244.000000
1889 14745 1 0.16500 119244.000000
1890 12020 1 0.16500 119244.000000
1890 16857 1 0.16500 119244.000000
1891 12020 1 0.16500 119244.000000
1891 13368 1 0.16500 119244.000000
1892 12021 1 0.16500 119244.000000
1892 14283 1 0.16500 119244.000000
1893 12021 1 0.16500 119244.000000
1893 15254 1 0.16500 119244.000000
1894 14283 1 0.16500 119244.000000
1894 16052 1 0.16500 119244.000000
1895 12021 1 0.16500 119244.000000
1895 16070 1 0.16500 119244.000000
1896 12022 1 0.16500 119244.000000
1896 13495 1 0.16500 119244.000000
1897 12022 1 0.16500 119244.000000
1897 16879 1 0.16500 119244.000000
1898 12023 1 0.16500 119244.000000
1898 12209 1 0.16500 119244.000000
1899 12023 1 0.16500 119244.000000
1899 14887 1 0.16500 119244.000000
1900 12023 1 0.16500 119244.000000
1900 14787 1 0.16500 119244.000000
1901 12023 1 0.16500 119244.000000
1901 16649 1 0.16500 119244.000000
1902 14716 1 0.16500 119244.000000
1902 17000 1 0.16500 119244.000000
1903 12024 1 0.16500 119244.000000
1903 13167 1 0.16500 119244.000000
1904 15875 1 0.16500 119244.000000
1904 16271 1 0.16500 119244.000000
1905 12024 1 0.16500 119244.000000
1905 14716 1 0.16500 119244.000000
1906 12025 1 0.16500 119244.000000
1906 15714 1 0.16500 119244.000000
1907 12025 1 0.16500 119244.000000
1907 14832 1 0.16500 119244.000000
1908 12025 1 0.16500 119244.000000
1908 16507 1 0.16500 119244.000000
1909 12025 1 0.16500 119244.000000
1909 12370 1 0.16500 119244.000000
1910 12026 1 0.16500 119244.000000
1910 13221 1 0.16500 119244.000000
1911 12026 1 0.16500 119244.000000
1911 14381 1 0.16500 119244.000000
1912 14381 1 0.16500 119244.000000
1912 15234 1 0.16500 119244.000000
1913 12026 1 0.16500 119244.000000
1913 14023 1 0.16500 119244.000000
1914 12027 1 0.16500 119244.000000
1914 16720 1 0.16500 119244.000000
1915 12027 1 0.16500 119244.000000
1915 16532 1 0.16500 119244.000000
1916 12027 1 0.16500 119244.000000
1916 13386 1 0.16500 119244.000000
1917 12027 1 0.16500 119244.000000
1917 12353 1 0.16500 119244.000000
1918 12028 1 0.16500 119244.000000
1918 15348 1 0.16500 119244.000000
1919 12028 1 0.16500 119244.000000
1919 13756 1 0.16500 119244.000000
1920 12029 1 0.16500 119244.000000
1920 16747 1 0.16500 119244.000000
1921 12029 1 0.16500 119244.000000
1921 15643 1 0.16500 119244.000000
1922 12029 1 0.16500 119244.000000
1922 19061 1 0.16500 119244.000000
1923 12029 1 0.16500 119244.000000
1923 13685 1 0.16500 119244.000000
1924 15682 1 0.16500 119244.000000
1924 16541 1 0.16500 119244.000000
1925 12030 1 0.16500 119244.000000
1925 15682 1 0.16500 119244.000000
1926 12030 1 0.16500 119244.000000
1926 18821 1 0.16500 119244.000000
1927 15068 1 0.16500 119244.000000
1927 18821 1 0.16500 119244.000000
1928 13170 1 0.16500 119244.000000
1928 16732 1 0.16500 119244.000000
1929 12031 1 0.16500 119244.000000
1929 12600 1 0.16500 119244.000000
1930 12152 1 0.16500 119244.000000
1930 16472 1 0.16500 119244.000000
1931 12031 1 0.16500 119244.000000
1931 13170 1 0.16500 119244.000000
1932 12032 1 0.16500 119244.000000
1932 16486 1 0.16500 119244.000000
1933 12032 1 0.16500 119244.000000
1933 16524 1 0.16500 119244.000000
1934 12032 1 0.16500 119244.000000
1934 15182 1 0.16500 119244.000000
1935 12032 1 0.16500 119244.000000
1935 15303 1 0.16500 119244.000000
1936 12033 1 0.16500 119244.000000
1936 14271 1 0.16500 119244.000000
1937 12033 1 0.16500 119244.000000
1937 12298 1 0.16500 119244.000000
1938 12033 1 0.16500 119244.000000
1938 13806 1 0.16500 119244.000000
1939 12509 1 0.16500 119244.000000
1939 14554 1 0.16500 119244.000000
1940 12034 1 0.16500 119244.000000
1940 12089 1 0.16500 119244.000000
1941 12034 1 0.16500 119244.000000
1941 13765 1 0.16500 119244.000000
1942 12034 1 0.16500 119244.000000
1942 16113 1 0.16500 119244.000000
1943 12035 1 0.16500 119244.000000
1943 12922 1 0.16500 119244.000000
1944 12035 1 0.16500 119244.000000
1944 17441 1 0.16500 119244.000000
1945 12035 1 0.16500 119244.000000
1945 18584 1 0.16500 119244.000000
1946 11629 1 0.16500 119244.000000
1946 12809 1 0.16500 119244.000000
1947 12036 1 0.16500 119244.000000
1947 15500 1 0.16500 119244.000000
1948 11629 1 0.16500 119244.000000
1948 14352 1 0.16500 119244.000000
1949 12037 1 0.16500 119244.000000
1949 15461 1 0.16500 119244.000000
1950 12037 1 0.16500 119244.000000
1950 13406 1 0.16500 119244.000000
1951 12037 1 0.16500 119244.000000
1951 16053 1 0.16500 119244.000000
1952 12038 1 0.16500 119244.000000
1952 13986 1 0.16500 119244.000000
1953 12038 1 0.16500 119244.000000
1953 14395 1 0.16500 119244.000000
1954 12038 1 0.16500 119244.000000
1954 14484 1 0.16500 119244.000000
1955 12038 1 0.16500 119244.000000
1955 13267 1 0.16500 119244.000000
1956 12039 1 0.16500 119244.000000
1956 12358 1 0.16500 119244.000000
1957 12039 1 0.16500 119244.000000
1957 12606 1 0.16500 119244.000000
1958 12039 1 0.16500 119244.000000
1958 13587 1 0.16500 119244.000000
1959 12039 1 0.16500 119244.000000
1959 13249 1 0.16500 119244.000000
1960 12040 1 0.16500 119244.000000
1960 19145 1 0.16500 119244.000000
1961 12040 1 0.16500 119244.000000
1961 14150 1 0.16500 119244.000000
1962 12040 1 0.16500 119244.000000
1962 13640 1 0.16500 119244.000000
1963 12040 1 0.16500 119244.000000
1963 13033 1 0.16500 119244.000000
1964 12041 1 0.16500 119244.000000
1964 12204 1 0.16500 119244.000000
1965 12041 1 0.16500 119244.000000
1965 14774 1 0.16500 119244.000000
1966 12041 1 0.16500 119244.000000
1966 16817 1 0.16500 119244.000000
1967 12041 1 0.16500 119244.000000
1967 16442 1 0.16500 119244.000000
1968 12042 1 0.16500 119244.000000
1968 16942 1 0.16500 119244.000000
1969 12042 1 0.16500 119244.000000
1969 15924 1 0.16500 119244.000000
1970 12042 1 0.16500 119244.000000
1970 18899 1 0.16500 119244.000000
1971 12043 1 0.16500 119244.000000
1971 15778 1 0.16500 119244.000000
1972 12043 1 0.16500 119244.000000
1972 18491 1 0.16500 119244.000000
1973 12043 1 0.16500 119244.000000
1973 16114 1 0.16500 119244.000000
1974 13793 1 0.16500 119244.000000
1974 16114 1 0.16500 119244.000000
1975 15002 1 0.16500 119244.000000
1975 16273 1 0.16500 119244.000000
1976 12044 1 0.16500 119244.000000
1976 15231 1 0.16500 119244.000000
1977 12044 1 0.16500 119244.000000
1977 16273 1 0.16500 119244.000000
1978 12044 1 0.16500 119244.000000
1978 12987 1 0.16500 119244.000000
1979 12045 1 0.16500 119244.000000
1979 12075 1 0.16500 119244.000000
1980 12045 1 0.16500 119244.000000
1980 12429 1 0.16500 119244.000000
1981 12045 1 0.16500 119244.000000
1981 13600 1 0.16500 119244.000000
1982 12045 1 0.16500 119244.000000
1982 15684 1 0.16500 119244.000000
1983 12046 1 0.16500 119244.000000
1983 13196 1 0.16500 119244.000000
1984 12046 1 0.16500 119244.000000
1984 17795 1 0.16500 119244.000000
1985 12046 1 0.16500 119244.000000
1985 14267 1 0.16500 119244.000000
1986 12046 1 0.16500 119244.000000
1986 18314 1 0.16500 119244.000000
1987 12047 1 0.16500 119244.000000
1987 12985 1 0.16500 119244.000000
1988 12047 1 0.16500 119244.000000
1988 12110 1 0.16500 119244.000000
1989 16311 1 0.16500 119244.000000
1989 16341 1 0.16500 119244.000000
1990 12047 1 0.16500 119244.000000
1990 16341 1 0.16500 119244.000000
1991 12048 1 0.16500 119244.000000
1991 14207 1 0.16500 119244.000000
1992 12048 1 0.16500 119244.000000
1992 16609 1 0.16500 119244.000000
1993 12048 1 0.16500 119244.000000
1993 16770 1 0.16500 119244.000000
1994 12048 1 0.16500 119244.000000
1994 12282 1 0.16500 119244.000000
1995 12049 1 0.16500 119244.000000
1995 14027 1 0.16500 119244.000000
1996 12049 1 0.16500 119244.000000
1996 13395 1 0.16500 119244.000000
1997 12049 1 0.16500 119244.000000
1997 14752 1 0.16500 119244.000000
1998 12049 1 0.16500 119244.000000
1998 15881 1 0.16500 119244.000000
1999 12050 1 0.16500 119244.000000
1999 15059 1 0.16500 119244.000000
2000 12050 1 0.16500 119244.000000
2000 13307 1 0.16500 119244.000000
2001 12050 1 0.16500 119244.000000
2001 14693 1 0.16500 119244.000000
2002 12050 1 0.16500 119244.000000
2002 15389 1 0.16500 119244.000000
2003 12051 1 0.16500 119244.000000
2003 12313 1 0.16500 119244.000000
2004 12051 1 0.16500 119244.000000
2004 14192 1 0.16500 119244.000000
2005 12051 1 0.16500 119244.000000
2005 15985 1 0.16500 119244.000000
2006 12052 1 0.16500 119244.000000
2006 16447 1 0.16500 119244.000000
2007 12052 1 0.16500 119244.000000
2007 15147 1 0.16500 119244.000000
2008 12052 1 0.16500 119244.000000
2008 14950 1 0.16500 119244.000000
2009 18734 1 0.16500 119244.000000
2009 19180 1 0.16500 119244.000000
2010 12053 1 0.16500 119244.000000
2010 15153 1 0.16500 119244.000000
2011 12053 1 0.16500 119244.000000
2011 13180 1 0.16500 119244.000000
2012 12053 1 0.16500 119244.000000
2012 13273 1 0.16500 119244.000000
2013 12053 1 0.16500 119244.000000
2013 13499 1 0.16500 119244.000000
2014 12054 1 0.16500 119244.000000
2014 12948 1 0.16500 119244.000000
2015 12054 1 0.16500 119244.000000
2015 13627 1 0.16500 119244.000000
2016 12054 1 0.16500 119244.000000
2016 16067 1 0.16500 119244.000000
2017 12054 1 0.16500 119244.000000
2017 13406 1 0.16500 119244.000000
2018 12055 1 0.16500 119244.000000
2018 13908 1 0.16500 119244.000000
2019 12055 1 0.16500 119244.000000
2019 15251 1 0.16500 119244.000000
2020 12056 1 0.16500 119244.000000
2020 15434 1 0.16500 119244.000000
2021 12056 1 0.16500 119244.000000
2021 12868 1 0.16500 119244.000000
2022 12056 1 0.16500 119244.000000
2022 12391 1 0.16500 119244.000000
2023 12057 1 0.16500 119244.000000
2023 13004 1 0.16500 119244.000000
2024 12057 1 0.16500 119244.000000
2024 15380 1 0.16500 119244.000000
2025 12057 1 0.16500 119244.000000
2025 13047 1 0.16500 119244.000000
2026 12057 1 0.16500 119244.000000
2026 17555 1 0.16500 119244.000000
2027 12058 1 0.16500 119244.000000
2027 12343 1 0.16500 119244.000000
2028 12058 1 0.16500 119244.000000
2028 16258 1 0.16500 119244.000000
2029 12059 1 0.16500 119244.000000
2029 13626 1 0.16500 119244.000000
2030 12059 1 0.16500 119244.000000
2030 15462 1 0.16500 119244.000000
2031 12059 1 0.16500 119244.000000
2031 15454 1 0.16500 119244.000000
2032 12059 1 0.16500 119244.000000
2032 12640 1 0.16500 119244.000000
2033 12060 1 0.16500 119244.000000
2033 14186 1 0.16500 119244.000000
2034 12060 1 0.16500 119244.000000
2034 16804 1 0.16500 119244.000000
2035 12060 1 0.16500 119244.000000
2035 15754 1 0.16500 119244.000000
2036 12060 1 0.16500 119244.000000
2036 19058 1 0.16500 119244.000000
2037 12061 1 0.16500 119244.000000
2037 15196 1 0.16500 119244.000000
2038 12061 1 0.16500 119244.000000
2038 15346 1 0.16500 119244.000000
2039 12061 1 0.16500 119244.000000
2039 15254 1 0.16500 119244.000000
2040 12061 1 0.16500 119244.000000
2040 12296 1 0.16500 119244.000000
2041 12062 1 0.16500 119244.000000
2041 16847 1 0.16500 119244.000000
2042 12062 1 0.16500 119244.000000
2042 16083 1 0.16500 119244.000000
2043 12063 1 0.16500 119244.000000
2043 18611 1 0.16500 119244.000000
2044 12063 1 0.16500 119244.000000
2044 15545 1 0.16500 119244.000000
2045 12063 1 0.16500 119244.000000
2045 13350 1 0.16500 119244.000000
2046 12064 1 0.16500 119244.000000
2046 17133 1 0.16500 119244.000000
2047 12064 1 0.16500 119244.000000
2047 18824 1 0.16500 119244.000000
2048 12064 1 0.16500 119244.000000
2048 15587 1 0.16500 119244.000000
2049 12065 1 0.16500 119244.000000
2049 13332 1 0.16500 119244.000000
2050 12065 1 0.16500 119244.000000
2050 15717 1 0.16500 119244.000000
2051 12065 1 0.16500 119244.000000
2051 13729 1 0.16500 119244.000000
2052 12065 1 0.16500 119244.000000
2052 13409 1 0.16500 119244.000000
2053 12066 1 0.16500 119244.000000
2053 12071 1 0.16500 119244.000000
2054 12066 1 0.16500 119244.000000
2054 13360 1 0.16500 119244.000000
2055 12067 1 0.16500 119244.000000
2055 12355 1 0.16500 119244.000000
2056 12067 1 0.16500 119244.000000
2056 16380 1 0.16500 119244.000000
2057 12067 1 0.16500 119244.000000
2057 16527 1 0.16500 119244.000000
2058 12067 1 0.16500 119244.000000
2058 12274 1 0.16500 119244.000000
2059 12068 1 0.16500 119244.000000
2059 13535 1 0.16500 119244.000000
2060 12068 1 0.16500 119244.000000
2060 12357 1 0.16500 119244.000000
2061 12068 1 0.16500 119244.000000
2061 14455 1 0.16500 119244.000000
2062 12069 1 0.16500 119244.000000
2062 16304 1 0.16500 119244.000000
2063 12069 1 0.16500 119244.000000
2063 15412 1 0.16500 119244.000000
2064 12069 1 0.16500 119244.000000
2064 12540 1 0.16500 119244.000000
2065 12069 1 0.16500 119244.000000
2065 16007 1 0.16500 119244.000000
2066 17723 1 0.16500 119244.000000
2066 18314 1 0.16500 119244.000000
2067 12070 1 0.16500 119244.000000
2067 13792 1 0.16500 119244.000000
2068 12070 1 0.16500 119244.000000
2068 15661 1 0.16500 119244.000000
2069 12070 1 0.16500 119244.000000
2069 13188 1 0.16500 119244.000000
2070 12071 1 0.16500 119244.000000
2070 12129 1 0.16500 119244.000000
2071 12071 1 0.16500 119244.000000
2071 14710 1 0.16500 119244.000000
2072 12072 1 0.16500 119244.000000
2072 14151 1 0.16500 119244.000000
2073 12072 1 0.16500 119244.000000
2073 15291 1 0.16500 119244.000000
2074 11740 1 0.16500 119244.000000
2074 16195 1 0.16500 119244.000000
2075 12073 1 0.16500 119244.000000
2075 12622 1 0.16500 119244.000000
2076 12073 1 0.16500 119244.000000
2076 14667 1 0.16500 119244.000000
2077 12073 1 0.16500 119244.000000
2077 15506 1 0.16500 119244.000000
2078 12073 1 0.16500 119244.000000
2078 16912 1 0.16500 119244.000000
2079 12074 1 0.16500 119244.000000
2079 14400 1 0.16500 119244.000000
2080 12074 1 0.16500 119244.000000
2080 15153 1 0.16500 119244.000000
2081 12074 1 0.16500 119244.000000
2081 13116 1 0.16500 119244.000000
2082 12075 1 0.16500 119244.000000
2082 12528 1 0.16500 119244.000000
2083 12075 1 0.16500 119244.000000
2083 16574 1 0.16500 119244.000000
2084 12076 1 0.16500 119244.000000
2084 14721 1 0.16500 119244.000000
2085 12076 1 0.16500 119244.000000
2085 15093 1 0.16500 119244.000000
2086 12076 1 0.16500 119244.000000
2086 16475 1 0.16500 119244.000000
2087 12076 1 0.16500 119244.000000
2087 13052 1 0.16500 119244.000000
2088 12077 1 0.16500 119244.000000
2088 12529 1 0.16500 119244.000000
2089 12077 1 0.16500 119244.000000
2089 13914 1 0.16500 119244.000000
2090 12077 1 0.16500 119244.000000
2090 13315 1 0.16500 119244.000000
2091 12077 1 0.16500 119244.000000
2091 14140 1 0.16500 119244.000000
2092 12078 1 0.16500 119244.000000
2092 16192 1 0.16500 119244.000000
2093 12078 1 0.16500 119244.000000
2093 13929 1 0.16500 119244.000000
2094 12078 1 0.16500 119244.000000
2094 15119 1 0.16500 119244.000000
2095 12078 1 0.16500 119244.000000
2095 18398 1 0.16500 119244.000000
2096 12079 1 0.16500 119244.000000
2096 14741 1 0.16500 119244.000000
2097 12079 1 0.16500 119244.000000
2097 18404 1 0.16500 119244.000000
2098 12080 1 0.16500 119244.000000
2098 16818 1 0.16500 119244.000000
2099 16818 1 0.16500 119244.000000
2099 18857 1 0.16500 119244.000000
2100 12080 1 0.16500 119244.000000
2100 15906 1 0.16500 119244.000000
2101 12081 1 0.16500 119244.000000
2101 12104 1 0.16500 119244.000000
2102 12081 1 0.16500 119244.000000
2102 16220 1 0.16500 119244.000000
2103 12081 1 0.16500 119244.000000
2103 16219 1 0.16500 119244.000000
2104 12082 1 0.16500 119244.000000
2104 16695 1 0.16500 119244.000000
2105 12082 1 0.16500 119244.000000
2105 13685 1 0.16500 119244.000000
2106 12082 1 0.16500 119244.000000
2106 16482 1 0.16500 119244.000000
2107 17843 1 0.16500 119244.000000
2107 19100 1 0.16500 119244.000000
2108 16836 1 0.16500 119244.000000
2108 19100 1 0.16500 119244.000000
2109 12083 1 0.16500 119244.000000
2109 12976 1 0.16500 119244.000000
2110 12083 1 0.16500 119244.000000
2110 16209 1 0.16500 119244.000000
2111 12083 1 0.16500 119244.000000
2111 14879 1 0.16500 119244.000000
2112 12083 1 0.16500 119244.000000
2112 15292 1 0.16500 119244.000000
2113 12084 1 0.16500 119244.000000
2113 16394 1 0.16500 119244.000000
2114 12084 1 0.16500 119244.000000
2114 13189 1 0.16500 119244.000000
2115 12084 1 0.16500 119244.000000
2115 13728 1 0.16500 119244.000000
2116 12084 1 0.16500 119244.000000
2116 15573 1 0.16500 119244.000000
2117 12337 1 0.16500 119244.000000
2117 14079 1 0.16500 119244.000000
2118 12085 1 0.16500 119244.000000
2118 14079 1 0.16500 119244.000000
2119 12085 1 0.16500 119244.000000
2119 16379 1 0.16500 119244.000000
2120 12085 1 0.16500 119244.000000
2120 14301 1 0.16500 119244.000000
2121 12086 1 0.16500 119244.000000
2121 14236 1 0.16500 119244.000000
2122 12086 1 0.16500 119244.000000
2122 13682 1 0.16500 119244.000000
2123 12086 1 0.16500 119244.000000
2123 12942 1 0.16500 119244.000000
2124 12086 1 0.16500 119244.000000
2124 16871 1 0.16500 119244.000000
2125 12087 1 0.16500 119244.000000
2125 16915 1 0.16500 119244.000000
2126 12087 1 0.16500 119244.000000
2126 13399 1 0.16500 119244.000000
2127 12088 1 0.16500 119244.000000
2127 12496 1 0.16500 119244.000000
2128 12088 1 0.16500 119244.000000
2128 12796 1 0.16500 119244.000000
2129 12088 1 0.16500 119244.000000
2129 16514 1 0.16500 119244.000000
2130 12088 1 0.16500 119244.000000
2130 15854 1 0.16500 119244.000000
2131 12089 1 0.16500 119244.000000
2131 15168 1 0.16500 119244.000000
2132 12089 1 0.16500 119244.000000
2132 14599 1 0.16500 119244.000000
2133 12090 1 0.16500 119244.000000
2133 12151 1 0.16500 119244.000000
2134 12090 1 0.16500 119244.000000
2134 13568 1 0.16500 119244.000000
2135 12090 1 0.16500 119244.000000
2135 15580 1 0.16500 119244.000000
2136 12090 1 0.16500 119244.000000
2136 13920 1 0.16500 119244.000000
2137 12091 1 0.16500 119244.000000
2137 14411 1 0.16500 119244.000000
2138 12091 1 0.16500 119244.000000
2138 15966 1 0.16500 119244.000000
2139 12091 1 0.16500 119244.000000
2139 18350 1 0.16500 119244.000000
2140 12092 1 0.16500 119244.000000
2140 14110 1 0.16500 119244.000000
2141 12092 1 0.16500 119244.000000
2141 13303 1 0.16500 119244.000000
2142 12092 1 0.16500 119244.000000
2142 12960 1 0.16500 119244.000000
2143 12092 1 0.16500 119244.000000
2143 15468 1 0.16500 119244.000000
2144 12093 1 0.16500 119244.000000
2144 16686 1 0.16500 119244.000000
2145 12093 1 0.16500 119244.000000
2145 13296 1 0.16500 119244.000000
2146 12093 1 0.16500 119244.000000
2146 13776 1 0.16500 119244.000000
2147 12093 1 0.16500 119244.000000
2147 13329 1 0.16500 119244.000000
2148 12094 1 0.16500 119244.000000
2148 19155 1 0.16500 119244.000000
2149 12095 1 0.16500 119244.000000
2149 13700 1 0.16500 119244.000000
2150 12095 1 0.16500 119244.000000
2150 16788 1 0.16500 119244.000000
2151 12095 1 0.16500 119244.000000
2151 15306 1 0.16500 119244.000000
2152 12096 1 0.16500 119244.000000
2152 16181 1 0.16500 119244.000000
2153 12096 1 0.16500 119244.000000
2153 16461 1 0.16500 119244.000000
2154 12096 1 0.16500 119244.000000
2154 15469 1 0.16500 119244.000000
2155 12096 1 0.16500 119244.000000
2155 16708 1 0.16500 119244.000000
2156 12097 1 0.16500 119244.000000
2156 16256 1 0.16500 119244.000000
2157 12097 1 0.16500 119244.000000
2157 16696 1 0.16500 119244.000000
2158 12097 1 0.16500 119244.000000
2158 14066 1 0.16500 119244.000000
2159 12098 1 0.16500 119244.000000
2159 14700 1 0.16500 119244.000000
2160 12098 1 0.16500 119244.000000
2160 12775 1 0.16500 119244.000000
2161 12099 1 0.16500 119244.000000
2161 12961 1 0.16500 119244.000000
2162 12099 1 0.16500 119244.000000
2162 16890 1 0.16500 119244.000000
2163 13292 1 0.16500 119244.000000
2163 14681 1 0.16500 119244.000000
2164 12099 1 0.16500 119244.000000
2164 13292 1 0.16500 119244.000000
2165 14554 1 0.16500 119244.000000
2165 18317 1 0.16500 119244.000000
2166 14196 1 0.16500 119244.000000
2166 18317 1 0.16500 119244.000000
2167 12100 1 0.16500 119244.000000
2167 15692 1 0.16500 119244.000000
2168 12100 1 0.16500 119244.000000
2168 14728 1 0.16500 119244.000000
2169 12100 1 0.16500 119244.000000
2169 15751 1 0.16500 119244.000000
2170 12100 1 0.16500 119244.000000
2170 14872 1 0.16500 119244.000000
2171 12101 1 0.16500 119244.000000
2171 13595 1 0.16500 119244.000000
2172 12101 1 0.16500 119244.000000
2172 14970 1 0.16500 119244.000000
2173 12101 1 0.16500 119244.000000
2173 16849 1 0.16500 119244.000000
2174 12101 1 0.16500 119244.000000
2174 15789 1 0.16500 119244.000000
2175 12102 1 0.16500 119244.000000
2175 12971 1 0.16500 119244.000000
2176 14890 1 0.16500 119244.000000
2176 16831 1 0.16500 119244.000000
2177 12102 1 0.16500 119244.000000
2177 18689 1 0.16500 119244.000000
2178 12102 1 0.16500 119244.000000
2178 16831 1 0.16500 119244.000000
2179 12103 1 0.16500 119244.000000
2179 15656 1 0.16500 119244.000000
2180 12103 1 0.16500 119244.000000
2180 14685 1 0.16500 119244.000000
2181 12104 1 0.16500 119244.000000
2181 16144 1 0.16500 119244.000000
2182 12104 1 0.16500 119244.000000
2182 14305 1 0.16500 119244.000000
2183 12104 1 0.16500 119244.000000
2183 14133 1 0.16500 119244.000000
2184 12105 1 0.16500 119244.000000
2184 12760 1 0.16500 119244.000000
2185 12105 1 0.16500 119244.000000
2185 14950 1 0.16500 119244.000000
2186 12105 1 0.16500 119244.000000
2186 16956 1 0.16500 119244.000000
2187 12105 1 0.16500 119244.000000
2187 14468 1 0.16500 119244.000000
2188 12106 1 0.16500 119244.000000
2188 12996 1 0.16500 119244.000000
2189 12106 1 0.16500 119244.000000
2189 16536 1 0.16500 119244.000000
2190 12106 1 0.16500 119244.000000
2190 12553 1 0.16500 119244.000000
2191 12106 1 0.16500 119244.000000
2191 14118 1 0.16500 119244.000000
2192 12107 1 0.16500 119244.000000
2192 16948 1 0.16500 119244.000000
2193 12107 1 0.16500 119244.000000
2193 16731 1 0.16500 119244.000000
2194 15736 1 0.16500 119244.000000
2194 16754 1 0.16500 119244.000000
2195 12107 1 0.16500 119244.000000
2195 16754 1 0.16500 119244.000000
2196 12108 1 0.16500 119244.000000
2196 16174 1 0.16500 119244.000000
2197 12108 1 0.16500 119244.000000
2197 15953 1 0.16500 119244.000000
2198 12108 1 0.16500 119244.000000
2198 16426 1 0.16500 119244.000000
2199 12108 1 0.16500 119244.000000
2199 15474 1 0.16500 119244.000000
2200 15609 1 0.16500 119244.000000
2200 18320 1 0.16500 119244.000000
2201 15258 1 0.16500 119244.000000
2201 18320 1 0.16500 119244.000000
2202 12109 1 0.16500 119244.000000
2202 12938 1 0.16500 119244.000000
2203 12109 1 0.16500 119244.000000
2203 12912 1 0.16500 119244.000000
2204 12109 1 0.16500 119244.000000
2204 16461 1 0.16500 119244.000000
2205 12109 1 0.16500 119244.000000
2205 14082 1 0.16500 119244.000000
2206 12110 1 0.16500 119244.000000
2206 16318 1 0.16500 119244.000000
2207 12110 1 0.16500 119244.000000
2207 13282 1 0.16500 119244.000000
2208 12110 1 0.16500 119244.000000
2208 12117 1 0.16500 119244.000000
2209 12111 1 0.16500 119244.000000
2209 15467 1 0.16500 119244.000000
2210 12111 1 0.16500 119244.000000
2210 13155 1 0.16500 119244.000000
2211 12111 1 0.16500 119244.000000
2211 13093 1 0.16500 119244.000000
2212 12112 1 0.16500 119244.000000
2212 13320 1 0.16500 119244.000000
2213 12112 1 0.16500 119244.000000
2213 15648 1 0.16500 119244.000000
2214 12112 1 0.16500 119244.000000
2214 12781 1 0.16500 119244.000000
2215 12112 1 0.16500 119244.000000
2215 16940 1 0.16500 119244.000000
2216 12113 1 0.16500 119244.000000
2216 12525 1 0.16500 119244.000000
2217 12113 1 0.16500 119244.000000
2217 12755 1 0.16500 119244.000000
2218 12114 1 0.16500 119244.000000
2218 15644 1 0.16500 119244.000000
2219 12114 1 0.16500 119244.000000
2219 12801 1 0.16500 119244.000000
2220 12114 1 0.16500 119244.000000
2220 15897 1 0.16500 119244.000000
2221 12114 1 0.16500 119244.000000
2221 16145 1 0.16500 119244.000000
2222 12115 1 0.16500 119244.000000
2222 13420 1 0.16500 119244.000000
2223 12115 1 0.16500 119244.000000
2223 15550 1 0.16500 119244.000000
2224 12115 1 0.16500 119244.000000
2224 14029 1 0.16500 119244.000000
2225 12115 1 0.16500 119244.000000
2225 14827 1 0.16500 119244.000000
2226 12116 1 0.16500 119244.000000
2226 13643 1 0.16500 119244.000000
2227 12116 1 0.16500 119244.000000
2227 16048 1 0.16500 119244.000000
2228 12116 1 0.16500 119244.000000
2228 15820 1 0.16500 119244.000000
2229 12116 1 0.16500 119244.000000
2229 13632 1 0.16500 119244.000000
2230 12117 1 0.16500 119244.000000
2230 15380 1 0.16500 119244.000000
2231 12117 1 0.16500 119244.000000
2231 16257 1 0.16500 119244.000000
2232 12117 1 0.16500 119244.000000
2232 13118 1 0.16500 119244.000000
2233 12118 1 0.16500 119244.000000
2233 12649 1 0.16500 119244.000000
2234 12118 1 0.16500 119244.000000
2234 13071 1 0.16500 119244.000000
2235 12119 1 0.16500 119244.000000
2235 14145 1 0.16500 119244.000000
2236 12119 1 0.16500 119244.000000
2236 13101 1 0.16500 119244.000000
2237 12119 1 0.16500 119244.000000
2237 15118 1 0.16500 119244.000000
2238 12119 1 0.16500 119244.000000
2238 13630 1 0.16500 119244.000000
2239 12120 1 0.16500 119244.000000
2239 15320 1 0.16500 119244.000000
2240 12120 1 0.16500 119244.000000
2240 18608 1 0.16500 119244.000000
2241 12120 1 0.16500 119244.000000
2241 12678 1 0.16500 119244.000000
2242 12121 1 0.16500 119244.000000
2242 16444 1 0.16500 119244.000000
2243 12121 1 0.16500 119244.000000
2243 14000 1 0.16500 119244.000000
2244 12121 1 0.16500 119244.000000
2244 13115 1 0.16500 119244.000000
2245 12121 1 0.16500 119244.000000
2245 16232 1 0.16500 119244.000000
2246 12122 1 0.16500 119244.000000
2246 19130 1 0.16500 119244.000000
2247 12122 1 0.16500 119244.000000
2247 16927 1 0.16500 119244.000000
2248 12122 1 0.16500 119244.000000
2248 13332 1 0.16500 119244.000000
2249 12122 1 0.16500 119244.000000
2249 15290 1 0.16500 119244.000000
2250 12123 1 0.16500 119244.000000
2250 14852 1 0.16500 119244.000000
2251 12123 1 0.16500 119244.000000
2251 13190 1 0.16500 119244.000000
2252 12123 1 0.16500 119244.000000
2252 15917 1 0.16500 119244.000000
2253 12124 1 0.16500 119244.000000
2253 15201 1 0.16500 119244.000000
2254 12124 1 0.16500 119244.000000
2254 13802 1 0.16500 119244.000000
2255 12124 1 0.16500 119244.000000
2255 13879 1 0.16500 119244.000000
2256 12124 1 0.16500 119244.000000
2256 14226 1 0.16500 119244.000000
2257 12125 1 0.16500 119244.000000
2257 13125 1 0.16500 119244.000000
2258 12125 1 0.16500 119244.000000
2258 14894 1 0.16500 119244.000000
2259 12125 1 0.16500 119244.000000
2259 16424 1 0.16500 119244.000000
2260 12125 1 0.16500 119244.000000
2260 13693 1 0.16500 119244.000000
2261 12126 1 0.16500 119244.000000
2261 15056 1 0.16500 119244.000000
2262 12126 1 0.16500 119244.000000
2262 16506 1 0.16500 119244.000000
2263 12126 1 0.16500 119244.000000
2263 13256 1 0.16500 119244.000000
2264 12126 1 0.16500 119244.000000
2264 15324 1 0.16500 119244.000000
2265 12127 1 0.16500 119244.000000
2265 14937 1 0.16500 119244.000000
2266 12127 1 0.16500 119244.000000
2266 13470 1 0.16500 119244.000000
2267 12127 1 0.16500 119244.000000
2267 13997 1 0.16500 119244.000000
2268 12127 1 0.16500 119244.000000
2268 12559 1 0.16500 119244.000000
2269 12320 1 0.16500 119244.000000
2269 16882 1 0.16500 119244.000000
2270 12128 1 0.16500 119244.000000
2270 16882 1 0.16500 119244.000000
2271 12128 1 0.16500 119244.000000
2271 16736 1 0.16500 119244.000000
2272 12128 1 0.16500 119244.000000
2272 12363 1 0.16500 119244.000000
2273 12129 1 0.16500 119244.000000
2273 12837 1 0.16500 119244.000000
2274 12129 1 0.16500 119244.000000
2274 15227 1 0.16500 119244.000000
2275 12129 1 0.16500 119244.000000
2275 15501 1 0.16500 119244.000000
2276 12130 1 0.16500 119244.000000
2276 14630 1 0.16500 119244.000000
2277 12130 1 0.16500 119244.000000
2277 13139 1 0.16500 119244.000000
2278 12130 1 0.16500 119244.000000
2278 13634 1 0.16500 119244.000000
2279 12130 1 0.16500 119244.000000
2279 16662 1 0.16500 119244.000000
2280 12131 1 0.16500 119244.000000
2280 15640 1 0.16500 119244.000000
2281 12131 1 0.16500 119244.000000
2281 14065 1 0.16500 119244.000000
2282 12131 1 0.16500 119244.000000
2282 15805 1 0.16500 119244.000000
2283 12131 1 0.16500 119244.000000
2283 15967 1 0.16500 119244.000000
2284 12132 1 0.16500 119244.000000
2284 13763 1 0.16500 119244.000000
2285 12132 1 0.16500 119244.000000
2285 13778 1 0.16500 119244.000000
2286 12132 1 0.16500 119244.000000
2286 12447 1 0.16500 119244.000000
2287 12132 1 0.16500 119244.000000
2287 15226 1 0.16500 119244.000000
2288 12133 1 0.16500 119244.000000
2288 14621 1 0.16500 119244.000000
2289 12133 1 0.16500 119244.000000
2289 12790 1 0.16500 119244.000000
2290 12133 1 0.16500 119244.000000
2290 15155 1 0.16500 119244.000000
2291 12134 1 0.16500 119244.000000
2291 16873 1 0.16500 119244.000000
2292 12134 1 0.16500 119244.000000
2292 14831 1 0.16500 119244.000000
2293 12134 1 0.16500 119244.000000
2293 14948 1 0.16500 119244.000000
2294 12134 1 0.16500 119244.000000
2294 12374 1 0.16500 119244.000000
2295 12135 1 0.16500 119244.000000
2295 15720 1 0.16500 119244.000000
2296 12136 1 0.16500 119244.000000
2296 12924 1 0.16500 119244.000000
2297 12136 1 0.16500 119244.000000
2297 12913 1 0.16500 119244.000000
2298 12136 1 0.16500 119244.000000
2298 14754 1 0.16500 119244.000000
2299 14058 1 0.16500 119244.000000
2299 18323 1 0.16500 119244.000000
2300 12137 1 0.16500 119244.000000
2300 16668 1 0.16500 119244.000000
2301 12137 1 0.16500 119244.000000
2301 15286 1 0.16500 119244.000000
2302 12137 1 0.16500 119244.000000
2302 12356 1 0.16500 119244.000000
2303 12137 1 0.16500 119244.000000
2303 14147 1 0.16500 119244.000000
2304 12138 1 0.16500 119244.000000
2304 14033 1 0.16500 119244.000000
2305 12139 1 0.16500 119244.000000
2305 16566 1 0.16500 119244.000000
2306 12139 1 0.16500 119244.000000
2306 14368 1 0.16500 119244.000000
2307 12139 1 0.16500 119244.000000
2307 13369 1 0.16500 119244.000000
2308 12139 1 0.16500 119244.000000
2308 16174 1 0.16500 119244.000000
2309 12140 1 0.16500 119244.000000
2309 12674 1 0.16500 119244.000000
2310 12140 1 0.16500 119244.000000
2310 15898 1 0.16500 119244.000000
2311 12140 1 0.16500 119244.000000
2311 15501 1 0.16500 119244.000000
2312 12140 1 0.16500 119244.000000
2312 15996 1 0.16500 119244.000000
2313 12141 1 0.16500 119244.000000
2313 16719 1 0.16500 119244.000000
2314 12141 1 0.16500 119244.000000
2314 13644 1 0.16500 119244.000000
2315 12141 1 0.16500 119244.000000
2315 14009 1 0.16500 119244.000000
2316 12141 1 0.16500 119244.000000
2316 15555 1 0.16500 119244.000000
2317 12142 1 0.16500 119244.000000
2317 16587 1 0.16500 119244.000000
2318 12142 1 0.16500 119244.000000
2318 16613 1 0.16500 119244.000000
2319 12142 1 0.16500 119244.000000
2319 13670 1 0.16500 119244.000000
2320 12142 1 0.16500 119244.000000
2320 12892 1 0.16500 119244.000000
2321 12144 1 0.16500 119244.000000
2321 14459 1 0.16500 119244.000000
2322 12144 1 0.16500 119244.000000
2322 15088 1 0.16500 119244.000000
2323 12144 1 0.16500 119244.000000
2323 15655 1 0.16500 119244.000000
2324 17675 1 0.16500 119244.000000
2324 18470 1 0.16500 119244.000000
2325 15238 1 0.16500 119244.000000
2325 17675 1 0.16500 119244.000000
2326 12145 1 0.16500 119244.000000
2326 13725 1 0.16500 119244.000000
2327 12145 1 0.16500 119244.000000
2327 13377 1 0.16500 119244.000000
2328 12145 1 0.16500 119244.000000
2328 12199 1 0.16500 119244.000000
2329 12145 1 0.16500 119244.000000
2329 14205 1 0.16500 119244.000000
2330 12146 1 0.16500 119244.000000
2330 14893 1 0.16500 119244.000000
2331 12146 1 0.16500 119244.000000
2331 16867 1 0.16500 119244.000000
2332 14056 1 0.16500 119244.000000
2332 14893 1 0.16500 119244.000000
2333 12147 1 0.16500 119244.000000
2333 12581 1 0.16500 119244.000000
2334 12147 1 0.16500 119244.000000
2334 12412 1 0.16500 119244.000000
2335 12147 1 0.16500 119244.000000
2335 14631 1 0.16500 119244.000000
2336 12147 1 0.16500 119244.000000
2336 15079 1 0.16500 119244.000000
2337 15275 1 0.16500 119244.000000
2337 15731 1 0.16500 119244.000000
2338 11950 1 0.16500 119244.000000
2338 12148 1 0.16500 119244.000000
2339 15731 1 0.16500 119244.000000
2339 16574 1 0.16500 119244.000000
2340 12148 1 0.16500 119244.000000
2340 15731 1 0.16500 119244.000000
2341 12149 1 0.16500 119244.000000
2341 15471 1 0.16500 119244.000000
2342 12649 1 0.16500 119244.000000
2342 14895 1 0.16500 119244.000000
2343 12149 1 0.16500 119244.000000
2343 14895 1 0.16500 119244.000000
2344 12150 1 0.16500 119244.000000
2344 12780 1 0.16500 119244.000000
2345 12150 1 0.16500 119244.000000
2345 13501 1 0.16500 119244.000000
2346 12150 1 0.16500 119244.000000
2346 16523 1 0.16500 119244.000000
2347 12150 1 0.16500 119244.000000
2347 15472 1 0.16500 119244.000000
2348 12151 1 0.16500 119244.000000
2348 13704 1 0.16500 119244.000000
2349 12151 1 0.16500 119244.000000
2349 16354 1 0.16500 119244.000000
2350 12152 1 0.16500 119244.000000
2350 13170 1 0.16500 119244.000000
2351 12152 1 0.16500 119244.000000
2351 14617 1 0.16500 119244.000000
2352 13170 1 0.16500 119244.000000
2352 15826 1 0.16500 119244.000000
2353 12152 1 0.16500 119244.000000
2353 15712 1 0.16500 119244.000000
2354 12153 1 0.16500 119244.000000
2354 16433 1 0.16500 119244.000000
2355 12153 1 0.16500 119244.000000
2355 16603 1 0.16500 119244.000000
2356 12153 1 0.16500 119244.000000
2356 13095 1 0.16500 119244.000000
2357 12153 1 0.16500 119244.000000
2357 13944 1 0.16500 119244.000000
2358 12154 1 0.16500 119244.000000
2358 13326 1 0.16500 119244.000000
2359 12154 1 0.16500 119244.000000
2359 14377 1 0.16500 119244.000000
2360 12154 1 0.16500 119244.000000
2360 14541 1 0.16500 119244.000000
2361 12154 1 0.16500 119244.000000
2361 15021 1 0.16500 119244.000000
2362 12155 1 0.16500 119244.000000
2362 13644 1 0.16500 119244.000000
2363 12155 1 0.16500 119244.000000
2363 15064 1 0.16500 119244.000000
2364 12155 1 0.16500 119244.000000
2364 15123 1 0.16500 119244.000000
2365 12155 1 0.16500 119244.000000
2365 12467 1 0.16500 119244.000000
2366 12156 1 0.16500 119244.000000
2366 13809 1 0.16500 119244.000000
2367 12156 1 0.16500 119244.000000
2367 15624 1 0.16500 119244.000000
2368 12156 1 0.16500 119244.000000
2368 13915 1 0.16500 119244.000000
2369 12156 1 0.16500 119244.000000
2369 13644 1 0.16500 119244.000000
2370 12157 1 0.16500 119244.000000
2370 15196 1 0.16500 119244.000000
2371 12157 1 0.16500 119244.000000
2371 14774 1 0.16500 119244.000000
2372 12157 1 0.16500 119244.000000
2372 13514 1 0.16500 119244.000000
2373 12157 1 0.16500 119244.000000
2373 16223 1 0.16500 119244.000000
2374 12158 1 0.16500 119244.000000
2374 15156 1 0.16500 119244.000000
2375 12158 1 0.16500 119244.000000
2375 12752 1 0.16500 119244.000000
2376 12158 1 0.16500 119244.000000
2376 15159 1 0.16500 119244.000000
2377 12158 1 0.16500 119244.000000
2377 14029 1 0.16500 119244.000000
2378 12159 1 0.16500 119244.000000
2378 12163 1 0.16500 119244.000000
2379 12159 1 0.16500 119244.000000
2379 14568 1 0.16500 119244.000000
2380 12159 1 0.16500 119244.000000
2380 13497 1 0.16500 119244.000000
2381 12159 1 0.16500 119244.000000
2381 13550 1 0.16500 119244.000000
2382 12160 1 0.16500 119244.000000
2382 15033 1 0.16500 119244.000000
2383 12160 1 0.16500 119244.000000
2383 14625 1 0.16500 119244.000000
2384 12160 1 0.16500 119244.000000
2384 16694 1 0.16500 119244.000000
2385 12160 1 0.16500 119244.000000
2385 13261 1 0.16500 119244.000000
2386 12161 1 0.16500 119244.000000
2386 15256 1 0.16500 119244.000000
2387 12161 1 0.16500 119244.000000
2387 14409 1 0.16500 119244.000000
2388 12161 1 0.16500 119244.000000
2388 13075 1 0.16500 119244.000000
2389 12161 1 0.16500 119244.000000
2389 16991 1 0.16500 119244.000000
2390 12162 1 0.16500 119244.000000
2390 16052 1 0.16500 119244.000000
2391 12162 1 0.16500 119244.000000
2391 14454 1 0.16500 119244.000000
2392 12162 1 0.16500 119244.000000
2392 15488 1 0.16500 119244.000000
2393 12162 1 0.16500 119244.000000
2393 15196 1 0.16500 119244.000000
2394 12163 1 0.16500 119244.000000
2394 13295 1 0.16500 119244.000000
2395 12163 1 0.16500 119244.000000
2395 16853 1 0.16500 119244.000000
2396 12163 1 0.16500 119244.000000
2396 12377 1 0.16500 119244.000000
2397 16268 1 0.16500 119244.000000
2397 16853 1 0.16500 119244.000000
2398 12164 1 0.16500 119244.000000
2398 16343 1 0.16500 119244.000000
2399 12164 1 0.16500 119244.000000
2399 15554 1 0.16500 119244.000000
2400 12164 1 0.16500 119244.000000
2400 12207 1 0.16500 119244.000000
2401 14333 1 0.16500 119244.000000
2401 16343 1 0.16500 119244.000000
2402 12165 1 0.16500 119244.000000
2402 16438 1 0.16500 119244.000000
2403 12165 1 0.16500 119244.000000
2403 15147 1 0.16500 119244.000000
2404 12165 1 0.16500 119244.000000
2404 12379 1 0.16500 119244.000000
2405 12165 1 0.16500 119244.000000
2405 12932 1 0.16500 119244.000000
2406 12166 1 0.16500 119244.000000
2406 16834 1 0.16500 119244.000000
2407 12166 1 0.16500 119244.000000
2407 16179 1 0.16500 119244.000000
2408 12166 1 0.16500 119244.000000
2408 13551 1 0.16500 119244.000000
2409 12166 1 0.16500 119244.000000
2409 16413 1 0.16500 119244.000000
2410 12167 1 0.16500 119244.000000
2410 13712 1 0.16500 119244.000000
2411 12167 1 0.16500 119244.000000
2411 16219 1 0.16500 119244.000000
2412 12167 1 0.16500 119244.000000
2412 14187 1 0.16500 119244.000000
2413 12168 1 0.16500 119244.000000
2413 16936 1 0.16500 119244.000000
2414 12168 1 0.16500 119244.000000
2414 15625 1 0.16500 119244.000000
2415 12168 1 0.16500 119244.000000
2415 15475 1 0.16500 119244.000000
2416 12168 1 0.16500 119244.000000
2416 15183 1 0.16500 119244.000000
2417 12169 1 0.16500 119244.000000
2417 13183 1 0.16500 119244.000000
2418 12169 1 0.16500 119244.000000
2418 15816 1 0.16500 119244.000000
2419 12169 1 0.16500 119244.000000
2419 18674 1 0.16500 119244.000000
2420 12169 1 0.16500 119244.000000
2420 13266 1 0.16500 119244.000000
2421 12170 1 0.16500 119244.000000
2421 15283 1 0.16500 119244.000000
2422 12170 1 0.16500 119244.000000
2422 14240 1 0.16500 119244.000000
2423 12170 1 0.16500 119244.000000
2423 14401 1 0.16500 119244.000000
2424 12170 1 0.16500 119244.000000
2424 15930 1 0.16500 119244.000000
2425 12171 1 0.16500 119244.000000
2425 14886 1 0.16500 119244.000000
2426 12171 1 0.16500 119244.000000
2426 12901 1 0.16500 119244.000000
2427 12171 1 0.16500 119244.000000
2427 16003 1 0.16500 119244.000000
2428 12171 1 0.16500 119244.000000
2428 12247 1 0.16500 119244.000000
2429 11875 1 0.16500 119244.000000
2429 12172 1 0.16500 119244.000000
2430 12172 1 0.16500 119244.000000
2430 16463 1 0.16500 119244.000000
2431 12173 1 0.16500 119244.000000
2431 18539 1 0.16500 119244.000000
2432 11628 1 0.16500 119244.000000
2432 13824 1 0.16500 119244.000000
2433 12173 1 0.16500 119244.000000
2433 13824 1 0.16500 119244.000000
2434 12174 1 0.16500 119244.000000
2434 14848 1 0.16500 119244.000000
2435 12174 1 0.16500 119244.000000
2435 16696 1 0.16500 119244.000000
2436 12174 1 0.16500 119244.000000
2436 12517 1 0.16500 119244.000000
2437 12174 1 0.16500 119244.000000
2437 16624 1 0.16500 119244.000000
2438 12175 1 0.16500 119244.000000
2438 14605 1 0.16500 119244.000000
2439 12175 1 0.16500 119244.000000
2439 15569 1 0.16500 119244.000000
2440 12175 1 0.16500 119244.000000
2440 15223 1 0.16500 119244.000000
2441 12175 1 0.16500 119244.000000
2441 14172 1 0.16500 119244.000000
2442 11589 1 0.16500 119244.000000
2442 12176 1 0.16500 119244.000000
2443 12176 1 0.16500 119244.000000
2443 12990 1 0.16500 119244.000000
2444 12176 1 0.16500 119244.000000
2444 13491 1 0.16500 119244.000000
2445 12176 1 0.16500 119244.000000
2445 14335 1 0.16500 119244.000000
2446 12177 1 0.16500 119244.000000
2446 12500 1 0.16500 119244.000000
2447 12177 1 0.16500 119244.000000
2447 12889 1 0.16500 119244.000000
2448 12177 1 0.16500 119244.000000
2448 14811 1 0.16500 119244.000000
2449 12177 1 0.16500 119244.000000
2449 14122 1 0.16500 119244.000000
2450 14980 1 0.16500 119244.000000
2450 18326 1 0.16500 119244.000000
2451 18326 1 0.16500 119244.000000
2451 18545 1 0.16500 119244.000000
2452 17867 1 0.16500 119244.000000
2452 18326 1 0.16500 119244.000000
2453 12178 1 0.16500 119244.000000
2453 12670 1 0.16500 119244.000000
2454 12178 1 0.16500 119244.000000
2454 12802 1 0.16500 119244.000000
2455 12178 1 0.16500 119244.000000
2455 14994 1 0.16500 119244.000000
2456 12179 1 0.16500 119244.000000
2456 16556 1 0.16500 119244.000000
2457 12179 1 0.16500 119244.000000
2457 16623 1 0.16500 119244.000000
2458 12180 1 0.16500 119244.000000
2458 15019 1 0.16500 119244.000000
2459 12180 1 0.16500 119244.000000
2459 15614 1 0.16500 119244.000000
2460 12180 1 0.16500 119244.000000
2460 12465 1 0.16500 119244.000000
2461 12180 1 0.16500 119244.000000
2461 16685 1 0.16500 119244.000000
2462 16684 1 0.16500 119244.000000
2462 17543 1 0.16500 119244.000000
2463 12681 1 0.16500 119244.000000
2463 17543 1 0.16500 119244.000000
2464 12181 1 0.16500 119244.000000
2464 13793 1 0.16500 119244.000000
2465 12181 1 0.16500 119244.000000
2465 14131 1 0.16500 119244.000000
2466 12181 1 0.16500 119244.000000
2466 16851 1 0.16500 119244.000000
2467 12181 1 0.16500 119244.000000
2467 13894 1 0.16500 119244.000000
2468 12182 1 0.16500 119244.000000
2468 12198 1 0.16500 119244.000000
2469 12182 1 0.16500 119244.000000
2469 15077 1 0.16500 119244.000000
2470 12182 1 0.16500 119244.000000
2470 13656 1 0.16500 119244.000000
2471 12182 1 0.16500 119244.000000
2471 15290 1 0.16500 119244.000000
2472 12183 1 0.16500 119244.000000
2472 15589 1 0.16500 119244.000000
2473 12183 1 0.16500 119244.000000
2473 14753 1 0.16500 119244.000000
2474 12183 1 0.16500 119244.000000
2474 15506 1 0.16500 119244.000000
2475 12183 1 0.16500 119244.000000
2475 13124 1 0.16500 119244.000000
2476 12184 1 0.16500 119244.000000
2476 16012 1 0.16500 119244.000000
2477 12184 1 0.16500 119244.000000
2477 16861 1 0.16500 119244.000000
2478 12184 1 0.16500 119244.000000
2478 15777 1 0.16500 119244.000000
2479 12568 1 0.16500 119244.000000
2479 16861 1 0.16500 119244.000000
2480 12185 1 0.16500 119244.000000
2480 13210 1 0.16500 119244.000000
2481 12185 1 0.16500 119244.000000
2481 16642 1 0.16500 119244.000000
2482 12185 1 0.16500 119244.000000
2482 12860 1 0.16500 119244.000000
2483 12761 1 0.16500 119244.000000
2483 18329 1 0.16500 119244.000000
2484 14163 1 0.16500 119244.000000
2484 18329 1 0.16500 119244.000000
2485 14925 1 0.16500 119244.000000
2485 18329 1 0.16500 119244.000000
2486 12186 1 0.16500 119244.000000
2486 15912 1 0.16500 119244.000000
2487 12186 1 0.16500 119244.000000
2487 12764 1 0.16500 119244.000000
2488 12186 1 0.16500 119244.000000
2488 12331 1 0.16500 119244.000000
2489 12186 1 0.16500 119244.000000
2489 14670 1 0.16500 119244.000000
2490 16133 1 0.16500 119244.000000
2490 18431 1 0.16500 119244.000000
2491 15378 1 0.16500 119244.000000
2491 16145 1 0.16500 119244.000000
2492 15378 1 0.16500 119244.000000
2492 18431 1 0.16500 119244.000000
2493 12187 1 0.16500 119244.000000
2493 18956 1 0.16500 119244.000000
2494 12187 1 0.16500 119244.000000
2494 17427 1 0.16500 119244.000000
2495 12187 1 0.16500 119244.000000
2495 18590 1 0.16500 119244.000000
2496 12188 1 0.16500 119244.000000
2496 12225 1 0.16500 119244.000000
2497 12188 1 0.16500 119244.000000
2497 12842 1 0.16500 119244.000000
2498 12188 1 0.16500 119244.000000
2498 14935 1 0.16500 119244.000000
2499 12188 1 0.16500 119244.000000
2499 15167 1 0.16500 119244.000000
2500 12189 1 0.16500 119244.000000
2500 16599 1 0.16500 119244.000000
2501 12189 1 0.16500 119244.000000
2501 13886 1 0.16500 119244.000000
2502 12190 1 0.16500 119244.000000
2502 15228 1 0.16500 119244.000000
2503 12190 1 0.16500 119244.000000
2503 14732 1 0.16500 119244.000000
2504 12190 1 0.16500 119244.000000
2504 12335 1 0.16500 119244.000000
2505 14676 1 0.16500 119244.000000
2505 18332 1 0.16500 119244.000000
2506 12309 1 0.16500 119244.000000
2506 18332 1 0.16500 119244.000000
2507 14676 1 0.16500 119244.000000
2507 16159 1 0.16500 119244.000000
2508 12191 1 0.16500 119244.000000
2508 14840 1 0.16500 119244.000000
2509 12191 1 0.16500 119244.000000
2509 16002 1 0.16500 119244.000000
2510 12191 1 0.16500 119244.000000
2510 13649 1 0.16500 119244.000000
2511 12191 1 0.16500 119244.000000
2511 16772 1 0.16500 119244.000000
2512 12192 1 0.16500 119244.000000
2512 14358 1 0.16500 119244.000000
2513 12192 1 0.16500 119244.000000
2513 12457 1 0.16500 119244.000000
2514 12192 1 0.16500 119244.000000
2514 13056 1 0.16500 119244.000000
2515 12192 1 0.16500 119244.000000
2515 13488 1 0.16500 119244.000000
2516 12193 1 0.16500 119244.000000
2516 16091 1 0.16500 119244.000000
2517 12193 1 0.16500 119244.000000
2517 18479 1 0.16500 119244.000000
2518 12193 1 0.16500 119244.000000
2518 16434 1 0.16500 119244.000000
2519 12193 1 0.16500 119244.000000
2519 16332 1 0.16500 119244.000000
2520 12194 1 0.16500 119244.000000
2520 16774 1 0.16500 119244.000000
2521 12194 1 0.16500 119244.000000
2521 14269 1 0.16500 119244.000000
2522 12194 1 0.16500 119244.000000
2522 16593 1 0.16500 119244.000000
2523 12194 1 0.16500 119244.000000
2523 16240 1 0.16500 119244.000000
2524 12195 1 0.16500 119244.000000
2524 12550 1 0.16500 119244.000000
2525 12195 1 0.16500 119244.000000
2525 14662 1 0.16500 119244.000000
2526 12195 1 0.16500 119244.000000
2526 12610 1 0.16500 119244.000000
2527 12195 1 0.16500 119244.000000
2527 13082 1 0.16500 119244.000000
2528 12196 1 0.16500 119244.000000
2528 15515 1 0.16500 119244.000000
2529 12196 1 0.16500 119244.000000
2529 12742 1 0.16500 119244.000000
2530 12196 1 0.16500 119244.000000
2530 14365 1 0.16500 119244.000000
2531 12196 1 0.16500 119244.000000
2531 12629 1 0.16500 119244.000000
2532 12197 1 0.16500 119244.000000
2532 15468 1 0.16500 119244.000000
2533 12197 1 0.16500 119244.000000
2533 14804 1 0.16500 119244.000000
2534 12197 1 0.16500 119244.000000
2534 14534 1 0.16500 119244.000000
2535 12197 1 0.16500 119244.000000
2535 15455 1 0.16500 119244.000000
2536 12198 1 0.16500 119244.000000
2536 16419 1 0.16500 119244.000000
2537 12198 1 0.16500 119244.000000
2537 16049 1 0.16500 119244.000000
2538 12198 1 0.16500 119244.000000
2538 16816 1 0.16500 119244.000000
2539 12199 1 0.16500 119244.000000
2539 16509 1 0.16500 119244.000000
2540 12199 1 0.16500 119244.000000
2540 18602 1 0.16500 119244.000000
2541 12199 1 0.16500 119244.000000
2541 13870 1 0.16500 119244.000000
2542 12200 1 0.16500 119244.000000
2542 12813 1 0.16500 119244.000000
2543 12200 1 0.16500 119244.000000
2543 15651 1 0.16500 119244.000000
2544 12200 1 0.16500 119244.000000
2544 15737 1 0.16500 119244.000000
2545 12201 1 0.16500 119244.000000
2545 14693 1 0.16500 119244.000000
2546 12201 1 0.16500 119244.000000
2546 16249 1 0.16500 119244.000000
2547 12201 1 0.16500 119244.000000
2547 13855 1 0.16500 119244.000000
2548 12201 1 0.16500 119244.000000
2548 16111 1 0.16500 119244.000000
2549 12202 1 0.16500 119244.000000
2549 15126 1 0.16500 119244.000000
2550 12202 1 0.16500 119244.000000
2550 12292 1 0.16500 119244.000000
2551 12202 1 0.16500 119244.000000
2551 13692 1 0.16500 119244.000000
2552 12202 1 0.16500 119244.000000
2552 15384 1 0.16500 119244.000000
2553 12203 1 0.16500 119244.000000
2553 13566 1 0.16500 119244.000000
2554 12203 1 0.16500 119244.000000
2554 13617 1 0.16500 119244.000000
2555 12203 1 0.16500 119244.000000
2555 15313 1 0.16500 119244.000000
2556 12203 1 0.16500 119244.000000
2556 16923 1 0.16500 119244.000000
2557 13402 1 0.16500 119244.000000
2557 16759 1 0.16500 119244.000000
2558 16022 1 0.16500 119244.000000
2558 17531 1 0.16500 119244.000000
2559 17531 1 0.16500 119244.000000
2559 18344 1 0.16500 119244.000000
2560 13402 1 0.16500 119244.000000
2560 17531 1 0.16500 119244.000000
2561 12204 1 0.16500 119244.000000
2561 12826 1 0.16500 119244.000000
2562 12204 1 0.16500 119244.000000
2562 13858 1 0.16500 119244.000000
2563 12204 1 0.16500 119244.000000
2563 13514 1 0.16500 119244.000000
2564 12205 1 0.16500 119244.000000
2564 16573 1 0.16500 119244.000000
2565 12205 1 0.16500 119244.000000
2565 12853 1 0.16500 119244.000000
2566 12205 1 0.16500 119244.000000
2566 15234 1 0.16500 119244.000000
2567 12206 1 0.16500 119244.000000
2567 13790 1 0.16500 119244.000000
2568 12206 1 0.16500 119244.000000
2568 15767 1 0.16500 119244.000000
2569 12206 1 0.16500 119244.000000
2569 18938 1 0.16500 119244.000000
2570 12206 1 0.16500 119244.000000
2570 14877 1 0.16500 119244.000000
2571 12207 1 0.16500 119244.000000
2571 16005 1 0.16500 119244.000000
2572 12207 1 0.16500 119244.000000
2572 12549 1 0.16500 119244.000000
2573 12549 1 0.16500 119244.000000
2573 15405 1 0.16500 119244.000000
2574 11733 1 0.16500 119244.000000
2574 12208 1 0.16500 119244.000000
2575 12208 1 0.16500 119244.000000
2575 13604 1 0.16500 119244.000000
2576 12208 1 0.16500 119244.000000
2576 14042 1 0.16500 119244.000000
2577 12208 1 0.16500 119244.000000
2577 13129 1 0.16500 119244.000000
2578 12209 1 0.16500 119244.000000
2578 15533 1 0.16500 119244.000000
2579 12209 1 0.16500 119244.000000
2579 14562 1 0.16500 119244.000000
2580 12209 1 0.16500 119244.000000
2580 13889 1 0.16500 119244.000000
2581 12210 1 0.16500 119244.000000
2581 14127 1 0.16500 119244.000000
2582 12210 1 0.16500 119244.000000
2582 15395 1 0.16500 119244.000000
2583 12245 1 0.16500 119244.000000
2583 15607 1 0.16500 119244.000000
2584 12211 1 0.16500 119244.000000
2584 12515 1 0.16500 119244.000000
2585 12211 1 0.16500 119244.000000
2585 15607 1 0.16500 119244.000000
2586 12211 1 0.16500 119244.000000
2586 13268 1 0.16500 119244.000000
2587 12212 1 0.16500 119244.000000
2587 18701 1 0.16500 119244.000000
2588 12212 1 0.16500 119244.000000
2588 15834 1 0.16500 119244.000000
2589 12213 1 0.16500 119244.000000
2589 13852 1 0.16500 119244.000000
2590 12213 1 0.16500 119244.000000
2590 12680 1 0.16500 119244.000000
2591 12213 1 0.16500 119244.000000
2591 15283 1 0.16500 119244.000000
2592 12214 1 0.16500 119244.000000
2592 12998 1 0.16500 119244.000000
2593 12214 1 0.16500 119244.000000
2593 14762 1 0.16500 119244.000000
2594 12214 1 0.16500 119244.000000
2594 12844 1 0.16500 119244.000000
2595 12215 1 0.16500 119244.000000
2595 16890 1 0.16500 119244.000000
2596 12215 1 0.16500 119244.000000
2596 15072 1 0.16500 119244.000000
2597 12215 1 0.16500 119244.000000
2597 12341 1 0.16500 119244.000000
2598 12216 1 0.16500 119244.000000
2598 16904 1 0.16500 119244.000000
2599 12216 1 0.16500 119244.000000
2599 16440 1 0.16500 119244.000000
2600 12216 1 0.16500 119244.000000
2600 13604 1 0.16500 119244.000000
2601 12216 1 0.16500 119244.000000
2601 12952 1 0.16500 119244.000000
2602 12217 1 0.16500 119244.000000
2602 16354 1 0.16500 119244.000000
2603 12217 1 0.16500 119244.000000
2603 15093 1 0.16500 119244.000000
2604 12218 1 0.16500 119244.000000
2604 18347 1 0.16500 119244.000000
2605 17063 1 0.16500 119244.000000
2605 18347 1 0.16500 119244.000000
2606 12219 1 0.16500 119244.000000
2606 16954 1 0.16500 119244.000000
2607 15103 1 0.16500 119244.000000
2607 16954 1 0.16500 119244.000000
2608 12219 1 0.16500 119244.000000
2608 16869 1 0.16500 119244.000000
2609 12219 1 0.16500 119244.000000
2609 16074 1 0.16500 119244.000000
2610 12220 1 0.16500 119244.000000
2610 16654 1 0.16500 119244.000000
2611 12220 1 0.16500 119244.000000
2611 13228 1 0.16500 119244.000000
2612 12220 1 0.16500 119244.000000
2612 14118 1 0.16500 119244.000000
2613 12221 1 0.16500 119244.000000
2613 12833 1 0.16500 119244.000000
2614 12221 1 0.16500 119244.000000
2614 12792 1 0.16500 119244.000000
2615 12221 1 0.16500 119244.000000
2615 13430 1 0.16500 119244.000000
2616 12222 1 0.16500 119244.000000
2616 13383 1 0.16500 119244.000000
2617 12222 1 0.16500 119244.000000
2617 13661 1 0.16500 119244.000000
2618 12222 1 0.16500 119244.000000
2618 14792 1 0.16500 119244.000000
2619 12223 1 0.16500 119244.000000
2619 16824 1 0.16500 119244.000000
2620 12223 1 0.16500 119244.000000
2620 13334 1 0.16500 119244.000000
2621 12223 1 0.16500 119244.000000
2621 16488 1 0.16500 119244.000000
2622 12223 1 0.16500 119244.000000
2622 14439 1 0.16500 119244.000000
2623 12310 1 0.16500 119244.000000
2623 18335 1 0.16500 119244.000000
2624 15354 1 0.16500 119244.000000
2624 18335 1 0.16500 119244.000000
2625 13101 1 0.16500 119244.000000
2625 13571 1 0.16500 119244.000000
2626 12224 1 0.16500 119244.000000
2626 15554 1 0.16500 119244.000000
2627 12224 1 0.16500 119244.000000
2627 13571 1 0.16500 119244.000000
2628 12224 1 0.16500 119244.000000
2628 13533 1 0.16500 119244.000000
2629 12225 1 0.16500 119244.000000
2629 16298 1 0.16500 119244.000000
2630 12225 1 0.16500 119244.000000
2630 15527 1 0.16500 119244.000000
2631 12225 1 0.16500 119244.000000
2631 13307 1 0.16500 119244.000000
2632 12226 1 0.16500 119244.000000
2632 16345 1 0.16500 119244.000000
2633 12226 1 0.16500 119244.000000
2633 12913 1 0.16500 119244.000000
2634 12226 1 0.16500 119244.000000
2634 16863 1 0.16500 119244.000000
2635 12226 1 0.16500 119244.000000
2635 16079 1 0.16500 119244.000000
2636 12227 1 0.16500 119244.000000
2636 16158 1 0.16500 119244.000000
2637 12227 1 0.16500 119244.000000
2637 13646 1 0.16500 119244.000000
2638 12227 1 0.16500 119244.000000
2638 15651 1 0.16500 119244.000000
2639 12227 1 0.16500 119244.000000
2639 16364 1 0.16500 119244.000000
2640 12228 1 0.16500 119244.000000
2640 13594 1 0.16500 119244.000000
2641 12228 1 0.16500 119244.000000
2641 16146 1 0.16500 119244.000000
2642 12228 1 0.16500 119244.000000
2642 14053 1 0.16500 119244.000000
2643 12228 1 0.16500 119244.000000
2643 13552 1 0.16500 119244.000000
2644 12229 1 0.16500 119244.000000
2644 17003 1 0.16500 119244.000000
2645 12229 1 0.16500 119244.000000
2645 13637 1 0.16500 119244.000000
2646 12229 1 0.16500 119244.000000
2646 12862 1 0.16500 119244.000000
2647 12230 1 0.16500 119244.000000
2647 13680 1 0.16500 119244.000000
2648 12230 1 0.16500 119244.000000
2648 16806 1 0.16500 119244.000000
2649 16105 1 0.16500 119244.000000
2649 16806 1 0.16500 119244.000000
2650 12230 1 0.16500 119244.000000
2650 14571 1 0.16500 119244.000000
2651 12231 1 0.16500 119244.000000
2651 18632 1 0.16500 119244.000000
2652 12231 1 0.16500 119244.000000
2652 19076 1 0.16500 119244.000000
2653 12231 1 0.16500 119244.000000
2653 16948 1 0.16500 119244.000000
2654 12232 1 0.16500 119244.000000
2654 13807 1 0.16500 119244.000000
2655 12232 1 0.16500 119244.000000
2655 14444 1 0.16500 119244.000000
2656 12232 1 0.16500 119244.000000
2656 15147 1 0.16500 119244.000000
2657 12232 1 0.16500 119244.000000
2657 16900 1 0.16500 119244.000000
2658 12233 1 0.16500 119244.000000
2658 15213 1 0.16500 119244.000000
2659 12233 1 0.16500 119244.000000
2659 12366 1 0.16500 119244.000000
2660 12234 1 0.16500 119244.000000
2660 13665 1 0.16500 119244.000000
2661 12234 1 0.16500 119244.000000
2661 13632 1 0.16500 119244.000000
2662 12234 1 0.16500 119244.000000
2662 13948 1 0.16500 119244.000000
2663 12234 1 0.16500 119244.000000
2663 16999 1 0.16500 119244.000000
2664 12235 1 0.16500 119244.000000
2664 14772 1 0.16500 119244.000000
2665 12235 1 0.16500 119244.000000
2665 14146 1 0.16500 119244.000000
2666 12236 1 0.16500 119244.000000
2666 14584 1 0.16500 119244.000000
2667 12236 1 0.16500 119244.000000
2667 18863 1 0.16500 119244.000000
2668 12237 1 0.16500 119244.000000
2668 14840 1 0.16500 119244.000000
2669 12237 1 0.16500 119244.000000
2669 14752 1 0.16500 119244.000000
2670 12237 1 0.16500 119244.000000
2670 13091 1 0.16500 119244.000000
2671 12237 1 0.16500 119244.000000
2671 12460 1 0.16500 119244.000000
2672 12238 1 0.16500 119244.000000
2672 13480 1 0.16500 119244.000000
2673 12238 1 0.16500 119244.000000
2673 13663 1 0.16500 119244.000000
2674 12238 1 0.16500 119244.000000
2674 14452 1 0.16500 119244.000000
2675 12238 1 0.16500 119244.000000
2675 12354 1 0.16500 119244.000000
2676 12239 1 0.16500 119244.000000
2676 12902 1 0.16500 119244.000000
2677 12239 1 0.16500 119244.000000
2677 15415 1 0.16500 119244.000000
2678 12239 1 0.16500 119244.000000
2678 16671 1 0.16500 119244.000000
2679 12239 1 0.16500 119244.000000
2679 14225 1 0.16500 119244.000000
2680 12240 1 0.16500 119244.000000
2680 13682 1 0.16500 119244.000000
2681 12240 1 0.16500 119244.000000
2681 13771 1 0.16500 119244.000000
2682 12240 1 0.16500 119244.000000
2682 16142 1 0.16500 119244.000000
2683 14996 1 0.16500 119244.000000
2683 16142 1 0.16500 119244.000000
2684 12241 1 0.16500 119244.000000
2684 18422 1 0.16500 119244.000000
2685 12241 1 0.16500 119244.000000
2685 12835 1 0.16500 119244.000000
2686 12241 1 0.16500 119244.000000
2686 13471 1 0.16500 119244.000000
2687 12241 1 0.16500 119244.000000
2687 16550 1 0.16500 119244.000000
2688 12242 1 0.16500 119244.000000
2688 16103 1 0.16500 119244.000000
2689 12242 1 0.16500 119244.000000
2689 16141 1 0.16500 119244.000000
2690 12242 1 0.16500 119244.000000
2690 18632 1 0.16500 119244.000000
2691 12242 1 0.16500 119244.000000
2691 14173 1 0.16500 119244.000000
2692 12243 1 0.16500 119244.000000
2692 15687 1 0.16500 119244.000000
2693 12243 1 0.16500 119244.000000
2693 14537 1 0.16500 119244.000000
2694 12243 1 0.16500 119244.000000
2694 16718 1 0.16500 119244.000000
2695 12243 1 0.16500 119244.000000
2695 13070 1 0.16500 119244.000000
2696 12244 1 0.16500 119244.000000
2696 13506 1 0.16500 119244.000000
2697 12244 1 0.16500 119244.000000
2697 12540 1 0.16500 119244.000000
2698 12244 1 0.16500 119244.000000
2698 15260 1 0.16500 119244.000000
2699 12245 1 0.16500 119244.000000
2699 15813 1 0.16500 119244.000000
2700 12245 1 0.16500 119244.000000
2700 18851 1 0.16500 119244.000000
2701 12245 1 0.16500 119244.000000
2701 13831 1 0.16500 119244.000000
2702 12246 1 0.16500 119244.000000
2702 16102 1 0.16500 119244.000000
2703 12246 1 0.16500 119244.000000
2703 14615 1 0.16500 119244.000000
2704 12246 1 0.16500 119244.000000
2704 13809 1 0.16500 119244.000000
2705 12246 1 0.16500 119244.000000
2705 14563 1 0.16500 119244.000000
2706 12247 1 0.16500 119244.000000
2706 13509 1 0.16500 119244.000000
2707 12247 1 0.16500 119244.000000
2707 12408 1 0.16500 119244.000000
2708 12247 1 0.16500 119244.000000
2708 16623 1 0.16500 119244.000000
2709 12248 1 0.16500 119244.000000
2709 13482 1 0.16500 119244.000000
2710 12248 1 0.16500 119244.000000
2710 16749 1 0.16500 119244.000000
2711 12248 1 0.16500 119244.000000
2711 16782 1 0.16500 119244.000000
2712 12248 1 0.16500 119244.000000
2712 13353 1 0.16500 119244.000000
2713 12249 1 0.16500 119244.000000
2713 14086 1 0.16500 119244.000000
2714 12249 1 0.16500 119244.000000
2714 13833 1 0.16500 119244.000000
2715 12249 1 0.16500 119244.000000
2715 12646 1 0.16500 119244.000000
2716 12249 1 0.16500 119244.000000
2716 13126 1 0.16500 119244.000000
2717 12250 1 0.16500 119244.000000
2717 16898 1 0.16500 119244.000000
2718 12250 1 0.16500 119244.000000
2718 14970 1 0.16500 119244.000000
2719 12250 1 0.16500 119244.000000
2719 13409 1 0.16500 119244.000000
2720 12250 1 0.16500 119244.000000
2720 15266 1 0.16500 119244.000000
2721 12251 1 0.16500 119244.000000
2721 17009 1 0.16500 119244.000000
2722 12251 1 0.16500 119244.000000
2722 14826 1 0.16500 119244.000000
2723 12251 1 0.16500 119244.000000
2723 12572 1 0.16500 119244.000000
2724 12251 1 0.16500 119244.000000
2724 16500 1 0.16500 119244.000000
2725 12252 1 0.16500 119244.000000
2725 16933 1 0.16500 119244.000000
2726 12252 1 0.16500 119244.000000
2726 13930 1 0.16500 119244.000000
2727 12252 1 0.16500 119244.000000
2727 15648 1 0.16500 119244.000000
2728 12252 1 0.16500 119244.000000
2728 13655 1 0.16500 119244.000000
2729 15975 1 0.16500 119244.000000
2729 18338 1 0.16500 119244.000000
2730 18338 1 0.16500 119244.000000
2730 18569 1 0.16500 119244.000000
2731 13452 1 0.16500 119244.000000
2731 18338 1 0.16500 119244.000000
2732 12253 1 0.16500 119244.000000
2732 12872 1 0.16500 119244.000000
2733 12253 1 0.16500 119244.000000
2733 14357 1 0.16500 119244.000000
2734 12253 1 0.16500 119244.000000
2734 14947 1 0.16500 119244.000000
2735 12254 1 0.16500 119244.000000
2735 13400 1 0.16500 119244.000000
2736 12254 1 0.16500 119244.000000
2736 13805 1 0.16500 119244.000000
2737 12254 1 0.16500 119244.000000
2737 16386 1 0.16500 119244.000000
2738 12255 1 0.16500 119244.000000
2738 12469 1 0.16500 119244.000000
2739 12255 1 0.16500 119244.000000
2739 13925 1 0.16500 119244.000000
2740 12255 1 0.16500 119244.000000
2740 15168 1 0.16500 119244.000000
2741 12255 1 0.16500 119244.000000
2741 15130 1 0.16500 119244.000000
2742 12256 1 0.16500 119244.000000
2742 16465 1 0.16500 119244.000000
2743 12256 1 0.16500 119244.000000
2743 16965 1 0.16500 119244.000000
2744 12256 1 0.16500 119244.000000
2744 16091 1 0.16500 119244.000000
2745 12256 1 0.16500 119244.000000
2745 12826 1 0.16500 119244.000000
2746 12257 1 0.16500 119244.000000
2746 18641 1 0.16500 119244.000000
2747 12257 1 0.16500 119244.000000
2747 15387 1 0.16500 119244.000000
2748 12257 1 0.16500 119244.000000
2748 16951 1 0.16500 119244.000000
2749 12258 1 0.16500 119244.000000
2749 13251 1 0.16500 119244.000000
2750 12258 1 0.16500 119244.000000
2750 14718 1 0.16500 119244.000000
2751 12258 1 0.16500 119244.000000
2751 16157 1 0.16500 119244.000000
2752 12258 1 0.16500 119244.000000
2752 12894 1 0.16500 119244.000000
2753 12259 1 0.16500 119244.000000
2753 14392 1 0.16500 119244.000000
2754 14930 1 0.16500 119244.000000
2754 16071 1 0.16500 119244.000000
2755 12259 1 0.16500 119244.000000
2755 14979 1 0.16500 119244.000000
2756 12259 1 0.16500 119244.000000
2756 14930 1 0.16500 119244.000000
2757 12260 1 0.16500 119244.000000
2757 12664 1 0.16500 119244.000000
2758 12260 1 0.16500 119244.000000
2758 13360 1 0.16500 119244.000000
2759 12260 1 0.16500 119244.000000
2759 13903 1 0.16500 119244.000000
2760 12260 1 0.16500 119244.000000
2760 13659 1 0.16500 119244.000000
2761 12261 1 0.16500 119244.000000
2761 15581 1 0.16500 119244.000000
2762 12261 1 0.16500 119244.000000
2762 14906 1 0.16500 119244.000000
2763 12261 1 0.16500 119244.000000
2763 14477 1 0.16500 119244.000000
2764 12262 1 0.16500 119244.000000
2764 13037 1 0.16500 119244.000000
2765 12262 1 0.16500 119244.000000
2765 15840 1 0.16500 119244.000000
2766 12262 1 0.16500 119244.000000
2766 14312 1 0.16500 119244.000000
2767 12262 1 0.16500 119244.000000
2767 14806 1 0.16500 119244.000000
2768 12263 1 0.16500 119244.000000
2768 16304 1 0.16500 119244.000000
2769 12263 1 0.16500 119244.000000
2769 16224 1 0.16500 119244.000000
2770 12263 1 0.16500 119244.000000
2770 12306 1 0.16500 119244.000000
2771 12264 1 0.16500 119244.000000
2771 16942 1 0.16500 119244.000000
2772 13970 1 0.16500 119244.000000
2772 14457 1 0.16500 119244.000000
2773 12264 1 0.16500 119244.000000
2773 13970 1 0.16500 119244.000000
2774 12264 1 0.16500 119244.000000
2774 15339 1 0.16500 119244.000000
2775 12265 1 0.16500 119244.000000
2775 15327 1 0.16500 119244.000000
2776 12265 1 0.16500 119244.000000
2776 15896 1 0.16500 119244.000000
2777 12266 1 0.16500 119244.000000
2777 15892 1 0.16500 119244.000000
2778 12266 1 0.16500 119244.000000
2778 12745 1 0.16500 119244.000000
2779 12266 1 0.16500 119244.000000
2779 16100 1 0.16500 119244.000000
2780 12267 1 0.16500 119244.000000
2780 19055 1 0.16500 119244.000000
2781 12267 1 0.16500 119244.000000
2781 13612 1 0.16500 119244.000000
2782 12267 1 0.16500 119244.000000
2782 14713 1 0.16500 119244.000000
2783 12267 1 0.16500 119244.000000
2783 14813 1 0.16500 119244.000000
2784 12268 1 0.16500 119244.000000
2784 16036 1 0.16500 119244.000000
2785 12268 1 0.16500 119244.000000
2785 14566 1 0.16500 119244.000000
2786 12268 1 0.16500 119244.000000
2786 14472 1 0.16500 119244.000000
2787 12268 1 0.16500 119244.000000
2787 13530 1 0.16500 119244.000000
2788 12269 1 0.16500 119244.000000
2788 14252 1 0.16500 119244.000000
2789 12269 1 0.16500 119244.000000
2789 13026 1 0.16500 119244.000000
2790 12269 1 0.16500 119244.000000
2790 16215 1 0.16500 119244.000000
2791 12270 1 0.16500 119244.000000
2791 12874 1 0.16500 119244.000000
2792 12270 1 0.16500 119244.000000
2792 14299 1 0.16500 119244.000000
2793 12874 1 0.16500 119244.000000
2793 13217 1 0.16500 119244.000000
2794 12271 1 0.16500 119244.000000
2794 17011 1 0.16500 119244.000000
2795 12271 1 0.16500 119244.000000
2795 15866 1 0.16500 119244.000000
2796 12271 1 0.16500 119244.000000
2796 15281 1 0.16500 119244.000000
2797 14270 1 0.16500 119244.000000
2797 15866 1 0.16500 119244.000000
2798 12272 1 0.16500 119244.000000
2798 16605 1 0.16500 119244.000000
2799 12272 1 0.16500 119244.000000
2799 16215 1 0.16500 119244.000000
2800 12273 1 0.16500 119244.000000
2800 14581 1 0.16500 119244.000000
2801 12273 1 0.16500 119244.000000
2801 15333 1 0.16500 119244.000000
2802 13199 1 0.16500 119244.000000
2802 14581 1 0.16500 119244.000000
2803 12274 1 0.16500 119244.000000
2803 14825 1 0.16500 119244.000000
2804 12274 1 0.16500 119244.000000
2804 15148 1 0.16500 119244.000000
2805 12274 1 0.16500 119244.000000
2805 14792 1 0.16500 119244.000000
2806 12275 1 0.16500 119244.000000
2806 12974 1 0.16500 119244.000000
2807 12275 1 0.16500 119244.000000
2807 14532 1 0.16500 119244.000000
2808 12275 1 0.16500 119244.000000
2808 16124 1 0.16500 119244.000000
2809 12275 1 0.16500 119244.000000
2809 13322 1 0.16500 119244.000000
2810 12276 1 0.16500 119244.000000
2810 14406 1 0.16500 119244.000000
2811 12276 1 0.16500 119244.000000
2811 14623 1 0.16500 119244.000000
2812 12276 1 0.16500 119244.000000
2812 15844 1 0.16500 119244.000000
2813 12276 1 0.16500 119244.000000
2813 15383 1 0.16500 119244.000000
2814 12277 1 0.16500 119244.000000
2814 15194 1 0.16500 119244.000000
2815 14075 1 0.16500 119244.000000
2815 14136 1 0.16500 119244.000000
2816 12277 1 0.16500 119244.000000
2816 16316 1 0.16500 119244.000000
2817 11644 1 0.16500 119244.000000
2817 14075 1 0.16500 119244.000000
2818 12278 1 0.16500 119244.000000
2818 12553 1 0.16500 119244.000000
2819 12278 1 0.16500 119244.000000
2819 14223 1 0.16500 119244.000000
2820 12278 1 0.16500 119244.000000
2820 16461 1 0.16500 119244.000000
2821 12278 1 0.16500 119244.000000
2821 13860 1 0.16500 119244.000000
2822 12279 1 0.16500 119244.000000
2822 16303 1 0.16500 119244.000000
2823 12279 1 0.16500 119244.000000
2823 16997 1 0.16500 119244.000000
2824 12279 1 0.16500 119244.000000
2824 16535 1 0.16500 119244.000000
2825 12280 1 0.16500 119244.000000
2825 15998 1 0.16500 119244.000000
2826 12280 1 0.16500 119244.000000
2826 16902 1 0.16500 119244.000000
2827 12280 1 0.16500 119244.000000
2827 14666 1 0.16500 119244.000000
2828 12280 1 0.16500 119244.000000
2828 16864 1 0.16500 119244.000000
2829 12281 1 0.16500 119244.000000
2829 16669 1 0.16500 119244.000000
2830 12281 1 0.16500 119244.000000
2830 16491 1 0.16500 119244.000000
2831 12281 1 0.16500 119244.000000
2831 14254 1 0.16500 119244.000000
2832 12282 1 0.16500 119244.000000
2832 12457 1 0.16500 119244.000000
2833 12282 1 0.16500 119244.000000
2833 12838 1 0.16500 119244.000000
2834 12283 1 0.16500 119244.000000
2834 12308 1 0.16500 119244.000000
2835 12283 1 0.16500 119244.000000
2835 14938 1 0.16500 119244.000000
2836 12283 1 0.16500 119244.000000
2836 12718 1 0.16500 119244.000000
2837 12284 1 0.16500 119244.000000
2837 15807 1 0.16500 119244.000000
2838 12284 1 0.16500 119244.000000
2838 15968 1 0.16500 119244.000000
2839 12284 1 0.16500 119244.000000
2839 15788 1 0.16500 119244.000000
2840 12285 1 0.16500 119244.000000
2840 13221 1 0.16500 119244.000000
2841 12285 1 0.16500 119244.000000
2841 15015 1 0.16500 119244.000000
2842 12285 1 0.16500 119244.000000
2842 13209 1 0.16500 119244.000000
2843 12285 1 0.16500 119244.000000
2843 12802 1 0.16500 119244.000000
2844 12286 1 0.16500 119244.000000
2844 14444 1 0.16500 119244.000000
2845 12286 1 0.16500 119244.000000
2845 12518 1 0.16500 119244.000000
2846 12286 1 0.16500 119244.000000
2846 14950 1 0.16500 119244.000000
2847 12286 1 0.16500 119244.000000
2847 13783 1 0.16500 119244.000000
2848 12287 1 0.16500 119244.000000
2848 14171 1 0.16500 119244.000000
2849 12287 1 0.16500 119244.000000
2849 15564 1 0.16500 119244.000000
2850 12287 1 0.16500 119244.000000
2850 12488 1 0.16500 119244.000000
2851 12288 1 0.16500 119244.000000
2851 13058 1 0.16500 119244.000000
2852 12288 1 0.16500 119244.000000
2852 12993 1 0.16500 119244.000000
2853 12288 1 0.16500 119244.000000
2853 14411 1 0.16500 119244.000000
2854 12289 1 0.16500 119244.000000
2854 16328 1 0.16500 119244.000000
2855 12289 1 0.16500 119244.000000
2855 14120 1 0.16500 119244.000000
2856 12289 1 0.16500 119244.000000
2856 14414 1 0.16500 119244.000000
2857 12528 1 0.16500 119244.000000
2857 18341 1 0.16500 119244.000000
2858 12290 1 0.16500 119244.000000
2858 13960 1 0.16500 119244.000000
2859 12290 1 0.16500 119244.000000
2859 13720 1 0.16500 119244.000000
2860 12290 1 0.16500 119244.000000
2860 15699 1 0.16500 119244.000000
2861 13960 1 0.16500 119244.000000
2861 15574 1 0.16500 119244.000000
2862 12291 1 0.16500 119244.000000
2862 13924 1 0.16500 119244.000000
2863 12291 1 0.16500 119244.000000
2863 16779 1 0.16500 119244.000000
2864 12292 1 0.16500 119244.000000
2864 12805 1 0.16500 119244.000000
2865 12292 1 0.16500 119244.000000
2865 12890 1 0.16500 119244.000000
2866 12890 1 0.16500 119244.000000
2866 15905 1 0.16500 119244.000000
2867 12293 1 0.16500 119244.000000
2867 15589 1 0.16500 119244.000000
2868 12293 1 0.16500 119244.000000
2868 16698 1 0.16500 119244.000000
2869 12293 1 0.16500 119244.000000
2869 14682 1 0.16500 119244.000000
2870 12293 1 0.16500 119244.000000
2870 13703 1 0.16500 119244.000000
2871 12294 1 0.16500 119244.000000
2871 16169 1 0.16500 119244.000000
2872 12294 1 0.16500 119244.000000
2872 13115 1 0.16500 119244.000000
2873 12294 1 0.16500 119244.000000
2873 14516 1 0.16500 119244.000000
2874 12295 1 0.16500 119244.000000
2874 14435 1 0.16500 119244.000000
2875 12295 1 0.16500 119244.000000
2875 13927 1 0.16500 119244.000000
2876 12295 1 0.16500 119244.000000
2876 14569 1 0.16500 119244.000000
2877 12296 1 0.16500 119244.000000
2877 14097 1 0.16500 119244.000000
2878 12296 1 0.16500 119244.000000
2878 12363 1 0.16500 119244.000000
2879 12296 1 0.16500 119244.000000
2879 12777 1 0.16500 119244.000000
2880 12297 1 0.16500 119244.000000
2880 12393 1 0.16500 119244.000000
2881 12297 1 0.16500 119244.000000
2881 14669 1 0.16500 119244.000000
2882 12297 1 0.16500 119244.000000
2882 13165 1 0.16500 119244.000000
2883 12297 1 0.16500 119244.000000
2883 12944 1 0.16500 119244.000000
2884 16039 1 0.16500 119244.000000
2884 18344 1 0.16500 119244.000000
2885 13751 1 0.16500 119244.000000
2885 18344 1 0.16500 119244.000000
2886 12298 1 0.16500 119244.000000
2886 15967 1 0.16500 119244.000000
2887 12298 1 0.16500 119244.000000
2887 16971 1 0.16500 119244.000000
2888 12298 1 0.16500 119244.000000
2888 14208 1 0.16500 119244.000000
2889 12299 1 0.16500 119244.000000
2889 14842 1 0.16500 119244.000000
2890 12299 1 0.16500 119244.000000
2890 15349 1 0.16500 119244.000000
2891 12299 1 0.16500 119244.000000
2891 15060 1 0.16500 119244.000000
2892 12300 1 0.16500 119244.000000
2892 13455 1 0.16500 119244.000000
2893 12300 1 0.16500 119244.000000
2893 19025 1 0.16500 119244.000000
2894 12597 1 0.16500 119244.000000
2894 14902 1 0.16500 119244.000000
2895 12300 1 0.16500 119244.000000
2895 14902 1 0.16500 119244.000000
2896 12301 1 0.16500 119244.000000
2896 13332 1 0.16500 119244.000000
2897 12301 1 0.16500 119244.000000
2897 13370 1 0.16500 119244.000000
2898 12301 1 0.16500 119244.000000
2898 15308 1 0.16500 119244.000000
2899 12301 1 0.16500 119244.000000
2899 14068 1 0.16500 119244.000000
2900 12302 1 0.16500 119244.000000
2900 15372 1 0.16500 119244.000000
2901 12302 1 0.16500 119244.000000
2901 13771 1 0.16500 119244.000000
2902 12302 1 0.16500 119244.000000
2902 15190 1 0.16500 119244.000000
2903 12303 1 0.16500 119244.000000
2903 13284 1 0.16500 119244.000000
2904 12303 1 0.16500 119244.000000
2904 16487 1 0.16500 119244.000000
2905 12303 1 0.16500 119244.000000
2905 16036 1 0.16500 119244.000000
2906 12304 1 0.16500 119244.000000
2906 14056 1 0.16500 119244.000000
2907 13658 1 0.16500 119244.000000
2907 16546 1 0.16500 119244.000000
2908 12304 1 0.16500 119244.000000
2908 16546 1 0.16500 119244.000000
2909 12305 1 0.16500 119244.000000
2909 15456 1 0.16500 119244.000000
2910 12305 1 0.16500 119244.000000
2910 14694 1 0.16500 119244.000000
2911 12305 1 0.16500 119244.000000
2911 14706 1 0.16500 119244.000000
2912 12306 1 0.16500 119244.000000
2912 15412 1 0.16500 119244.000000
2913 12306 1 0.16500 119244.000000
2913 15260 1 0.16500 119244.000000
2914 12306 1 0.16500 119244.000000
2914 16740 1 0.16500 119244.000000
2915 12307 1 0.16500 119244.000000
2915 16537 1 0.16500 119244.000000
2916 12307 1 0.16500 119244.000000
2916 16048 1 0.16500 119244.000000
2917 12307 1 0.16500 119244.000000
2917 12796 1 0.16500 119244.000000
2918 12308 1 0.16500 119244.000000
2918 15393 1 0.16500 119244.000000
2919 12308 1 0.16500 119244.000000
2919 12434 1 0.16500 119244.000000
2920 12308 1 0.16500 119244.000000
2920 16972 1 0.16500 119244.000000
2921 12309 1 0.16500 119244.000000
2921 16599 1 0.16500 119244.000000
2922 12309 1 0.16500 119244.000000
2922 14972 1 0.16500 119244.000000
2923 12311 1 0.16500 119244.000000
2923 17001 1 0.16500 119244.000000
2924 12311 1 0.16500 119244.000000
2924 16006 1 0.16500 119244.000000
2925 12311 1 0.16500 119244.000000
2925 16790 1 0.16500 119244.000000
2926 12311 1 0.16500 119244.000000
2926 16456 1 0.16500 119244.000000
2927 12312 1 0.16500 119244.000000
2927 16194 1 0.16500 119244.000000
2928 12312 1 0.16500 119244.000000
2928 16759 1 0.16500 119244.000000
2929 12312 1 0.16500 119244.000000
2929 16561 1 0.16500 119244.000000
2930 12312 1 0.16500 119244.000000
2930 15950 1 0.16500 119244.000000
2931 12313 1 0.16500 119244.000000
2931 14407 1 0.16500 119244.000000
2932 12313 1 0.16500 119244.000000
2932 13198 1 0.16500 119244.000000
2933 12313 1 0.16500 119244.000000
2933 13925 1 0.16500 119244.000000
2934 12314 1 0.16500 119244.000000
2934 16822 1 0.16500 119244.000000
2935 12314 1 0.16500 119244.000000
2935 12366 1 0.16500 119244.000000
2936 12314 1 0.16500 119244.000000
2936 14440 1 0.16500 119244.000000
2937 12315 1 0.16500 119244.000000
2937 12984 1 0.16500 119244.000000
2938 12315 1 0.16500 119244.000000
2938 15353 1 0.16500 119244.000000
2939 12315 1 0.16500 119244.000000
2939 15328 1 0.16500 119244.000000
2940 12316 1 0.16500 119244.000000
2940 16830 1 0.16500 119244.000000
2941 12316 1 0.16500 119244.000000
2941 12644 1 0.16500 119244.000000
2942 11798 1 0.16500 119244.000000
2942 12316 1 0.16500 119244.000000
2943 12644 1 0.16500 119244.000000
2943 14415 1 0.16500 119244.000000
2944 12317 1 0.16500 119244.000000
2944 14201 1 0.16500 119244.000000
2945 12317 1 0.16500 119244.000000
2945 15109 1 0.16500 119244.000000
2946 12317 1 0.16500 119244.000000
2946 16463 1 0.16500 119244.000000
2947 12318 1 0.16500 119244.000000
2947 15922 1 0.16500 119244.000000
2948 12318 1 0.16500 119244.000000
2948 13573 1 0.16500 119244.000000
2949 12318 1 0.16500 119244.000000
2949 16092 1 0.16500 119244.000000
2950 12318 1 0.16500 119244.000000
2950 16717 1 0.16500 119244.000000
2951 16791 1 0.16500 119244.000000
2951 16884 1 0.16500 119244.000000
2952 13633 1 0.16500 119244.000000
2952 16791 1 0.16500 119244.000000
2953 12319 1 0.16500 119244.000000
2953 16791 1 0.16500 119244.000000
2954 14564 1 0.16500 119244.000000
2954 16791 1 0.16500 119244.000000
2955 12320 1 0.16500 119244.000000
2955 15319 1 0.16500 119244.000000
2956 12320 1 0.16500 119244.000000
2956 16683 1 0.16500 119244.000000
2957 12320 1 0.16500 119244.000000
2957 14169 1 0.16500 119244.000000
2958 12321 1 0.16500 119244.000000
2958 15570 1 0.16500 119244.000000
2959 12321 1 0.16500 119244.000000
2959 15981 1 0.16500 119244.000000
2960 12321 1 0.16500 119244.000000
2960 14934 1 0.16500 119244.000000
2961 12321 1 0.16500 119244.000000
2961 16295 1 0.16500 119244.000000
2962 12322 1 0.16500 119244.000000
2962 13499 1 0.16500 119244.000000
2963 12322 1 0.16500 119244.000000
2963 16621 1 0.16500 119244.000000
2964 12322 1 0.16500 119244.000000
2964 13377 1 0.16500 119244.000000
2965 12322 1 0.16500 119244.000000
2965 15901 1 0.16500 119244.000000
2966 12323 1 0.16500 119244.000000
2966 13963 1 0.16500 119244.000000
2967 12323 1 0.16500 119244.000000
2967 13416 1 0.16500 119244.000000
2968 12323 1 0.16500 119244.000000
2968 14860 1 0.16500 119244.000000
2969 12323 1 0.16500 119244.000000
2969 16212 1 0.16500 119244.000000
2970 12324 1 0.16500 119244.000000
2970 16118 1 0.16500 119244.000000
2971 12324 1 0.16500 119244.000000
2971 12869 1 0.16500 119244.000000
2972 12557 1 0.16500 119244.000000
2972 12869 1 0.16500 119244.000000
2973 12324 1 0.16500 119244.000000
2973 14319 1 0.16500 119244.000000
2974 12325 1 0.16500 119244.000000
2974 12570 1 0.16500 119244.000000
2975 12325 1 0.16500 119244.000000
2975 13546 1 0.16500 119244.000000
2976 12325 1 0.16500 119244.000000
2976 13944 1 0.16500 119244.000000
2977 12325 1 0.16500 119244.000000
2977 14704 1 0.16500 119244.000000
2978 12326 1 0.16500 119244.000000
2978 14763 1 0.16500 119244.000000
2979 12326 1 0.16500 119244.000000
2979 13302 1 0.16500 119244.000000
2980 12326 1 0.16500 119244.000000
2980 16860 1 0.16500 119244.000000
2981 12326 1 0.16500 119244.000000
2981 16796 1 0.16500 119244.000000
2982 12327 1 0.16500 119244.000000
2982 14111 1 0.16500 119244.000000
2983 12327 1 0.16500 119244.000000
2983 13338 1 0.16500 119244.000000
2984 12327 1 0.16500 119244.000000
2984 13595 1 0.16500 119244.000000
2985 12327 1 0.16500 119244.000000
2985 12987 1 0.16500 119244.000000
2986 12328 1 0.16500 119244.000000
2986 14924 1 0.16500 119244.000000
2987 12328 1 0.16500 119244.000000
2987 15347 1 0.16500 119244.000000
2988 12328 1 0.16500 119244.000000
2988 15086 1 0.16500 119244.000000
2989 12218 1 0.16500 119244.000000
2989 16888 1 0.16500 119244.000000
2990 12218 1 0.16500 119244.000000
2990 17747 1 0.16500 119244.000000
2991 14864 1 0.16500 119244.000000
2991 18347 1 0.16500 119244.000000
2992 15512 1 0.16500 119244.000000
2992 16094 1 0.16500 119244.000000
2993 12599 1 0.16500 119244.000000
2993 16094 1 0.16500 119244.000000
2994 12989 1 0.16500 119244.000000
2994 16094 1 0.16500 119244.000000
2995 16094 1 0.16500 119244.000000
2995 18350 1 0.16500 119244.000000
2996 12329 1 0.16500 119244.000000
2996 15744 1 0.16500 119244.000000
2997 12329 1 0.16500 119244.000000
2997 12968 1 0.16500 119244.000000
2998 12330 1 0.16500 119244.000000
2998 15263 1 0.16500 119244.000000
2999 12330 1 0.16500 119244.000000
2999 16895 1 0.16500 119244.000000
3000 12330 1 0.16500 119244.000000
3000 15506 1 0.16500 119244.000000
3001 12330 1 0.16500 119244.000000
3001 12865 1 0.16500 119244.000000
3002 12331 1 0.16500 119244.000000
3002 12495 1 0.16500 119244.000000
3003 12331 1 0.16500 119244.000000
3003 15115 1 0.16500 119244.000000
3004 12332 1 0.16500 119244.000000
3004 14112 1 0.16500 119244.000000
3005 12332 1 0.16500 119244.000000
3005 13234 1 0.16500 119244.000000
3006 12332 1 0.16500 119244.000000
3006 14474 1 0.16500 119244.000000
3007 12333 1 0.16500 119244.000000
3007 16606 1 0.16500 119244.000000
3008 13971 1 0.16500 119244.000000
3008 14157 1 0.16500 119244.000000
3009 12333 1 0.16500 119244.000000
3009 14749 1 0.16500 119244.000000
3010 12333 1 0.16500 119244.000000
3010 14157 1 0.16500 119244.000000
3011 12334 1 0.16500 119244.000000
3011 17002 1 0.16500 119244.000000
3012 12334 1 0.16500 119244.000000
3012 13618 1 0.16500 119244.000000
3013 12334 1 0.16500 119244.000000
3013 16981 1 0.16500 119244.000000
3014 12334 1 0.16500 119244.000000
3014 16300 1 0.16500 119244.000000
3015 12335 1 0.16500 119244.000000
3015 12894 1 0.16500 119244.000000
3016 12335 1 0.16500 119244.000000
3016 16922 1 0.16500 119244.000000
3017 12335 1 0.16500 119244.000000
3017 14614 1 0.16500 119244.000000
3018 12336 1 0.16500 119244.000000
3018 14698 1 0.16500 119244.000000
3019 12336 1 0.16500 119244.000000
3019 15271 1 0.16500 119244.000000
3020 12336 1 0.16500 119244.000000
3020 14502 1 0.16500 119244.000000
3021 12336 1 0.16500 119244.000000
3021 16452 1 0.16500 119244.000000
3022 12337 1 0.16500 119244.000000
3022 14399 1 0.16500 119244.000000
3023 12337 1 0.16500 119244.000000
3023 12454 1 0.16500 119244.000000
3024 12337 1 0.16500 119244.000000
3024 15654 1 0.16500 119244.000000
3025 12338 1 0.16500 119244.000000
3025 14177 1 0.16500 119244.000000
3026 12338 1 0.16500 119244.000000
3026 12637 1 0.16500 119244.000000
3027 12338 1 0.16500 119244.000000
3027 16799 1 0.16500 119244.000000
3028 12338 1 0.16500 119244.000000
3028 14170 1 0.16500 119244.000000
3029 12339 1 0.16500 119244.000000
3029 16208 1 0.16500 119244.000000
3030 12339 1 0.16500 119244.000000
3030 15933 1 0.16500 119244.000000
3031 12339 1 0.16500 119244.000000
3031 12795 1 0.16500 119244.000000
3032 12339 1 0.16500 119244.000000
3032 12521 1 0.16500 119244.000000
3033 12340 1 0.16500 119244.000000
3033 16384 1 0.16500 119244.000000
3034 12340 1 0.16500 119244.000000
3034 13049 1 0.16500 119244.000000
3035 12340 1 0.16500 119244.000000
3035 18653 1 0.16500 119244.000000
3036 12341 1 0.16500 119244.000000
3036 15965 1 0.16500 119244.000000
3037 12341 1 0.16500 119244.000000
3037 13078 1 0.16500 119244.000000
3038 12341 1 0.16500 119244.000000
3038 12436 1 0.16500 119244.000000
3039 12342 1 0.16500 119244.000000
3039 15924 1 0.16500 119244.000000
3040 12342 1 0.16500 119244.000000
3040 15217 1 0.16500 119244.000000
3041 12342 1 0.16500 119244.000000
3041 16216 1 0.16500 119244.000000
3042 12343 1 0.16500 119244.000000
3042 14857 1 0.16500 119244.000000
3043 12344 1 0.16500 119244.000000
3043 16260 1 0.16500 119244.000000
3044 12344 1 0.16500 119244.000000
3044 15435 1 0.16500 119244.000000
3045 12344 1 0.16500 119244.000000
3045 13181 1 0.16500 119244.000000
3046 15596 1 0.16500 119244.000000
3046 16260 1 0.16500 119244.000000
3047 16916 1 0.16500 119244.000000
3047 17035 1 0.16500 119244.000000
3048 16955 1 0.16500 119244.000000
3048 17035 1 0.16500 119244.000000
3049 12345 1 0.16500 119244.000000
3049 14532 1 0.16500 119244.000000
3050 12345 1 0.16500 119244.000000
3050 16123 1 0.16500 119244.000000
3051 12345 1 0.16500 119244.000000
3051 13244 1 0.16500 119244.000000
3052 12345 1 0.16500 119244.000000
3052 16670 1 0.16500 119244.000000
3053 12346 1 0.16500 119244.000000
3053 15977 1 0.16500 119244.000000
3054 11574 1 0.16500 119244.000000
3054 12346 1 0.16500 119244.000000
3055 12346 1 0.16500 119244.000000
3055 15443 1 0.16500 119244.000000
3056 11957 1 0.16500 119244.000000
3056 13127 1 0.16500 119244.000000
3057 11817 1 0.16500 119244.000000
3057 15523 1 0.16500 119244.000000
3058 12348 1 0.16500 119244.000000
3058 14578 1 0.16500 119244.000000
3059 12348 1 0.16500 119244.000000
3059 16508 1 0.16500 119244.000000
3060 12348 1 0.16500 119244.000000
3060 16226 1 0.16500 119244.000000
3061 12349 1 0.16500 119244.000000
3061 13508 1 0.16500 119244.000000
3062 12349 1 0.16500 119244.000000
3062 16819 1 0.16500 119244.000000
3063 12350 1 0.16500 119244.000000
3063 12574 1 0.16500 119244.000000
3064 12350 1 0.16500 119244.000000
3064 14141 1 0.16500 119244.000000
3065 12350 1 0.16500 119244.000000
3065 13973 1 0.16500 119244.000000
3066 12350 1 0.16500 119244.000000
3066 16712 1 0.16500 119244.000000
3067 12351 1 0.16500 119244.000000
3067 14475 1 0.16500 119244.000000
3068 12351 1 0.16500 119244.000000
3068 14944 1 0.16500 119244.000000
3069 12351 1 0.16500 119244.000000
3069 16972 1 0.16500 119244.000000
3070 12352 1 0.16500 119244.000000
3070 14779 1 0.16500 119244.000000
3071 12352 1 0.16500 119244.000000
3071 15833 1 0.16500 119244.000000
3072 12352 1 0.16500 119244.000000
3072 15355 1 0.16500 119244.000000
3073 12352 1 0.16500 119244.000000
3073 16779 1 0.16500 119244.000000
3074 12353 1 0.16500 119244.000000
3074 13215 1 0.16500 119244.000000
3075 12353 1 0.16500 119244.000000
3075 16314 1 0.16500 119244.000000
3076 12353 1 0.16500 119244.000000
3076 14336 1 0.16500 119244.000000
3077 12354 1 0.16500 119244.000000
3077 13752 1 0.16500 119244.000000
3078 12354 1 0.16500 119244.000000
3078 16557 1 0.16500 119244.000000
3079 12354 1 0.16500 119244.000000
3079 15902 1 0.16500 119244.000000
3080 12355 1 0.16500 119244.000000
3080 16399 1 0.16500 119244.000000
3081 12355 1 0.16500 119244.000000
3081 16861 1 0.16500 119244.000000
3082 12356 1 0.16500 119244.000000
3082 16569 1 0.16500 119244.000000
3083 12356 1 0.16500 119244.000000
3083 16673 1 0.16500 119244.000000
3084 13764 1 0.16500 119244.000000
3084 15115 1 0.16500 119244.000000
3085 12357 1 0.16500 119244.000000
3085 16393 1 0.16500 119244.000000
3086 12357 1 0.16500 119244.000000
3086 13764 1 0.16500 119244.000000
3087 12358 1 0.16500 119244.000000
3087 13899 1 0.16500 119244.000000
3088 12358 1 0.16500 119244.000000
3088 12737 1 0.16500 119244.000000
3089 12358 1 0.16500 119244.000000
3089 14973 1 0.16500 119244.000000
3090 12359 1 0.16500 119244.000000
3090 13412 1 0.16500 119244.000000
3091 12359 1 0.16500 119244.000000
3091 13161 1 0.16500 119244.000000
3092 12359 1 0.16500 119244.000000
3092 14400 1 0.16500 119244.000000
3093 12359 1 0.16500 119244.000000
3093 12402 1 0.16500 119244.000000
3094 12360 1 0.16500 119244.000000
3094 15028 1 0.16500 119244.000000
3095 12360 1 0.16500 119244.000000
3095 12992 1 0.16500 119244.000000
3096 12360 1 0.16500 119244.000000
3096 15132 1 0.16500 119244.000000
3097 12361 1 0.16500 119244.000000
3097 13966 1 0.16500 119244.000000
3098 12361 1 0.16500 119244.000000
3098 14061 1 0.16500 119244.000000
3099 12361 1 0.16500 119244.000000
3099 16165 1 0.16500 119244.000000
3100 12362 1 0.16500 119244.000000
3100 16434 1 0.16500 119244.000000
3101 12362 1 0.16500 119244.000000
3101 17711 1 0.16500 119244.000000
3102 12363 1 0.16500 119244.000000
3102 14774 1 0.16500 119244.000000
3103 12363 1 0.16500 119244.000000
3103 13164 1 0.16500 119244.000000
3104 15031 1 0.16500 119244.000000
3104 18356 1 0.16500 119244.000000
3105 15740 1 0.16500 119244.000000
3105 18356 1 0.16500 119244.000000
3106 13875 1 0.16500 119244.000000
3106 18356 1 0.16500 119244.000000
3107 15718 1 0.16500 119244.000000
3107 16612 1 0.16500 119244.000000
3108 12705 1 0.16500 119244.000000
3108 15718 1 0.16500 119244.000000
3109 18359 1 0.16500 119244.000000
3109 18362 1 0.16500 119244.000000
3110 12364 1 0.16500 119244.000000
3110 16762 1 0.16500 119244.000000
3111 12364 1 0.16500 119244.000000
3111 13720 1 0.16500 119244.000000
3112 12364 1 0.16500 119244.000000
3112 14520 1 0.16500 119244.000000
3113 12365 1 0.16500 119244.000000
3113 14433 1 0.16500 119244.000000
3114 12365 1 0.16500 119244.000000
3114 16891 1 0.16500 119244.000000
3115 12365 1 0.16500 119244.000000
3115 13095 1 0.16500 119244.000000
3116 12365 1 0.16500 119244.000000
3116 16811 1 0.16500 119244.000000
3117 12366 1 0.16500 119244.000000
3117 13411 1 0.16500 119244.000000
3118 12366 1 0.16500 119244.000000
3118 14436 1 0.16500 119244.000000
3119 12367 1 0.16500 119244.000000
3119 18815 1 0.16500 119244.000000
3120 12367 1 0.16500 119244.000000
3120 15128 1 0.16500 119244.000000
3121 12367 1 0.16500 119244.000000
3121 15720 1 0.16500 119244.000000
3122 12368 1 0.16500 119244.000000
3122 15101 1 0.16500 119244.000000
3123 12368 1 0.16500 119244.000000
3123 15247 1 0.16500 119244.000000
3124 12368 1 0.16500 119244.000000
3124 15627 1 0.16500 119244.000000
3125 12368 1 0.16500 119244.000000
3125 15739 1 0.16500 119244.000000
3126 12369 1 0.16500 119244.000000
3126 14869 1 0.16500 119244.000000
3127 12369 1 0.16500 119244.000000
3127 16014 1 0.16500 119244.000000
3128 12369 1 0.16500 119244.000000
3128 16824 1 0.16500 119244.000000
3129 12369 1 0.16500 119244.000000
3129 16908 1 0.16500 119244.000000
3130 12370 1 0.16500 119244.000000
3130 14782 1 0.16500 119244.000000
3131 12370 1 0.16500 119244.000000
3131 13818 1 0.16500 119244.000000
3132 12370 1 0.16500 119244.000000
3132 12454 1 0.16500 119244.000000
3133 14327 1 0.16500 119244.000000
3133 16018 1 0.16500 119244.000000
3134 12371 1 0.16500 119244.000000
3134 14327 1 0.16500 119244.000000
3135 14327 1 0.16500 119244.000000
3135 15457 1 0.16500 119244.000000
3136 12371 1 0.16500 119244.000000
3136 15918 1 0.16500 119244.000000
3137 12372 1 0.16500 119244.000000
3137 16327 1 0.16500 119244.000000
3138 12372 1 0.16500 119244.000000
3138 15497 1 0.16500 119244.000000
3139 12372 1 0.16500 119244.000000
3139 13740 1 0.16500 119244.000000
3140 12373 1 0.16500 119244.000000
3140 16538 1 0.16500 119244.000000
3141 12373 1 0.16500 119244.000000
3141 15692 1 0.16500 119244.000000
3142 12373 1 0.16500 119244.000000
3142 13326 1 0.16500 119244.000000
3143 12373 1 0.16500 119244.000000
3143 14184 1 0.16500 119244.000000
3144 12374 1 0.16500 119244.000000
3144 14337 1 0.16500 119244.000000
3145 12374 1 0.16500 119244.000000
3145 15127 1 0.16500 119244.000000
3146 12374 1 0.16500 119244.000000
3146 13591 1 0.16500 119244.000000
3147 16008 1 0.16500 119244.000000
3147 17831 1 0.16500 119244.000000
3148 12375 1 0.16500 119244.000000
3148 18635 1 0.16500 119244.000000
3149 12375 1 0.16500 119244.000000
3149 16225 1 0.16500 119244.000000
3150 12376 1 0.16500 119244.000000
3150 14169 1 0.16500 119244.000000
3151 12376 1 0.16500 119244.000000
3151 13581 1 0.16500 119244.000000
3152 12376 1 0.16500 119244.000000
3152 12424 1 0.16500 119244.000000
3153 12376 1 0.16500 119244.000000
3153 13238 1 0.16500 119244.000000
3154 12377 1 0.16500 119244.000000
3154 15982 1 0.16500 119244.000000
3155 12377 1 0.16500 119244.000000
3155 16497 1 0.16500 119244.000000
3156 12377 1 0.16500 119244.000000
3156 13497 1 0.16500 119244.000000
3157 12378 1 0.16500 119244.000000
3157 14130 1 0.16500 119244.000000
3158 12378 1 0.16500 119244.000000
3158 16170 1 0.16500 119244.000000
3159 12378 1 0.16500 119244.000000
3159 16513 1 0.16500 119244.000000
3160 12378 1 0.16500 119244.000000
3160 15374 1 0.16500 119244.000000
3161 16970 1 0.16500 119244.000000
3161 18362 1 0.16500 119244.000000
3162 12379 1 0.16500 119244.000000
3162 16763 1 0.16500 119244.000000
3163 12379 1 0.16500 119244.000000
3163 15323 1 0.16500 119244.000000
3164 12379 1 0.16500 119244.000000
3164 12715 1 0.16500 119244.000000
3165 12380 1 0.16500 119244.000000
3165 14087 1 0.16500 119244.000000
3166 12380 1 0.16500 119244.000000
3166 14054 1 0.16500 119244.000000
3167 12380 1 0.16500 119244.000000
3167 12418 1 0.16500 119244.000000
3168 12380 1 0.16500 119244.000000
3168 12666 1 0.16500 119244.000000
3169 12381 1 0.16500 119244.000000
3169 15058 1 0.16500 119244.000000
3170 12381 1 0.16500 119244.000000
3170 15278 1 0.16500 119244.000000
3171 12381 1 0.16500 119244.000000
3171 13194 1 0.16500 119244.000000
3172 12381 1 0.16500 119244.000000
3172 13204 1 0.16500 119244.000000
3173 12382 1 0.16500 119244.000000
3173 13924 1 0.16500 119244.000000
3174 12382 1 0.16500 119244.000000
3174 14576 1 0.16500 119244.000000
3175 12382 1 0.16500 119244.000000
3175 13182 1 0.16500 119244.000000
3176 12382 1 0.16500 119244.000000
3176 13110 1 0.16500 119244.000000
3177 12383 1 0.16500 119244.000000
3177 13743 1 0.16500 119244.000000
3178 12383 1 0.16500 119244.000000
3178 15224 1 0.16500 119244.000000
3179 12383 1 0.16500 119244.000000
3179 14125 1 0.16500 119244.000000
3180 12383 1 0.16500 119244.000000
3180 12981 1 0.16500 119244.000000
3181 12384 1 0.16500 119244.000000
3181 13622 1 0.16500 119244.000000
3182 12384 1 0.16500 119244.000000
3182 13821 1 0.16500 119244.000000
3183 12384 1 0.16500 119244.000000
3183 15779 1 0.16500 119244.000000
3184 17413 1 0.16500 119244.000000
3184 18212 1 0.16500 119244.000000
3185 12385 1 0.16500 119244.000000
3185 16664 1 0.16500 119244.000000
3186 12385 1 0.16500 119244.000000
3186 13134 1 0.16500 119244.000000
3187 12385 1 0.16500 119244.000000
3187 14709 1 0.16500 119244.000000
3188 12386 1 0.16500 119244.000000
3188 14973 1 0.16500 119244.000000
3189 12386 1 0.16500 119244.000000
3189 18650 1 0.16500 119244.000000
3190 12387 1 0.16500 119244.000000
3190 14585 1 0.16500 119244.000000
3191 12387 1 0.16500 119244.000000
3191 14038 1 0.16500 119244.000000
3192 12387 1 0.16500 119244.000000
3192 16281 1 0.16500 119244.000000
3193 12387 1 0.16500 119244.000000
3193 12643 1 0.16500 119244.000000
3194 12388 1 0.16500 119244.000000
3194 16559 1 0.16500 119244.000000
3195 12388 1 0.16500 119244.000000
3195 17795 1 0.16500 119244.000000
3196 12563 1 0.16500 119244.000000
3196 16559 1 0.16500 119244.000000
3197 12388 1 0.16500 119244.000000
3197 14252 1 0.16500 119244.000000
3198 12389 1 0.16500 119244.000000
3198 16805 1 0.16500 119244.000000
3199 12389 1 0.16500 119244.000000
3199 13610 1 0.16500 119244.000000
3200 12389 1 0.16500 119244.000000
3200 13800 1 0.16500 119244.000000
3201 12389 1 0.16500 119244.000000
3201 17011 1 0.16500 119244.000000
3202 12390 1 0.16500 119244.000000
3202 14090 1 0.16500 119244.000000
3203 12390 1 0.16500 119244.000000
3203 13740 1 0.16500 119244.000000
3204 12390 1 0.16500 119244.000000
3204 15261 1 0.16500 119244.000000
3205 12390 1 0.16500 119244.000000
3205 14658 1 0.16500 119244.000000
3206 12391 1 0.16500 119244.000000
3206 16316 1 0.16500 119244.000000
3207 12391 1 0.16500 119244.000000
3207 16383 1 0.16500 119244.000000
3208 12391 1 0.16500 119244.000000
3208 14392 1 0.16500 119244.000000
3209 12392 1 0.16500 119244.000000
3209 15466 1 0.16500 119244.000000
3210 12392 1 0.16500 119244.000000
3210 14496 1 0.16500 119244.000000
3211 12392 1 0.16500 119244.000000
3211 16164 1 0.16500 119244.000000
3212 12392 1 0.16500 119244.000000
3212 15484 1 0.16500 119244.000000
3213 12393 1 0.16500 119244.000000
3213 12447 1 0.16500 119244.000000
3214 12477 1 0.16500 119244.000000
3214 15254 1 0.16500 119244.000000
3215 12393 1 0.16500 119244.000000
3215 12477 1 0.16500 119244.000000
3216 12394 1 0.16500 119244.000000
3216 13246 1 0.16500 119244.000000
3217 12394 1 0.16500 119244.000000
3217 12408 1 0.16500 119244.000000
3218 12394 1 0.16500 119244.000000
3218 14886 1 0.16500 119244.000000
3219 12395 1 0.16500 119244.000000
3219 12808 1 0.16500 119244.000000
3220 12395 1 0.16500 119244.000000
3220 18788 1 0.16500 119244.000000
3221 12395 1 0.16500 119244.000000
3221 17495 1 0.16500 119244.000000
3222 12395 1 0.16500 119244.000000
3222 12408 1 0.16500 119244.000000
3223 12396 1 0.16500 119244.000000
3223 18770 1 0.16500 119244.000000
3224 12396 1 0.16500 119244.000000
3224 16348 1 0.16500 119244.000000
3225 12397 1 0.16500 119244.000000
3225 16662 1 0.16500 119244.000000
3226 12397 1 0.16500 119244.000000
3226 14404 1 0.16500 119244.000000
3227 12397 1 0.16500 119244.000000
3227 13436 1 0.16500 119244.000000
3228 12397 1 0.16500 119244.000000
3228 13794 1 0.16500 119244.000000
3229 12398 1 0.16500 119244.000000
3229 15818 1 0.16500 119244.000000
3230 12398 1 0.16500 119244.000000
3230 13831 1 0.16500 119244.000000
3231 12398 1 0.16500 119244.000000
3231 12787 1 0.16500 119244.000000
3232 12398 1 0.16500 119244.000000
3232 12673 1 0.16500 119244.000000
3233 12399 1 0.16500 119244.000000
3233 13247 1 0.16500 119244.000000
3234 11882 1 0.16500 119244.000000
3234 12683 1 0.16500 119244.000000
3235 11882 1 0.16500 119244.000000
3235 14162 1 0.16500 119244.000000
3236 12400 1 0.16500 119244.000000
3236 13354 1 0.16500 119244.000000
3237 12400 1 0.16500 119244.000000
3237 15490 1 0.16500 119244.000000
3238 12400 1 0.16500 119244.000000
3238 17015 1 0.16500 119244.000000
3239 12400 1 0.16500 119244.000000
3239 13441 1 0.16500 119244.000000
3240 12401 1 0.16500 119244.000000
3240 14153 1 0.16500 119244.000000
3241 12401 1 0.16500 119244.000000
3241 15361 1 0.16500 119244.000000
3242 12401 1 0.16500 119244.000000
3242 16368 1 0.16500 119244.000000
3243 12402 1 0.16500 119244.000000
3243 15926 1 0.16500 119244.000000
3244 12402 1 0.16500 119244.000000
3244 13708 1 0.16500 119244.000000
3245 12402 1 0.16500 119244.000000
3245 13077 1 0.16500 119244.000000
3246 12403 1 0.16500 119244.000000
3246 13204 1 0.16500 119244.000000
3247 12403 1 0.16500 119244.000000
3247 13899 1 0.16500 119244.000000
3248 12386 1 0.16500 119244.000000
3248 12403 1 0.16500 119244.000000
3249 12403 1 0.16500 119244.000000
3249 12606 1 0.16500 119244.000000
3250 12404 1 0.16500 119244.000000
3250 12588 1 0.16500 119244.000000
3251 12404 1 0.16500 119244.000000
3251 14530 1 0.16500 119244.000000
3252 12404 1 0.16500 119244.000000
3252 14099 1 0.16500 119244.000000
3253 12405 1 0.16500 119244.000000
3253 13175 1 0.16500 119244.000000
3254 12405 1 0.16500 119244.000000
3254 16116 1 0.16500 119244.000000
3255 12405 1 0.16500 119244.000000
3255 13256 1 0.16500 119244.000000
3256 12406 1 0.16500 119244.000000
3256 16624 1 0.16500 119244.000000
3257 12406 1 0.16500 119244.000000
3257 14503 1 0.16500 119244.000000
3258 12406 1 0.16500 119244.000000
3258 15849 1 0.16500 119244.000000
3259 12406 1 0.16500 119244.000000
3259 12517 1 0.16500 119244.000000
3260 12407 1 0.16500 119244.000000
3260 14059 1 0.16500 119244.000000
3261 12407 1 0.16500 119244.000000
3261 13964 1 0.16500 119244.000000
3262 12407 1 0.16500 119244.000000
3262 13831 1 0.16500 119244.000000
3263 12407 1 0.16500 119244.000000
3263 14174 1 0.16500 119244.000000
3264 12408 1 0.16500 119244.000000
3264 14451 1 0.16500 119244.000000
3265 12409 1 0.16500 119244.000000
3265 13326 1 0.16500 119244.000000
3266 12409 1 0.16500 119244.000000
3266 12776 1 0.16500 119244.000000
3267 12409 1 0.16500 119244.000000
3267 13193 1 0.16500 119244.000000
3268 12409 1 0.16500 119244.000000
3268 13664 1 0.16500 119244.000000
3269 12410 1 0.16500 119244.000000
3269 15955 1 0.16500 119244.000000
3270 12410 1 0.16500 119244.000000
3270 13880 1 0.16500 119244.000000
3271 12410 1 0.16500 119244.000000
3271 12766 1 0.16500 119244.000000
3272 12410 1 0.16500 119244.000000
3272 14767 1 0.16500 119244.000000
3273 12411 1 0.16500 119244.000000
3273 13610 1 0.16500 119244.000000
3274 12411 1 0.16500 119244.000000
3274 12526 1 0.16500 119244.000000
3275 12411 1 0.16500 119244.000000
3275 16985 1 0.16500 119244.000000
3276 12411 1 0.16500 119244.000000
3276 16080 1 0.16500 119244.000000
3277 12412 1 0.16500 119244.000000
3277 15814 1 0.16500 119244.000000
3278 12412 1 0.16500 119244.000000
3278 15261 1 0.16500 119244.000000
3279 12413 1 0.16500 119244.000000
3279 12605 1 0.16500 119244.000000
3280 12413 1 0.16500 119244.000000
3280 15725 1 0.16500 119244.000000
3281 12413 1 0.16500 119244.000000
3281 13794 1 0.16500 119244.000000
3282 12414 1 0.16500 119244.000000
3282 16905 1 0.16500 119244.000000
3283 12414 1 0.16500 119244.000000
3283 16997 1 0.16500 119244.000000
3284 12680 1 0.16500 119244.000000
3284 18365 1 0.16500 119244.000000
3285 15189 1 0.16500 119244.000000
3285 18365 1 0.16500 119244.000000
3286 12415 1 0.16500 119244.000000
3286 13389 1 0.16500 119244.000000
3287 12415 1 0.16500 119244.000000
3287 16126 1 0.16500 119244.000000
3288 12416 1 0.16500 119244.000000
3288 13837 1 0.16500 119244.000000
3289 12416 1 0.16500 119244.000000
3289 13603 1 0.16500 119244.000000
3290 12416 1 0.16500 119244.000000
3290 13448 1 0.16500 119244.000000
3291 13120 1 0.16500 119244.000000
3291 13738 1 0.16500 119244.000000
3292 12417 1 0.16500 119244.000000
3292 13716 1 0.16500 119244.000000
3293 12417 1 0.16500 119244.000000
3293 13120 1 0.16500 119244.000000
3294 12417 1 0.16500 119244.000000
3294 13577 1 0.16500 119244.000000
3295 12418 1 0.16500 119244.000000
3295 13762 1 0.16500 119244.000000
3296 12418 1 0.16500 119244.000000
3296 15248 1 0.16500 119244.000000
3297 12418 1 0.16500 119244.000000
3297 14247 1 0.16500 119244.000000
3298 13461 1 0.16500 119244.000000
3298 14069 1 0.16500 119244.000000
3299 12419 1 0.16500 119244.000000
3299 12924 1 0.16500 119244.000000
3300 12419 1 0.16500 119244.000000
3300 13461 1 0.16500 119244.000000
3301 12419 1 0.16500 119244.000000
3301 13063 1 0.16500 119244.000000
3302 13437 1 0.16500 119244.000000
3302 18368 1 0.16500 119244.000000
3303 18368 1 0.16500 119244.000000
3303 18443 1 0.16500 119244.000000
3304 15754 1 0.16500 119244.000000
3304 18368 1 0.16500 119244.000000
3305 12420 1 0.16500 119244.000000
3305 15710 1 0.16500 119244.000000
3306 12420 1 0.16500 119244.000000
3306 14522 1 0.16500 119244.000000
3307 12420 1 0.16500 119244.000000
3307 15425 1 0.16500 119244.000000
3308 12420 1 0.16500 119244.000000
3308 12631 1 0.16500 119244.000000
3309 12240 1 0.16500 119244.000000
3309 12421 1 0.16500 119244.000000
3310 12421 1 0.16500 119244.000000
3310 12942 1 0.16500 119244.000000
3311 12421 1 0.16500 119244.000000
3311 13947 1 0.16500 119244.000000
3312 12421 1 0.16500 119244.000000
3312 16573 1 0.16500 119244.000000
3313 12422 1 0.16500 119244.000000
3313 16258 1 0.16500 119244.000000
3314 12422 1 0.16500 119244.000000
3314 16389 1 0.16500 119244.000000
3315 12422 1 0.16500 119244.000000
3315 12550 1 0.16500 119244.000000
3316 12422 1 0.16500 119244.000000
3316 16574 1 0.16500 119244.000000
3317 12423 1 0.16500 119244.000000
3317 14617 1 0.16500 119244.000000
3318 12423 1 0.16500 119244.000000
3318 16289 1 0.16500 119244.000000
3319 12423 1 0.16500 119244.000000
3319 14714 1 0.16500 119244.000000
3320 12424 1 0.16500 119244.000000
3320 15946 1 0.16500 119244.000000
3321 12424 1 0.16500 119244.000000
3321 16562 1 0.16500 119244.000000
3322 12424 1 0.16500 119244.000000
3322 13908 1 0.16500 119244.000000
3323 12425 1 0.16500 119244.000000
3323 15036 1 0.16500 119244.000000
3324 12425 1 0.16500 119244.000000
3324 13345 1 0.16500 119244.000000
3325 12426 1 0.16500 119244.000000
3325 13630 1 0.16500 119244.000000
3326 12426 1 0.16500 119244.000000
3326 14663 1 0.16500 119244.000000
3327 12426 1 0.16500 119244.000000
3327 13796 1 0.16500 119244.000000
3328 13329 1 0.16500 119244.000000
3328 14663 1 0.16500 119244.000000
3329 12427 1 0.16500 119244.000000
3329 13927 1 0.16500 119244.000000
3330 12427 1 0.16500 119244.000000
3330 13624 1 0.16500 119244.000000
3331 12427 1 0.16500 119244.000000
3331 13040 1 0.16500 119244.000000
3332 12427 1 0.16500 119244.000000
3332 18047 1 0.16500 119244.000000
3333 12428 1 0.16500 119244.000000
3333 18761 1 0.16500 119244.000000
3334 12428 1 0.16500 119244.000000
3334 14322 1 0.16500 119244.000000
3335 12428 1 0.16500 119244.000000
3335 14284 1 0.16500 119244.000000
3336 12429 1 0.16500 119244.000000
3336 15760 1 0.16500 119244.000000
3337 12429 1 0.16500 119244.000000
3337 12872 1 0.16500 119244.000000
3338 12430 1 0.16500 119244.000000
3338 15976 1 0.16500 119244.000000
3339 12430 1 0.16500 119244.000000
3339 16372 1 0.16500 119244.000000
3340 12431 1 0.16500 119244.000000
3340 13868 1 0.16500 119244.000000
3341 12431 1 0.16500 119244.000000
3341 13459 1 0.16500 119244.000000
3342 12431 1 0.16500 119244.000000
3342 13565 1 0.16500 119244.000000
3343 12431 1 0.16500 119244.000000
3343 16194 1 0.16500 119244.000000
3344 12432 1 0.16500 119244.000000
3344 14040 1 0.16500 119244.000000
3345 12432 1 0.16500 119244.000000
3345 18848 1 0.16500 119244.000000
3346 12432 1 0.16500 119244.000000
3346 12801 1 0.16500 119244.000000
3347 12432 1 0.16500 119244.000000
3347 17663 1 0.16500 119244.000000
3348 12433 1 0.16500 119244.000000
3348 15048 1 0.16500 119244.000000
3349 12433 1 0.16500 119244.000000
3349 14782 1 0.16500 119244.000000
3350 12433 1 0.16500 119244.000000
3350 12765 1 0.16500 119244.000000
3351 14078 1 0.16500 119244.000000
3351 18371 1 0.16500 119244.000000
3352 15534 1 0.16500 119244.000000
3352 18371 1 0.16500 119244.000000
3353 16724 1 0.16500 119244.000000
3353 18371 1 0.16500 119244.000000
3354 12434 1 0.16500 119244.000000
3354 14900 1 0.16500 119244.000000
3355 12434 1 0.16500 119244.000000
3355 16570 1 0.16500 119244.000000
3356 12434 1 0.16500 119244.000000
3356 14944 1 0.16500 119244.000000
3357 14319 1 0.16500 119244.000000
3357 17007 1 0.16500 119244.000000
3358 12435 1 0.16500 119244.000000
3358 13270 1 0.16500 119244.000000
3359 12435 1 0.16500 119244.000000
3359 14319 1 0.16500 119244.000000
3360 12435 1 0.16500 119244.000000
3360 12651 1 0.16500 119244.000000
3361 12436 1 0.16500 119244.000000
3361 14838 1 0.16500 119244.000000
3362 12436 1 0.16500 119244.000000
3362 16705 1 0.16500 119244.000000
3363 12436 1 0.16500 119244.000000
3363 13249 1 0.16500 119244.000000
3364 12437 1 0.16500 119244.000000
3364 12683 1 0.16500 119244.000000
3365 12437 1 0.16500 119244.000000
3365 18443 1 0.16500 119244.000000
3366 13769 1 0.16500 119244.000000
3366 16804 1 0.16500 119244.000000
3367 12437 1 0.16500 119244.000000
3367 13769 1 0.16500 119244.000000
3368 12438 1 0.16500 119244.000000
3368 13393 1 0.16500 119244.000000
3369 12438 1 0.16500 119244.000000
3369 13404 1 0.16500 119244.000000
3370 12438 1 0.16500 119244.000000
3370 16127 1 0.16500 119244.000000
3371 13616 1 0.16500 119244.000000
3371 18374 1 0.16500 119244.000000
3372 12439 1 0.16500 119244.000000
3372 13770 1 0.16500 119244.000000
3373 12439 1 0.16500 119244.000000
3373 13383 1 0.16500 119244.000000
3374 12439 1 0.16500 119244.000000
3374 12457 1 0.16500 119244.000000
3375 12439 1 0.16500 119244.000000
3375 15733 1 0.16500 119244.000000
3376 14889 1 0.16500 119244.000000
3376 18377 1 0.16500 119244.000000
3377 15695 1 0.16500 119244.000000
3377 18377 1 0.16500 119244.000000
3378 15646 1 0.16500 119244.000000
3378 18377 1 0.16500 119244.000000
3379 13601 1 0.16500 119244.000000
3379 18380 1 0.16500 119244.000000
3380 15799 1 0.16500 119244.000000
3380 18380 1 0.16500 119244.000000
3381 12440 1 0.16500 119244.000000
3381 15076 1 0.16500 119244.000000
3382 12440 1 0.16500 119244.000000
3382 14956 1 0.16500 119244.000000
3383 12440 1 0.16500 119244.000000
3383 12937 1 0.16500 119244.000000
3384 12440 1 0.16500 119244.000000
3384 14290 1 0.16500 119244.000000
3385 12441 1 0.16500 119244.000000
3385 15274 1 0.16500 119244.000000
3386 12441 1 0.16500 119244.000000
3386 12989 1 0.16500 119244.000000
3387 12441 1 0.16500 119244.000000
3387 13699 1 0.16500 119244.000000
3388 12442 1 0.16500 119244.000000
3388 16284 1 0.16500 119244.000000
3389 12442 1 0.16500 119244.000000
3389 13315 1 0.16500 119244.000000
3390 12442 1 0.16500 119244.000000
3390 14698 1 0.16500 119244.000000
3391 12442 1 0.16500 119244.000000
3391 13914 1 0.16500 119244.000000
3392 12443 1 0.16500 119244.000000
3392 14523 1 0.16500 119244.000000
3393 12443 1 0.16500 119244.000000
3393 13088 1 0.16500 119244.000000
3394 12443 1 0.16500 119244.000000
3394 16933 1 0.16500 119244.000000
3395 12443 1 0.16500 119244.000000
3395 13885 1 0.16500 119244.000000
3396 12444 1 0.16500 119244.000000
3396 12710 1 0.16500 119244.000000
3397 12444 1 0.16500 119244.000000
3397 14450 1 0.16500 119244.000000
3398 12444 1 0.16500 119244.000000
3398 16887 1 0.16500 119244.000000
3399 12445 1 0.16500 119244.000000
3399 16421 1 0.16500 119244.000000
3400 12445 1 0.16500 119244.000000
3400 13695 1 0.16500 119244.000000
3401 12445 1 0.16500 119244.000000
3401 14124 1 0.16500 119244.000000
3402 12446 1 0.16500 119244.000000
3402 15082 1 0.16500 119244.000000
3403 12446 1 0.16500 119244.000000
3403 13985 1 0.16500 119244.000000
3404 12446 1 0.16500 119244.000000
3404 15600 1 0.16500 119244.000000
3405 12446 1 0.16500 119244.000000
3405 14453 1 0.16500 119244.000000
3406 12447 1 0.16500 119244.000000
3406 16584 1 0.16500 119244.000000
3407 12750 1 0.16500 119244.000000
3407 15198 1 0.16500 119244.000000
3408 12448 1 0.16500 119244.000000
3408 12750 1 0.16500 119244.000000
3409 12448 1 0.16500 119244.000000
3409 15559 1 0.16500 119244.000000
3410 12449 1 0.16500 119244.000000
3410 16644 1 0.16500 119244.000000
3411 12449 1 0.16500 119244.000000
3411 16829 1 0.16500 119244.000000
3412 12449 1 0.16500 119244.000000
3412 14730 1 0.16500 119244.000000
3413 12449 1 0.16500 119244.000000
3413 16728 1 0.16500 119244.000000
3414 12450 1 0.16500 119244.000000
3414 13253 1 0.16500 119244.000000
3415 13253 1 0.16500 119244.000000
3415 14328 1 0.16500 119244.000000
3416 12450 1 0.16500 119244.000000
3416 13055 1 0.16500 119244.000000
3417 14959 1 0.16500 119244.000000
3417 18383 1 0.16500 119244.000000
3418 18383 1 0.16500 119244.000000
3418 19052 1 0.16500 119244.000000
3419 13620 1 0.16500 119244.000000
3419 18383 1 0.16500 119244.000000
3420 12451 1 0.16500 119244.000000
3420 14920 1 0.16500 119244.000000
3421 12451 1 0.16500 119244.000000
3421 15388 1 0.16500 119244.000000
3422 12451 1 0.16500 119244.000000
3422 15980 1 0.16500 119244.000000
3423 12451 1 0.16500 119244.000000
3423 16021 1 0.16500 119244.000000
3424 12452 1 0.16500 119244.000000
3424 15963 1 0.16500 119244.000000
3425 12452 1 0.16500 119244.000000
3425 18179 1 0.16500 119244.000000
3426 12453 1 0.16500 119244.000000
3426 15820 1 0.16500 119244.000000
3427 12453 1 0.16500 119244.000000
3427 14257 1 0.16500 119244.000000
3428 12453 1 0.16500 119244.000000
3428 16358 1 0.16500 119244.000000
3429 12453 1 0.16500 119244.000000
3429 14953 1 0.16500 119244.000000
3430 15621 1 0.16500 119244.000000
3430 18386 1 0.16500 119244.000000
3431 14678 1 0.16500 119244.000000
3431 18386 1 0.16500 119244.000000
3432 12307 1 0.16500 119244.000000
3432 12454 1 0.16500 119244.000000
3433 12454 1 0.16500 119244.000000
3433 14321 1 0.16500 119244.000000
3434 12467 1 0.16500 119244.000000
3434 17915 1 0.16500 119244.000000
3435 12455 1 0.16500 119244.000000
3435 14984 1 0.16500 119244.000000
3436 12455 1 0.16500 119244.000000
3436 12496 1 0.16500 119244.000000
3437 12455 1 0.16500 119244.000000
3437 15182 1 0.16500 119244.000000
3438 12455 1 0.16500 119244.000000
3438 14916 1 0.16500 119244.000000
3439 12456 1 0.16500 119244.000000
3439 13088 1 0.16500 119244.000000
3440 12456 1 0.16500 119244.000000
3440 13147 1 0.16500 119244.000000
3441 12456 1 0.16500 119244.000000
3441 16802 1 0.16500 119244.000000
3442 12456 1 0.16500 119244.000000
3442 15797 1 0.16500 119244.000000
3443 12457 1 0.16500 119244.000000
3443 14620 1 0.16500 119244.000000
3444 12458 1 0.16500 119244.000000
3444 13230 1 0.16500 119244.000000
3445 12458 1 0.16500 119244.000000
3445 13662 1 0.16500 119244.000000
3446 12458 1 0.16500 119244.000000
3446 13932 1 0.16500 119244.000000
3447 12458 1 0.16500 119244.000000
3447 13726 1 0.16500 119244.000000
3448 12459 1 0.16500 119244.000000
3448 13103 1 0.16500 119244.000000
3449 12459 1 0.16500 119244.000000
3449 14812 1 0.16500 119244.000000
3450 12393 1 0.16500 119244.000000
3450 12459 1 0.16500 119244.000000
3451 12459 1 0.16500 119244.000000
3451 16010 1 0.16500 119244.000000
3452 12460 1 0.16500 119244.000000
3452 14837 1 0.16500 119244.000000
3453 12460 1 0.16500 119244.000000
3453 13460 1 0.16500 119244.000000
3454 12461 1 0.16500 119244.000000
3454 14964 1 0.16500 119244.000000
3455 12461 1 0.16500 119244.000000
3455 12493 1 0.16500 119244.000000
3456 12461 1 0.16500 119244.000000
3456 16079 1 0.16500 119244.000000
3457 12462 1 0.16500 119244.000000
3457 16568 1 0.16500 119244.000000
3458 14988 1 0.16500 119244.000000
3458 16941 1 0.16500 119244.000000
3459 12462 1 0.16500 119244.000000
3459 13056 1 0.16500 119244.000000
3460 12463 1 0.16500 119244.000000
3460 15969 1 0.16500 119244.000000
3461 12463 1 0.16500 119244.000000
3461 14499 1 0.16500 119244.000000
3462 12463 1 0.16500 119244.000000
3462 16190 1 0.16500 119244.000000
3463 12463 1 0.16500 119244.000000
3463 16794 1 0.16500 119244.000000
3464 11718 1 0.16500 119244.000000
3464 12464 1 0.16500 119244.000000
3465 12464 1 0.16500 119244.000000
3465 15038 1 0.16500 119244.000000
3466 12464 1 0.16500 119244.000000
3466 15430 1 0.16500 119244.000000
3467 12464 1 0.16500 119244.000000
3467 16349 1 0.16500 119244.000000
3468 12465 1 0.16500 119244.000000
3468 16270 1 0.16500 119244.000000
3469 12465 1 0.16500 119244.000000
3469 14312 1 0.16500 119244.000000
3470 12465 1 0.16500 119244.000000
3470 19013 1 0.16500 119244.000000
3471 12466 1 0.16500 119244.000000
3471 13781 1 0.16500 119244.000000
3472 12466 1 0.16500 119244.000000
3472 15233 1 0.16500 119244.000000
3473 12466 1 0.16500 119244.000000
3473 15228 1 0.16500 119244.000000
3474 12466 1 0.16500 119244.000000
3474 13584 1 0.16500 119244.000000
3475 12467 1 0.16500 119244.000000
3475 15941 1 0.16500 119244.000000
3476 12467 1 0.16500 119244.000000
3476 14561 1 0.16500 119244.000000
3477 12546 1 0.16500 119244.000000
3477 17879 1 0.16500 119244.000000
3478 14410 1 0.16500 119244.000000
3478 17879 1 0.16500 119244.000000
3479 13867 1 0.16500 119244.000000
3479 17879 1 0.16500 119244.000000
3480 12468 1 0.16500 119244.000000
3480 13588 1 0.16500 119244.000000
3481 12468 1 0.16500 119244.000000
3481 16279 1 0.16500 119244.000000
3482 12468 1 0.16500 119244.000000
3482 14429 1 0.16500 119244.000000
3483 12468 1 0.16500 119244.000000
3483 14133 1 0.16500 119244.000000
3484 12469 1 0.16500 119244.000000
3484 15191 1 0.16500 119244.000000
3485 12469 1 0.16500 119244.000000
3485 17006 1 0.16500 119244.000000
3486 12470 1 0.16500 119244.000000
3486 15776 1 0.16500 119244.000000
3487 12470 1 0.16500 119244.000000
3487 13582 1 0.16500 119244.000000
3488 12470 1 0.16500 119244.000000
3488 15092 1 0.16500 119244.000000
3489 12471 1 0.16500 119244.000000
3489 16835 1 0.16500 119244.000000
3490 12471 1 0.16500 119244.000000
3490 18353 1 0.16500 119244.000000
3491 12471 1 0.16500 119244.000000
3491 13358 1 0.16500 119244.000000
3492 13653 1 0.16500 119244.000000
3492 15528 1 0.16500 119244.000000
3493 13653 1 0.16500 119244.000000
3493 18899 1 0.16500 119244.000000
3494 14548 1 0.16500 119244.000000
3494 16534 1 0.16500 119244.000000
3495 12472 1 0.16500 119244.000000
3495 13896 1 0.16500 119244.000000
3496 12472 1 0.16500 119244.000000
3496 15402 1 0.16500 119244.000000
3497 12472 1 0.16500 119244.000000
3497 16173 1 0.16500 119244.000000
3498 12472 1 0.16500 119244.000000
3498 15178 1 0.16500 119244.000000
3499 12473 1 0.16500 119244.000000
3499 16660 1 0.16500 119244.000000
3500 12473 1 0.16500 119244.000000
3500 18419 1 0.16500 119244.000000
3501 12473 1 0.16500 119244.000000
3501 14105 1 0.16500 119244.000000
3502 12473 1 0.16500 119244.000000
3502 15140 1 0.16500 119244.000000
3503 12474 1 0.16500 119244.000000
3503 13714 1 0.16500 119244.000000
3504 12474 1 0.16500 119244.000000
3504 13814 1 0.16500 119244.000000
3505 12474 1 0.16500 119244.000000
3505 16488 1 0.16500 119244.000000
3506 12475 1 0.16500 119244.000000
3506 14533 1 0.16500 119244.000000
3507 12475 1 0.16500 119244.000000
3507 15332 1 0.16500 119244.000000
3508 12475 1 0.16500 119244.000000
3508 15174 1 0.16500 119244.000000
3509 12475 1 0.16500 119244.000000
3509 16241 1 0.16500 119244.000000
3510 12476 1 0.16500 119244.000000
3510 14059 1 0.16500 119244.000000
3511 12476 1 0.16500 119244.000000
3511 14073 1 0.16500 119244.000000
3512 12476 1 0.16500 119244.000000
3512 15338 1 0.16500 119244.000000
3513 12476 1 0.16500 119244.000000
3513 16729 1 0.16500 119244.000000
3514 12477 1 0.16500 119244.000000
3514 15226 1 0.16500 119244.000000
3515 12477 1 0.16500 119244.000000
3515 16267 1 0.16500 119244.000000
3516 12478 1 0.16500 119244.000000
3516 15710 1 0.16500 119244.000000
3517 12478 1 0.16500 119244.000000
3517 12798 1 0.16500 119244.000000
3518 12479 1 0.16500 119244.000000
3518 18731 1 0.16500 119244.000000
3519 12479 1 0.16500 119244.000000
3519 13811 1 0.16500 119244.000000
3520 12479 1 0.16500 119244.000000
3520 13212 1 0.16500 119244.000000
3521 12480 1 0.16500 119244.000000
3521 16204 1 0.16500 119244.000000
3522 12480 1 0.16500 119244.000000
3522 13583 1 0.16500 119244.000000
3523 12480 1 0.16500 119244.000000
3523 16327 1 0.16500 119244.000000
3524 12480 1 0.16500 119244.000000
3524 16320 1 0.16500 119244.000000
3525 14526 1 0.16500 119244.000000
3525 18389 1 0.16500 119244.000000
3526 15764 1 0.16500 119244.000000
3526 18389 1 0.16500 119244.000000
3527 15465 1 0.16500 119244.000000
3527 18389 1 0.16500 119244.000000
3528 12481 1 0.16500 119244.000000
3528 16871 1 0.16500 119244.000000
3529 12481 1 0.16500 119244.000000
3529 16582 1 0.16500 119244.000000
3530 12481 1 0.16500 119244.000000
3530 16016 1 0.16500 119244.000000
3531 12482 1 0.16500 119244.000000
3531 14150 1 0.16500 119244.000000
3532 12482 1 0.16500 119244.000000
3532 13467 1 0.16500 119244.000000
3533 12482 1 0.16500 119244.000000
3533 13947 1 0.16500 119244.000000
3534 12482 1 0.16500 119244.000000
3534 16142 1 0.16500 119244.000000
3535 12483 1 0.16500 119244.000000
3535 12957 1 0.16500 119244.000000
3536 12483 1 0.16500 119244.000000
3536 17006 1 0.16500 119244.000000
3537 12483 1 0.16500 119244.000000
3537 17855 1 0.16500 119244.000000
3538 12484 1 0.16500 119244.000000
3538 16929 1 0.16500 119244.000000
3539 12484 1 0.16500 119244.000000
3539 13107 1 0.16500 119244.000000
3540 12484 1 0.16500 119244.000000
3540 18779 1 0.16500 119244.000000
3541 12484 1 0.16500 119244.000000
3541 14396 1 0.16500 119244.000000
3542 12485 1 0.16500 119244.000000
3542 12670 1 0.16500 119244.000000
3543 12485 1 0.16500 119244.000000
3543 17147 1 0.16500 119244.000000
3544 12485 1 0.16500 119244.000000
3544 14611 1 0.16500 119244.000000
3545 12485 1 0.16500 119244.000000
3545 14830 1 0.16500 119244.000000
3546 12486 1 0.16500 119244.000000
3546 16360 1 0.16500 119244.000000
3547 12486 1 0.16500 119244.000000
3547 12852 1 0.16500 119244.000000
3548 12486 1 0.16500 119244.000000
3548 15070 1 0.16500 119244.000000
3549 12487 1 0.16500 119244.000000
3549 14012 1 0.16500 119244.000000
3550 12487 1 0.16500 119244.000000
3550 14995 1 0.16500 119244.000000
3551 12487 1 0.16500 119244.000000
3551 15124 1 0.16500 119244.000000
3552 12487 1 0.16500 119244.000000
3552 15829 1 0.16500 119244.000000
3553 12488 1 0.16500 119244.000000
3553 14551 1 0.16500 119244.000000
3554 12488 1 0.16500 119244.000000
3554 14019 1 0.16500 119244.000000
3555 12489 1 0.16500 119244.000000
3555 16721 1 0.16500 119244.000000
3556 12489 1 0.16500 119244.000000
3556 12726 1 0.16500 119244.000000
3557 12489 1 0.16500 119244.000000
3557 16769 1 0.16500 119244.000000
3558 12489 1 0.16500 119244.000000
3558 15368 1 0.16500 119244.000000
3559 15539 1 0.16500 119244.000000
3559 18392 1 0.16500 119244.000000
3560 15673 1 0.16500 119244.000000
3560 18392 1 0.16500 119244.000000
3561 14040 1 0.16500 119244.000000
3561 18392 1 0.16500 119244.000000
3562 16272 1 0.16500 119244.000000
3562 16930 1 0.16500 119244.000000
3563 12490 1 0.16500 119244.000000
3563 12582 1 0.16500 119244.000000
3564 12490 1 0.16500 119244.000000
3564 16272 1 0.16500 119244.000000
3565 13129 1 0.16500 119244.000000
3565 16272 1 0.16500 119244.000000
3566 12491 1 0.16500 119244.000000
3566 13876 1 0.16500 119244.000000
3567 12491 1 0.16500 119244.000000
3567 16062 1 0.16500 119244.000000
3568 12491 1 0.16500 119244.000000
3568 15454 1 0.16500 119244.000000
3569 17049 1 0.16500 119244.000000
3569 19070 1 0.16500 119244.000000
3570 16245 1 0.16500 119244.000000
3570 17049 1 0.16500 119244.000000
3571 12492 1 0.16500 119244.000000
3571 14917 1 0.16500 119244.000000
3572 12492 1 0.16500 119244.000000
3572 13580 1 0.16500 119244.000000
3573 12492 1 0.16500 119244.000000
3573 14750 1 0.16500 119244.000000
3574 12492 1 0.16500 119244.000000
3574 12737 1 0.16500 119244.000000
3575 12493 1 0.16500 119244.000000
3575 13105 1 0.16500 119244.000000
3576 12493 1 0.16500 119244.000000
3576 16706 1 0.16500 119244.000000
3577 11957 1 0.16500 119244.000000
3577 13588 1 0.16500 119244.000000
3578 12494 1 0.16500 119244.000000
3578 13712 1 0.16500 119244.000000
3579 12494 1 0.16500 119244.000000
3579 14429 1 0.16500 119244.000000
3580 12495 1 0.16500 119244.000000
3580 16658 1 0.16500 119244.000000
3581 12495 1 0.16500 119244.000000
3581 16058 1 0.16500 119244.000000
3582 12495 1 0.16500 119244.000000
3582 15802 1 0.16500 119244.000000
3583 12496 1 0.16500 119244.000000
3583 14675 1 0.16500 119244.000000
3584 12497 1 0.16500 119244.000000
3584 15549 1 0.16500 119244.000000
3585 12497 1 0.16500 119244.000000
3585 16000 1 0.16500 119244.000000
3586 12497 1 0.16500 119244.000000
3586 13228 1 0.16500 119244.000000
3587 13372 1 0.16500 119244.000000
3587 16734 1 0.16500 119244.000000
3588 12498 1 0.16500 119244.000000
3588 13372 1 0.16500 119244.000000
3589 12498 1 0.16500 119244.000000
3589 16836 1 0.16500 119244.000000
3590 12498 1 0.16500 119244.000000
3590 13492 1 0.16500 119244.000000
3591 12499 1 0.16500 119244.000000
3591 15930 1 0.16500 119244.000000
3592 12499 1 0.16500 119244.000000
3592 12836 1 0.16500 119244.000000
3593 12499 1 0.16500 119244.000000
3593 13213 1 0.16500 119244.000000
3594 12499 1 0.16500 119244.000000
3594 15556 1 0.16500 119244.000000
3595 12500 1 0.16500 119244.000000
3595 14091 1 0.16500 119244.000000
3596 12500 1 0.16500 119244.000000
3596 16372 1 0.16500 119244.000000
3597 12500 1 0.16500 119244.000000
3597 14712 1 0.16500 119244.000000
3598 12501 1 0.16500 119244.000000
3598 15289 1 0.16500 119244.000000
3599 12501 1 0.16500 119244.000000
3599 12684 1 0.16500 119244.000000
3600 12501 1 0.16500 119244.000000
3600 12593 1 0.16500 119244.000000
3601 15097 1 0.16500 119244.000000
3601 17759 1 0.16500 119244.000000
3602 12502 1 0.16500 119244.000000
3602 14946 1 0.16500 119244.000000
3603 12502 1 0.16500 119244.000000
3603 13279 1 0.16500 119244.000000
3604 12502 1 0.16500 119244.000000
3604 13277 1 0.16500 119244.000000
3605 12503 1 0.16500 119244.000000
3605 14647 1 0.16500 119244.000000
3606 12503 1 0.16500 119244.000000
3606 14264 1 0.16500 119244.000000
3607 12503 1 0.16500 119244.000000
3607 14685 1 0.16500 119244.000000
3608 12503 1 0.16500 119244.000000
3608 14557 1 0.16500 119244.000000
3609 12504 1 0.16500 119244.000000
3609 15502 1 0.16500 119244.000000
3610 12504 1 0.16500 119244.000000
3610 14480 1 0.16500 119244.000000
3611 12504 1 0.16500 119244.000000
3611 16486 1 0.16500 119244.000000
3612 12504 1 0.16500 119244.000000
3612 15696 1 0.16500 119244.000000
3613 12505 1 0.16500 119244.000000
3613 15195 1 0.16500 119244.000000
3614 12505 1 0.16500 119244.000000
3614 12932 1 0.16500 119244.000000
3615 12505 1 0.16500 119244.000000
3615 15317 1 0.16500 119244.000000
3616 12505 1 0.16500 119244.000000
3616 13540 1 0.16500 119244.000000
3617 11917 1 0.16500 119244.000000
3617 15424 1 0.16500 119244.000000
3618 12506 1 0.16500 119244.000000
3618 13964 1 0.16500 119244.000000
3619 12506 1 0.16500 119244.000000
3619 13190 1 0.16500 119244.000000
3620 12507 1 0.16500 119244.000000
3620 15590 1 0.16500 119244.000000
3621 12507 1 0.16500 119244.000000
3621 14794 1 0.16500 119244.000000
3622 12507 1 0.16500 119244.000000
3622 16054 1 0.16500 119244.000000
3623 12508 1 0.16500 119244.000000
3623 12823 1 0.16500 119244.000000
3624 12508 1 0.16500 119244.000000
3624 16098 1 0.16500 119244.000000
3625 16098 1 0.16500 119244.000000
3625 17687 1 0.16500 119244.000000
3626 12508 1 0.16500 119244.000000
3626 16788 1 0.16500 119244.000000
3627 12509 1 0.16500 119244.000000
3627 12933 1 0.16500 119244.000000
3628 14817 1 0.16500 119244.000000
3628 18548 1 0.16500 119244.000000
3629 12510 1 0.16500 119244.000000
3629 14018 1 0.16500 119244.000000
3630 14018 1 0.16500 119244.000000
3630 15956 1 0.16500 119244.000000
3631 12510 1 0.16500 119244.000000
3631 15562 1 0.16500 119244.000000
3632 12511 1 0.16500 119244.000000
3632 13016 1 0.16500 119244.000000
3633 12511 1 0.16500 119244.000000
3633 17987 1 0.16500 119244.000000
3634 12511 1 0.16500 119244.000000
3634 13959 1 0.16500 119244.000000
3635 17987 1 0.16500 119244.000000
3635 19165 1 0.16500 119244.000000
3636 12512 1 0.16500 119244.000000
3636 16380 1 0.16500 119244.000000
3637 12512 1 0.16500 119244.000000
3637 14306 1 0.16500 119244.000000
3638 12513 1 0.16500 119244.000000
3638 16046 1 0.16500 119244.000000
3639 12513 1 0.16500 119244.000000
3639 16068 1 0.16500 119244.000000
3640 12513 1 0.16500 119244.000000
3640 16632 1 0.16500 119244.000000
3641 12513 1 0.16500 119244.000000
3641 14441 1 0.16500 119244.000000
3642 12514 1 0.16500 119244.000000
3642 15911 1 0.16500 119244.000000
3643 12514 1 0.16500 119244.000000
3643 15356 1 0.16500 119244.000000
3644 12515 1 0.16500 119244.000000
3644 17963 1 0.16500 119244.000000
3645 12515 1 0.16500 119244.000000
3645 18557 1 0.16500 119244.000000
3646 12516 1 0.16500 119244.000000
3646 14531 1 0.16500 119244.000000
3647 12516 1 0.16500 119244.000000
3647 13684 1 0.16500 119244.000000
3648 12516 1 0.16500 119244.000000
3648 13129 1 0.16500 119244.000000
3649 12517 1 0.16500 119244.000000
3649 13457 1 0.16500 119244.000000
3650 12517 1 0.16500 119244.000000
3650 15570 1 0.16500 119244.000000
3651 12518 1 0.16500 119244.000000
3651 16220 1 0.16500 119244.000000
3652 12518 1 0.16500 119244.000000
3652 12644 1 0.16500 119244.000000
3653 12518 1 0.16500 119244.000000
3653 16673 1 0.16500 119244.000000
3654 12519 1 0.16500 119244.000000
3654 13385 1 0.16500 119244.000000
3655 12085 1 0.16500 119244.000000
3655 14098 1 0.16500 119244.000000
3656 12519 1 0.16500 119244.000000
3656 14277 1 0.16500 119244.000000
3657 12519 1 0.16500 119244.000000
3657 14098 1 0.16500 119244.000000
3658 12520 1 0.16500 119244.000000
3658 16682 1 0.16500 119244.000000
3659 12520 1 0.16500 119244.000000
3659 15342 1 0.16500 119244.000000
3660 12520 1 0.16500 119244.000000
3660 15431 1 0.16500 119244.000000
3661 12521 1 0.16500 119244.000000
3661 15122 1 0.16500 119244.000000
3662 12521 1 0.16500 119244.000000
3662 16054 1 0.16500 119244.000000
3663 12521 1 0.16500 119244.000000
3663 15342 1 0.16500 119244.000000
3664 12522 1 0.16500 119244.000000
3664 12739 1 0.16500 119244.000000
3665 12522 1 0.16500 119244.000000
3665 13540 1 0.16500 119244.000000
3666 12522 1 0.16500 119244.000000
3666 14090 1 0.16500 119244.000000
3667 12522 1 0.16500 119244.000000
3667 14304 1 0.16500 119244.000000
3668 12523 1 0.16500 119244.000000
3668 15085 1 0.16500 119244.000000
3669 12523 1 0.16500 119244.000000
3669 14947 1 0.16500 119244.000000
3670 12523 1 0.16500 119244.000000
3670 12610 1 0.16500 119244.000000
3671 12523 1 0.16500 119244.000000
3671 16496 1 0.16500 119244.000000
3672 12524 1 0.16500 119244.000000
3672 13357 1 0.16500 119244.000000
3673 12524 1 0.16500 119244.000000
3673 14742 1 0.16500 119244.000000
3674 12524 1 0.16500 119244.000000
3674 14460 1 0.16500 119244.000000
3675 12524 1 0.16500 119244.000000
3675 14793 1 0.16500 119244.000000
3676 16766 1 0.16500 119244.000000
3676 18395 1 0.16500 119244.000000
3677 15142 1 0.16500 119244.000000
3677 18395 1 0.16500 119244.000000
3678 12525 1 0.16500 119244.000000
3678 15838 1 0.16500 119244.000000
3679 12525 1 0.16500 119244.000000
3679 12925 1 0.16500 119244.000000
3680 12525 1 0.16500 119244.000000
3680 15980 1 0.16500 119244.000000
3681 12526 1 0.16500 119244.000000
3681 15918 1 0.16500 119244.000000
3682 12526 1 0.16500 119244.000000
3682 14093 1 0.16500 119244.000000
3683 12527 1 0.16500 119244.000000
3683 16331 1 0.16500 119244.000000
3684 12527 1 0.16500 119244.000000
3684 16573 1 0.16500 119244.000000
3685 12527 1 0.16500 119244.000000
3685 15872 1 0.16500 119244.000000
3686 12528 1 0.16500 119244.000000
3686 18509 1 0.16500 119244.000000
3687 12528 1 0.16500 119244.000000
3687 12707 1 0.16500 119244.000000
3688 12529 1 0.16500 119244.000000
3688 12989 1 0.16500 119244.000000
3689 12529 1 0.16500 119244.000000
3689 16061 1 0.16500 119244.000000
3690 12529 1 0.16500 119244.000000
3690 16359 1 0.16500 119244.000000
3691 12530 1 0.16500 119244.000000
3691 14664 1 0.16500 119244.000000
3692 12530 1 0.16500 119244.000000
3692 15685 1 0.16500 119244.000000
3693 12530 1 0.16500 119244.000000
3693 13338 1 0.16500 119244.000000
3694 12531 1 0.16500 119244.000000
3694 16787 1 0.16500 119244.000000
3695 11704 1 0.16500 119244.000000
3695 12531 1 0.16500 119244.000000
3696 12531 1 0.16500 119244.000000
3696 15089 1 0.16500 119244.000000
3697 12531 1 0.16500 119244.000000
3697 16808 1 0.16500 119244.000000
3698 12532 1 0.16500 119244.000000
3698 13987 1 0.16500 119244.000000
3699 12532 1 0.16500 119244.000000
3699 13930 1 0.16500 119244.000000
3700 12532 1 0.16500 119244.000000
3700 15470 1 0.16500 119244.000000
3701 12532 1 0.16500 119244.000000
3701 12781 1 0.16500 119244.000000
3702 12533 1 0.16500 119244.000000
3702 13568 1 0.16500 119244.000000
3703 12533 1 0.16500 119244.000000
3703 14133 1 0.16500 119244.000000
3704 12534 1 0.16500 119244.000000
3704 15192 1 0.16500 119244.000000
3705 12534 1 0.16500 119244.000000
3705 16275 1 0.16500 119244.000000
3706 12534 1 0.16500 119244.000000
3706 12598 1 0.16500 119244.000000
3707 12534 1 0.16500 119244.000000
3707 13863 1 0.16500 119244.000000
3708 13320 1 0.16500 119244.000000
3708 14329 1 0.16500 119244.000000
3709 12535 1 0.16500 119244.000000
3709 13320 1 0.16500 119244.000000
3710 12535 1 0.16500 119244.000000
3710 16953 1 0.16500 119244.000000
3711 12535 1 0.16500 119244.000000
3711 16426 1 0.16500 119244.000000
3712 12536 1 0.16500 119244.000000
3712 13574 1 0.16500 119244.000000
3713 12536 1 0.16500 119244.000000
3713 12944 1 0.16500 119244.000000
3714 13574 1 0.16500 119244.000000
3714 14307 1 0.16500 119244.000000
3715 12536 1 0.16500 119244.000000
3715 15449 1 0.16500 119244.000000
3716 12537 1 0.16500 119244.000000
3716 16302 1 0.16500 119244.000000
3717 12537 1 0.16500 119244.000000
3717 13011 1 0.16500 119244.000000
3718 12537 1 0.16500 119244.000000
3718 16562 1 0.16500 119244.000000
3719 12537 1 0.16500 119244.000000
3719 13618 1 0.16500 119244.000000
3720 12538 1 0.16500 119244.000000
3720 13828 1 0.16500 119244.000000
3721 12538 1 0.16500 119244.000000
3721 12757 1 0.16500 119244.000000
3722 12538 1 0.16500 119244.000000
3722 14274 1 0.16500 119244.000000
3723 12539 1 0.16500 119244.000000
3723 14536 1 0.16500 119244.000000
3724 12539 1 0.16500 119244.000000
3724 14219 1 0.16500 119244.000000
3725 12539 1 0.16500 119244.000000
3725 12878 1 0.16500 119244.000000
3726 12540 1 0.16500 119244.000000
3726 15832 1 0.16500 119244.000000
3727 12540 1 0.16500 119244.000000
3727 15787 1 0.16500 119244.000000
3728 12541 1 0.16500 119244.000000
3728 13649 1 0.16500 119244.000000
3729 13474 1 0.16500 119244.000000
3729 13649 1 0.16500 119244.000000
3730 12541 1 0.16500 119244.000000
3730 15639 1 0.16500 119244.000000
3731 12541 1 0.16500 119244.000000
3731 16613 1 0.16500 119244.000000
3732 12542 1 0.16500 119244.000000
3732 16870 1 0.16500 119244.000000
3733 12542 1 0.16500 119244.000000
3733 13148 1 0.16500 119244.000000
3734 12542 1 0.16500 119244.000000
3734 14639 1 0.16500 119244.000000
3735 12542 1 0.16500 119244.000000
3735 16911 1 0.16500 119244.000000
3736 18398 1 0.16500 119244.000000
3736 19073 1 0.16500 119244.000000
3737 16299 1 0.16500 119244.000000
3737 18398 1 0.16500 119244.000000
3738 12543 1 0.16500 119244.000000
3738 16968 1 0.16500 119244.000000
3739 12435 1 0.16500 119244.000000
3739 12543 1 0.16500 119244.000000
3740 12543 1 0.16500 119244.000000
3740 18902 1 0.16500 119244.000000
3741 12544 1 0.16500 119244.000000
3741 14604 1 0.16500 119244.000000
3742 12544 1 0.16500 119244.000000
3742 16479 1 0.16500 119244.000000
3743 12544 1 0.16500 119244.000000
3743 13097 1 0.16500 119244.000000
3744 12544 1 0.16500 119244.000000
3744 15895 1 0.16500 119244.000000
3745 12545 1 0.16500 119244.000000
3745 15212 1 0.16500 119244.000000
3746 12545 1 0.16500 119244.000000
3746 16958 1 0.16500 119244.000000
3747 12545 1 0.16500 119244.000000
3747 13275 1 0.16500 119244.000000
3748 12545 1 0.16500 119244.000000
3748 16897 1 0.16500 119244.000000
3749 12546 1 0.16500 119244.000000
3749 13124 1 0.16500 119244.000000
3750 12546 1 0.16500 119244.000000
3750 16912 1 0.16500 119244.000000
3751 12547 1 0.16500 119244.000000
3751 12995 1 0.16500 119244.000000
3752 12547 1 0.16500 119244.000000
3752 16847 1 0.16500 119244.000000
3753 12547 1 0.16500 119244.000000
3753 12947 1 0.16500 119244.000000
3754 12547 1 0.16500 119244.000000
3754 12594 1 0.16500 119244.000000
3755 12548 1 0.16500 119244.000000
3755 13887 1 0.16500 119244.000000
3756 12548 1 0.16500 119244.000000
3756 14510 1 0.16500 119244.000000
3757 12548 1 0.16500 119244.000000
3757 16572 1 0.16500 119244.000000
3758 12548 1 0.16500 119244.000000
3758 12828 1 0.16500 119244.000000
3759 12207 1 0.16500 119244.000000
3759 12788 1 0.16500 119244.000000
3760 12549 1 0.16500 119244.000000
3760 15205 1 0.16500 119244.000000
3761 12549 1 0.16500 119244.000000
3761 16703 1 0.16500 119244.000000
3762 12550 1 0.16500 119244.000000
3762 13600 1 0.16500 119244.000000
3763 12550 1 0.16500 119244.000000
3763 16496 1 0.16500 119244.000000
3764 12551 1 0.16500 119244.000000
3764 14448 1 0.16500 119244.000000
3765 12551 1 0.16500 119244.000000
3765 16402 1 0.16500 119244.000000
3766 12552 1 0.16500 119244.000000
3766 13953 1 0.16500 119244.000000
3767 12552 1 0.16500 119244.000000
3767 14194 1 0.16500 119244.000000
3768 12552 1 0.16500 119244.000000
3768 15464 1 0.16500 119244.000000
3769 12552 1 0.16500 119244.000000
3769 14998 1 0.16500 119244.000000
3770 11777 1 0.16500 119244.000000
3770 15991 1 0.16500 119244.000000
3771 13836 1 0.16500 119244.000000
3771 18401 1 0.16500 119244.000000
3772 14587 1 0.16500 119244.000000
3772 18401 1 0.16500 119244.000000
3773 12554 1 0.16500 119244.000000
3773 14331 1 0.16500 119244.000000
3774 12554 1 0.16500 119244.000000
3774 13894 1 0.16500 119244.000000
3775 12554 1 0.16500 119244.000000
3775 16707 1 0.16500 119244.000000
3776 12555 1 0.16500 119244.000000
3776 16966 1 0.16500 119244.000000
3777 12555 1 0.16500 119244.000000
3777 12988 1 0.16500 119244.000000
3778 12555 1 0.16500 119244.000000
3778 13006 1 0.16500 119244.000000
3779 12555 1 0.16500 119244.000000
3779 13569 1 0.16500 119244.000000
3780 12556 1 0.16500 119244.000000
3780 15860 1 0.16500 119244.000000
3781 12556 1 0.16500 119244.000000
3781 14523 1 0.16500 119244.000000
3782 12556 1 0.16500 119244.000000
3782 15953 1 0.16500 119244.000000
3783 12556 1 0.16500 119244.000000
3783 12818 1 0.16500 119244.000000
3784 12557 1 0.16500 119244.000000
3784 16687 1 0.16500 119244.000000
3785 12557 1 0.16500 119244.000000
3785 16376 1 0.16500 119244.000000
3786 12557 1 0.16500 119244.000000
3786 13759 1 0.16500 119244.000000
3787 12558 1 0.16500 119244.000000
3787 13510 1 0.16500 119244.000000
3788 12558 1 0.16500 119244.000000
3788 12563 1 0.16500 119244.000000
3789 12558 1 0.16500 119244.000000
3789 13196 1 0.16500 119244.000000
3790 12559 1 0.16500 119244.000000
3790 13302 1 0.16500 119244.000000
3791 12559 1 0.16500 119244.000000
3791 15449 1 0.16500 119244.000000
3792 12559 1 0.16500 119244.000000
3792 14843 1 0.16500 119244.000000
3793 12560 1 0.16500 119244.000000
3793 14932 1 0.16500 119244.000000
3794 12560 1 0.16500 119244.000000
3794 13046 1 0.16500 119244.000000
3795 12560 1 0.16500 119244.000000
3795 16423 1 0.16500 119244.000000
3796 11893 1 0.16500 119244.000000
3796 12560 1 0.16500 119244.000000
3797 12561 1 0.16500 119244.000000
3797 13614 1 0.16500 119244.000000
3798 12561 1 0.16500 119244.000000
3798 12751 1 0.16500 119244.000000
3799 12561 1 0.16500 119244.000000
3799 13457 1 0.16500 119244.000000
3800 12561 1 0.16500 119244.000000
3800 16696 1 0.16500 119244.000000
3801 12562 1 0.16500 119244.000000
3801 16286 1 0.16500 119244.000000
3802 12562 1 0.16500 119244.000000
3802 13217 1 0.16500 119244.000000
3803 12562 1 0.16500 119244.000000
3803 13907 1 0.16500 119244.000000
3804 12562 1 0.16500 119244.000000
3804 13927 1 0.16500 119244.000000
3805 12558 1 0.16500 119244.000000
3805 12583 1 0.16500 119244.000000
3806 12563 1 0.16500 119244.000000
3806 13062 1 0.16500 119244.000000
3807 12563 1 0.16500 119244.000000
3807 15420 1 0.16500 119244.000000
3808 12564 1 0.16500 119244.000000
3808 15406 1 0.16500 119244.000000
3809 12564 1 0.16500 119244.000000
3809 15083 1 0.16500 119244.000000
3810 12564 1 0.16500 119244.000000
3810 12895 1 0.16500 119244.000000
3811 12564 1 0.16500 119244.000000
3811 14334 1 0.16500 119244.000000
3812 14815 1 0.16500 119244.000000
3812 16965 1 0.16500 119244.000000
3813 12565 1 0.16500 119244.000000
3813 13435 1 0.16500 119244.000000
3814 12565 1 0.16500 119244.000000
3814 16817 1 0.16500 119244.000000
3815 12565 1 0.16500 119244.000000
3815 14815 1 0.16500 119244.000000
3816 12566 1 0.16500 119244.000000
3816 14721 1 0.16500 119244.000000
3817 12566 1 0.16500 119244.000000
3817 14028 1 0.16500 119244.000000
3818 12566 1 0.16500 119244.000000
3818 13550 1 0.16500 119244.000000
3819 12567 1 0.16500 119244.000000
3819 14236 1 0.16500 119244.000000
3820 12567 1 0.16500 119244.000000
3820 14920 1 0.16500 119244.000000
3821 12567 1 0.16500 119244.000000
3821 14202 1 0.16500 119244.000000
3822 12567 1 0.16500 119244.000000
3822 15334 1 0.16500 119244.000000
3823 12568 1 0.16500 119244.000000
3823 15441 1 0.16500 119244.000000
3824 12568 1 0.16500 119244.000000
3824 14802 1 0.16500 119244.000000
3825 12568 1 0.16500 119244.000000
3825 15012 1 0.16500 119244.000000
3826 12569 1 0.16500 119244.000000
3826 16267 1 0.16500 119244.000000
3827 12569 1 0.16500 119244.000000
3827 14239 1 0.16500 119244.000000
3828 12569 1 0.16500 119244.000000
3828 13165 1 0.16500 119244.000000
3829 12570 1 0.16500 119244.000000
3829 16729 1 0.16500 119244.000000
3830 12570 1 0.16500 119244.000000
3830 15425 1 0.16500 119244.000000
3831 12570 1 0.16500 119244.000000
3831 15024 1 0.16500 119244.000000
3832 12022 1 0.16500 119244.000000
3832 12571 1 0.16500 119244.000000
3833 14423 1 0.16500 119244.000000
3833 16879 1 0.16500 119244.000000
3834 12571 1 0.16500 119244.000000
3834 15352 1 0.16500 119244.000000
3835 12572 1 0.16500 119244.000000
3835 15980 1 0.16500 119244.000000
3836 12572 1 0.16500 119244.000000
3836 14250 1 0.16500 119244.000000
3837 12572 1 0.16500 119244.000000
3837 16833 1 0.16500 119244.000000
3838 12573 1 0.16500 119244.000000
3838 14488 1 0.16500 119244.000000
3839 12573 1 0.16500 119244.000000
3839 13909 1 0.16500 119244.000000
3840 12573 1 0.16500 119244.000000
3840 14214 1 0.16500 119244.000000
3841 12573 1 0.16500 119244.000000
3841 16608 1 0.16500 119244.000000
3842 12574 1 0.16500 119244.000000
3842 13157 1 0.16500 119244.000000
3843 12574 1 0.16500 119244.000000
3843 15115 1 0.16500 119244.000000
3844 12574 1 0.16500 119244.000000
3844 16294 1 0.16500 119244.000000
3845 12575 1 0.16500 119244.000000
3845 14600 1 0.16500 119244.000000
3846 12575 1 0.16500 119244.000000
3846 15682 1 0.16500 119244.000000
3847 12575 1 0.16500 119244.000000
3847 13130 1 0.16500 119244.000000
3848 12575 1 0.16500 119244.000000
3848 16590 1 0.16500 119244.000000
3849 12576 1 0.16500 119244.000000
3849 13898 1 0.16500 119244.000000
3850 12576 1 0.16500 119244.000000
3850 12917 1 0.16500 119244.000000
3851 12576 1 0.16500 119244.000000
3851 13233 1 0.16500 119244.000000
3852 12577 1 0.16500 119244.000000
3852 13639 1 0.16500 119244.000000
3853 12577 1 0.16500 119244.000000
3853 15291 1 0.16500 119244.000000
3854 12577 1 0.16500 119244.000000
3854 16655 1 0.16500 119244.000000
3855 12578 1 0.16500 119244.000000
3855 16317 1 0.16500 119244.000000
3856 12578 1 0.16500 119244.000000
3856 14769 1 0.16500 119244.000000
3857 12578 1 0.16500 119244.000000
3857 16443 1 0.16500 119244.000000
3858 12578 1 0.16500 119244.000000
3858 13941 1 0.16500 119244.000000
3859 12579 1 0.16500 119244.000000
3859 13595 1 0.16500 119244.000000
3860 12579 1 0.16500 119244.000000
3860 16700 1 0.16500 119244.000000
3861 12579 1 0.16500 119244.000000
3861 16520 1 0.16500 119244.000000
3862 12579 1 0.16500 119244.000000
3862 14218 1 0.16500 119244.000000
3863 12580 1 0.16500 119244.000000
3863 14393 1 0.16500 119244.000000
3864 12580 1 0.16500 119244.000000
3864 15926 1 0.16500 119244.000000
3865 12580 1 0.16500 119244.000000
3865 16875 1 0.16500 119244.000000
3866 12580 1 0.16500 119244.000000
3866 15947 1 0.16500 119244.000000
3867 12581 1 0.16500 119244.000000
3867 13614 1 0.16500 119244.000000
3868 12581 1 0.16500 119244.000000
3868 15769 1 0.16500 119244.000000
3869 12582 1 0.16500 119244.000000
3869 16027 1 0.16500 119244.000000
3870 12583 1 0.16500 119244.000000
3870 16514 1 0.16500 119244.000000
3871 12583 1 0.16500 119244.000000
3871 13599 1 0.16500 119244.000000
3872 12583 1 0.16500 119244.000000
3872 13276 1 0.16500 119244.000000
3873 12584 1 0.16500 119244.000000
3873 13584 1 0.16500 119244.000000
3874 12584 1 0.16500 119244.000000
3874 14911 1 0.16500 119244.000000
3875 12584 1 0.16500 119244.000000
3875 15448 1 0.16500 119244.000000
3876 12584 1 0.16500 119244.000000
3876 13105 1 0.16500 119244.000000
3877 13212 1 0.16500 119244.000000
3877 18404 1 0.16500 119244.000000
3878 15876 1 0.16500 119244.000000
3878 18404 1 0.16500 119244.000000
3879 15662 1 0.16500 119244.000000
3879 18407 1 0.16500 119244.000000
3880 18407 1 0.16500 119244.000000
3880 18773 1 0.16500 119244.000000
3881 15774 1 0.16500 119244.000000
3881 18407 1 0.16500 119244.000000
3882 12585 1 0.16500 119244.000000
3882 15173 1 0.16500 119244.000000
3883 12585 1 0.16500 119244.000000
3883 14293 1 0.16500 119244.000000
3884 12585 1 0.16500 119244.000000
3884 13580 1 0.16500 119244.000000
3885 12585 1 0.16500 119244.000000
3885 14991 1 0.16500 119244.000000
3886 12586 1 0.16500 119244.000000
3886 15122 1 0.16500 119244.000000
3887 12586 1 0.16500 119244.000000
3887 15933 1 0.16500 119244.000000
3888 12586 1 0.16500 119244.000000
3888 16360 1 0.16500 119244.000000
3889 12587 1 0.16500 119244.000000
3889 16244 1 0.16500 119244.000000
3890 12587 1 0.16500 119244.000000
3890 13613 1 0.16500 119244.000000
3891 12587 1 0.16500 119244.000000
3891 14605 1 0.16500 119244.000000
3892 12588 1 0.16500 119244.000000
3892 13719 1 0.16500 119244.000000
3893 12588 1 0.16500 119244.000000
3893 12705 1 0.16500 119244.000000
3894 12588 1 0.16500 119244.000000
3894 15879 1 0.16500 119244.000000
3895 12589 1 0.16500 119244.000000
3895 16120 1 0.16500 119244.000000
3896 12589 1 0.16500 119244.000000
3896 14881 1 0.16500 119244.000000
3897 12589 1 0.16500 119244.000000
3897 14900 1 0.16500 119244.000000
3898 12589 1 0.16500 119244.000000
3898 15800 1 0.16500 119244.000000
3899 12590 1 0.16500 119244.000000
3899 15901 1 0.16500 119244.000000
3900 12590 1 0.16500 119244.000000
3900 13549 1 0.16500 119244.000000
3901 12590 1 0.16500 119244.000000
3901 16945 1 0.16500 119244.000000
3902 12591 1 0.16500 119244.000000
3902 14606 1 0.16500 119244.000000
3903 12591 1 0.16500 119244.000000
3903 14110 1 0.16500 119244.000000
3904 12591 1 0.16500 119244.000000
3904 18470 1 0.16500 119244.000000
3905 12591 1 0.16500 119244.000000
3905 12618 1 0.16500 119244.000000
3906 12592 1 0.16500 119244.000000
3906 15175 1 0.16500 119244.000000
3907 12592 1 0.16500 119244.000000
3907 13722 1 0.16500 119244.000000
3908 12592 1 0.16500 119244.000000
3908 15538 1 0.16500 119244.000000
3909 12592 1 0.16500 119244.000000
3909 12889 1 0.16500 119244.000000
3910 12593 1 0.16500 119244.000000
3910 15672 1 0.16500 119244.000000
3911 12593 1 0.16500 119244.000000
3911 14684 1 0.16500 119244.000000
3912 12593 1 0.16500 119244.000000
3912 12885 1 0.16500 119244.000000
3913 12594 1 0.16500 119244.000000
3913 14986 1 0.16500 119244.000000
3914 12594 1 0.16500 119244.000000
3914 14330 1 0.16500 119244.000000
3915 12595 1 0.16500 119244.000000
3915 14787 1 0.16500 119244.000000
3916 12595 1 0.16500 119244.000000
3916 15719 1 0.16500 119244.000000
3917 12595 1 0.16500 119244.000000
3917 13147 1 0.16500 119244.000000
3918 12595 1 0.16500 119244.000000
3918 16996 1 0.16500 119244.000000
3919 14197 1 0.16500 119244.000000
3919 14746 1 0.16500 119244.000000
3920 12596 1 0.16500 119244.000000
3920 14197 1 0.16500 119244.000000
3921 12596 1 0.16500 119244.000000
3921 16928 1 0.16500 119244.000000
3922 18674 1 0.16500 119244.000000
3922 18752 1 0.16500 119244.000000
3923 12597 1 0.16500 119244.000000
3923 18752 1 0.16500 119244.000000
3924 12598 1 0.16500 119244.000000
3924 15748 1 0.16500 119244.000000
3925 12598 1 0.16500 119244.000000
3925 15567 1 0.16500 119244.000000
3926 12598 1 0.16500 119244.000000
3926 14377 1 0.16500 119244.000000
3927 12599 1 0.16500 119244.000000
3927 18878 1 0.16500 119244.000000
3928 12599 1 0.16500 119244.000000
3928 14942 1 0.16500 119244.000000
3929 12600 1 0.16500 119244.000000
3929 13553 1 0.16500 119244.000000
3930 12600 1 0.16500 119244.000000
3930 18761 1 0.16500 119244.000000
3931 12601 1 0.16500 119244.000000
3931 14852 1 0.16500 119244.000000
3932 12601 1 0.16500 119244.000000
3932 15915 1 0.16500 119244.000000
3933 12601 1 0.16500 119244.000000
3933 14907 1 0.16500 119244.000000
3934 12601 1 0.16500 119244.000000
3934 14184 1 0.16500 119244.000000
3935 13543 1 0.16500 119244.000000
3935 15528 1 0.16500 119244.000000
3936 12602 1 0.16500 119244.000000
3936 13543 1 0.16500 119244.000000
3937 12603 1 0.16500 119244.000000
3937 13603 1 0.16500 119244.000000
3938 12603 1 0.16500 119244.000000
3938 14046 1 0.16500 119244.000000
3939 12604 1 0.16500 119244.000000
3939 15273 1 0.16500 119244.000000
3940 12604 1 0.16500 119244.000000
3940 13273 1 0.16500 119244.000000
3941 12604 1 0.16500 119244.000000
3941 14297 1 0.16500 119244.000000
3942 12604 1 0.16500 119244.000000
3942 16010 1 0.16500 119244.000000
3943 12605 1 0.16500 119244.000000
3943 14024 1 0.16500 119244.000000
3944 12605 1 0.16500 119244.000000
3944 13429 1 0.16500 119244.000000
3945 12605 1 0.16500 119244.000000
3945 15615 1 0.16500 119244.000000
3946 12606 1 0.16500 119244.000000
3946 15785 1 0.16500 119244.000000
3947 12607 1 0.16500 119244.000000
3947 14159 1 0.16500 119244.000000
3948 12607 1 0.16500 119244.000000
3948 13745 1 0.16500 119244.000000
3949 12607 1 0.16500 119244.000000
3949 15127 1 0.16500 119244.000000
3950 12608 1 0.16500 119244.000000
3950 12996 1 0.16500 119244.000000
3951 12608 1 0.16500 119244.000000
3951 15025 1 0.16500 119244.000000
3952 12608 1 0.16500 119244.000000
3952 13369 1 0.16500 119244.000000
3953 12608 1 0.16500 119244.000000
3953 13996 1 0.16500 119244.000000
3954 12609 1 0.16500 119244.000000
3954 13829 1 0.16500 119244.000000
3955 12609 1 0.16500 119244.000000
3955 14307 1 0.16500 119244.000000
3956 13829 1 0.16500 119244.000000
3956 15184 1 0.16500 119244.000000
3957 12609 1 0.16500 119244.000000
3957 13574 1 0.16500 119244.000000
3958 12610 1 0.16500 119244.000000
3958 14835 1 0.16500 119244.000000
3959 12610 1 0.16500 119244.000000
3959 15012 1 0.16500 119244.000000
3960 12611 1 0.16500 119244.000000
3960 14669 1 0.16500 119244.000000
3961 12611 1 0.16500 119244.000000
3961 12777 1 0.16500 119244.000000
3962 12612 1 0.16500 119244.000000
3962 14034 1 0.16500 119244.000000
3963 12612 1 0.16500 119244.000000
3963 15078 1 0.16500 119244.000000
3964 12612 1 0.16500 119244.000000
3964 13387 1 0.16500 119244.000000
3965 12612 1 0.16500 119244.000000
3965 15420 1 0.16500 119244.000000
3966 12613 1 0.16500 119244.000000
3966 14533 1 0.16500 119244.000000
3967 12613 1 0.16500 119244.000000
3967 15681 1 0.16500 119244.000000
3968 12613 1 0.16500 119244.000000
3968 14632 1 0.16500 119244.000000
3969 12613 1 0.16500 119244.000000
3969 13993 1 0.16500 119244.000000
3970 12614 1 0.16500 119244.000000
3970 15790 1 0.16500 119244.000000
3971 12614 1 0.16500 119244.000000
3971 12627 1 0.16500 119244.000000
3972 11935 1 0.16500 119244.000000
3972 13810 1 0.16500 119244.000000
3973 12615 1 0.16500 119244.000000
3973 13336 1 0.16500 119244.000000
3974 12615 1 0.16500 119244.000000
3974 16680 1 0.16500 119244.000000
3975 12615 1 0.16500 119244.000000
3975 15265 1 0.16500 119244.000000
3976 12615 1 0.16500 119244.000000
3976 15747 1 0.16500 119244.000000
3977 12616 1 0.16500 119244.000000
3977 14881 1 0.16500 119244.000000
3978 12616 1 0.16500 119244.000000
3978 15890 1 0.16500 119244.000000
3979 12617 1 0.16500 119244.000000
3979 14264 1 0.16500 119244.000000
3980 12617 1 0.16500 119244.000000
3980 13482 1 0.16500 119244.000000
3981 12617 1 0.16500 119244.000000
3981 14945 1 0.16500 119244.000000
3982 12618 1 0.16500 119244.000000
3982 16869 1 0.16500 119244.000000
3983 12618 1 0.16500 119244.000000
3983 14597 1 0.16500 119244.000000
3984 12618 1 0.16500 119244.000000
3984 14035 1 0.16500 119244.000000
3985 12619 1 0.16500 119244.000000
3985 14770 1 0.16500 119244.000000
3986 12619 1 0.16500 119244.000000
3986 17003 1 0.16500 119244.000000
3987 12619 1 0.16500 119244.000000
3987 16322 1 0.16500 119244.000000
3988 12619 1 0.16500 119244.000000
3988 15102 1 0.16500 119244.000000
3989 12620 1 0.16500 119244.000000
3989 15882 1 0.16500 119244.000000
3990 12620 1 0.16500 119244.000000
3990 13544 1 0.16500 119244.000000
3991 12620 1 0.16500 119244.000000
3991 14528 1 0.16500 119244.000000
3992 12620 1 0.16500 119244.000000
3992 14903 1 0.16500 119244.000000
3993 12621 1 0.16500 119244.000000
3993 17105 1 0.16500 119244.000000
3994 12621 1 0.16500 119244.000000
3994 13415 1 0.16500 119244.000000
3995 12621 1 0.16500 119244.000000
3995 18869 1 0.16500 119244.000000
3996 12621 1 0.16500 119244.000000
3996 13333 1 0.16500 119244.000000
3997 12622 1 0.16500 119244.000000
3997 16895 1 0.16500 119244.000000
3998 12622 1 0.16500 119244.000000
3998 14546 1 0.16500 119244.000000
3999 12622 1 0.16500 119244.000000
3999 14430 1 0.16500 119244.000000
4000 12623 1 0.16500 119244.000000
4000 14898 1 0.16500 119244.000000
4001 12623 1 0.16500 119244.000000
4001 14904 1 0.16500 119244.000000
4002 12623 1 0.16500 119244.000000
4002 15925 1 0.16500 119244.000000
4003 12624 1 0.16500 119244.000000
4003 16232 1 0.16500 119244.000000
4004 12624 1 0.16500 119244.000000
4004 16603 1 0.16500 119244.000000
4005 12625 1 0.16500 119244.000000
4005 13926 1 0.16500 119244.000000
4006 12625 1 0.16500 119244.000000
4006 16215 1 0.16500 119244.000000
4007 12625 1 0.16500 119244.000000
4007 14836 1 0.16500 119244.000000
4008 12625 1 0.16500 119244.000000
4008 14865 1 0.16500 119244.000000
4009 12626 1 0.16500 119244.000000
4009 15883 1 0.16500 119244.000000
4010 12324 1 0.16500 119244.000000
4010 12626 1 0.16500 119244.000000
4011 12626 1 0.16500 119244.000000
4011 14348 1 0.16500 119244.000000
4012 12627 1 0.16500 119244.000000
4012 13950 1 0.16500 119244.000000
4013 12627 1 0.16500 119244.000000
4013 13184 1 0.16500 119244.000000
4014 12628 1 0.16500 119244.000000
4014 15184 1 0.16500 119244.000000
4015 12628 1 0.16500 119244.000000
4015 13458 1 0.16500 119244.000000
4016 12628 1 0.16500 119244.000000
4016 13733 1 0.16500 119244.000000
4017 15113 1 0.16500 119244.000000
4017 18410 1 0.16500 119244.000000
4018 18191 1 0.16500 119244.000000
4018 18410 1 0.16500 119244.000000
4019 12629 1 0.16500 119244.000000
4019 14988 1 0.16500 119244.000000
4020 12629 1 0.16500 119244.000000
4020 15280 1 0.16500 119244.000000
4021 12629 1 0.16500 119244.000000
4021 16743 1 0.16500 119244.000000
4022 12997 1 0.16500 119244.000000
4022 16517 1 0.16500 119244.000000
4023 12630 1 0.16500 119244.000000
4023 14138 1 0.16500 119244.000000
4024 12630 1 0.16500 119244.000000
4024 13054 1 0.16500 119244.000000
4025 12630 1 0.16500 119244.000000
4025 16517 1 0.16500 119244.000000
4026 12631 1 0.16500 119244.000000
4026 13453 1 0.16500 119244.000000
4027 13453 1 0.16500 119244.000000
4027 16744 1 0.16500 119244.000000
4028 12632 1 0.16500 119244.000000
4028 13552 1 0.16500 119244.000000
4029 12632 1 0.16500 119244.000000
4029 16663 1 0.16500 119244.000000
4030 11761 1 0.16500 119244.000000
4030 15203 1 0.16500 119244.000000
4031 12633 1 0.16500 119244.000000
4031 16252 1 0.16500 119244.000000
4032 12633 1 0.16500 119244.000000
4032 12877 1 0.16500 119244.000000
4033 15767 1 0.16500 119244.000000
4033 18413 1 0.16500 119244.000000
4034 14205 1 0.16500 119244.000000
4034 18413 1 0.16500 119244.000000
4035 12634 1 0.16500 119244.000000
4035 14793 1 0.16500 119244.000000
4036 13660 1 0.16500 119244.000000
4036 15936 1 0.16500 119244.000000
4037 12634 1 0.16500 119244.000000
4037 16962 1 0.16500 119244.000000
4038 12634 1 0.16500 119244.000000
4038 15936 1 0.16500 119244.000000
4039 12635 1 0.16500 119244.000000
4039 15576 1 0.16500 119244.000000
4040 12635 1 0.16500 119244.000000
4040 14497 1 0.16500 119244.000000
4041 17891 1 0.16500 119244.000000
4041 18416 1 0.16500 119244.000000
4042 15962 1 0.16500 119244.000000
4042 18416 1 0.16500 119244.000000
4043 12636 1 0.16500 119244.000000
4043 15796 1 0.16500 119244.000000
4044 12636 1 0.16500 119244.000000
4044 12656 1 0.16500 119244.000000
4045 12636 1 0.16500 119244.000000
4045 16627 1 0.16500 119244.000000
4046 12637 1 0.16500 119244.000000
4046 12824 1 0.16500 119244.000000
4047 12637 1 0.16500 119244.000000
4047 13396 1 0.16500 119244.000000
4048 12637 1 0.16500 119244.000000
4048 14006 1 0.16500 119244.000000
4049 12638 1 0.16500 119244.000000
4049 15412 1 0.16500 119244.000000
4050 12638 1 0.16500 119244.000000
4050 18911 1 0.16500 119244.000000
4051 12638 1 0.16500 119244.000000
4051 17343 1 0.16500 119244.000000
4052 12638 1 0.16500 119244.000000
4052 15051 1 0.16500 119244.000000
4053 12639 1 0.16500 119244.000000
4053 15274 1 0.16500 119244.000000
4054 12639 1 0.16500 119244.000000
4054 13761 1 0.16500 119244.000000
4055 12639 1 0.16500 119244.000000
4055 15084 1 0.16500 119244.000000
4056 12640 1 0.16500 119244.000000
4056 14128 1 0.16500 119244.000000
4057 12640 1 0.16500 119244.000000
4057 18890 1 0.16500 119244.000000
4058 12640 1 0.16500 119244.000000
4058 15887 1 0.16500 119244.000000
4059 12641 1 0.16500 119244.000000
4059 13953 1 0.16500 119244.000000
4060 12641 1 0.16500 119244.000000
4060 14924 1 0.16500 119244.000000
4061 12641 1 0.16500 119244.000000
4061 12976 1 0.16500 119244.000000
4062 12642 1 0.16500 119244.000000
4062 15908 1 0.16500 119244.000000
4063 12642 1 0.16500 119244.000000
4063 16033 1 0.16500 119244.000000
4064 12642 1 0.16500 119244.000000
4064 14124 1 0.16500 119244.000000
4065 12642 1 0.16500 119244.000000
4065 12685 1 0.16500 119244.000000
4066 12643 1 0.16500 119244.000000
4066 16134 1 0.16500 119244.000000
4067 12164 1 0.16500 119244.000000
4067 16134 1 0.16500 119244.000000
4068 12643 1 0.16500 119244.000000
4068 14974 1 0.16500 119244.000000
4069 12644 1 0.16500 119244.000000
4069 14468 1 0.16500 119244.000000
4070 12645 1 0.16500 119244.000000
4070 15635 1 0.16500 119244.000000
4071 12645 1 0.16500 119244.000000
4071 15730 1 0.16500 119244.000000
4072 12645 1 0.16500 119244.000000
4072 12865 1 0.16500 119244.000000
4073 12645 1 0.16500 119244.000000
4073 15094 1 0.16500 119244.000000
4074 12646 1 0.16500 119244.000000
4074 16601 1 0.16500 119244.000000
4075 12646 1 0.16500 119244.000000
4075 12714 1 0.16500 119244.000000
4076 12646 1 0.16500 119244.000000
4076 18809 1 0.16500 119244.000000
4077 12647 1 0.16500 119244.000000
4077 15582 1 0.16500 119244.000000
4078 12647 1 0.16500 119244.000000
4078 15986 1 0.16500 119244.000000
4079 12647 1 0.16500 119244.000000
4079 13136 1 0.16500 119244.000000
4080 12647 1 0.16500 119244.000000
4080 16348 1 0.16500 119244.000000
4081 11970 1 0.16500 119244.000000
4081 15031 1 0.16500 119244.000000
4082 12648 1 0.16500 119244.000000
4082 18191 1 0.16500 119244.000000
4083 12648 1 0.16500 119244.000000
4083 12844 1 0.16500 119244.000000
4084 12649 1 0.16500 119244.000000
4084 14086 1 0.16500 119244.000000
4085 12649 1 0.16500 119244.000000
4085 13098 1 0.16500 119244.000000
4086 12650 1 0.16500 119244.000000
4086 15579 1 0.16500 119244.000000
4087 12650 1 0.16500 119244.000000
4087 16484 1 0.16500 119244.000000
4088 12650 1 0.16500 119244.000000
4088 14965 1 0.16500 119244.000000
4089 12651 1 0.16500 119244.000000
4089 12740 1 0.16500 119244.000000
4090 12651 1 0.16500 119244.000000
4090 14129 1 0.16500 119244.000000
4091 12651 1 0.16500 119244.000000
4091 13857 1 0.16500 119244.000000
4092 12652 1 0.16500 119244.000000
4092 14195 1 0.16500 119244.000000
4093 12652 1 0.16500 119244.000000
4093 13679 1 0.16500 119244.000000
4094 12652 1 0.16500 119244.000000
4094 13322 1 0.16500 119244.000000
4095 12652 1 0.16500 119244.000000
4095 15322 1 0.16500 119244.000000
4096 12653 1 0.16500 119244.000000
4096 13703 1 0.16500 119244.000000
4097 12653 1 0.16500 119244.000000
4097 15593 1 0.16500 119244.000000
4098 12653 1 0.16500 119244.000000
4098 13804 1 0.16500 119244.000000
4099 12653 1 0.16500 119244.000000
4099 15721 1 0.16500 119244.000000
4100 12654 1 0.16500 119244.000000
4100 13643 1 0.16500 119244.000000
4101 13643 1 0.16500 119244.000000
4101 16507 1 0.16500 119244.000000
4102 12655 1 0.16500 119244.000000
4102 17259 1 0.16500 119244.000000
4103 12655 1 0.16500 119244.000000
4103 13472 1 0.16500 119244.000000
4104 12656 1 0.16500 119244.000000
4104 13585 1 0.16500 119244.000000
4105 12656 1 0.16500 119244.000000
4105 16843 1 0.16500 119244.000000
4106 12656 1 0.16500 119244.000000
4106 16594 1 0.16500 119244.000000
4107 13225 1 0.16500 119244.000000
4107 16852 1 0.16500 119244.000000
4108 12657 1 0.16500 119244.000000
4108 13225 1 0.16500 119244.000000
4109 12657 1 0.16500 119244.000000
4109 16958 1 0.16500 119244.000000
4110 12657 1 0.16500 119244.000000
4110 15763 1 0.16500 119244.000000
4111 13220 1 0.16500 119244.000000
4111 13347 1 0.16500 119244.000000
4112 12658 1 0.16500 119244.000000
4112 12854 1 0.16500 119244.000000
4113 12658 1 0.16500 119244.000000
4113 14407 1 0.16500 119244.000000
4114 12659 1 0.16500 119244.000000
4114 14897 1 0.16500 119244.000000
4115 12659 1 0.16500 119244.000000
4115 15148 1 0.16500 119244.000000
4116 12659 1 0.16500 119244.000000
4116 16812 1 0.16500 119244.000000
4117 12659 1 0.16500 119244.000000
4117 16527 1 0.16500 119244.000000
4118 12660 1 0.16500 119244.000000
4118 15454 1 0.16500 119244.000000
4119 12660 1 0.16500 119244.000000
4119 16883 1 0.16500 119244.000000
4120 12661 1 0.16500 119244.000000
4120 16864 1 0.16500 119244.000000
4121 12661 1 0.16500 119244.000000
4121 15040 1 0.16500 119244.000000
4122 12661 1 0.16500 119244.000000
4122 15798 1 0.16500 119244.000000
4123 12661 1 0.16500 119244.000000
4123 14552 1 0.16500 119244.000000
4124 12662 1 0.16500 119244.000000
4124 15897 1 0.16500 119244.000000
4125 12662 1 0.16500 119244.000000
4125 16742 1 0.16500 119244.000000
4126 12662 1 0.16500 119244.000000
4126 14116 1 0.16500 119244.000000
4127 12662 1 0.16500 119244.000000
4127 16356 1 0.16500 119244.000000
4128 12663 1 0.16500 119244.000000
4128 13562 1 0.16500 119244.000000
4129 12663 1 0.16500 119244.000000
4129 16047 1 0.16500 119244.000000
4130 12664 1 0.16500 119244.000000
4130 15885 1 0.16500 119244.000000
4131 12664 1 0.16500 119244.000000
4131 13392 1 0.16500 119244.000000
4132 12665 1 0.16500 119244.000000
4132 15116 1 0.16500 119244.000000
4133 12665 1 0.16500 119244.000000
4133 12860 1 0.16500 119244.000000
4134 12665 1 0.16500 119244.000000
4134 15043 1 0.16500 119244.000000
4135 12666 1 0.16500 119244.000000
4135 14086 1 0.16500 119244.000000
4136 12666 1 0.16500 119244.000000
4136 14115 1 0.16500 119244.000000
4137 12666 1 0.16500 119244.000000
4137 12719 1 0.16500 119244.000000
4138 12667 1 0.16500 119244.000000
4138 14789 1 0.16500 119244.000000
4139 12667 1 0.16500 119244.000000
4139 16310 1 0.16500 119244.000000
4140 12667 1 0.16500 119244.000000
4140 15015 1 0.16500 119244.000000
4141 12668 1 0.16500 119244.000000
4141 15404 1 0.16500 119244.000000
4142 12668 1 0.16500 119244.000000
4142 15777 1 0.16500 119244.000000
4143 12668 1 0.16500 119244.000000
4143 12736 1 0.16500 119244.000000
4144 12668 1 0.16500 119244.000000
4144 12853 1 0.16500 119244.000000
4145 12669 1 0.16500 119244.000000
4145 16744 1 0.16500 119244.000000
4146 12669 1 0.16500 119244.000000
4146 13754 1 0.16500 119244.000000
4147 12669 1 0.16500 119244.000000
4147 15710 1 0.16500 119244.000000
4148 12669 1 0.16500 119244.000000
4148 15210 1 0.16500 119244.000000
4149 12670 1 0.16500 119244.000000
4149 15943 1 0.16500 119244.000000
4150 12670 1 0.16500 119244.000000
4150 18965 1 0.16500 119244.000000
4151 12671 1 0.16500 119244.000000
4151 15350 1 0.16500 119244.000000
4152 12671 1 0.16500 119244.000000
4152 13581 1 0.16500 119244.000000
4153 12671 1 0.16500 119244.000000
4153 13908 1 0.16500 119244.000000
4154 12672 1 0.16500 119244.000000
4154 14454 1 0.16500 119244.000000
4155 12672 1 0.16500 119244.000000
4155 16223 1 0.16500 119244.000000
4156 12672 1 0.16500 119244.000000
4156 13752 1 0.16500 119244.000000
4157 12672 1 0.16500 119244.000000
4157 14466 1 0.16500 119244.000000
4158 12673 1 0.16500 119244.000000
4158 16171 1 0.16500 119244.000000
4159 12673 1 0.16500 119244.000000
4159 16132 1 0.16500 119244.000000
4160 12674 1 0.16500 119244.000000
4160 16650 1 0.16500 119244.000000
4161 12674 1 0.16500 119244.000000
4161 15577 1 0.16500 119244.000000
4162 12674 1 0.16500 119244.000000
4162 15409 1 0.16500 119244.000000
4163 12675 1 0.16500 119244.000000
4163 15206 1 0.16500 119244.000000
4164 12675 1 0.16500 119244.000000
4164 14455 1 0.16500 119244.000000
4165 12675 1 0.16500 119244.000000
4165 16464 1 0.16500 119244.000000
4166 12675 1 0.16500 119244.000000
4166 13977 1 0.16500 119244.000000
4167 11656 1 0.16500 119244.000000
4167 18419 1 0.16500 119244.000000
4168 11656 1 0.16500 119244.000000
4168 19190 1 0.16500 119244.000000
4169 12676 1 0.16500 119244.000000
4169 14850 1 0.16500 119244.000000
4170 12676 1 0.16500 119244.000000
4170 15766 1 0.16500 119244.000000
4171 12676 1 0.16500 119244.000000
4171 14082 1 0.16500 119244.000000
4172 14580 1 0.16500 119244.000000
4172 18422 1 0.16500 119244.000000
4173 12677 1 0.16500 119244.000000
4173 14797 1 0.16500 119244.000000
4174 12677 1 0.16500 119244.000000
4174 15261 1 0.16500 119244.000000
4175 12677 1 0.16500 119244.000000
4175 12682 1 0.16500 119244.000000
4176 12678 1 0.16500 119244.000000
4176 16485 1 0.16500 119244.000000
4177 12678 1 0.16500 119244.000000
4177 15044 1 0.16500 119244.000000
4178 12678 1 0.16500 119244.000000
4178 13876 1 0.16500 119244.000000
4179 12679 1 0.16500 119244.000000
4179 12815 1 0.16500 119244.000000
4180 12679 1 0.16500 119244.000000
4180 15886 1 0.16500 119244.000000
4181 12679 1 0.16500 119244.000000
4181 13832 1 0.16500 119244.000000
4182 12680 1 0.16500 119244.000000
4182 12953 1 0.16500 119244.000000
4183 12680 1 0.16500 119244.000000
4183 15930 1 0.16500 119244.000000
4184 12681 1 0.16500 119244.000000
4184 13150 1 0.16500 119244.000000
4185 12681 1 0.16500 119244.000000
4185 15584 1 0.16500 119244.000000
4186 12682 1 0.16500 119244.000000
4186 15497 1 0.16500 119244.000000
4187 12682 1 0.16500 119244.000000
4187 15333 1 0.16500 119244.000000
4188 12682 1 0.16500 119244.000000
4188 15814 1 0.16500 119244.000000
4189 12683 1 0.16500 119244.000000
4189 13582 1 0.16500 119244.000000
4190 12683 1 0.16500 119244.000000
4190 16407 1 0.16500 119244.000000
4191 12684 1 0.16500 119244.000000
4191 12945 1 0.16500 119244.000000
4192 12684 1 0.16500 119244.000000
4192 14510 1 0.16500 119244.000000
4193 12684 1 0.16500 119244.000000
4193 12986 1 0.16500 119244.000000
4194 12685 1 0.16500 119244.000000
4194 12912 1 0.16500 119244.000000
4195 12685 1 0.16500 119244.000000
4195 16757 1 0.16500 119244.000000
4196 12685 1 0.16500 119244.000000
4196 13963 1 0.16500 119244.000000
4197 12686 1 0.16500 119244.000000
4197 13984 1 0.16500 119244.000000
4198 12686 1 0.16500 119244.000000
4198 16088 1 0.16500 119244.000000
4199 12686 1 0.16500 119244.000000
4199 13906 1 0.16500 119244.000000
4200 12686 1 0.16500 119244.000000
4200 16202 1 0.16500 119244.000000
4201 12687 1 0.16500 119244.000000
4201 14578 1 0.16500 119244.000000
4202 12687 1 0.16500 119244.000000
4202 16000 1 0.16500 119244.000000
4203 12687 1 0.16500 119244.000000
4203 15496 1 0.16500 119244.000000
4204 12687 1 0.16500 119244.000000
4204 16654 1 0.16500 119244.000000
4205 12688 1 0.16500 119244.000000
4205 16820 1 0.16500 119244.000000
4206 12688 1 0.16500 119244.000000
4206 13526 1 0.16500 119244.000000
4207 12688 1 0.16500 119244.000000
4207 19120 1 0.16500 119244.000000
4208 16656 1 0.16500 119244.000000
4208 18425 1 0.16500 119244.000000
4209 18425 1 0.16500 119244.000000
4209 18977 1 0.16500 119244.000000
4210 12689 1 0.16500 119244.000000
4210 13033 1 0.16500 119244.000000
4211 12689 1 0.16500 119244.000000
4211 13365 1 0.16500 119244.000000
4212 12689 1 0.16500 119244.000000
4212 14349 1 0.16500 119244.000000
4213 12690 1 0.16500 119244.000000
4213 14044 1 0.16500 119244.000000
4214 12690 1 0.16500 119244.000000
4214 14625 1 0.16500 119244.000000
4215 12690 1 0.16500 119244.000000
4215 16650 1 0.16500 119244.000000
4216 12690 1 0.16500 119244.000000
4216 18680 1 0.16500 119244.000000
4217 12691 1 0.16500 119244.000000
4217 16408 1 0.16500 119244.000000
4218 12691 1 0.16500 119244.000000
4218 16947 1 0.16500 119244.000000
4219 12691 1 0.16500 119244.000000
4219 14654 1 0.16500 119244.000000
4220 12691 1 0.16500 119244.000000
4220 14217 1 0.16500 119244.000000
4221 12692 1 0.16500 119244.000000
4221 16365 1 0.16500 119244.000000
4222 12692 1 0.16500 119244.000000
4222 12963 1 0.16500 119244.000000
4223 12692 1 0.16500 119244.000000
4223 13405 1 0.16500 119244.000000
4224 12692 1 0.16500 119244.000000
4224 13219 1 0.16500 119244.000000
4225 12693 1 0.16500 119244.000000
4225 13910 1 0.16500 119244.000000
4226 12693 1 0.16500 119244.000000
4226 14334 1 0.16500 119244.000000
4227 12693 1 0.16500 119244.000000
4227 13774 1 0.16500 119244.000000
4228 12693 1 0.16500 119244.000000
4228 13605 1 0.16500 119244.000000
4229 12694 1 0.16500 119244.000000
4229 13858 1 0.16500 119244.000000
4230 12694 1 0.16500 119244.000000
4230 15197 1 0.16500 119244.000000
4231 12694 1 0.16500 119244.000000
4231 13946 1 0.16500 119244.000000
4232 12695 1 0.16500 119244.000000
4232 12936 1 0.16500 119244.000000
4233 12695 1 0.16500 119244.000000
4233 14849 1 0.16500 119244.000000
4234 12695 1 0.16500 119244.000000
4234 15415 1 0.16500 119244.000000
4235 12695 1 0.16500 119244.000000
4235 15977 1 0.16500 119244.000000
4236 14148 1 0.16500 119244.000000
4236 18428 1 0.16500 119244.000000
4237 12696 1 0.16500 119244.000000
4237 13513 1 0.16500 119244.000000
4238 12696 1 0.16500 119244.000000
4238 19049 1 0.16500 119244.000000
4239 12696 1 0.16500 119244.000000
4239 13526 1 0.16500 119244.000000
4240 12696 1 0.16500 119244.000000
4240 16264 1 0.16500 119244.000000
4241 12697 1 0.16500 119244.000000
4241 15295 1 0.16500 119244.000000
4242 12697 1 0.16500 119244.000000
4242 14282 1 0.16500 119244.000000
4243 12697 1 0.16500 119244.000000
4243 16339 1 0.16500 119244.000000
4244 12698 1 0.16500 119244.000000
4244 12927 1 0.16500 119244.000000
4245 12698 1 0.16500 119244.000000
4245 12746 1 0.16500 119244.000000
4246 12698 1 0.16500 119244.000000
4246 15830 1 0.16500 119244.000000
4247 12698 1 0.16500 119244.000000
4247 15139 1 0.16500 119244.000000
4248 12699 1 0.16500 119244.000000
4248 15722 1 0.16500 119244.000000
4249 12699 1 0.16500 119244.000000
4249 14431 1 0.16500 119244.000000
4250 12699 1 0.16500 119244.000000
4250 14144 1 0.16500 119244.000000
4251 12699 1 0.16500 119244.000000
4251 16757 1 0.16500 119244.000000
4252 12700 1 0.16500 119244.000000
4252 15612 1 0.16500 119244.000000
4253 12700 1 0.16500 119244.000000
4253 13322 1 0.16500 119244.000000
4254 12700 1 0.16500 119244.000000
4254 13660 1 0.16500 119244.000000
4255 12701 1 0.16500 119244.000000
4255 15448 1 0.16500 119244.000000
4256 12701 1 0.16500 119244.000000
4256 14545 1 0.16500 119244.000000
4257 12701 1 0.16500 119244.000000
4257 16706 1 0.16500 119244.000000
4258 12701 1 0.16500 119244.000000
4258 16409 1 0.16500 119244.000000
4259 12702 1 0.16500 119244.000000
4259 13842 1 0.16500 119244.000000
4260 12702 1 0.16500 119244.000000
4260 13996 1 0.16500 119244.000000
4261 12702 1 0.16500 119244.000000
4261 15037 1 0.16500 119244.000000
4262 12703 1 0.16500 119244.000000
4262 12840 1 0.16500 119244.000000
4263 12703 1 0.16500 119244.000000
4263 15277 1 0.16500 119244.000000
4264 12703 1 0.16500 119244.000000
4264 16973 1 0.16500 119244.000000
4265 12703 1 0.16500 119244.000000
4265 16321 1 0.16500 119244.000000
4266 12704 1 0.16500 119244.000000
4266 14589 1 0.16500 119244.000000
4267 12704 1 0.16500 119244.000000
4267 13532 1 0.16500 119244.000000
4268 12704 1 0.16500 119244.000000
4268 15668 1 0.16500 119244.000000
4269 12704 1 0.16500 119244.000000
4269 15331 1 0.16500 119244.000000
4270 12705 1 0.16500 119244.000000
4270 18698 1 0.16500 119244.000000
4271 12705 1 0.16500 119244.000000
4271 14101 1 0.16500 119244.000000
4272 12706 1 0.16500 119244.000000
4272 12711 1 0.16500 119244.000000
4273 12706 1 0.16500 119244.000000
4273 15801 1 0.16500 119244.000000
4274 12706 1 0.16500 119244.000000
4274 15561 1 0.16500 119244.000000
4275 12706 1 0.16500 119244.000000
4275 15639 1 0.16500 119244.000000
4276 12707 1 0.16500 119244.000000
4276 15275 1 0.16500 119244.000000
4277 12707 1 0.16500 119244.000000
4277 16885 1 0.16500 119244.000000
4278 12708 1 0.16500 119244.000000
4278 17519 1 0.16500 119244.000000
4279 12708 1 0.16500 119244.000000
4279 16247 1 0.16500 119244.000000
4280 12708 1 0.16500 119244.000000
4280 14063 1 0.16500 119244.000000
4281 12708 1 0.16500 119244.000000
4281 18725 1 0.16500 119244.000000
4282 12709 1 0.16500 119244.000000
4282 15806 1 0.16500 119244.000000
4283 12709 1 0.16500 119244.000000
4283 16853 1 0.16500 119244.000000
4284 12710 1 0.16500 119244.000000
4284 15267 1 0.16500 119244.000000
4285 12763 1 0.16500 119244.000000
4285 15267 1 0.16500 119244.000000
4286 12710 1 0.16500 119244.000000
4286 13336 1 0.16500 119244.000000
4287 12711 1 0.16500 119244.000000
4287 15242 1 0.16500 119244.000000
4288 12711 1 0.16500 119244.000000
4288 12858 1 0.16500 119244.000000
4289 12711 1 0.16500 119244.000000
4289 14844 1 0.16500 119244.000000
4290 12712 1 0.16500 119244.000000
4290 17006 1 0.16500 119244.000000
4291 12712 1 0.16500 119244.000000
4291 13216 1 0.16500 119244.000000
4292 12712 1 0.16500 119244.000000
4292 19037 1 0.16500 119244.000000
4293 12712 1 0.16500 119244.000000
4293 13343 1 0.16500 119244.000000
4294 12713 1 0.16500 119244.000000
4294 14236 1 0.16500 119244.000000
4295 11702 1 0.16500 119244.000000
4295 14088 1 0.16500 119244.000000
4296 12713 1 0.16500 119244.000000
4296 14828 1 0.16500 119244.000000
4297 12714 1 0.16500 119244.000000
4297 13597 1 0.16500 119244.000000
4298 12714 1 0.16500 119244.000000
4298 16463 1 0.16500 119244.000000
4299 12715 1 0.16500 119244.000000
4299 14694 1 0.16500 119244.000000
4300 12715 1 0.16500 119244.000000
4300 16874 1 0.16500 119244.000000
4301 12715 1 0.16500 119244.000000
4301 15270 1 0.16500 119244.000000
4302 12716 1 0.16500 119244.000000
4302 12793 1 0.16500 119244.000000
4303 12793 1 0.16500 119244.000000
4303 15215 1 0.16500 119244.000000
4304 12716 1 0.16500 119244.000000
4304 17063 1 0.16500 119244.000000
4305 12717 1 0.16500 119244.000000
4305 15504 1 0.16500 119244.000000
4306 12717 1 0.16500 119244.000000
4306 13794 1 0.16500 119244.000000
4307 12717 1 0.16500 119244.000000
4307 13847 1 0.16500 119244.000000
4308 12717 1 0.16500 119244.000000
4308 16067 1 0.16500 119244.000000
4309 12718 1 0.16500 119244.000000
4309 12752 1 0.16500 119244.000000
4310 12718 1 0.16500 119244.000000
4310 14827 1 0.16500 119244.000000
4311 12718 1 0.16500 119244.000000
4311 15927 1 0.16500 119244.000000
4312 12719 1 0.16500 119244.000000
4312 13258 1 0.16500 119244.000000
4313 12719 1 0.16500 119244.000000
4313 16601 1 0.16500 119244.000000
4314 12720 1 0.16500 119244.000000
4314 15668 1 0.16500 119244.000000
4315 12720 1 0.16500 119244.000000
4315 14286 1 0.16500 119244.000000
4316 12720 1 0.16500 119244.000000
4316 16516 1 0.16500 119244.000000
4317 12721 1 0.16500 119244.000000
4317 16519 1 0.16500 119244.000000
4318 12721 1 0.16500 119244.000000
4318 17217 1 0.16500 119244.000000
4319 12721 1 0.16500 119244.000000
4319 13988 1 0.16500 119244.000000
4320 13988 1 0.16500 119244.000000
4320 16830 1 0.16500 119244.000000
4321 12722 1 0.16500 119244.000000
4321 13817 1 0.16500 119244.000000
4322 12722 1 0.16500 119244.000000
4322 12866 1 0.16500 119244.000000
4323 12722 1 0.16500 119244.000000
4323 15065 1 0.16500 119244.000000
4324 12722 1 0.16500 119244.000000
4324 14011 1 0.16500 119244.000000
4325 12723 1 0.16500 119244.000000
4325 14330 1 0.16500 119244.000000
4326 12723 1 0.16500 119244.000000
4326 16847 1 0.16500 119244.000000
4327 12724 1 0.16500 119244.000000
4327 13040 1 0.16500 119244.000000
4328 12724 1 0.16500 119244.000000
4328 15324 1 0.16500 119244.000000
4329 12724 1 0.16500 119244.000000
4329 15056 1 0.16500 119244.000000
4330 12724 1 0.16500 119244.000000
4330 14470 1 0.16500 119244.000000
4331 12725 1 0.16500 119244.000000
4331 15312 1 0.16500 119244.000000
4332 12519 1 0.16500 119244.000000
4332 12725 1 0.16500 119244.000000
4333 12725 1 0.16500 119244.000000
4333 16177 1 0.16500 119244.000000
4334 12725 1 0.16500 119244.000000
4334 15462 1 0.16500 119244.000000
4335 12726 1 0.16500 119244.000000
4335 14717 1 0.16500 119244.000000
4336 12726 1 0.16500 119244.000000
4336 13864 1 0.16500 119244.000000
4337 12726 1 0.16500 119244.000000
4337 16620 1 0.16500 119244.000000
4338 12727 1 0.16500 119244.000000
4338 13185 1 0.16500 119244.000000
4339 12727 1 0.16500 119244.000000
4339 16404 1 0.16500 119244.000000
4340 12727 1 0.16500 119244.000000
4340 14600 1 0.16500 119244.000000
4341 12728 1 0.16500 119244.000000
4341 15557 1 0.16500 119244.000000
4342 12728 1 0.16500 119244.000000
4342 16928 1 0.16500 119244.000000
4343 12728 1 0.16500 119244.000000
4343 15137 1 0.16500 119244.000000
4344 12728 1 0.16500 119244.000000
4344 14870 1 0.16500 119244.000000
4345 12729 1 0.16500 119244.000000
4345 15223 1 0.16500 119244.000000
4346 12729 1 0.16500 119244.000000
4346 14270 1 0.16500 119244.000000
4347 12729 1 0.16500 119244.000000
4347 14515 1 0.16500 119244.000000
4348 12729 1 0.16500 119244.000000
4348 15771 1 0.16500 119244.000000
4349 12730 1 0.16500 119244.000000
4349 13321 1 0.16500 119244.000000
4350 12730 1 0.16500 119244.000000
4350 14760 1 0.16500 119244.000000
4351 12730 1 0.16500 119244.000000
4351 15786 1 0.16500 119244.000000
4352 12730 1 0.16500 119244.000000
4352 15434 1 0.16500 119244.000000
4353 12731 1 0.16500 119244.000000
4353 13751 1 0.16500 119244.000000
4354 12731 1 0.16500 119244.000000
4354 13134 1 0.16500 119244.000000
4355 12731 1 0.16500 119244.000000
4355 15092 1 0.16500 119244.000000
4356 12731 1 0.16500 119244.000000
4356 14602 1 0.16500 119244.000000
4357 12732 1 0.16500 119244.000000
4357 16448 1 0.16500 119244.000000
4358 12732 1 0.16500 119244.000000
4358 15743 1 0.16500 119244.000000
4359 12732 1 0.16500 119244.000000
4359 13622 1 0.16500 119244.000000
4360 12732 1 0.16500 119244.000000
4360 16416 1 0.16500 119244.000000
4361 12733 1 0.16500 119244.000000
4361 16310 1 0.16500 119244.000000
4362 12733 1 0.16500 119244.000000
4362 13975 1 0.16500 119244.000000
4363 12733 1 0.16500 119244.000000
4363 15479 1 0.16500 119244.000000
4364 12733 1 0.16500 119244.000000
4364 12802 1 0.16500 119244.000000
4365 12734 1 0.16500 119244.000000
4365 16734 1 0.16500 119244.000000
4366 12734 1 0.16500 119244.000000
4366 13696 1 0.16500 119244.000000
4367 12734 1 0.16500 119244.000000
4367 15904 1 0.16500 119244.000000
4368 12734 1 0.16500 119244.000000
4368 13224 1 0.16500 119244.000000
4369 12735 1 0.16500 119244.000000
4369 15553 1 0.16500 119244.000000
4370 12735 1 0.16500 119244.000000
4370 15632 1 0.16500 119244.000000
4371 12735 1 0.16500 119244.000000
4371 12784 1 0.16500 119244.000000
4372 12736 1 0.16500 119244.000000
4372 16075 1 0.16500 119244.000000
4373 12736 1 0.16500 119244.000000
4373 16576 1 0.16500 119244.000000
4374 13532 1 0.16500 119244.000000
4374 18431 1 0.16500 119244.000000
4375 12737 1 0.16500 119244.000000
4375 14660 1 0.16500 119244.000000
4376 12737 1 0.16500 119244.000000
4376 13984 1 0.16500 119244.000000
4377 12738 1 0.16500 119244.000000
4377 15217 1 0.16500 119244.000000
4378 12738 1 0.16500 119244.000000
4378 19140 1 0.16500 119244.000000
4379 12738 1 0.16500 119244.000000
4379 16135 1 0.16500 119244.000000
4380 12739 1 0.16500 119244.000000
4380 16405 1 0.16500 119244.000000
4381 12739 1 0.16500 119244.000000
4381 12932 1 0.16500 119244.000000
4382 12740 1 0.16500 119244.000000
4382 13886 1 0.16500 119244.000000
4383 12740 1 0.16500 119244.000000
4383 13845 1 0.16500 119244.000000
4384 12740 1 0.16500 119244.000000
4384 16968 1 0.16500 119244.000000
4385 12741 1 0.16500 119244.000000
4385 16638 1 0.16500 119244.000000
4386 12741 1 0.16500 119244.000000
4386 16442 1 0.16500 119244.000000
4387 12741 1 0.16500 119244.000000
4387 15319 1 0.16500 119244.000000
4388 12741 1 0.16500 119244.000000
4388 15620 1 0.16500 119244.000000
4389 12742 1 0.16500 119244.000000
4389 16248 1 0.16500 119244.000000
4390 12742 1 0.16500 119244.000000
4390 14988 1 0.16500 119244.000000
4391 12743 1 0.16500 119244.000000
4391 18776 1 0.16500 119244.000000
4392 12888 1 0.16500 119244.000000
4392 18776 1 0.16500 119244.000000
4393 12743 1 0.16500 119244.000000
4393 13522 1 0.16500 119244.000000
4394 12744 1 0.16500 119244.000000
4394 15912 1 0.16500 119244.000000
4395 12744 1 0.16500 119244.000000
4395 14365 1 0.16500 119244.000000
4396 12744 1 0.16500 119244.000000
4396 15101 1 0.16500 119244.000000
4397 12744 1 0.16500 119244.000000
4397 14464 1 0.16500 119244.000000
4398 16413 1 0.16500 119244.000000
4398 18434 1 0.16500 119244.000000
4399 14396 1 0.16500 119244.000000
4399 18434 1 0.16500 119244.000000
4400 14990 1 0.16500 119244.000000
4400 18434 1 0.16500 119244.000000
4401 12745 1 0.16500 119244.000000
4401 15256 1 0.16500 119244.000000
4402 12745 1 0.16500 119244.000000
4402 14320 1 0.16500 119244.000000
4403 12745 1 0.16500 119244.000000
4403 16194 1 0.16500 119244.000000
4404 12746 1 0.16500 119244.000000
4404 16688 1 0.16500 119244.000000
4405 12746 1 0.16500 119244.000000
4405 15169 1 0.16500 119244.000000
4406 12746 1 0.16500 119244.000000
4406 14200 1 0.16500 119244.000000
4407 12747 1 0.16500 119244.000000
4407 13903 1 0.16500 119244.000000
4408 12747 1 0.16500 119244.000000
4408 14962 1 0.16500 119244.000000
4409 12747 1 0.16500 119244.000000
4409 15280 1 0.16500 119244.000000
4410 12748 1 0.16500 119244.000000
4410 16419 1 0.16500 119244.000000
4411 12748 1 0.16500 119244.000000
4411 13454 1 0.16500 119244.000000
4412 12748 1 0.16500 119244.000000
4412 13670 1 0.16500 119244.000000
4413 12749 1 0.16500 119244.000000
4413 16897 1 0.16500 119244.000000
4414 12749 1 0.16500 119244.000000
4414 16827 1 0.16500 119244.000000
4415 12749 1 0.16500 119244.000000
4415 15151 1 0.16500 119244.000000
4416 12749 1 0.16500 119244.000000
4416 16435 1 0.16500 119244.000000
4417 12750 1 0.16500 119244.000000
4417 13841 1 0.16500 119244.000000
4418 12750 1 0.16500 119244.000000
4418 12814 1 0.16500 119244.000000
4419 12448 1 0.16500 119244.000000
4419 18749 1 0.16500 119244.000000
4420 12751 1 0.16500 119244.000000
4420 12816 1 0.16500 119244.000000
4421 12751 1 0.16500 119244.000000
4421 14733 1 0.16500 119244.000000
4422 12751 1 0.16500 119244.000000
4422 12830 1 0.16500 119244.000000
4423 12752 1 0.16500 119244.000000
4423 16555 1 0.16500 119244.000000
4424 12752 1 0.16500 119244.000000
4424 15557 1 0.16500 119244.000000
4425 12753 1 0.16500 119244.000000
4425 14896 1 0.16500 119244.000000
4426 12753 1 0.16500 119244.000000
4426 15493 1 0.16500 119244.000000
4427 12753 1 0.16500 119244.000000
4427 18530 1 0.16500 119244.000000
4428 12754 1 0.16500 119244.000000
4428 14650 1 0.16500 119244.000000
4429 12754 1 0.16500 119244.000000
4429 13198 1 0.16500 119244.000000
4430 12754 1 0.16500 119244.000000
4430 13439 1 0.16500 119244.000000
4431 12754 1 0.16500 119244.000000
4431 17015 1 0.16500 119244.000000
4432 16680 1 0.16500 119244.000000
4432 18437 1 0.16500 119244.000000
4433 13645 1 0.16500 119244.000000
4433 18437 1 0.16500 119244.000000
4434 14691 1 0.16500 119244.000000
4434 18437 1 0.16500 119244.000000
4435 12755 1 0.16500 119244.000000
4435 13433 1 0.16500 119244.000000
4436 12756 1 0.16500 119244.000000
4436 14403 1 0.16500 119244.000000
4437 12756 1 0.16500 119244.000000
4437 19001 1 0.16500 119244.000000
4438 12756 1 0.16500 119244.000000
4438 15730 1 0.16500 119244.000000
4439 12756 1 0.16500 119244.000000
4439 15836 1 0.16500 119244.000000
4440 12757 1 0.16500 119244.000000
4440 14832 1 0.16500 119244.000000
4441 12757 1 0.16500 119244.000000
4441 13375 1 0.16500 119244.000000
4442 12758 1 0.16500 119244.000000
4442 14344 1 0.16500 119244.000000
4443 12758 1 0.16500 119244.000000
4443 13333 1 0.16500 119244.000000
4444 11635 1 0.16500 119244.000000
4444 12758 1 0.16500 119244.000000
4445 12758 1 0.16500 119244.000000
4445 16874 1 0.16500 119244.000000
4446 12759 1 0.16500 119244.000000
4446 15568 1 0.16500 119244.000000
4447 12759 1 0.16500 119244.000000
4447 15617 1 0.16500 119244.000000
4448 12759 1 0.16500 119244.000000
4448 17004 1 0.16500 119244.000000
4449 12759 1 0.16500 119244.000000
4449 13206 1 0.16500 119244.000000
4450 12760 1 0.16500 119244.000000
4450 16090 1 0.16500 119244.000000
4451 12760 1 0.16500 119244.000000
4451 15650 1 0.16500 119244.000000
4452 12760 1 0.16500 119244.000000
4452 16803 1 0.16500 119244.000000
4453 12761 1 0.16500 119244.000000
4453 14355 1 0.16500 119244.000000
4454 12761 1 0.16500 119244.000000
4454 17385 1 0.16500 119244.000000
4455 12761 1 0.16500 119244.000000
4455 18626 1 0.16500 119244.000000
4456 12762 1 0.16500 119244.000000
4456 15491 1 0.16500 119244.000000
4457 12762 1 0.16500 119244.000000
4457 13254 1 0.16500 119244.000000
4458 12762 1 0.16500 119244.000000
4458 12910 1 0.16500 119244.000000
4459 12763 1 0.16500 119244.000000
4459 13102 1 0.16500 119244.000000
4460 12763 1 0.16500 119244.000000
4460 13846 1 0.16500 119244.000000
4461 12764 1 0.16500 119244.000000
4461 14464 1 0.16500 119244.000000
4462 12764 1 0.16500 119244.000000
4462 12794 1 0.16500 119244.000000
4463 11763 1 0.16500 119244.000000
4463 12764 1 0.16500 119244.000000
4464 12765 1 0.16500 119244.000000
4464 13276 1 0.16500 119244.000000
4465 12765 1 0.16500 119244.000000
4465 16514 1 0.16500 119244.000000
4466 12766 1 0.16500 119244.000000
4466 13302 1 0.16500 119244.000000
4467 12766 1 0.16500 119244.000000
4467 14690 1 0.16500 119244.000000
4468 12766 1 0.16500 119244.000000
4468 13493 1 0.16500 119244.000000
4469 12767 1 0.16500 119244.000000
4469 16509 1 0.16500 119244.000000
4470 12767 1 0.16500 119244.000000
4470 14606 1 0.16500 119244.000000
4471 12767 1 0.16500 119244.000000
4471 15726 1 0.16500 119244.000000
4472 12767 1 0.16500 119244.000000
4472 14804 1 0.16500 119244.000000
4473 12768 1 0.16500 119244.000000
4473 14838 1 0.16500 119244.000000
4474 12768 1 0.16500 119244.000000
4474 15173 1 0.16500 119244.000000
4475 12768 1 0.16500 119244.000000
4475 14750 1 0.16500 119244.000000
4476 15774 1 0.16500 119244.000000
4476 18440 1 0.16500 119244.000000
4477 16976 1 0.16500 119244.000000
4477 18440 1 0.16500 119244.000000
4478 16508 1 0.16500 119244.000000
4478 18440 1 0.16500 119244.000000
4479 12769 1 0.16500 119244.000000
4479 15785 1 0.16500 119244.000000
4480 14681 1 0.16500 119244.000000
4480 16551 1 0.16500 119244.000000
4481 12769 1 0.16500 119244.000000
4481 16551 1 0.16500 119244.000000
4482 12770 1 0.16500 119244.000000
4482 13888 1 0.16500 119244.000000
4483 12770 1 0.16500 119244.000000
4483 14041 1 0.16500 119244.000000
4484 12770 1 0.16500 119244.000000
4484 14633 1 0.16500 119244.000000
4485 12770 1 0.16500 119244.000000
4485 16781 1 0.16500 119244.000000
4486 12771 1 0.16500 119244.000000
4486 15830 1 0.16500 119244.000000
4487 12771 1 0.16500 119244.000000
4487 15482 1 0.16500 119244.000000
4488 12771 1 0.16500 119244.000000
4488 13892 1 0.16500 119244.000000
4489 12771 1 0.16500 119244.000000
4489 16925 1 0.16500 119244.000000
4490 12772 1 0.16500 119244.000000
4490 14408 1 0.16500 119244.000000
4491 12772 1 0.16500 119244.000000
4491 16540 1 0.16500 119244.000000
4492 12772 1 0.16500 119244.000000
4492 13258 1 0.16500 119244.000000
4493 12772 1 0.16500 119244.000000
4493 14895 1 0.16500 119244.000000
4494 12773 1 0.16500 119244.000000
4494 15376 1 0.16500 119244.000000
4495 14899 1 0.16500 119244.000000
4495 16348 1 0.16500 119244.000000
4496 12773 1 0.16500 119244.000000
4496 14899 1 0.16500 119244.000000
4497 12773 1 0.16500 119244.000000
4497 18971 1 0.16500 119244.000000
4498 12774 1 0.16500 119244.000000
4498 13687 1 0.16500 119244.000000
4499 12774 1 0.16500 119244.000000
4499 13352 1 0.16500 119244.000000
4500 12774 1 0.16500 119244.000000
4500 15907 1 0.16500 119244.000000
4501 12775 1 0.16500 119244.000000
4501 16106 1 0.16500 119244.000000
4502 12775 1 0.16500 119244.000000
4502 16915 1 0.16500 119244.000000
4503 12775 1 0.16500 119244.000000
4503 16854 1 0.16500 119244.000000
4504 12776 1 0.16500 119244.000000
4504 16366 1 0.16500 119244.000000
4505 12776 1 0.16500 119244.000000
4505 16518 1 0.16500 119244.000000
4506 12776 1 0.16500 119244.000000
4506 15315 1 0.16500 119244.000000
4507 12777 1 0.16500 119244.000000
4507 16589 1 0.16500 119244.000000
4508 12777 1 0.16500 119244.000000
4508 16825 1 0.16500 119244.000000
4509 15020 1 0.16500 119244.000000
4509 18446 1 0.16500 119244.000000
4510 15974 1 0.16500 119244.000000
4510 18446 1 0.16500 119244.000000
4511 12778 1 0.16500 119244.000000
4511 13437 1 0.16500 119244.000000
4512 12778 1 0.16500 119244.000000
4512 14288 1 0.16500 119244.000000
4513 12778 1 0.16500 119244.000000
4513 13422 1 0.16500 119244.000000
4514 13713 1 0.16500 119244.000000
4514 13731 1 0.16500 119244.000000
4515 18449 1 0.16500 119244.000000
4515 18785 1 0.16500 119244.000000
4516 14212 1 0.16500 119244.000000
4516 18449 1 0.16500 119244.000000
4517 16611 1 0.16500 119244.000000
4517 18449 1 0.16500 119244.000000
4518 12779 1 0.16500 119244.000000
4518 16026 1 0.16500 119244.000000
4519 12779 1 0.16500 119244.000000
4519 16680 1 0.16500 119244.000000
4520 12779 1 0.16500 119244.000000
4520 16877 1 0.16500 119244.000000
4521 12779 1 0.16500 119244.000000
4521 13016 1 0.16500 119244.000000
4522 12780 1 0.16500 119244.000000
4522 15294 1 0.16500 119244.000000
4523 12780 1 0.16500 119244.000000
4523 15564 1 0.16500 119244.000000
4524 12781 1 0.16500 119244.000000
4524 15784 1 0.16500 119244.000000
4525 12781 1 0.16500 119244.000000
4525 14511 1 0.16500 119244.000000
4526 12782 1 0.16500 119244.000000
4526 13615 1 0.16500 119244.000000
4527 12782 1 0.16500 119244.000000
4527 16108 1 0.16500 119244.000000
4528 11818 1 0.16500 119244.000000
4528 12782 1 0.16500 119244.000000
4529 12782 1 0.16500 119244.000000
4529 16231 1 0.16500 119244.000000
4530 12783 1 0.16500 119244.000000
4530 16719 1 0.16500 119244.000000
4531 12784 1 0.16500 119244.000000
4531 16771 1 0.16500 119244.000000
4532 12784 1 0.16500 119244.000000
4532 16845 1 0.16500 119244.000000
4533 12149 1 0.16500 119244.000000
4533 12784 1 0.16500 119244.000000
4534 12785 1 0.16500 119244.000000
4534 15697 1 0.16500 119244.000000
4535 12785 1 0.16500 119244.000000
4535 14613 1 0.16500 119244.000000
4536 12786 1 0.16500 119244.000000
4536 15499 1 0.16500 119244.000000
4537 12786 1 0.16500 119244.000000
4537 15373 1 0.16500 119244.000000
4538 12786 1 0.16500 119244.000000
4538 16544 1 0.16500 119244.000000
4539 15167 1 0.16500 119244.000000
4539 19105 1 0.16500 119244.000000
4540 12787 1 0.16500 119244.000000
4540 14909 1 0.16500 119244.000000
4541 12787 1 0.16500 119244.000000
4541 16230 1 0.16500 119244.000000
4542 12787 1 0.16500 119244.000000
4542 15424 1 0.16500 119244.000000
4543 12788 1 0.16500 119244.000000
4543 14239 1 0.16500 119244.000000
4544 12788 1 0.16500 119244.000000
4544 14297 1 0.16500 119244.000000
4545 12788 1 0.16500 119244.000000
4545 12958 1 0.16500 119244.000000
4546 12789 1 0.16500 119244.000000
4546 14568 1 0.16500 119244.000000
4547 12789 1 0.16500 119244.000000
4547 13497 1 0.16500 119244.000000
4548 12789 1 0.16500 119244.000000
4548 14508 1 0.16500 119244.000000
4549 12789 1 0.16500 119244.000000
4549 16786 1 0.16500 119244.000000
4550 12790 1 0.16500 119244.000000
4550 16023 1 0.16500 119244.000000
4551 12790 1 0.16500 119244.000000
4551 14748 1 0.16500 119244.000000
4552 12790 1 0.16500 119244.000000
4552 15580 1 0.16500 119244.000000
4553 15003 1 0.16500 119244.000000
4553 18716 1 0.16500 119244.000000
4554 12791 1 0.16500 119244.000000
4554 18566 1 0.16500 119244.000000
4555 12791 1 0.16500 119244.000000
4555 16802 1 0.16500 119244.000000
4556 12791 1 0.16500 119244.000000
4556 15003 1 0.16500 119244.000000
4557 12792 1 0.16500 119244.000000
4557 12848 1 0.16500 119244.000000
4558 12792 1 0.16500 119244.000000
4558 16545 1 0.16500 119244.000000
4559 12792 1 0.16500 119244.000000
4559 14155 1 0.16500 119244.000000
4560 12716 1 0.16500 119244.000000
4560 16888 1 0.16500 119244.000000
4561 12793 1 0.16500 119244.000000
4561 16905 1 0.16500 119244.000000
4562 12793 1 0.16500 119244.000000
4562 15105 1 0.16500 119244.000000
4563 12794 1 0.16500 119244.000000
4563 14458 1 0.16500 119244.000000
4564 12794 1 0.16500 119244.000000
4564 13533 1 0.16500 119244.000000
4565 12795 1 0.16500 119244.000000
4565 16009 1 0.16500 119244.000000
4566 12795 1 0.16500 119244.000000
4566 15821 1 0.16500 119244.000000
4567 12796 1 0.16500 119244.000000
4567 15886 1 0.16500 119244.000000
4568 12797 1 0.16500 119244.000000
4568 14553 1 0.16500 119244.000000
4569 12797 1 0.16500 119244.000000
4569 13572 1 0.16500 119244.000000
4570 12797 1 0.16500 119244.000000
4570 16960 1 0.16500 119244.000000
4571 12797 1 0.16500 119244.000000
4571 12950 1 0.16500 119244.000000
4572 12798 1 0.16500 119244.000000
4572 15338 1 0.16500 119244.000000
4573 12798 1 0.16500 119244.000000
4573 16093 1 0.16500 119244.000000
4574 12798 1 0.16500 119244.000000
4574 15425 1 0.16500 119244.000000
4575 12799 1 0.16500 119244.000000
4575 15559 1 0.16500 119244.000000
4576 12799 1 0.16500 119244.000000
4576 13713 1 0.16500 119244.000000
4577 12799 1 0.16500 119244.000000
4577 18749 1 0.16500 119244.000000
4578 12799 1 0.16500 119244.000000
4578 13368 1 0.16500 119244.000000
4579 12800 1 0.16500 119244.000000
4579 13823 1 0.16500 119244.000000
4580 12800 1 0.16500 119244.000000
4580 15677 1 0.16500 119244.000000
4581 12800 1 0.16500 119244.000000
4581 14967 1 0.16500 119244.000000
4582 12800 1 0.16500 119244.000000
4582 15824 1 0.16500 119244.000000
4583 12801 1 0.16500 119244.000000
4583 13541 1 0.16500 119244.000000
4584 13541 1 0.16500 119244.000000
4584 15744 1 0.16500 119244.000000
4585 12802 1 0.16500 119244.000000
4585 16462 1 0.16500 119244.000000
4586 12803 1 0.16500 119244.000000
4586 15008 1 0.16500 119244.000000
4587 12803 1 0.16500 119244.000000
4587 19055 1 0.16500 119244.000000
4588 12803 1 0.16500 119244.000000
4588 14724 1 0.16500 119244.000000
4589 13092 1 0.16500 119244.000000
4589 15716 1 0.16500 119244.000000
4590 13289 1 0.16500 119244.000000
4590 15716 1 0.16500 119244.000000
4591 12804 1 0.16500 119244.000000
4591 15716 1 0.16500 119244.000000
4592 13994 1 0.16500 119244.000000
4592 15716 1 0.16500 119244.000000
4593 14992 1 0.16500 119244.000000
4593 15460 1 0.16500 119244.000000
4594 12805 1 0.16500 119244.000000
4594 15291 1 0.16500 119244.000000
4595 12805 1 0.16500 119244.000000
4595 15460 1 0.16500 119244.000000
4596 12806 1 0.16500 119244.000000
4596 13149 1 0.16500 119244.000000
4597 12806 1 0.16500 119244.000000
4597 15948 1 0.16500 119244.000000
4598 12806 1 0.16500 119244.000000
4598 15866 1 0.16500 119244.000000
4599 12807 1 0.16500 119244.000000
4599 14149 1 0.16500 119244.000000
4600 12807 1 0.16500 119244.000000
4600 12930 1 0.16500 119244.000000
4601 12807 1 0.16500 119244.000000
4601 15559 1 0.16500 119244.000000
4602 12807 1 0.16500 119244.000000
4602 15535 1 0.16500 119244.000000
4603 12808 1 0.16500 119244.000000
4603 16623 1 0.16500 119244.000000
4604 12808 1 0.16500 119244.000000
4604 19043 1 0.16500 119244.000000
4605 12809 1 0.16500 119244.000000
4605 16355 1 0.16500 119244.000000
4606 12809 1 0.16500 119244.000000
4606 12861 1 0.16500 119244.000000
4607 14119 1 0.16500 119244.000000
4607 16676 1 0.16500 119244.000000
4608 14119 1 0.16500 119244.000000
4608 15864 1 0.16500 119244.000000
4609 12810 1 0.16500 119244.000000
4609 13631 1 0.16500 119244.000000
4610 12810 1 0.16500 119244.000000
4610 15764 1 0.16500 119244.000000
4611 12810 1 0.16500 119244.000000
4611 16065 1 0.16500 119244.000000
4612 12810 1 0.16500 119244.000000
4612 16107 1 0.16500 119244.000000
4613 12811 1 0.16500 119244.000000
4613 16350 1 0.16500 119244.000000
4614 12811 1 0.16500 119244.000000
4614 14503 1 0.16500 119244.000000
4615 12811 1 0.16500 119244.000000
4615 15240 1 0.16500 119244.000000
4616 12811 1 0.16500 119244.000000
4616 15769 1 0.16500 119244.000000
4617 12812 1 0.16500 119244.000000
4617 12911 1 0.16500 119244.000000
4618 12812 1 0.16500 119244.000000
4618 15218 1 0.16500 119244.000000
4619 12812 1 0.16500 119244.000000
4619 15824 1 0.16500 119244.000000
4620 12813 1 0.16500 119244.000000
4620 16158 1 0.16500 119244.000000
4621 12813 1 0.16500 119244.000000
4621 13726 1 0.16500 119244.000000
4622 12813 1 0.16500 119244.000000
4622 14727 1 0.16500 119244.000000
4623 12814 1 0.16500 119244.000000
4623 18875 1 0.16500 119244.000000
4624 11667 1 0.16500 119244.000000
4624 12814 1 0.16500 119244.000000
4625 12679 1 0.16500 119244.000000
4625 14674 1 0.16500 119244.000000
4626 12815 1 0.16500 119244.000000
4626 15098 1 0.16500 119244.000000
4627 12815 1 0.16500 119244.000000
4627 13304 1 0.16500 119244.000000
4628 12816 1 0.16500 119244.000000
4628 15604 1 0.16500 119244.000000
4629 12816 1 0.16500 119244.000000
4629 14066 1 0.16500 119244.000000
4630 12817 1 0.16500 119244.000000
4630 13666 1 0.16500 119244.000000
4631 12817 1 0.16500 119244.000000
4631 15585 1 0.16500 119244.000000
4632 12817 1 0.16500 119244.000000
4632 13356 1 0.16500 119244.000000
4633 12817 1 0.16500 119244.000000
4633 14906 1 0.16500 119244.000000
4634 12818 1 0.16500 119244.000000
4634 14072 1 0.16500 119244.000000
4635 12818 1 0.16500 119244.000000
4635 16174 1 0.16500 119244.000000
4636 12819 1 0.16500 119244.000000
4636 16932 1 0.16500 119244.000000
4637 12819 1 0.16500 119244.000000
4637 13744 1 0.16500 119244.000000
4638 12819 1 0.16500 119244.000000
4638 13199 1 0.16500 119244.000000
4639 11673 1 0.16500 119244.000000
4639 16764 1 0.16500 119244.000000
4640 11673 1 0.16500 119244.000000
4640 14157 1 0.16500 119244.000000
4641 12821 1 0.16500 119244.000000
4641 16523 1 0.16500 119244.000000
4642 12821 1 0.16500 119244.000000
4642 15703 1 0.16500 119244.000000
4643 12821 1 0.16500 119244.000000
4643 15294 1 0.16500 119244.000000
4644 12821 1 0.16500 119244.000000
4644 13785 1 0.16500 119244.000000
4645 12822 1 0.16500 119244.000000
4645 14478 1 0.16500 119244.000000
4646 12822 1 0.16500 119244.000000
4646 16359 1 0.16500 119244.000000
4647 12822 1 0.16500 119244.000000
4647 16985 1 0.16500 119244.000000
4648 12823 1 0.16500 119244.000000
4648 12839 1 0.16500 119244.000000
4649 12823 1 0.16500 119244.000000
4649 12836 1 0.16500 119244.000000
4650 12823 1 0.16500 119244.000000
4650 13250 1 0.16500 119244.000000
4651 12824 1 0.16500 119244.000000
4651 16547 1 0.16500 119244.000000
4652 12824 1 0.16500 119244.000000
4652 16830 1 0.16500 119244.000000
4653 12824 1 0.16500 119244.000000
4653 13280 1 0.16500 119244.000000
4654 12825 1 0.16500 119244.000000
4654 13038 1 0.16500 119244.000000
4655 12825 1 0.16500 119244.000000
4655 14316 1 0.16500 119244.000000
4656 12825 1 0.16500 119244.000000
4656 13523 1 0.16500 119244.000000
4657 12825 1 0.16500 119244.000000
4657 16122 1 0.16500 119244.000000
4658 12826 1 0.16500 119244.000000
4658 13946 1 0.16500 119244.000000
4659 12826 1 0.16500 119244.000000
4659 15486 1 0.16500 119244.000000
4660 12827 1 0.16500 119244.000000
4660 16961 1 0.16500 119244.000000
4661 12827 1 0.16500 119244.000000
4661 17005 1 0.16500 119244.000000
4662 12827 1 0.16500 119244.000000
4662 16266 1 0.16500 119244.000000
4663 12827 1 0.16500 119244.000000
4663 13290 1 0.16500 119244.000000
4664 12828 1 0.16500 119244.000000
4664 14120 1 0.16500 119244.000000
4665 12828 1 0.16500 119244.000000
4665 16007 1 0.16500 119244.000000
4666 12828 1 0.16500 119244.000000
4666 15752 1 0.16500 119244.000000
4667 12829 1 0.16500 119244.000000
4667 16919 1 0.16500 119244.000000
4668 12829 1 0.16500 119244.000000
4668 16665 1 0.16500 119244.000000
4669 12829 1 0.16500 119244.000000
4669 15786 1 0.16500 119244.000000
4670 12829 1 0.16500 119244.000000
4670 13214 1 0.16500 119244.000000
4671 12830 1 0.16500 119244.000000
4671 15178 1 0.16500 119244.000000
4672 12830 1 0.16500 119244.000000
4672 14635 1 0.16500 119244.000000
4673 12830 1 0.16500 119244.000000
4673 16084 1 0.16500 119244.000000
4674 12831 1 0.16500 119244.000000
4674 14527 1 0.16500 119244.000000
4675 12831 1 0.16500 119244.000000
4675 13849 1 0.16500 119244.000000
4676 14196 1 0.16500 119244.000000
4676 15659 1 0.16500 119244.000000
4677 12831 1 0.16500 119244.000000
4677 15659 1 0.16500 119244.000000
4678 12832 1 0.16500 119244.000000
4678 13068 1 0.16500 119244.000000
4679 12832 1 0.16500 119244.000000
4679 13833 1 0.16500 119244.000000
4680 12832 1 0.16500 119244.000000
4680 16601 1 0.16500 119244.000000
4681 12832 1 0.16500 119244.000000
4681 16593 1 0.16500 119244.000000
4682 12833 1 0.16500 119244.000000
4682 16709 1 0.16500 119244.000000
4683 12833 1 0.16500 119244.000000
4683 16787 1 0.16500 119244.000000
4684 12834 1 0.16500 119244.000000
4684 14492 1 0.16500 119244.000000
4685 12834 1 0.16500 119244.000000
4685 13344 1 0.16500 119244.000000
4686 12834 1 0.16500 119244.000000
4686 14663 1 0.16500 119244.000000
4687 12834 1 0.16500 119244.000000
4687 13296 1 0.16500 119244.000000
4688 12835 1 0.16500 119244.000000
4688 15229 1 0.16500 119244.000000
4689 12835 1 0.16500 119244.000000
4689 15067 1 0.16500 119244.000000
4690 12835 1 0.16500 119244.000000
4690 12954 1 0.16500 119244.000000
4691 18452 1 0.16500 119244.000000
4691 18782 1 0.16500 119244.000000
4692 13859 1 0.16500 119244.000000
4692 18452 1 0.16500 119244.000000
4693 15313 1 0.16500 119244.000000
4693 18452 1 0.16500 119244.000000
4694 12836 1 0.16500 119244.000000
4694 16186 1 0.16500 119244.000000
4695 12836 1 0.16500 119244.000000
4695 16521 1 0.16500 119244.000000
4696 12837 1 0.16500 119244.000000
4696 13508 1 0.16500 119244.000000
4697 12837 1 0.16500 119244.000000
4697 16218 1 0.16500 119244.000000
4698 12838 1 0.16500 119244.000000
4698 15518 1 0.16500 119244.000000
4699 12838 1 0.16500 119244.000000
4699 15829 1 0.16500 119244.000000
4700 12839 1 0.16500 119244.000000
4700 14240 1 0.16500 119244.000000
4701 12839 1 0.16500 119244.000000
4701 14512 1 0.16500 119244.000000
4702 12840 1 0.16500 119244.000000
4702 15905 1 0.16500 119244.000000
4703 12840 1 0.16500 119244.000000
4703 13528 1 0.16500 119244.000000
4704 12840 1 0.16500 119244.000000
4704 14453 1 0.16500 119244.000000
4705 12841 1 0.16500 119244.000000
4705 14065 1 0.16500 119244.000000
4706 12841 1 0.16500 119244.000000
4706 15519 1 0.16500 119244.000000
4707 12841 1 0.16500 119244.000000
4707 14221 1 0.16500 119244.000000
4708 12842 1 0.16500 119244.000000
4708 14074 1 0.16500 119244.000000
4709 12842 1 0.16500 119244.000000
4709 18500 1 0.16500 119244.000000
4710 12842 1 0.16500 119244.000000
4710 15389 1 0.16500 119244.000000
4711 12843 1 0.16500 119244.000000
4711 14925 1 0.16500 119244.000000
4712 12843 1 0.16500 119244.000000
4712 14355 1 0.16500 119244.000000
4713 12843 1 0.16500 119244.000000
4713 12859 1 0.16500 119244.000000
4714 12843 1 0.16500 119244.000000
4714 15362 1 0.16500 119244.000000
4715 12844 1 0.16500 119244.000000
4715 13296 1 0.16500 119244.000000
4716 12844 1 0.16500 119244.000000
4716 14739 1 0.16500 119244.000000
4717 12845 1 0.16500 119244.000000
4717 13411 1 0.16500 119244.000000
4718 12845 1 0.16500 119244.000000
4718 16710 1 0.16500 119244.000000
4719 12845 1 0.16500 119244.000000
4719 15965 1 0.16500 119244.000000
4720 12845 1 0.16500 119244.000000
4720 14102 1 0.16500 119244.000000
4721 12846 1 0.16500 119244.000000
4721 13730 1 0.16500 119244.000000
4722 12846 1 0.16500 119244.000000
4722 12898 1 0.16500 119244.000000
4723 12846 1 0.16500 119244.000000
4723 12856 1 0.16500 119244.000000
4724 12846 1 0.16500 119244.000000
4724 13889 1 0.16500 119244.000000
4725 12847 1 0.16500 119244.000000
4725 16529 1 0.16500 119244.000000
4726 12847 1 0.16500 119244.000000
4726 16878 1 0.16500 119244.000000
4727 12847 1 0.16500 119244.000000
4727 16309 1 0.16500 119244.000000
4728 12847 1 0.16500 119244.000000
4728 15152 1 0.16500 119244.000000
4729 12848 1 0.16500 119244.000000
4729 13514 1 0.16500 119244.000000
4730 12848 1 0.16500 119244.000000
4730 13435 1 0.16500 119244.000000
4731 12848 1 0.16500 119244.000000
4731 14454 1 0.16500 119244.000000
4732 12849 1 0.16500 119244.000000
4732 14579 1 0.16500 119244.000000
4733 12849 1 0.16500 119244.000000
4733 16992 1 0.16500 119244.000000
4734 12849 1 0.16500 119244.000000
4734 12971 1 0.16500 119244.000000
4735 12849 1 0.16500 119244.000000
4735 16510 1 0.16500 119244.000000
4736 12850 1 0.16500 119244.000000
4736 14371 1 0.16500 119244.000000
4737 12850 1 0.16500 119244.000000
4737 18689 1 0.16500 119244.000000
4738 12851 1 0.16500 119244.000000
4738 15069 1 0.16500 119244.000000
4739 12851 1 0.16500 119244.000000
4739 16028 1 0.16500 119244.000000
4740 12851 1 0.16500 119244.000000
4740 16550 1 0.16500 119244.000000
4741 12851 1 0.16500 119244.000000
4741 13471 1 0.16500 119244.000000
4742 12852 1 0.16500 119244.000000
4742 14433 1 0.16500 119244.000000
4743 12852 1 0.16500 119244.000000
4743 14183 1 0.16500 119244.000000
4744 12852 1 0.16500 119244.000000
4744 12918 1 0.16500 119244.000000
4745 12853 1 0.16500 119244.000000
4745 16565 1 0.16500 119244.000000
4746 12853 1 0.16500 119244.000000
4746 13339 1 0.16500 119244.000000
4747 12854 1 0.16500 119244.000000
4747 14759 1 0.16500 119244.000000
4748 12854 1 0.16500 119244.000000
4748 16596 1 0.16500 119244.000000
4749 12854 1 0.16500 119244.000000
4749 15828 1 0.16500 119244.000000
4750 12855 1 0.16500 119244.000000
4750 13102 1 0.16500 119244.000000
4751 12855 1 0.16500 119244.000000
4751 13924 1 0.16500 119244.000000
4752 12856 1 0.16500 119244.000000
4752 13918 1 0.16500 119244.000000
4753 12856 1 0.16500 119244.000000
4753 15474 1 0.16500 119244.000000
4754 12856 1 0.16500 119244.000000
4754 16477 1 0.16500 119244.000000
4755 14223 1 0.16500 119244.000000
4755 16477 1 0.16500 119244.000000
4756 12857 1 0.16500 119244.000000
4756 13091 1 0.16500 119244.000000
4757 12857 1 0.16500 119244.000000
4757 16419 1 0.16500 119244.000000
4758 12857 1 0.16500 119244.000000
4758 14928 1 0.16500 119244.000000
4759 12858 1 0.16500 119244.000000
4759 16384 1 0.16500 119244.000000
4760 14152 1 0.16500 119244.000000
4760 14634 1 0.16500 119244.000000
4761 12858 1 0.16500 119244.000000
4761 14634 1 0.16500 119244.000000
4762 12859 1 0.16500 119244.000000
4762 13942 1 0.16500 119244.000000
4763 12859 1 0.16500 119244.000000
4763 16522 1 0.16500 119244.000000
4764 12859 1 0.16500 119244.000000
4764 13153 1 0.16500 119244.000000
4765 12860 1 0.16500 119244.000000
4765 15372 1 0.16500 119244.000000
4766 12861 1 0.16500 119244.000000
4766 15480 1 0.16500 119244.000000
4767 12861 1 0.16500 119244.000000
4767 15720 1 0.16500 119244.000000
4768 12861 1 0.16500 119244.000000
4768 15750 1 0.16500 119244.000000
4769 12862 1 0.16500 119244.000000
4769 14387 1 0.16500 119244.000000
4770 12862 1 0.16500 119244.000000
4770 14615 1 0.16500 119244.000000
4771 14030 1 0.16500 119244.000000
4771 18455 1 0.16500 119244.000000
4772 14266 1 0.16500 119244.000000
4772 18455 1 0.16500 119244.000000
4773 12863 1 0.16500 119244.000000
4773 18818 1 0.16500 119244.000000
4774 12863 1 0.16500 119244.000000
4774 13114 1 0.16500 119244.000000
4775 12863 1 0.16500 119244.000000
4775 13372 1 0.16500 119244.000000
4776 12863 1 0.16500 119244.000000
4776 18143 1 0.16500 119244.000000
4777 12864 1 0.16500 119244.000000
4777 18578 1 0.16500 119244.000000
4778 12864 1 0.16500 119244.000000
4778 13561 1 0.16500 119244.000000
4779 12864 1 0.16500 119244.000000
4779 17603 1 0.16500 119244.000000
4780 12864 1 0.16500 119244.000000
4780 12923 1 0.16500 119244.000000
4781 12865 1 0.16500 119244.000000
4781 16081 1 0.16500 119244.000000
4782 12865 1 0.16500 119244.000000
4782 15589 1 0.16500 119244.000000
4783 14021 1 0.16500 119244.000000
4783 16081 1 0.16500 119244.000000
4784 12866 1 0.16500 119244.000000
4784 16525 1 0.16500 119244.000000
4785 12866 1 0.16500 119244.000000
4785 18641 1 0.16500 119244.000000
4786 12867 1 0.16500 119244.000000
4786 16769 1 0.16500 119244.000000
4787 12867 1 0.16500 119244.000000
4787 13159 1 0.16500 119244.000000
4788 12867 1 0.16500 119244.000000
4788 14717 1 0.16500 119244.000000
4789 12571 1 0.16500 119244.000000
4789 12868 1 0.16500 119244.000000
4790 16453 1 0.16500 119244.000000
4790 18458 1 0.16500 119244.000000
4791 13870 1 0.16500 119244.000000
4791 18458 1 0.16500 119244.000000
4792 18458 1 0.16500 119244.000000
4792 18470 1 0.16500 119244.000000
4793 12869 1 0.16500 119244.000000
4793 14129 1 0.16500 119244.000000
4794 12869 1 0.16500 119244.000000
4794 13465 1 0.16500 119244.000000
4795 12870 1 0.16500 119244.000000
4795 13324 1 0.16500 119244.000000
4796 12871 1 0.16500 119244.000000
4796 15360 1 0.16500 119244.000000
4797 12871 1 0.16500 119244.000000
4797 14003 1 0.16500 119244.000000
4798 12871 1 0.16500 119244.000000
4798 15706 1 0.16500 119244.000000
4799 12871 1 0.16500 119244.000000
4799 15208 1 0.16500 119244.000000
4800 12872 1 0.16500 119244.000000
4800 16496 1 0.16500 119244.000000
4801 12873 1 0.16500 119244.000000
4801 13339 1 0.16500 119244.000000
4802 13339 1 0.16500 119244.000000
4802 16651 1 0.16500 119244.000000
4803 12873 1 0.16500 119244.000000
4803 15360 1 0.16500 119244.000000
4804 12874 1 0.16500 119244.000000
4804 16286 1 0.16500 119244.000000
4805 12874 1 0.16500 119244.000000
4805 15134 1 0.16500 119244.000000
4806 12270 1 0.16500 119244.000000
4806 13240 1 0.16500 119244.000000
4807 13848 1 0.16500 119244.000000
4807 18461 1 0.16500 119244.000000
4808 15000 1 0.16500 119244.000000
4808 18461 1 0.16500 119244.000000
4809 18461 1 0.16500 119244.000000
4809 18878 1 0.16500 119244.000000
4810 12875 1 0.16500 119244.000000
4810 14198 1 0.16500 119244.000000
4811 14198 1 0.16500 119244.000000
4811 18794 1 0.16500 119244.000000
4812 12875 1 0.16500 119244.000000
4812 15763 1 0.16500 119244.000000
4813 15063 1 0.16500 119244.000000
4813 18464 1 0.16500 119244.000000
4814 18464 1 0.16500 119244.000000
4814 18611 1 0.16500 119244.000000
4815 12876 1 0.16500 119244.000000
4815 15610 1 0.16500 119244.000000
4816 12876 1 0.16500 119244.000000
4816 15093 1 0.16500 119244.000000
4817 12877 1 0.16500 119244.000000
4817 18059 1 0.16500 119244.000000
4818 12878 1 0.16500 119244.000000
4818 16329 1 0.16500 119244.000000
4819 12878 1 0.16500 119244.000000
4819 13748 1 0.16500 119244.000000
4820 12878 1 0.16500 119244.000000
4820 15735 1 0.16500 119244.000000
4821 12879 1 0.16500 119244.000000
4821 12999 1 0.16500 119244.000000
4822 12879 1 0.16500 119244.000000
4822 14228 1 0.16500 119244.000000
4823 12879 1 0.16500 119244.000000
4823 14324 1 0.16500 119244.000000
4824 12879 1 0.16500 119244.000000
4824 15339 1 0.16500 119244.000000
4825 16236 1 0.16500 119244.000000
4825 18467 1 0.16500 119244.000000
4826 16197 1 0.16500 119244.000000
4826 18467 1 0.16500 119244.000000
4827 14702 1 0.16500 119244.000000
4827 18467 1 0.16500 119244.000000
4828 12880 1 0.16500 119244.000000
4828 14298 1 0.16500 119244.000000
4829 12880 1 0.16500 119244.000000
4829 13204 1 0.16500 119244.000000
4830 12880 1 0.16500 119244.000000
4830 15887 1 0.16500 119244.000000
4831 12881 1 0.16500 119244.000000
4831 16731 1 0.16500 119244.000000
4832 12881 1 0.16500 119244.000000
4832 15151 1 0.16500 119244.000000
4833 12881 1 0.16500 119244.000000
4833 16103 1 0.16500 119244.000000
4834 12881 1 0.16500 119244.000000
4834 13231 1 0.16500 119244.000000
4835 12882 1 0.16500 119244.000000
4835 15286 1 0.16500 119244.000000
4836 12882 1 0.16500 119244.000000
4836 16975 1 0.16500 119244.000000
4837 12882 1 0.16500 119244.000000
4837 13540 1 0.16500 119244.000000
4838 12883 1 0.16500 119244.000000
4838 14193 1 0.16500 119244.000000
4839 12883 1 0.16500 119244.000000
4839 13534 1 0.16500 119244.000000
4840 12883 1 0.16500 119244.000000
4840 15210 1 0.16500 119244.000000
4841 12884 1 0.16500 119244.000000
4841 14149 1 0.16500 119244.000000
4842 12884 1 0.16500 119244.000000
4842 15204 1 0.16500 119244.000000
4843 12884 1 0.16500 119244.000000
4843 14832 1 0.16500 119244.000000
4844 12884 1 0.16500 119244.000000
4844 13431 1 0.16500 119244.000000
4845 12885 1 0.16500 119244.000000
4845 13319 1 0.16500 119244.000000
4846 12885 1 0.16500 119244.000000
4846 13990 1 0.16500 119244.000000
4847 12885 1 0.16500 119244.000000
4847 15114 1 0.16500 119244.000000
4848 16129 1 0.16500 119244.000000
4848 16303 1 0.16500 119244.000000
4849 12886 1 0.16500 119244.000000
4849 16303 1 0.16500 119244.000000
4850 12887 1 0.16500 119244.000000
4850 14907 1 0.16500 119244.000000
4851 12887 1 0.16500 119244.000000
4851 14278 1 0.16500 119244.000000
4852 12887 1 0.16500 119244.000000
4852 16427 1 0.16500 119244.000000
4853 12888 1 0.16500 119244.000000
4853 19001 1 0.16500 119244.000000
4854 12888 1 0.16500 119244.000000
4854 14753 1 0.16500 119244.000000
4855 12888 1 0.16500 119244.000000
4855 15263 1 0.16500 119244.000000
4856 12889 1 0.16500 119244.000000
4856 16353 1 0.16500 119244.000000
4857 12889 1 0.16500 119244.000000
4857 16256 1 0.16500 119244.000000
4858 12890 1 0.16500 119244.000000
4858 16580 1 0.16500 119244.000000
4859 12890 1 0.16500 119244.000000
4859 13607 1 0.16500 119244.000000
4860 12292 1 0.16500 119244.000000
4860 15134 1 0.16500 119244.000000
4861 13525 1 0.16500 119244.000000
4861 18473 1 0.16500 119244.000000
4862 13433 1 0.16500 119244.000000
4862 18473 1 0.16500 119244.000000
4863 12891 1 0.16500 119244.000000
4863 16375 1 0.16500 119244.000000
4864 12891 1 0.16500 119244.000000
4864 16671 1 0.16500 119244.000000
4865 12891 1 0.16500 119244.000000
4865 14942 1 0.16500 119244.000000
4866 12891 1 0.16500 119244.000000
4866 17014 1 0.16500 119244.000000
4867 12892 1 0.16500 119244.000000
4867 15266 1 0.16500 119244.000000
4868 12892 1 0.16500 119244.000000
4868 15565 1 0.16500 119244.000000
4869 12892 1 0.16500 119244.000000
4869 15549 1 0.16500 119244.000000
4870 12893 1 0.16500 119244.000000
4870 13721 1 0.16500 119244.000000
4871 12893 1 0.16500 119244.000000
4871 15221 1 0.16500 119244.000000
4872 12894 1 0.16500 119244.000000
4872 15371 1 0.16500 119244.000000
4873 12895 1 0.16500 119244.000000
4873 14016 1 0.16500 119244.000000
4874 12895 1 0.16500 119244.000000
4874 15375 1 0.16500 119244.000000
4875 12895 1 0.16500 119244.000000
4875 14612 1 0.16500 119244.000000
4876 12896 1 0.16500 119244.000000
4876 12952 1 0.16500 119244.000000
4877 12896 1 0.16500 119244.000000
4877 15957 1 0.16500 119244.000000
4878 12896 1 0.16500 119244.000000
4878 13702 1 0.16500 119244.000000
4879 16159 1 0.16500 119244.000000
4879 18476 1 0.16500 119244.000000
4880 12897 1 0.16500 119244.000000
4880 13844 1 0.16500 119244.000000
4881 12897 1 0.16500 119244.000000
4881 16698 1 0.16500 119244.000000
4882 12897 1 0.16500 119244.000000
4882 13810 1 0.16500 119244.000000
4883 12898 1 0.16500 119244.000000
4883 14010 1 0.16500 119244.000000
4884 12898 1 0.16500 119244.000000
4884 14107 1 0.16500 119244.000000
4885 12898 1 0.16500 119244.000000
4885 14958 1 0.16500 119244.000000
4886 12899 1 0.16500 119244.000000
4886 15304 1 0.16500 119244.000000
4887 12900 1 0.16500 119244.000000
4887 16980 1 0.16500 119244.000000
4888 12900 1 0.16500 119244.000000
4888 13265 1 0.16500 119244.000000
4889 12900 1 0.16500 119244.000000
4889 16353 1 0.16500 119244.000000
4890 12900 1 0.16500 119244.000000
4890 15222 1 0.16500 119244.000000
4891 12901 1 0.16500 119244.000000
4891 13089 1 0.16500 119244.000000
4892 12901 1 0.16500 119244.000000
4892 14739 1 0.16500 119244.000000
4893 12901 1 0.16500 119244.000000
4893 14663 1 0.16500 119244.000000
4894 14518 1 0.16500 119244.000000
4894 18479 1 0.16500 119244.000000
4895 13625 1 0.16500 119244.000000
4895 18482 1 0.16500 119244.000000
4896 18482 1 0.16500 119244.000000
4896 18713 1 0.16500 119244.000000
4897 12902 1 0.16500 119244.000000
4897 15839 1 0.16500 119244.000000
4898 12902 1 0.16500 119244.000000
4898 14134 1 0.16500 119244.000000
4899 14489 1 0.16500 119244.000000
4899 16437 1 0.16500 119244.000000
4900 12903 1 0.16500 119244.000000
4900 14489 1 0.16500 119244.000000
4901 12903 1 0.16500 119244.000000
4901 13050 1 0.16500 119244.000000
4902 12904 1 0.16500 119244.000000
4902 13439 1 0.16500 119244.000000
4903 12904 1 0.16500 119244.000000
4903 15345 1 0.16500 119244.000000
4904 12904 1 0.16500 119244.000000
4904 14637 1 0.16500 119244.000000
4905 12904 1 0.16500 119244.000000
4905 13515 1 0.16500 119244.000000
4906 12905 1 0.16500 119244.000000
4906 14364 1 0.16500 119244.000000
4907 12905 1 0.16500 119244.000000
4907 14055 1 0.16500 119244.000000
4908 12905 1 0.16500 119244.000000
4908 13430 1 0.16500 119244.000000
4909 12905 1 0.16500 119244.000000
4909 15756 1 0.16500 119244.000000
4910 12906 1 0.16500 119244.000000
4910 16764 1 0.16500 119244.000000
4911 12906 1 0.16500 119244.000000
4911 16723 1 0.16500 119244.000000
4912 12906 1 0.16500 119244.000000
4912 13647 1 0.16500 119244.000000
4913 12906 1 0.16500 119244.000000
4913 15151 1 0.16500 119244.000000
4914 12907 1 0.16500 119244.000000
4914 15425 1 0.16500 119244.000000
4915 12907 1 0.16500 119244.000000
4915 13904 1 0.16500 119244.000000
4916 12907 1 0.16500 119244.000000
4916 16761 1 0.16500 119244.000000
4917 12907 1 0.16500 119244.000000
4917 15835 1 0.16500 119244.000000
4918 12908 1 0.16500 119244.000000
4918 14533 1 0.16500 119244.000000
4919 12908 1 0.16500 119244.000000
4919 15661 1 0.16500 119244.000000
4920 12908 1 0.16500 119244.000000
4920 13797 1 0.16500 119244.000000
4921 12908 1 0.16500 119244.000000
4921 15907 1 0.16500 119244.000000
4922 13648 1 0.16500 119244.000000
4922 17175 1 0.16500 119244.000000
4923 12909 1 0.16500 119244.000000
4923 15487 1 0.16500 119244.000000
4924 12909 1 0.16500 119244.000000
4924 13058 1 0.16500 119244.000000
4925 12909 1 0.16500 119244.000000
4925 14831 1 0.16500 119244.000000
4926 12910 1 0.16500 119244.000000
4926 14005 1 0.16500 119244.000000
4927 12910 1 0.16500 119244.000000
4927 13133 1 0.16500 119244.000000
4928 12910 1 0.16500 119244.000000
4928 13175 1 0.16500 119244.000000
4929 12911 1 0.16500 119244.000000
4929 16121 1 0.16500 119244.000000
4930 12911 1 0.16500 119244.000000
4930 17519 1 0.16500 119244.000000
4931 12912 1 0.16500 119244.000000
4931 16872 1 0.16500 119244.000000
4932 12913 1 0.16500 119244.000000
4932 14481 1 0.16500 119244.000000
4933 12914 1 0.16500 119244.000000
4933 13991 1 0.16500 119244.000000
4934 12914 1 0.16500 119244.000000
4934 15131 1 0.16500 119244.000000
4935 12914 1 0.16500 119244.000000
4935 14822 1 0.16500 119244.000000
4936 12914 1 0.16500 119244.000000
4936 16343 1 0.16500 119244.000000
4937 13476 1 0.16500 119244.000000
4937 15321 1 0.16500 119244.000000
4938 12915 1 0.16500 119244.000000
4938 18614 1 0.16500 119244.000000
4939 12915 1 0.16500 119244.000000
4939 15321 1 0.16500 119244.000000
4940 16318 1 0.16500 119244.000000
4940 16626 1 0.16500 119244.000000
4941 12916 1 0.16500 119244.000000
4941 13316 1 0.16500 119244.000000
4942 12916 1 0.16500 119244.000000
4942 16626 1 0.16500 119244.000000
4943 12916 1 0.16500 119244.000000
4943 15052 1 0.16500 119244.000000
4944 12917 1 0.16500 119244.000000
4944 16047 1 0.16500 119244.000000
4945 12917 1 0.16500 119244.000000
4945 14409 1 0.16500 119244.000000
4946 12917 1 0.16500 119244.000000
4946 15267 1 0.16500 119244.000000
4947 12918 1 0.16500 119244.000000
4947 13275 1 0.16500 119244.000000
4948 12918 1 0.16500 119244.000000
4948 16723 1 0.16500 119244.000000
4949 12918 1 0.16500 119244.000000
4949 13590 1 0.16500 119244.000000
4950 12919 1 0.16500 119244.000000
4950 15939 1 0.16500 119244.000000
4951 12919 1 0.16500 119244.000000
4951 15897 1 0.16500 119244.000000
4952 12919 1 0.16500 119244.000000
4952 18848 1 0.16500 119244.000000
4953 12919 1 0.16500 119244.000000
4953 15695 1 0.16500 119244.000000
4954 12920 1 0.16500 119244.000000
4954 15495 1 0.16500 119244.000000
4955 12920 1 0.16500 119244.000000
4955 16313 1 0.16500 119244.000000
4956 12920 1 0.16500 119244.000000
4956 13049 1 0.16500 119244.000000
4957 12921 1 0.16500 119244.000000
4957 15930 1 0.16500 119244.000000
4958 12921 1 0.16500 119244.000000
4958 15452 1 0.16500 119244.000000
4959 12921 1 0.16500 119244.000000
4959 13865 1 0.16500 119244.000000
4960 12921 1 0.16500 119244.000000
4960 14540 1 0.16500 119244.000000
4961 16549 1 0.16500 119244.000000
4961 17385 1 0.16500 119244.000000
4962 12922 1 0.16500 119244.000000
4962 14790 1 0.16500 119244.000000
4963 12922 1 0.16500 119244.000000
4963 14968 1 0.16500 119244.000000
4964 12923 1 0.16500 119244.000000
4964 14488 1 0.16500 119244.000000
4965 12923 1 0.16500 119244.000000
4965 16339 1 0.16500 119244.000000
4966 12923 1 0.16500 119244.000000
4966 15357 1 0.16500 119244.000000
4967 12924 1 0.16500 119244.000000
4967 16345 1 0.16500 119244.000000
4968 12924 1 0.16500 119244.000000
4968 16127 1 0.16500 119244.000000
4969 12925 1 0.16500 119244.000000
4969 16639 1 0.16500 119244.000000
4970 12925 1 0.16500 119244.000000
4970 16500 1 0.16500 119244.000000
4971 12925 1 0.16500 119244.000000
4971 19110 1 0.16500 119244.000000
4972 12926 1 0.16500 119244.000000
4972 15656 1 0.16500 119244.000000
4973 12926 1 0.16500 119244.000000
4973 13392 1 0.16500 119244.000000
4974 12926 1 0.16500 119244.000000
4974 14557 1 0.16500 119244.000000
4975 12926 1 0.16500 119244.000000
4975 15521 1 0.16500 119244.000000
4976 12927 1 0.16500 119244.000000
4976 16782 1 0.16500 119244.000000
4977 12927 1 0.16500 119244.000000
4977 16901 1 0.16500 119244.000000
4978 12927 1 0.16500 119244.000000
4978 16749 1 0.16500 119244.000000
4979 12928 1 0.16500 119244.000000
4979 16142 1 0.16500 119244.000000
4980 12928 1 0.16500 119244.000000
4980 14504 1 0.16500 119244.000000
4981 12929 1 0.16500 119244.000000
4981 13677 1 0.16500 119244.000000
4982 12929 1 0.16500 119244.000000
4982 13739 1 0.16500 119244.000000
4983 12930 1 0.16500 119244.000000
4983 15193 1 0.16500 119244.000000
4984 12930 1 0.16500 119244.000000
4984 14399 1 0.16500 119244.000000
4985 12930 1 0.16500 119244.000000
4985 13818 1 0.16500 119244.000000
4986 12931 1 0.16500 119244.000000
4986 13747 1 0.16500 119244.000000
4987 12931 1 0.16500 119244.000000
4987 13794 1 0.16500 119244.000000
4988 12931 1 0.16500 119244.000000
4988 16580 1 0.16500 119244.000000
4989 12932 1 0.16500 119244.000000
4989 14633 1 0.16500 119244.000000
4990 12933 1 0.16500 119244.000000
4990 16423 1 0.16500 119244.000000
4991 12933 1 0.16500 119244.000000
4991 17699 1 0.16500 119244.000000
4992 12934 1 0.16500 119244.000000
4992 16722 1 0.16500 119244.000000
4993 12934 1 0.16500 119244.000000
4993 14302 1 0.16500 119244.000000
4994 18485 1 0.16500 119244.000000
4994 18851 1 0.16500 119244.000000
4995 13601 1 0.16500 119244.000000
4995 18485 1 0.16500 119244.000000
4996 14875 1 0.16500 119244.000000
4996 18488 1 0.16500 119244.000000
4997 12968 1 0.16500 119244.000000
4997 18488 1 0.16500 119244.000000
4998 12935 1 0.16500 119244.000000
4998 14238 1 0.16500 119244.000000
4999 12935 1 0.16500 119244.000000
4999 14695 1 0.16500 119244.000000
5000 12935 1 0.16500 119244.000000
5000 13379 1 0.16500 119244.000000
5001 12935 1 0.16500 119244.000000
5001 15906 1 0.16500 119244.000000
5002 12936 1 0.16500 119244.000000
5002 14019 1 0.16500 119244.000000
5003 12936 1 0.16500 119244.000000
5003 15615 1 0.16500 119244.000000
5004 12936 1 0.16500 119244.000000
5004 13747 1 0.16500 119244.000000
5005 12937 1 0.16500 119244.000000
5005 14475 1 0.16500 119244.000000
5006 12937 1 0.16500 119244.000000
5006 14192 1 0.16500 119244.000000
5007 12937 1 0.16500 119244.000000
5007 13441 1 0.16500 119244.000000
5008 12938 1 0.16500 119244.000000
5008 12996 1 0.16500 119244.000000
5009 12938 1 0.16500 119244.000000
5009 14885 1 0.16500 119244.000000
5010 12939 1 0.16500 119244.000000
5010 13989 1 0.16500 119244.000000
5011 13989 1 0.16500 119244.000000
5011 15619 1 0.16500 119244.000000
5012 16715 1 0.16500 119244.000000
5012 16815 1 0.16500 119244.000000
5013 12939 1 0.16500 119244.000000
5013 16715 1 0.16500 119244.000000
5014 12940 1 0.16500 119244.000000
5014 14545 1 0.16500 119244.000000
5015 12940 1 0.16500 119244.000000
5015 16828 1 0.16500 119244.000000
5016 12940 1 0.16500 119244.000000
5016 15593 1 0.16500 119244.000000
5017 12940 1 0.16500 119244.000000
5017 15305 1 0.16500 119244.000000
5018 12941 1 0.16500 119244.000000
5018 13269 1 0.16500 119244.000000
5019 12941 1 0.16500 119244.000000
5019 13044 1 0.16500 119244.000000
5020 12941 1 0.16500 119244.000000
5020 15336 1 0.16500 119244.000000
5021 12942 1 0.16500 119244.000000
5021 15364 1 0.16500 119244.000000
5022 12943 1 0.16500 119244.000000
5022 15717 1 0.16500 119244.000000
5023 12943 1 0.16500 119244.000000
5023 14089 1 0.16500 119244.000000
5024 12943 1 0.16500 119244.000000
5024 16927 1 0.16500 119244.000000
5025 12943 1 0.16500 119244.000000
5025 13443 1 0.16500 119244.000000
5026 12944 1 0.16500 119244.000000
5026 14812 1 0.16500 119244.000000
5027 12944 1 0.16500 119244.000000
5027 13434 1 0.16500 119244.000000
5028 13954 1 0.16500 119244.000000
5028 14417 1 0.16500 119244.000000
5029 12945 1 0.16500 119244.000000
5029 13954 1 0.16500 119244.000000
5030 13301 1 0.16500 119244.000000
5030 18491 1 0.16500 119244.000000
5031 13894 1 0.16500 119244.000000
5031 18491 1 0.16500 119244.000000
5032 12946 1 0.16500 119244.000000
5032 15227 1 0.16500 119244.000000
5033 12946 1 0.16500 119244.000000
5033 13874 1 0.16500 119244.000000
5034 12946 1 0.16500 119244.000000
5034 14211 1 0.16500 119244.000000
5035 12946 1 0.16500 119244.000000
5035 14710 1 0.16500 119244.000000
5036 12947 1 0.16500 119244.000000
5036 16013 1 0.16500 119244.000000
5037 12947 1 0.16500 119244.000000
5037 14623 1 0.16500 119244.000000
5038 12948 1 0.16500 119244.000000
5038 15461 1 0.16500 119244.000000
5039 12949 1 0.16500 119244.000000
5039 18617 1 0.16500 119244.000000
5040 12949 1 0.16500 119244.000000
5040 14323 1 0.16500 119244.000000
5041 12949 1 0.16500 119244.000000
5041 18665 1 0.16500 119244.000000
5042 12949 1 0.16500 119244.000000
5042 14657 1 0.16500 119244.000000
5043 16621 1 0.16500 119244.000000
5043 18494 1 0.16500 119244.000000
5044 15302 1 0.16500 119244.000000
5044 18494 1 0.16500 119244.000000
5045 12950 1 0.16500 119244.000000
5045 16688 1 0.16500 119244.000000
5046 12950 1 0.16500 119244.000000
5046 14257 1 0.16500 119244.000000
5047 12950 1 0.16500 119244.000000
5047 13948 1 0.16500 119244.000000
5048 12951 1 0.16500 119244.000000
5048 15891 1 0.16500 119244.000000
5049 16233 1 0.16500 119244.000000
5049 16963 1 0.16500 119244.000000
5050 12951 1 0.16500 119244.000000
5050 16963 1 0.16500 119244.000000
5051 12951 1 0.16500 119244.000000
5051 13576 1 0.16500 119244.000000
5052 12952 1 0.16500 119244.000000
5052 14042 1 0.16500 119244.000000
5053 12952 1 0.16500 119244.000000
5053 14531 1 0.16500 119244.000000
5054 18497 1 0.16500 119244.000000
5054 18755 1 0.16500 119244.000000
5055 13853 1 0.16500 119244.000000
5055 18497 1 0.16500 119244.000000
5056 12953 1 0.16500 119244.000000
5056 13782 1 0.16500 119244.000000
5057 12953 1 0.16500 119244.000000
5057 16737 1 0.16500 119244.000000
5058 12953 1 0.16500 119244.000000
5058 16431 1 0.16500 119244.000000
5059 15687 1 0.16500 119244.000000
5059 16738 1 0.16500 119244.000000
5060 12954 1 0.16500 119244.000000
5060 15855 1 0.16500 119244.000000
5061 12954 1 0.16500 119244.000000
5061 15687 1 0.16500 119244.000000
5062 12955 1 0.16500 119244.000000
5062 13230 1 0.16500 119244.000000
5063 12955 1 0.16500 119244.000000
5063 13143 1 0.16500 119244.000000
5064 12955 1 0.16500 119244.000000
5064 16631 1 0.16500 119244.000000
5065 12956 1 0.16500 119244.000000
5065 14951 1 0.16500 119244.000000
5066 12956 1 0.16500 119244.000000
5066 14310 1 0.16500 119244.000000
5067 12956 1 0.16500 119244.000000
5067 13440 1 0.16500 119244.000000
5068 12957 1 0.16500 119244.000000
5068 14327 1 0.16500 119244.000000
5069 12957 1 0.16500 119244.000000
5069 14743 1 0.16500 119244.000000
5070 12957 1 0.16500 119244.000000
5070 14502 1 0.16500 119244.000000
5071 12958 1 0.16500 119244.000000
5071 17017 1 0.16500 119244.000000
5072 12958 1 0.16500 119244.000000
5072 16267 1 0.16500 119244.000000
5073 12958 1 0.16500 119244.000000
5073 13710 1 0.16500 119244.000000
5074 12959 1 0.16500 119244.000000
5074 14224 1 0.16500 119244.000000
5075 12959 1 0.16500 119244.000000
5075 15885 1 0.16500 119244.000000
5076 12959 1 0.16500 119244.000000
5076 14710 1 0.16500 119244.000000
5077 12959 1 0.16500 119244.000000
5077 15878 1 0.16500 119244.000000
5078 12960 1 0.16500 119244.000000
5078 14617 1 0.16500 119244.000000
5079 12960 1 0.16500 119244.000000
5079 14877 1 0.16500 119244.000000
5080 12960 1 0.16500 119244.000000
5080 16436 1 0.16500 119244.000000
5081 12961 1 0.16500 119244.000000
5081 17001 1 0.16500 119244.000000
5082 12961 1 0.16500 119244.000000
5082 16110 1 0.16500 119244.000000
5083 12962 1 0.16500 119244.000000
5083 14523 1 0.16500 119244.000000
5084 12962 1 0.16500 119244.000000
5084 14511 1 0.16500 119244.000000
5085 12963 1 0.16500 119244.000000
5085 15856 1 0.16500 119244.000000
5086 12963 1 0.16500 119244.000000
5086 13915 1 0.16500 119244.000000
5087 12963 1 0.16500 119244.000000
5087 15314 1 0.16500 119244.000000
5088 12964 1 0.16500 119244.000000
5088 13663 1 0.16500 119244.000000
5089 12964 1 0.16500 119244.000000
5089 16328 1 0.16500 119244.000000
5090 12964 1 0.16500 119244.000000
5090 15911 1 0.16500 119244.000000
5091 12964 1 0.16500 119244.000000
5091 16740 1 0.16500 119244.000000
5092 12965 1 0.16500 119244.000000
5092 18977 1 0.16500 119244.000000
5093 12965 1 0.16500 119244.000000
5093 13683 1 0.16500 119244.000000
5094 12965 1 0.16500 119244.000000
5094 14071 1 0.16500 119244.000000
5095 12965 1 0.16500 119244.000000
5095 13875 1 0.16500 119244.000000
5096 12966 1 0.16500 119244.000000
5096 16441 1 0.16500 119244.000000
5097 12966 1 0.16500 119244.000000
5097 14666 1 0.16500 119244.000000
5098 12966 1 0.16500 119244.000000
5098 14729 1 0.16500 119244.000000
5099 12966 1 0.16500 119244.000000
5099 15028 1 0.16500 119244.000000
5100 12967 1 0.16500 119244.000000
5100 16440 1 0.16500 119244.000000
5101 12967 1 0.16500 119244.000000
5101 14361 1 0.16500 119244.000000
5102 12967 1 0.16500 119244.000000
5102 15017 1 0.16500 119244.000000
5103 12967 1 0.16500 119244.000000
5103 16795 1 0.16500 119244.000000
5104 13444 1 0.16500 119244.000000
5104 18500 1 0.16500 119244.000000
5105 13191 1 0.16500 119244.000000
5105 18500 1 0.16500 119244.000000
5106 12968 1 0.16500 119244.000000
5106 17005 1 0.16500 119244.000000
5107 12035 1 0.16500 119244.000000
5107 12968 1 0.16500 119244.000000
5108 12969 1 0.16500 119244.000000
5108 15775 1 0.16500 119244.000000
5109 12969 1 0.16500 119244.000000
5109 15361 1 0.16500 119244.000000
5110 12969 1 0.16500 119244.000000
5110 14447 1 0.16500 119244.000000
5111 12969 1 0.16500 119244.000000
5111 15893 1 0.16500 119244.000000
5112 12970 1 0.16500 119244.000000
5112 13287 1 0.16500 119244.000000
5113 12970 1 0.16500 119244.000000
5113 13410 1 0.16500 119244.000000
5114 12970 1 0.16500 119244.000000
5114 13892 1 0.16500 119244.000000
5115 13410 1 0.16500 119244.000000
5115 13948 1 0.16500 119244.000000
5116 12971 1 0.16500 119244.000000
5116 16625 1 0.16500 119244.000000
5117 12971 1 0.16500 119244.000000
5117 16994 1 0.16500 119244.000000
5118 12972 1 0.16500 119244.000000
5118 15579 1 0.16500 119244.000000
5119 12972 1 0.16500 119244.000000
5119 15481 1 0.16500 119244.000000
5120 12972 1 0.16500 119244.000000
5120 14086 1 0.16500 119244.000000
5121 12972 1 0.16500 119244.000000
5121 14013 1 0.16500 119244.000000
5122 12973 1 0.16500 119244.000000
5122 14856 1 0.16500 119244.000000
5123 12973 1 0.16500 119244.000000
5123 12974 1 0.16500 119244.000000
5124 12973 1 0.16500 119244.000000
5124 13070 1 0.16500 119244.000000
5125 12974 1 0.16500 119244.000000
5125 14723 1 0.16500 119244.000000
5126 12974 1 0.16500 119244.000000
5126 16704 1 0.16500 119244.000000
5127 12975 1 0.16500 119244.000000
5127 14837 1 0.16500 119244.000000
5128 12975 1 0.16500 119244.000000
5128 15841 1 0.16500 119244.000000
5129 12975 1 0.16500 119244.000000
5129 16424 1 0.16500 119244.000000
5130 14991 1 0.16500 119244.000000
5130 18503 1 0.16500 119244.000000
5131 14293 1 0.16500 119244.000000
5131 18503 1 0.16500 119244.000000
5132 13519 1 0.16500 119244.000000
5132 18503 1 0.16500 119244.000000
5133 12976 1 0.16500 119244.000000
5133 18764 1 0.16500 119244.000000
5134 12976 1 0.16500 119244.000000
5134 18515 1 0.16500 119244.000000
5135 12977 1 0.16500 119244.000000
5135 14973 1 0.16500 119244.000000
5136 12977 1 0.16500 119244.000000
5136 13701 1 0.16500 119244.000000
5137 12978 1 0.16500 119244.000000
5137 15526 1 0.16500 119244.000000
5138 12102 1 0.16500 119244.000000
5138 12978 1 0.16500 119244.000000
5139 12978 1 0.16500 119244.000000
5139 15919 1 0.16500 119244.000000
5140 12978 1 0.16500 119244.000000
5140 14081 1 0.16500 119244.000000
5141 17999 1 0.16500 119244.000000
5141 18506 1 0.16500 119244.000000
5142 16932 1 0.16500 119244.000000
5142 18506 1 0.16500 119244.000000
5143 15628 1 0.16500 119244.000000
5143 18506 1 0.16500 119244.000000
5144 12979 1 0.16500 119244.000000
5144 14025 1 0.16500 119244.000000
5145 12979 1 0.16500 119244.000000
5145 16017 1 0.16500 119244.000000
5146 12979 1 0.16500 119244.000000
5146 18626 1 0.16500 119244.000000
5147 12979 1 0.16500 119244.000000
5147 15362 1 0.16500 119244.000000
5148 12980 1 0.16500 119244.000000
5148 15566 1 0.16500 119244.000000
5149 12980 1 0.16500 119244.000000
5149 14135 1 0.16500 119244.000000
5150 12980 1 0.16500 119244.000000
5150 14572 1 0.16500 119244.000000
5151 12981 1 0.16500 119244.000000
5151 14198 1 0.16500 119244.000000
5152 12981 1 0.16500 119244.000000
5152 15005 1 0.16500 119244.000000
5153 12981 1 0.16500 119244.000000
5153 16087 1 0.16500 119244.000000
5154 12982 1 0.16500 119244.000000
5154 14535 1 0.16500 119244.000000
5155 12982 1 0.16500 119244.000000
5155 13050 1 0.16500 119244.000000
5156 12982 1 0.16500 119244.000000
5156 13109 1 0.16500 119244.000000
5157 11559 1 0.16500 119244.000000
5157 12983 1 0.16500 119244.000000
5158 12983 1 0.16500 119244.000000
5158 13038 1 0.16500 119244.000000
5159 12983 1 0.16500 119244.000000
5159 13352 1 0.16500 119244.000000
5160 12983 1 0.16500 119244.000000
5160 14520 1 0.16500 119244.000000
5161 11838 1 0.16500 119244.000000
5161 16819 1 0.16500 119244.000000
5162 12984 1 0.16500 119244.000000
5162 16819 1 0.16500 119244.000000
5163 13648 1 0.16500 119244.000000
5163 18509 1 0.16500 119244.000000
5164 15297 1 0.16500 119244.000000
5164 18509 1 0.16500 119244.000000
5165 12986 1 0.16500 119244.000000
5165 15915 1 0.16500 119244.000000
5166 12986 1 0.16500 119244.000000
5166 13398 1 0.16500 119244.000000
5167 12987 1 0.16500 119244.000000
5167 16682 1 0.16500 119244.000000
5168 12987 1 0.16500 119244.000000
5168 16898 1 0.16500 119244.000000
5169 12988 1 0.16500 119244.000000
5169 14871 1 0.16500 119244.000000
5170 12988 1 0.16500 119244.000000
5170 16049 1 0.16500 119244.000000
5171 12989 1 0.16500 119244.000000
5171 18107 1 0.16500 119244.000000
5172 12990 1 0.16500 119244.000000
5172 13112 1 0.16500 119244.000000
5173 18512 1 0.16500 119244.000000
5173 18812 1 0.16500 119244.000000
5174 15749 1 0.16500 119244.000000
5174 18512 1 0.16500 119244.000000
5175 12991 1 0.16500 119244.000000
5175 13737 1 0.16500 119244.000000
5176 12991 1 0.16500 119244.000000
5176 16068 1 0.16500 119244.000000
5177 12991 1 0.16500 119244.000000
5177 16334 1 0.16500 119244.000000
5178 11797 1 0.16500 119244.000000
5178 12991 1 0.16500 119244.000000
5179 12992 1 0.16500 119244.000000
5179 15284 1 0.16500 119244.000000
5180 12992 1 0.16500 119244.000000
5180 15602 1 0.16500 119244.000000
5181 12992 1 0.16500 119244.000000
5181 13061 1 0.16500 119244.000000
5182 12993 1 0.16500 119244.000000
5182 14493 1 0.16500 119244.000000
5183 12993 1 0.16500 119244.000000
5183 18701 1 0.16500 119244.000000
5184 12993 1 0.16500 119244.000000
5184 15621 1 0.16500 119244.000000
5185 12994 1 0.16500 119244.000000
5185 15842 1 0.16500 119244.000000
5186 12994 1 0.16500 119244.000000
5186 16633 1 0.16500 119244.000000
5187 12994 1 0.16500 119244.000000
5187 13797 1 0.16500 119244.000000
5188 12995 1 0.16500 119244.000000
5188 16619 1 0.16500 119244.000000
5189 12995 1 0.16500 119244.000000
5189 15598 1 0.16500 119244.000000
5190 12996 1 0.16500 119244.000000
5190 16181 1 0.16500 119244.000000
5191 12997 1 0.16500 119244.000000
5191 14226 1 0.16500 119244.000000
5192 12997 1 0.16500 119244.000000
5192 14368 1 0.16500 119244.000000
5193 12997 1 0.16500 119244.000000
5193 13996 1 0.16500 119244.000000
5194 12998 1 0.16500 119244.000000
5194 15197 1 0.16500 119244.000000
5195 12998 1 0.16500 119244.000000
5195 16577 1 0.16500 119244.000000
5196 12998 1 0.16500 119244.000000
5196 14210 1 0.16500 119244.000000
5197 11880 1 0.16500 119244.000000
5197 12999 1 0.16500 119244.000000
5198 12999 1 0.16500 119244.000000
5198 16823 1 0.16500 119244.000000
5199 12999 1 0.16500 119244.000000
5199 13965 1 0.16500 119244.000000
5200 13000 1 0.16500 119244.000000
5200 16969 1 0.16500 119244.000000
5201 13000 1 0.16500 119244.000000
5201 13639 1 0.16500 119244.000000
5202 13000 1 0.16500 119244.000000
5202 13607 1 0.16500 119244.000000
5203 13001 1 0.16500 119244.000000
5203 14419 1 0.16500 119244.000000
5204 11895 1 0.16500 119244.000000
5204 13001 1 0.16500 119244.000000
5205 13001 1 0.16500 119244.000000
5205 13168 1 0.16500 119244.000000
5206 13002 1 0.16500 119244.000000
5206 14487 1 0.16500 119244.000000
5207 13759 1 0.16500 119244.000000
5207 14487 1 0.16500 119244.000000
5208 13002 1 0.16500 119244.000000
5208 14509 1 0.16500 119244.000000
5209 13002 1 0.16500 119244.000000
5209 16118 1 0.16500 119244.000000
5210 13003 1 0.16500 119244.000000
5210 14047 1 0.16500 119244.000000
5211 13003 1 0.16500 119244.000000
5211 15082 1 0.16500 119244.000000
5212 13003 1 0.16500 119244.000000
5212 14476 1 0.16500 119244.000000
5213 13003 1 0.16500 119244.000000
5213 16638 1 0.16500 119244.000000
5214 13004 1 0.16500 119244.000000
5214 13173 1 0.16500 119244.000000
5215 13004 1 0.16500 119244.000000
5215 16843 1 0.16500 119244.000000
5216 13004 1 0.16500 119244.000000
5216 14671 1 0.16500 119244.000000
5217 13005 1 0.16500 119244.000000
5217 13239 1 0.16500 119244.000000
5218 13005 1 0.16500 119244.000000
5218 13394 1 0.16500 119244.000000
5219 13005 1 0.16500 119244.000000
5219 13429 1 0.16500 119244.000000
5220 13005 1 0.16500 119244.000000
5220 16342 1 0.16500 119244.000000
5221 16209 1 0.16500 119244.000000
5221 18515 1 0.16500 119244.000000
5222 13006 1 0.16500 119244.000000
5222 16757 1 0.16500 119244.000000
5223 14290 1 0.16500 119244.000000
5223 15159 1 0.16500 119244.000000
5224 13007 1 0.16500 119244.000000
5224 14290 1 0.16500 119244.000000
5225 13007 1 0.16500 119244.000000
5225 16570 1 0.16500 119244.000000
5226 13007 1 0.16500 119244.000000
5226 16555 1 0.16500 119244.000000
5227 13008 1 0.16500 119244.000000
5227 16561 1 0.16500 119244.000000
5228 13008 1 0.16500 119244.000000
5228 15256 1 0.16500 119244.000000
5229 13008 1 0.16500 119244.000000
5229 13589 1 0.16500 119244.000000
5230 13008 1 0.16500 119244.000000
5230 18824 1 0.16500 119244.000000
5231 15811 1 0.16500 119244.000000
5231 15914 1 0.16500 119244.000000
5232 13009 1 0.16500 119244.000000
5232 13575 1 0.16500 119244.000000
5233 13009 1 0.16500 119244.000000
5233 15811 1 0.16500 119244.000000
5234 13010 1 0.16500 119244.000000
5234 18095 1 0.16500 119244.000000
5235 13010 1 0.16500 119244.000000
5235 14855 1 0.16500 119244.000000
5236 13011 1 0.16500 119244.000000
5236 13908 1 0.16500 119244.000000
5237 13011 1 0.16500 119244.000000
5237 16246 1 0.16500 119244.000000
5238 13012 1 0.16500 119244.000000
5238 16386 1 0.16500 119244.000000
5239 15079 1 0.16500 119244.000000
5239 16386 1 0.16500 119244.000000
5240 13012 1 0.16500 119244.000000
5240 15261 1 0.16500 119244.000000
5241 13012 1 0.16500 119244.000000
5241 14821 1 0.16500 119244.000000
5242 13013 1 0.16500 119244.000000
5242 13943 1 0.16500 119244.000000
5243 13013 1 0.16500 119244.000000
5243 15334 1 0.16500 119244.000000
5244 13013 1 0.16500 119244.000000
5244 16414 1 0.16500 119244.000000
5245 13013 1 0.16500 119244.000000
5245 13544 1 0.16500 119244.000000
5246 13014 1 0.16500 119244.000000
5246 13739 1 0.16500 119244.000000
5247 13014 1 0.16500 119244.000000
5247 13950 1 0.16500 119244.000000
5248 13014 1 0.16500 119244.000000
5248 13792 1 0.16500 119244.000000
5249 14389 1 0.16500 119244.000000
5249 18518 1 0.16500 119244.000000
5250 14318 1 0.16500 119244.000000
5250 18518 1 0.16500 119244.000000
5251 18518 1 0.16500 119244.000000
5251 18578 1 0.16500 119244.000000
5252 16085 1 0.16500 119244.000000
5252 16238 1 0.16500 119244.000000
5253 13015 1 0.16500 119244.000000
5253 16238 1 0.16500 119244.000000
5254 13015 1 0.16500 119244.000000
5254 15501 1 0.16500 119244.000000
5255 13015 1 0.16500 119244.000000
5255 16283 1 0.16500 119244.000000
5256 14548 1 0.16500 119244.000000
5256 17687 1 0.16500 119244.000000
5257 14867 1 0.16500 119244.000000
5257 17687 1 0.16500 119244.000000
5258 13016 1 0.16500 119244.000000
5258 14341 1 0.16500 119244.000000
5259 13016 1 0.16500 119244.000000
5259 15458 1 0.16500 119244.000000
5260 13017 1 0.16500 119244.000000
5260 16310 1 0.16500 119244.000000
5261 13017 1 0.16500 119244.000000
5261 18659 1 0.16500 119244.000000
5262 13018 1 0.16500 119244.000000
5262 16888 1 0.16500 119244.000000
5263 13018 1 0.16500 119244.000000
5263 16412 1 0.16500 119244.000000
5264 13018 1 0.16500 119244.000000
5264 15665 1 0.16500 119244.000000
5265 13019 1 0.16500 119244.000000
5265 14783 1 0.16500 119244.000000
5266 13019 1 0.16500 119244.000000
5266 16888 1 0.16500 119244.000000
5267 13020 1 0.16500 119244.000000
5267 14131 1 0.16500 119244.000000
5268 13020 1 0.16500 119244.000000
5268 13301 1 0.16500 119244.000000
5269 13020 1 0.16500 119244.000000
5269 16707 1 0.16500 119244.000000
5270 13020 1 0.16500 119244.000000
5270 16365 1 0.16500 119244.000000
5271 13021 1 0.16500 119244.000000
5271 14705 1 0.16500 119244.000000
5272 13021 1 0.16500 119244.000000
5272 15591 1 0.16500 119244.000000
5273 13021 1 0.16500 119244.000000
5273 13815 1 0.16500 119244.000000
5274 13022 1 0.16500 119244.000000
5274 15311 1 0.16500 119244.000000
5275 13022 1 0.16500 119244.000000
5275 14492 1 0.16500 119244.000000
5276 13022 1 0.16500 119244.000000
5276 13067 1 0.16500 119244.000000
5277 13023 1 0.16500 119244.000000
5277 13857 1 0.16500 119244.000000
5278 13023 1 0.16500 119244.000000
5278 16669 1 0.16500 119244.000000
5279 13023 1 0.16500 119244.000000
5279 15935 1 0.16500 119244.000000
5280 13023 1 0.16500 119244.000000
5280 14954 1 0.16500 119244.000000
5281 13024 1 0.16500 119244.000000
5281 14438 1 0.16500 119244.000000
5282 13024 1 0.16500 119244.000000
5282 16630 1 0.16500 119244.000000
5283 13024 1 0.16500 119244.000000
5283 13233 1 0.16500 119244.000000
5284 13024 1 0.16500 119244.000000
5284 14467 1 0.16500 119244.000000
5285 13025 1 0.16500 119244.000000
5285 16979 1 0.16500 119244.000000
5286 13025 1 0.16500 119244.000000
5286 15973 1 0.16500 119244.000000
5287 18107 1 0.16500 119244.000000
5287 18878 1 0.16500 119244.000000
5288 13866 1 0.16500 119244.000000
5288 18107 1 0.16500 119244.000000
5289 13026 1 0.16500 119244.000000
5289 16410 1 0.16500 119244.000000
5290 13026 1 0.16500 119244.000000
5290 13510 1 0.16500 119244.000000
5291 13026 1 0.16500 119244.000000
5291 13922 1 0.16500 119244.000000
5292 13027 1 0.16500 119244.000000
5292 14177 1 0.16500 119244.000000
5293 13027 1 0.16500 119244.000000
5293 13386 1 0.16500 119244.000000
5294 13027 1 0.16500 119244.000000
5294 15307 1 0.16500 119244.000000
5295 13028 1 0.16500 119244.000000
5295 14927 1 0.16500 119244.000000
5296 13028 1 0.16500 119244.000000
5296 13841 1 0.16500 119244.000000
5297 13028 1 0.16500 119244.000000
5297 18875 1 0.16500 119244.000000
5298 13718 1 0.16500 119244.000000
5298 17357 1 0.16500 119244.000000
5299 17357 1 0.16500 119244.000000
5299 18704 1 0.16500 119244.000000
5300 11620 1 0.16500 119244.000000
5300 13029 1 0.16500 119244.000000
5301 13029 1 0.16500 119244.000000
5301 15667 1 0.16500 119244.000000
5302 13029 1 0.16500 119244.000000
5302 15192 1 0.16500 119244.000000
5303 13030 1 0.16500 119244.000000
5303 13959 1 0.16500 119244.000000
5304 13030 1 0.16500 119244.000000
5304 14424 1 0.16500 119244.000000
5305 13031 1 0.16500 119244.000000
5305 14474 1 0.16500 119244.000000
5306 13031 1 0.16500 119244.000000
5306 15689 1 0.16500 119244.000000
5307 13031 1 0.16500 119244.000000
5307 14526 1 0.16500 119244.000000
5308 13032 1 0.16500 119244.000000
5308 13042 1 0.16500 119244.000000
5309 13032 1 0.16500 119244.000000
5309 14298 1 0.16500 119244.000000
5310 13032 1 0.16500 119244.000000
5310 14277 1 0.16500 119244.000000
5311 13032 1 0.16500 119244.000000
5311 14079 1 0.16500 119244.000000
5312 13033 1 0.16500 119244.000000
5312 13467 1 0.16500 119244.000000
5313 13034 1 0.16500 119244.000000
5313 14112 1 0.16500 119244.000000
5314 13034 1 0.16500 119244.000000
5314 14401 1 0.16500 119244.000000
5315 13034 1 0.16500 119244.000000
5315 14495 1 0.16500 119244.000000
5316 13034 1 0.16500 119244.000000
5316 16516 1 0.16500 119244.000000
5317 13035 1 0.16500 119244.000000
5317 13172 1 0.16500 119244.000000
5318 13035 1 0.16500 119244.000000
5318 13083 1 0.16500 119244.000000
5319 13035 1 0.16500 119244.000000
5319 13542 1 0.16500 119244.000000
5320 13035 1 0.16500 119244.000000
5320 16098 1 0.16500 119244.000000
5321 13036 1 0.16500 119244.000000
5321 15130 1 0.16500 119244.000000
5322 13036 1 0.16500 119244.000000
5322 13683 1 0.16500 119244.000000
5323 13036 1 0.16500 119244.000000
5323 14502 1 0.16500 119244.000000
5324 16775 1 0.16500 119244.000000
5324 18521 1 0.16500 119244.000000
5325 15125 1 0.16500 119244.000000
5325 18521 1 0.16500 119244.000000
5326 13037 1 0.16500 119244.000000
5326 14571 1 0.16500 119244.000000
5327 13037 1 0.16500 119244.000000
5327 15614 1 0.16500 119244.000000
5328 13037 1 0.16500 119244.000000
5328 13982 1 0.16500 119244.000000
5329 13038 1 0.16500 119244.000000
5329 14639 1 0.16500 119244.000000
5330 13039 1 0.16500 119244.000000
5330 14147 1 0.16500 119244.000000
5331 13039 1 0.16500 119244.000000
5331 14902 1 0.16500 119244.000000
5332 13039 1 0.16500 119244.000000
5332 16780 1 0.16500 119244.000000
5333 13040 1 0.16500 119244.000000
5333 19170 1 0.16500 119244.000000
5334 13040 1 0.16500 119244.000000
5334 15531 1 0.16500 119244.000000
5335 14050 1 0.16500 119244.000000
5335 15871 1 0.16500 119244.000000
5336 13041 1 0.16500 119244.000000
5336 14305 1 0.16500 119244.000000
5337 14305 1 0.16500 119244.000000
5337 15871 1 0.16500 119244.000000
5338 14490 1 0.16500 119244.000000
5338 15871 1 0.16500 119244.000000
5339 13042 1 0.16500 119244.000000
5339 16485 1 0.16500 119244.000000
5340 13042 1 0.16500 119244.000000
5340 13417 1 0.16500 119244.000000
5341 13042 1 0.16500 119244.000000
5341 15886 1 0.16500 119244.000000
5342 13043 1 0.16500 119244.000000
5342 16020 1 0.16500 119244.000000
5343 13043 1 0.16500 119244.000000
5343 16044 1 0.16500 119244.000000
5344 13044 1 0.16500 119244.000000
5344 14608 1 0.16500 119244.000000
5345 13045 1 0.16500 119244.000000
5345 13835 1 0.16500 119244.000000
5346 13045 1 0.16500 119244.000000
5346 13228 1 0.16500 119244.000000
5347 13045 1 0.16500 119244.000000
5347 15266 1 0.16500 119244.000000
5348 13046 1 0.16500 119244.000000
5348 14817 1 0.16500 119244.000000
5349 13046 1 0.16500 119244.000000
5349 16204 1 0.16500 119244.000000
5350 13046 1 0.16500 119244.000000
5350 13913 1 0.16500 119244.000000
5351 13047 1 0.16500 119244.000000
5351 13580 1 0.16500 119244.000000
5352 13048 1 0.16500 119244.000000
5352 18695 1 0.16500 119244.000000
5353 13049 1 0.16500 119244.000000
5353 16336 1 0.16500 119244.000000
5354 13050 1 0.16500 119244.000000
5354 15628 1 0.16500 119244.000000
5355 13050 1 0.16500 119244.000000
5355 13744 1 0.16500 119244.000000
5356 18524 1 0.16500 119244.000000
5356 18992 1 0.16500 119244.000000
5357 13051 1 0.16500 119244.000000
5357 13104 1 0.16500 119244.000000
5358 13051 1 0.16500 119244.000000
5358 16918 1 0.16500 119244.000000
5359 12024 1 0.16500 119244.000000
5359 13051 1 0.16500 119244.000000
5360 13051 1 0.16500 119244.000000
5360 14105 1 0.16500 119244.000000
5361 13052 1 0.16500 119244.000000
5361 18572 1 0.16500 119244.000000
5362 13052 1 0.16500 119244.000000
5362 16398 1 0.16500 119244.000000
5363 13052 1 0.16500 119244.000000
5363 14571 1 0.16500 119244.000000
5364 13053 1 0.16500 119244.000000
5364 15714 1 0.16500 119244.000000
5365 13053 1 0.16500 119244.000000
5365 16088 1 0.16500 119244.000000
5366 13054 1 0.16500 119244.000000
5366 16445 1 0.16500 119244.000000
5367 13054 1 0.16500 119244.000000
5367 13926 1 0.16500 119244.000000
5368 13054 1 0.16500 119244.000000
5368 16092 1 0.16500 119244.000000
5369 13055 1 0.16500 119244.000000
5369 14085 1 0.16500 119244.000000
5370 13055 1 0.16500 119244.000000
5370 13073 1 0.16500 119244.000000
5371 13055 1 0.16500 119244.000000
5371 15920 1 0.16500 119244.000000
5372 13056 1 0.16500 119244.000000
5372 14988 1 0.16500 119244.000000
5373 16320 1 0.16500 119244.000000
5373 18527 1 0.16500 119244.000000
5374 14221 1 0.16500 119244.000000
5374 18527 1 0.16500 119244.000000
5375 13717 1 0.16500 119244.000000
5375 14703 1 0.16500 119244.000000
5376 13717 1 0.16500 119244.000000
5376 16630 1 0.16500 119244.000000
5377 13057 1 0.16500 119244.000000
5377 15920 1 0.16500 119244.000000
5378 13057 1 0.16500 119244.000000
5378 15595 1 0.16500 119244.000000
5379 13058 1 0.16500 119244.000000
5379 16057 1 0.16500 119244.000000
5380 12344 1 0.16500 119244.000000
5380 13058 1 0.16500 119244.000000
5381 13059 1 0.16500 119244.000000
5381 16265 1 0.16500 119244.000000
5382 13060 1 0.16500 119244.000000
5382 14571 1 0.16500 119244.000000
5383 13060 1 0.16500 119244.000000
5383 14028 1 0.16500 119244.000000
5384 13060 1 0.16500 119244.000000
5384 13189 1 0.16500 119244.000000
5385 13061 1 0.16500 119244.000000
5385 16349 1 0.16500 119244.000000
5386 13061 1 0.16500 119244.000000
5386 13666 1 0.16500 119244.000000
5387 13061 1 0.16500 119244.000000
5387 14053 1 0.16500 119244.000000
5388 13062 1 0.16500 119244.000000
5388 14267 1 0.16500 119244.000000
5389 13062 1 0.16500 119244.000000
5389 13788 1 0.16500 119244.000000
5390 13062 1 0.16500 119244.000000
5390 13560 1 0.16500 119244.000000
5391 13063 1 0.16500 119244.000000
5391 15646 1 0.16500 119244.000000
5392 13063 1 0.16500 119244.000000
5392 15465 1 0.16500 119244.000000
5393 12498 1 0.16500 119244.000000
5393 13064 1 0.16500 119244.000000
5394 13064 1 0.16500 119244.000000
5394 16347 1 0.16500 119244.000000
5395 13065 1 0.16500 119244.000000
5395 13256 1 0.16500 119244.000000
5396 13065 1 0.16500 119244.000000
5396 13169 1 0.16500 119244.000000
5397 13065 1 0.16500 119244.000000
5397 13529 1 0.16500 119244.000000
5398 13065 1 0.16500 119244.000000
5398 14898 1 0.16500 119244.000000
5399 13066 1 0.16500 119244.000000
5399 16884 1 0.16500 119244.000000
5400 13066 1 0.16500 119244.000000
5400 16806 1 0.16500 119244.000000
5401 13066 1 0.16500 119244.000000
5401 13513 1 0.16500 119244.000000
5402 13066 1 0.16500 119244.000000
5402 14121 1 0.16500 119244.000000
5403 13067 1 0.16500 119244.000000
5403 13858 1 0.16500 119244.000000
5404 13067 1 0.16500 119244.000000
5404 13089 1 0.16500 119244.000000
5405 13067 1 0.16500 119244.000000
5405 15517 1 0.16500 119244.000000
5406 13068 1 0.16500 119244.000000
5406 14201 1 0.16500 119244.000000
5407 13068 1 0.16500 119244.000000
5407 13597 1 0.16500 119244.000000
5408 13068 1 0.16500 119244.000000
5408 13608 1 0.16500 119244.000000
5409 13069 1 0.16500 119244.000000
5409 16163 1 0.16500 119244.000000
5410 12146 1 0.16500 119244.000000
5410 13069 1 0.16500 119244.000000
5411 13070 1 0.16500 119244.000000
5411 16186 1 0.16500 119244.000000
5412 13070 1 0.16500 119244.000000
5412 15556 1 0.16500 119244.000000
5413 13071 1 0.16500 119244.000000
5413 16540 1 0.16500 119244.000000
5414 13071 1 0.16500 119244.000000
5414 18809 1 0.16500 119244.000000
5415 13072 1 0.16500 119244.000000
5415 16944 1 0.16500 119244.000000
5416 13072 1 0.16500 119244.000000
5416 14037 1 0.16500 119244.000000
5417 13073 1 0.16500 119244.000000
5417 16678 1 0.16500 119244.000000
5418 13073 1 0.16500 119244.000000
5418 16893 1 0.16500 119244.000000
5419 13057 1 0.16500 119244.000000
5419 13073 1 0.16500 119244.000000
5420 13074 1 0.16500 119244.000000
5420 15463 1 0.16500 119244.000000
5421 13074 1 0.16500 119244.000000
5421 14409 1 0.16500 119244.000000
5422 13074 1 0.16500 119244.000000
5422 13654 1 0.16500 119244.000000
5423 13074 1 0.16500 119244.000000
5423 16769 1 0.16500 119244.000000
5424 13075 1 0.16500 119244.000000
5424 18590 1 0.16500 119244.000000
5425 13075 1 0.16500 119244.000000
5425 15265 1 0.16500 119244.000000
5426 13075 1 0.16500 119244.000000
5426 15867 1 0.16500 119244.000000
5427 17639 1 0.16500 119244.000000
5427 18530 1 0.16500 119244.000000
5428 15778 1 0.16500 119244.000000
5428 18530 1 0.16500 119244.000000
5429 13076 1 0.16500 119244.000000
5429 13957 1 0.16500 119244.000000
5430 13076 1 0.16500 119244.000000
5430 15178 1 0.16500 119244.000000
5431 13077 1 0.16500 119244.000000
5431 13622 1 0.16500 119244.000000
5432 13077 1 0.16500 119244.000000
5432 14800 1 0.16500 119244.000000
5433 13077 1 0.16500 119244.000000
5433 13638 1 0.16500 119244.000000
5434 13078 1 0.16500 119244.000000
5434 14681 1 0.16500 119244.000000
5435 13078 1 0.16500 119244.000000
5435 16855 1 0.16500 119244.000000
5436 13078 1 0.16500 119244.000000
5436 17001 1 0.16500 119244.000000
5437 13079 1 0.16500 119244.000000
5437 18833 1 0.16500 119244.000000
5438 13079 1 0.16500 119244.000000
5438 14676 1 0.16500 119244.000000
5439 13079 1 0.16500 119244.000000
5439 13111 1 0.16500 119244.000000
5440 18332 1 0.16500 119244.000000
5440 18722 1 0.16500 119244.000000
5441 13080 1 0.16500 119244.000000
5441 15647 1 0.16500 119244.000000
5442 13080 1 0.16500 119244.000000
5442 18929 1 0.16500 119244.000000
5443 13080 1 0.16500 119244.000000
5443 13691 1 0.16500 119244.000000
5444 13081 1 0.16500 119244.000000
5444 14753 1 0.16500 119244.000000
5445 14373 1 0.16500 119244.000000
5445 16808 1 0.16500 119244.000000
5446 13082 1 0.16500 119244.000000
5446 14373 1 0.16500 119244.000000
5447 13082 1 0.16500 119244.000000
5447 16137 1 0.16500 119244.000000
5448 13083 1 0.16500 119244.000000
5448 14867 1 0.16500 119244.000000
5449 13083 1 0.16500 119244.000000
5449 16534 1 0.16500 119244.000000
5450 11764 1 0.16500 119244.000000
5450 13084 1 0.16500 119244.000000
5451 11977 1 0.16500 119244.000000
5451 15235 1 0.16500 119244.000000
5452 11977 1 0.16500 119244.000000
5452 15247 1 0.16500 119244.000000
5453 13085 1 0.16500 119244.000000
5453 15199 1 0.16500 119244.000000
5454 13085 1 0.16500 119244.000000
5454 16344 1 0.16500 119244.000000
5455 13085 1 0.16500 119244.000000
5455 15995 1 0.16500 119244.000000
5456 13086 1 0.16500 119244.000000
5456 16961 1 0.16500 119244.000000
5457 13086 1 0.16500 119244.000000
5457 15998 1 0.16500 119244.000000
5458 13086 1 0.16500 119244.000000
5458 15633 1 0.16500 119244.000000
5459 13086 1 0.16500 119244.000000
5459 14220 1 0.16500 119244.000000
5460 13087 1 0.16500 119244.000000
5460 13836 1 0.16500 119244.000000
5461 13087 1 0.16500 119244.000000
5461 15781 1 0.16500 119244.000000
5462 13087 1 0.16500 119244.000000
5462 14931 1 0.16500 119244.000000
5463 13087 1 0.16500 119244.000000
5463 14249 1 0.16500 119244.000000
5464 13341 1 0.16500 119244.000000
5464 13514 1 0.16500 119244.000000
5465 13089 1 0.16500 119244.000000
5465 13830 1 0.16500 119244.000000
5466 13089 1 0.16500 119244.000000
5466 13341 1 0.16500 119244.000000
5467 13090 1 0.16500 119244.000000
5467 15758 1 0.16500 119244.000000
5468 13090 1 0.16500 119244.000000
5468 16793 1 0.16500 119244.000000
5469 13090 1 0.16500 119244.000000
5469 13254 1 0.16500 119244.000000
5470 13091 1 0.16500 119244.000000
5470 14824 1 0.16500 119244.000000
5471 13091 1 0.16500 119244.000000
5471 16002 1 0.16500 119244.000000
5472 13092 1 0.16500 119244.000000
5472 13297 1 0.16500 119244.000000
5473 13092 1 0.16500 119244.000000
5473 16211 1 0.16500 119244.000000
5474 13093 1 0.16500 119244.000000
5474 15601 1 0.16500 119244.000000
5475 13093 1 0.16500 119244.000000
5475 13776 1 0.16500 119244.000000
5476 11763 1 0.16500 119244.000000
5476 16393 1 0.16500 119244.000000
5477 13095 1 0.16500 119244.000000
5477 16661 1 0.16500 119244.000000
5478 13095 1 0.16500 119244.000000
5478 15070 1 0.16500 119244.000000
5479 13096 1 0.16500 119244.000000
5479 16289 1 0.16500 119244.000000
5480 13096 1 0.16500 119244.000000
5480 15903 1 0.16500 119244.000000
5481 13096 1 0.16500 119244.000000
5481 16763 1 0.16500 119244.000000
5482 13096 1 0.16500 119244.000000
5482 14694 1 0.16500 119244.000000
5483 13097 1 0.16500 119244.000000
5483 16552 1 0.16500 119244.000000
5484 13097 1 0.16500 119244.000000
5484 14107 1 0.16500 119244.000000
5485 13097 1 0.16500 119244.000000
5485 13657 1 0.16500 119244.000000
5486 13098 1 0.16500 119244.000000
5486 14013 1 0.16500 119244.000000
5487 13098 1 0.16500 119244.000000
5487 16996 1 0.16500 119244.000000
5488 13099 1 0.16500 119244.000000
5488 14892 1 0.16500 119244.000000
5489 13099 1 0.16500 119244.000000
5489 15305 1 0.16500 119244.000000
5490 13099 1 0.16500 119244.000000
5490 14078 1 0.16500 119244.000000
5491 13100 1 0.16500 119244.000000
5491 14521 1 0.16500 119244.000000
5492 13100 1 0.16500 119244.000000
5492 14467 1 0.16500 119244.000000
5493 13100 1 0.16500 119244.000000
5493 15856 1 0.16500 119244.000000
5494 13101 1 0.16500 119244.000000
5494 14825 1 0.16500 119244.000000
5495 13101 1 0.16500 119244.000000
5495 14458 1 0.16500 119244.000000
5496 16813 1 0.16500 119244.000000
5496 18533 1 0.16500 119244.000000
5497 15843 1 0.16500 119244.000000
5497 18533 1 0.16500 119244.000000
5498 13363 1 0.16500 119244.000000
5498 18533 1 0.16500 119244.000000
5499 13102 1 0.16500 119244.000000
5499 15437 1 0.16500 119244.000000
5500 13102 1 0.16500 119244.000000
5500 16797 1 0.16500 119244.000000
5501 13875 1 0.16500 119244.000000
5501 18536 1 0.16500 119244.000000
5502 15074 1 0.16500 119244.000000
5502 18536 1 0.16500 119244.000000
5503 16577 1 0.16500 119244.000000
5503 18536 1 0.16500 119244.000000
5504 13103 1 0.16500 119244.000000
5504 14846 1 0.16500 119244.000000
5505 13103 1 0.16500 119244.000000
5505 16282 1 0.16500 119244.000000
5506 13103 1 0.16500 119244.000000
5506 13132 1 0.16500 119244.000000
5507 13104 1 0.16500 119244.000000
5507 16315 1 0.16500 119244.000000
5508 13104 1 0.16500 119244.000000
5508 15401 1 0.16500 119244.000000
5509 13104 1 0.16500 119244.000000
5509 15994 1 0.16500 119244.000000
5510 13105 1 0.16500 119244.000000
5510 13420 1 0.16500 119244.000000
5511 13105 1 0.16500 119244.000000
5511 14773 1 0.16500 119244.000000
5512 13106 1 0.16500 119244.000000
5512 16606 1 0.16500 119244.000000
5513 13106 1 0.16500 119244.000000
5513 16994 1 0.16500 119244.000000
5514 13106 1 0.16500 119244.000000
5514 14560 1 0.16500 119244.000000
5515 13106 1 0.16500 119244.000000
5515 15735 1 0.16500 119244.000000
5516 13107 1 0.16500 119244.000000
5516 16150 1 0.16500 119244.000000
5517 13108 1 0.16500 119244.000000
5517 16961 1 0.16500 119244.000000
5518 13108 1 0.16500 119244.000000
5518 14002 1 0.16500 119244.000000
5519 13108 1 0.16500 119244.000000
5519 13451 1 0.16500 119244.000000
5520 13109 1 0.16500 119244.000000
5520 15705 1 0.16500 119244.000000
5521 13109 1 0.16500 119244.000000
5521 13168 1 0.16500 119244.000000
5522 13109 1 0.16500 119244.000000
5522 15636 1 0.16500 119244.000000
5523 13110 1 0.16500 119244.000000
5523 14779 1 0.16500 119244.000000
5524 13110 1 0.16500 119244.000000
5524 14736 1 0.16500 119244.000000
5525 13111 1 0.16500 119244.000000
5525 16714 1 0.16500 119244.000000
5526 13112 1 0.16500 119244.000000
5526 14385 1 0.16500 119244.000000
5527 13112 1 0.16500 119244.000000
5527 13281 1 0.16500 119244.000000
5528 13113 1 0.16500 119244.000000
5528 14061 1 0.16500 119244.000000
5529 13113 1 0.16500 119244.000000
5529 15318 1 0.16500 119244.000000
5530 13113 1 0.16500 119244.000000
5530 13684 1 0.16500 119244.000000
5531 13113 1 0.16500 119244.000000
5531 14701 1 0.16500 119244.000000
5532 13114 1 0.16500 119244.000000
5532 13331 1 0.16500 119244.000000
5533 13114 1 0.16500 119244.000000
5533 13403 1 0.16500 119244.000000
5534 13114 1 0.16500 119244.000000
5534 13404 1 0.16500 119244.000000
5535 13115 1 0.16500 119244.000000
5535 14010 1 0.16500 119244.000000
5536 13115 1 0.16500 119244.000000
5536 16614 1 0.16500 119244.000000
5537 13116 1 0.16500 119244.000000
5537 16875 1 0.16500 119244.000000
5538 13116 1 0.16500 119244.000000
5538 13549 1 0.16500 119244.000000
5539 13116 1 0.16500 119244.000000
5539 15837 1 0.16500 119244.000000
5540 13117 1 0.16500 119244.000000
5540 19079 1 0.16500 119244.000000
5541 13117 1 0.16500 119244.000000
5541 14363 1 0.16500 119244.000000
5542 13118 1 0.16500 119244.000000
5542 17555 1 0.16500 119244.000000
5543 13118 1 0.16500 119244.000000
5543 15649 1 0.16500 119244.000000
5544 13119 1 0.16500 119244.000000
5544 16591 1 0.16500 119244.000000
5545 14423 1 0.16500 119244.000000
5545 16312 1 0.16500 119244.000000
5546 13119 1 0.16500 119244.000000
5546 14644 1 0.16500 119244.000000
5547 13119 1 0.16500 119244.000000
5547 16312 1 0.16500 119244.000000
5548 13120 1 0.16500 119244.000000
5548 16405 1 0.16500 119244.000000
5549 13120 1 0.16500 119244.000000
5549 14304 1 0.16500 119244.000000
5550 12417 1 0.16500 119244.000000
5550 16253 1 0.16500 119244.000000
5551 13121 1 0.16500 119244.000000
5551 16712 1 0.16500 119244.000000
5552 13121 1 0.16500 119244.000000
5552 14275 1 0.16500 119244.000000
5553 13122 1 0.16500 119244.000000
5553 16393 1 0.16500 119244.000000
5554 13122 1 0.16500 119244.000000
5554 15701 1 0.16500 119244.000000
5555 13122 1 0.16500 119244.000000
5555 14596 1 0.16500 119244.000000
5556 13122 1 0.16500 119244.000000
5556 13359 1 0.16500 119244.000000
5557 13123 1 0.16500 119244.000000
5557 15683 1 0.16500 119244.000000
5558 13123 1 0.16500 119244.000000
5558 14862 1 0.16500 119244.000000
5559 13123 1 0.16500 119244.000000
5559 14607 1 0.16500 119244.000000
5560 13124 1 0.16500 119244.000000
5560 16698 1 0.16500 119244.000000
5561 13124 1 0.16500 119244.000000
5561 14190 1 0.16500 119244.000000
5562 13125 1 0.16500 119244.000000
5562 14674 1 0.16500 119244.000000
5563 13125 1 0.16500 119244.000000
5563 15098 1 0.16500 119244.000000
5564 13125 1 0.16500 119244.000000
5564 14648 1 0.16500 119244.000000
5565 13127 1 0.16500 119244.000000
5565 16045 1 0.16500 119244.000000
5566 13127 1 0.16500 119244.000000
5566 17301 1 0.16500 119244.000000
5567 13127 1 0.16500 119244.000000
5567 16296 1 0.16500 119244.000000
5568 13128 1 0.16500 119244.000000
5568 14370 1 0.16500 119244.000000
5569 13128 1 0.16500 119244.000000
5569 14827 1 0.16500 119244.000000
5570 13128 1 0.16500 119244.000000
5570 13144 1 0.16500 119244.000000
5571 13129 1 0.16500 119244.000000
5571 13865 1 0.16500 119244.000000
5572 13130 1 0.16500 119244.000000
5572 18734 1 0.16500 119244.000000
5573 13130 1 0.16500 119244.000000
5573 16504 1 0.16500 119244.000000
5574 13131 1 0.16500 119244.000000
5574 16331 1 0.16500 119244.000000
5575 13131 1 0.16500 119244.000000
5575 13967 1 0.16500 119244.000000
5576 13131 1 0.16500 119244.000000
5576 16576 1 0.16500 119244.000000
5577 12259 1 0.16500 119244.000000
5577 15931 1 0.16500 119244.000000
5578 15931 1 0.16500 119244.000000
5578 18539 1 0.16500 119244.000000
5579 13132 1 0.16500 119244.000000
5579 13778 1 0.16500 119244.000000
5580 15185 1 0.16500 119244.000000
5580 16584 1 0.16500 119244.000000
5581 13132 1 0.16500 119244.000000
5581 15185 1 0.16500 119244.000000
5582 13133 1 0.16500 119244.000000
5582 18599 1 0.16500 119244.000000
5583 13133 1 0.16500 119244.000000
5583 15941 1 0.16500 119244.000000
5584 13133 1 0.16500 119244.000000
5584 14696 1 0.16500 119244.000000
5585 13134 1 0.16500 119244.000000
5585 16277 1 0.16500 119244.000000
5586 13134 1 0.16500 119244.000000
5586 13819 1 0.16500 119244.000000
5587 13135 1 0.16500 119244.000000
5587 14378 1 0.16500 119244.000000
5588 13135 1 0.16500 119244.000000
5588 15418 1 0.16500 119244.000000
5589 13135 1 0.16500 119244.000000
5589 13697 1 0.16500 119244.000000
5590 13135 1 0.16500 119244.000000
5590 16962 1 0.16500 119244.000000
5591 13136 1 0.16500 119244.000000
5591 17010 1 0.16500 119244.000000
5592 13136 1 0.16500 119244.000000
5592 15709 1 0.16500 119244.000000
5593 13136 1 0.16500 119244.000000
5593 14078 1 0.16500 119244.000000
5594 13137 1 0.16500 119244.000000
5594 14786 1 0.16500 119244.000000
5595 13137 1 0.16500 119244.000000
5595 13310 1 0.16500 119244.000000
5596 13137 1 0.16500 119244.000000
5596 15925 1 0.16500 119244.000000
5597 13137 1 0.16500 119244.000000
5597 16482 1 0.16500 119244.000000
5598 13138 1 0.16500 119244.000000
5598 15985 1 0.16500 119244.000000
5599 13138 1 0.16500 119244.000000
5599 13216 1 0.16500 119244.000000
5600 13139 1 0.16500 119244.000000
5600 16076 1 0.16500 119244.000000
5601 13139 1 0.16500 119244.000000
5601 13945 1 0.16500 119244.000000
5602 13140 1 0.16500 119244.000000
5602 14626 1 0.16500 119244.000000
5603 13140 1 0.16500 119244.000000
5603 14779 1 0.16500 119244.000000
5604 13140 1 0.16500 119244.000000
5604 14043 1 0.16500 119244.000000
5605 13141 1 0.16500 119244.000000
5605 14672 1 0.16500 119244.000000
5606 13141 1 0.16500 119244.000000
5606 15016 1 0.16500 119244.000000
5607 13141 1 0.16500 119244.000000
5607 14473 1 0.16500 119244.000000
5608 13141 1 0.16500 119244.000000
5608 13765 1 0.16500 119244.000000
5609 13142 1 0.16500 119244.000000
5609 14530 1 0.16500 119244.000000
5610 13142 1 0.16500 119244.000000
5610 15394 1 0.16500 119244.000000
5611 13142 1 0.16500 119244.000000
5611 16970 1 0.16500 119244.000000
5612 13143 1 0.16500 119244.000000
5612 15863 1 0.16500 119244.000000
5613 13143 1 0.16500 119244.000000
5613 15704 1 0.16500 119244.000000
5614 13143 1 0.16500 119244.000000
5614 16627 1 0.16500 119244.000000
5615 13144 1 0.16500 119244.000000
5615 14485 1 0.16500 119244.000000
5616 13144 1 0.16500 119244.000000
5616 15986 1 0.16500 119244.000000
5617 13144 1 0.16500 119244.000000
5617 15393 1 0.16500 119244.000000
5618 13145 1 0.16500 119244.000000
5618 16071 1 0.16500 119244.000000
5619 13145 1 0.16500 119244.000000
5619 14659 1 0.16500 119244.000000
5620 13145 1 0.16500 119244.000000
5620 14392 1 0.16500 119244.000000
5621 13145 1 0.16500 119244.000000
5621 13919 1 0.16500 119244.000000
5622 13146 1 0.16500 119244.000000
5622 15494 1 0.16500 119244.000000
5623 13146 1 0.16500 119244.000000
5623 16876 1 0.16500 119244.000000
5624 13146 1 0.16500 119244.000000
5624 14583 1 0.16500 119244.000000
5625 13146 1 0.16500 119244.000000
5625 14659 1 0.16500 119244.000000
5626 13147 1 0.16500 119244.000000
5626 16649 1 0.16500 119244.000000
5627 13148 1 0.16500 119244.000000
5627 16373 1 0.16500 119244.000000
5628 13148 1 0.16500 119244.000000
5628 14876 1 0.16500 119244.000000
5629 13149 1 0.16500 119244.000000
5629 14515 1 0.16500 119244.000000
5630 13150 1 0.16500 119244.000000
5630 14040 1 0.16500 119244.000000
5631 13151 1 0.16500 119244.000000
5631 14479 1 0.16500 119244.000000
5632 15575 1 0.16500 119244.000000
5632 16446 1 0.16500 119244.000000
5633 13151 1 0.16500 119244.000000
5633 16446 1 0.16500 119244.000000
5634 13151 1 0.16500 119244.000000
5634 13732 1 0.16500 119244.000000
5635 13152 1 0.16500 119244.000000
5635 16512 1 0.16500 119244.000000
5636 13152 1 0.16500 119244.000000
5636 16412 1 0.16500 119244.000000
5637 13152 1 0.16500 119244.000000
5637 13226 1 0.16500 119244.000000
5638 13152 1 0.16500 119244.000000
5638 13882 1 0.16500 119244.000000
5639 13153 1 0.16500 119244.000000
5639 15629 1 0.16500 119244.000000
5640 13153 1 0.16500 119244.000000
5640 13524 1 0.16500 119244.000000
5641 13153 1 0.16500 119244.000000
5641 15870 1 0.16500 119244.000000
5642 13154 1 0.16500 119244.000000
5642 15087 1 0.16500 119244.000000
5643 13154 1 0.16500 119244.000000
5643 16717 1 0.16500 119244.000000
5644 13154 1 0.16500 119244.000000
5644 13937 1 0.16500 119244.000000
5645 13154 1 0.16500 119244.000000
5645 14951 1 0.16500 119244.000000
5646 13155 1 0.16500 119244.000000
5646 13912 1 0.16500 119244.000000
5647 13155 1 0.16500 119244.000000
5647 15765 1 0.16500 119244.000000
5648 13155 1 0.16500 119244.000000
5648 15016 1 0.16500 119244.000000
5649 13156 1 0.16500 119244.000000
5649 16907 1 0.16500 119244.000000
5650 13156 1 0.16500 119244.000000
5650 14456 1 0.16500 119244.000000
5651 13156 1 0.16500 119244.000000
5651 15509 1 0.16500 119244.000000
5652 13156 1 0.16500 119244.000000
5652 16930 1 0.16500 119244.000000
5653 14253 1 0.16500 119244.000000
5653 15208 1 0.16500 119244.000000
5654 13157 1 0.16500 119244.000000
5654 14253 1 0.16500 119244.000000
5655 13157 1 0.16500 119244.000000
5655 14670 1 0.16500 119244.000000
5656 13158 1 0.16500 119244.000000
5656 13939 1 0.16500 119244.000000
5657 13158 1 0.16500 119244.000000
5657 14158 1 0.16500 119244.000000
5658 13158 1 0.16500 119244.000000
5658 15707 1 0.16500 119244.000000
5659 13158 1 0.16500 119244.000000
5659 16284 1 0.16500 119244.000000
5660 16116 1 0.16500 119244.000000
5660 17915 1 0.16500 119244.000000
5661 13159 1 0.16500 119244.000000
5661 13426 1 0.16500 119244.000000
5662 13159 1 0.16500 119244.000000
5662 15892 1 0.16500 119244.000000
5663 13159 1 0.16500 119244.000000
5663 14320 1 0.16500 119244.000000
5664 13160 1 0.16500 119244.000000
5664 14154 1 0.16500 119244.000000
5665 13160 1 0.16500 119244.000000
5665 13336 1 0.16500 119244.000000
5666 13160 1 0.16500 119244.000000
5666 13645 1 0.16500 119244.000000
5667 13161 1 0.16500 119244.000000
5667 15219 1 0.16500 119244.000000
5668 13161 1 0.16500 119244.000000
5668 16875 1 0.16500 119244.000000
5669 13161 1 0.16500 119244.000000
5669 14725 1 0.16500 119244.000000
5670 13162 1 0.16500 119244.000000
5670 14485 1 0.16500 119244.000000
5671 13162 1 0.16500 119244.000000
5671 16369 1 0.16500 119244.000000
5672 13162 1 0.16500 119244.000000
5672 13343 1 0.16500 119244.000000
5673 13162 1 0.16500 119244.000000
5673 18971 1 0.16500 119244.000000
5674 13163 1 0.16500 119244.000000
5674 14479 1 0.16500 119244.000000
5675 13163 1 0.16500 119244.000000
5675 13398 1 0.16500 119244.000000
5676 13163 1 0.16500 119244.000000
5676 13745 1 0.16500 119244.000000
5677 13163 1 0.16500 119244.000000
5677 13202 1 0.16500 119244.000000
5678 13164 1 0.16500 119244.000000
5678 15678 1 0.16500 119244.000000
5679 13164 1 0.16500 119244.000000
5679 13939 1 0.16500 119244.000000
5680 13164 1 0.16500 119244.000000
5680 16579 1 0.16500 119244.000000
5681 13165 1 0.16500 119244.000000
5681 16825 1 0.16500 119244.000000
5682 13165 1 0.16500 119244.000000
5682 14843 1 0.16500 119244.000000
5683 13166 1 0.16500 119244.000000
5683 15100 1 0.16500 119244.000000
5684 13166 1 0.16500 119244.000000
5684 14709 1 0.16500 119244.000000
5685 13166 1 0.16500 119244.000000
5685 15888 1 0.16500 119244.000000
5686 13167 1 0.16500 119244.000000
5686 16158 1 0.16500 119244.000000
5687 13167 1 0.16500 119244.000000
5687 14727 1 0.16500 119244.000000
5688 13167 1 0.16500 119244.000000
5688 14273 1 0.16500 119244.000000
5689 13168 1 0.16500 119244.000000
5689 14798 1 0.16500 119244.000000
5690 13168 1 0.16500 119244.000000
5690 15136 1 0.16500 119244.000000
5691 13169 1 0.16500 119244.000000
5691 16628 1 0.16500 119244.000000
5692 13169 1 0.16500 119244.000000
5692 14117 1 0.16500 119244.000000
5693 13169 1 0.16500 119244.000000
5693 15199 1 0.16500 119244.000000
5694 12031 1 0.16500 119244.000000
5694 13553 1 0.16500 119244.000000
5695 13553 1 0.16500 119244.000000
5695 16458 1 0.16500 119244.000000
5696 13171 1 0.16500 119244.000000
5696 15596 1 0.16500 119244.000000
5697 13171 1 0.16500 119244.000000
5697 15592 1 0.16500 119244.000000
5698 13171 1 0.16500 119244.000000
5698 16196 1 0.16500 119244.000000
5699 13171 1 0.16500 119244.000000
5699 16455 1 0.16500 119244.000000
5700 13172 1 0.16500 119244.000000
5700 13418 1 0.16500 119244.000000
5701 13172 1 0.16500 119244.000000
5701 16622 1 0.16500 119244.000000
5702 13172 1 0.16500 119244.000000
5702 16492 1 0.16500 119244.000000
5703 13173 1 0.16500 119244.000000
5703 15548 1 0.16500 119244.000000
5704 13173 1 0.16500 119244.000000
5704 13464 1 0.16500 119244.000000
5705 13173 1 0.16500 119244.000000
5705 16257 1 0.16500 119244.000000
5706 13224 1 0.16500 119244.000000
5706 14197 1 0.16500 119244.000000
5707 13174 1 0.16500 119244.000000
5707 15055 1 0.16500 119244.000000
5708 13174 1 0.16500 119244.000000
5708 13224 1 0.16500 119244.000000
5709 13175 1 0.16500 119244.000000
5709 15432 1 0.16500 119244.000000
5710 13175 1 0.16500 119244.000000
5710 13667 1 0.16500 119244.000000
5711 13176 1 0.16500 119244.000000
5711 13953 1 0.16500 119244.000000
5712 13176 1 0.16500 119244.000000
5712 13972 1 0.16500 119244.000000
5713 13177 1 0.16500 119244.000000
5713 14695 1 0.16500 119244.000000
5714 13177 1 0.16500 119244.000000
5714 13569 1 0.16500 119244.000000
5715 13178 1 0.16500 119244.000000
5715 14818 1 0.16500 119244.000000
5716 13178 1 0.16500 119244.000000
5716 13635 1 0.16500 119244.000000
5717 13178 1 0.16500 119244.000000
5717 18692 1 0.16500 119244.000000
5718 13179 1 0.16500 119244.000000
5718 15240 1 0.16500 119244.000000
5719 13179 1 0.16500 119244.000000
5719 14189 1 0.16500 119244.000000
5720 13179 1 0.16500 119244.000000
5720 16674 1 0.16500 119244.000000
5721 13179 1 0.16500 119244.000000
5721 16696 1 0.16500 119244.000000
5722 13180 1 0.16500 119244.000000
5722 15117 1 0.16500 119244.000000
5723 13180 1 0.16500 119244.000000
5723 14937 1 0.16500 119244.000000
5724 13180 1 0.16500 119244.000000
5724 15837 1 0.16500 119244.000000
5725 16445 1 0.16500 119244.000000
5725 18542 1 0.16500 119244.000000
5726 14226 1 0.16500 119244.000000
5726 18542 1 0.16500 119244.000000
5727 14138 1 0.16500 119244.000000
5727 18542 1 0.16500 119244.000000
5728 13181 1 0.16500 119244.000000
5728 15027 1 0.16500 119244.000000
5729 13181 1 0.16500 119244.000000
5729 14317 1 0.16500 119244.000000
5730 13181 1 0.16500 119244.000000
5730 15407 1 0.16500 119244.000000
5731 13182 1 0.16500 119244.000000
5731 15437 1 0.16500 119244.000000
5732 13182 1 0.16500 119244.000000
5732 14539 1 0.16500 119244.000000
5733 13183 1 0.16500 119244.000000
5733 13504 1 0.16500 119244.000000
5734 13183 1 0.16500 119244.000000
5734 13555 1 0.16500 119244.000000
5735 13184 1 0.16500 119244.000000
5735 16129 1 0.16500 119244.000000
5736 13184 1 0.16500 119244.000000
5736 18629 1 0.16500 119244.000000
5737 13185 1 0.16500 119244.000000
5737 16607 1 0.16500 119244.000000
5738 13186 1 0.16500 119244.000000
5738 16188 1 0.16500 119244.000000
5739 13186 1 0.16500 119244.000000
5739 13624 1 0.16500 119244.000000
5740 13186 1 0.16500 119244.000000
5740 15959 1 0.16500 119244.000000
5741 13186 1 0.16500 119244.000000
5741 15250 1 0.16500 119244.000000
5742 13187 1 0.16500 119244.000000
5742 16522 1 0.16500 119244.000000
5743 13187 1 0.16500 119244.000000
5743 13260 1 0.16500 119244.000000
5744 15330 1 0.16500 119244.000000
5744 16522 1 0.16500 119244.000000
5745 12994 1 0.16500 119244.000000
5745 13188 1 0.16500 119244.000000
5746 13188 1 0.16500 119244.000000
5746 14545 1 0.16500 119244.000000
5747 13189 1 0.16500 119244.000000
5747 15610 1 0.16500 119244.000000
5748 13189 1 0.16500 119244.000000
5748 14721 1 0.16500 119244.000000
5749 13190 1 0.16500 119244.000000
5749 14907 1 0.16500 119244.000000
5750 13190 1 0.16500 119244.000000
5750 14269 1 0.16500 119244.000000
5751 13191 1 0.16500 119244.000000
5751 14281 1 0.16500 119244.000000
5752 13191 1 0.16500 119244.000000
5752 14362 1 0.16500 119244.000000
5753 13192 1 0.16500 119244.000000
5753 13862 1 0.16500 119244.000000
5754 13192 1 0.16500 119244.000000
5754 13482 1 0.16500 119244.000000
5755 13192 1 0.16500 119244.000000
5755 16466 1 0.16500 119244.000000
5756 13193 1 0.16500 119244.000000
5756 14852 1 0.16500 119244.000000
5757 13193 1 0.16500 119244.000000
5757 14737 1 0.16500 119244.000000
5758 13193 1 0.16500 119244.000000
5758 14356 1 0.16500 119244.000000
5759 13194 1 0.16500 119244.000000
5759 15044 1 0.16500 119244.000000
5760 15044 1 0.16500 119244.000000
5760 16848 1 0.16500 119244.000000
5761 13195 1 0.16500 119244.000000
5761 15296 1 0.16500 119244.000000
5762 13195 1 0.16500 119244.000000
5762 13421 1 0.16500 119244.000000
5763 13195 1 0.16500 119244.000000
5763 15945 1 0.16500 119244.000000
5764 14966 1 0.16500 119244.000000
5764 15296 1 0.16500 119244.000000
5765 13196 1 0.16500 119244.000000
5765 13560 1 0.16500 119244.000000
5766 13196 1 0.16500 119244.000000
5766 16403 1 0.16500 119244.000000
5767 13197 1 0.16500 119244.000000
5767 16093 1 0.16500 119244.000000
5768 13197 1 0.16500 119244.000000
5768 14765 1 0.16500 119244.000000
5769 13197 1 0.16500 119244.000000
5769 15835 1 0.16500 119244.000000
5770 13197 1 0.16500 119244.000000
5770 14269 1 0.16500 119244.000000
5771 13198 1 0.16500 119244.000000
5771 15168 1 0.16500 119244.000000
5772 13199 1 0.16500 119244.000000
5772 16320 1 0.16500 119244.000000
5773 13199 1 0.16500 119244.000000
5773 15519 1 0.16500 119244.000000
5774 13200 1 0.16500 119244.000000
5774 14013 1 0.16500 119244.000000
5775 13200 1 0.16500 119244.000000
5775 13897 1 0.16500 119244.000000
5776 13200 1 0.16500 119244.000000
5776 16818 1 0.16500 119244.000000
5777 13201 1 0.16500 119244.000000
5777 13221 1 0.16500 119244.000000
5778 13201 1 0.16500 119244.000000
5778 13771 1 0.16500 119244.000000
5779 13201 1 0.16500 119244.000000
5779 15234 1 0.16500 119244.000000
5780 13202 1 0.16500 119244.000000
5780 14022 1 0.16500 119244.000000
5781 13202 1 0.16500 119244.000000
5781 14417 1 0.16500 119244.000000
5782 13202 1 0.16500 119244.000000
5782 13887 1 0.16500 119244.000000
5783 13203 1 0.16500 119244.000000
5783 15323 1 0.16500 119244.000000
5784 13203 1 0.16500 119244.000000
5784 13469 1 0.16500 119244.000000
5785 13203 1 0.16500 119244.000000
5785 15468 1 0.16500 119244.000000
5786 13204 1 0.16500 119244.000000
5786 16239 1 0.16500 119244.000000
5787 13205 1 0.16500 119244.000000
5787 13911 1 0.16500 119244.000000
5788 13205 1 0.16500 119244.000000
5788 15937 1 0.16500 119244.000000
5789 13205 1 0.16500 119244.000000
5789 14286 1 0.16500 119244.000000
5790 13205 1 0.16500 119244.000000
5790 16544 1 0.16500 119244.000000
5791 15652 1 0.16500 119244.000000
5791 15928 1 0.16500 119244.000000
5792 13206 1 0.16500 119244.000000
5792 15652 1 0.16500 119244.000000
5793 13206 1 0.16500 119244.000000
5793 15402 1 0.16500 119244.000000
5794 13556 1 0.16500 119244.000000
5794 14242 1 0.16500 119244.000000
5795 13207 1 0.16500 119244.000000
5795 14638 1 0.16500 119244.000000
5796 13207 1 0.16500 119244.000000
5796 14398 1 0.16500 119244.000000
5797 13207 1 0.16500 119244.000000
5797 14242 1 0.16500 119244.000000
5798 13208 1 0.16500 119244.000000
5798 13959 1 0.16500 119244.000000
5799 11620 1 0.16500 119244.000000
5799 13208 1 0.16500 119244.000000
5800 13208 1 0.16500 119244.000000
5800 14584 1 0.16500 119244.000000
5801 13208 1 0.16500 119244.000000
5801 14178 1 0.16500 119244.000000
5802 13209 1 0.16500 119244.000000
5802 13652 1 0.16500 119244.000000
5803 13210 1 0.16500 119244.000000
5803 15772 1 0.16500 119244.000000
5804 13210 1 0.16500 119244.000000
5804 15665 1 0.16500 119244.000000
5805 13210 1 0.16500 119244.000000
5805 16512 1 0.16500 119244.000000
5806 13211 1 0.16500 119244.000000
5806 15937 1 0.16500 119244.000000
5807 13211 1 0.16500 119244.000000
5807 15641 1 0.16500 119244.000000
5808 13211 1 0.16500 119244.000000
5808 15255 1 0.16500 119244.000000
5809 13211 1 0.16500 119244.000000
5809 15870 1 0.16500 119244.000000
5810 13212 1 0.16500 119244.000000
5810 16058 1 0.16500 119244.000000
5811 13212 1 0.16500 119244.000000
5811 15285 1 0.16500 119244.000000
5812 13213 1 0.16500 119244.000000
5812 13384 1 0.16500 119244.000000
5813 13213 1 0.16500 119244.000000
5813 14495 1 0.16500 119244.000000
5814 13213 1 0.16500 119244.000000
5814 13274 1 0.16500 119244.000000
5815 13214 1 0.16500 119244.000000
5815 16848 1 0.16500 119244.000000
5816 13214 1 0.16500 119244.000000
5816 16367 1 0.16500 119244.000000
5817 13214 1 0.16500 119244.000000
5817 13832 1 0.16500 119244.000000
5818 13215 1 0.16500 119244.000000
5818 16515 1 0.16500 119244.000000
5819 13215 1 0.16500 119244.000000
5819 16776 1 0.16500 119244.000000
5820 13138 1 0.16500 119244.000000
5820 14076 1 0.16500 119244.000000
5821 13216 1 0.16500 119244.000000
5821 14485 1 0.16500 119244.000000
5822 13217 1 0.16500 119244.000000
5822 14868 1 0.16500 119244.000000
5823 13217 1 0.16500 119244.000000
5823 16695 1 0.16500 119244.000000
5824 13592 1 0.16500 119244.000000
5824 15702 1 0.16500 119244.000000
5825 13218 1 0.16500 119244.000000
5825 15702 1 0.16500 119244.000000
5826 13218 1 0.16500 119244.000000
5826 15665 1 0.16500 119244.000000
5827 13218 1 0.16500 119244.000000
5827 14258 1 0.16500 119244.000000
5828 14561 1 0.16500 119244.000000
5828 14613 1 0.16500 119244.000000
5829 13219 1 0.16500 119244.000000
5829 14613 1 0.16500 119244.000000
5830 13220 1 0.16500 119244.000000
5830 13481 1 0.16500 119244.000000
5831 13221 1 0.16500 119244.000000
5831 15522 1 0.16500 119244.000000
5832 13222 1 0.16500 119244.000000
5832 15650 1 0.16500 119244.000000
5833 13222 1 0.16500 119244.000000
5833 14597 1 0.16500 119244.000000
5834 13222 1 0.16500 119244.000000
5834 18644 1 0.16500 119244.000000
5835 13223 1 0.16500 119244.000000
5835 14394 1 0.16500 119244.000000
5836 13223 1 0.16500 119244.000000
5836 15013 1 0.16500 119244.000000
5837 14748 1 0.16500 119244.000000
5837 15013 1 0.16500 119244.000000
5838 14621 1 0.16500 119244.000000
5838 15013 1 0.16500 119244.000000
5839 16800 1 0.16500 119244.000000
5839 18545 1 0.16500 119244.000000
5840 15091 1 0.16500 119244.000000
5840 16800 1 0.16500 119244.000000
5841 16800 1 0.16500 119244.000000
5841 19061 1 0.16500 119244.000000
5842 16655 1 0.16500 119244.000000
5842 16800 1 0.16500 119244.000000
5843 13224 1 0.16500 119244.000000
5843 15390 1 0.16500 119244.000000
5844 13174 1 0.16500 119244.000000
5844 16836 1 0.16500 119244.000000
5845 13225 1 0.16500 119244.000000
5845 13901 1 0.16500 119244.000000
5846 13225 1 0.16500 119244.000000
5846 13473 1 0.16500 119244.000000
5847 13226 1 0.16500 119244.000000
5847 14150 1 0.16500 119244.000000
5848 13226 1 0.16500 119244.000000
5848 18719 1 0.16500 119244.000000
5849 13226 1 0.16500 119244.000000
5849 15276 1 0.16500 119244.000000
5850 13227 1 0.16500 119244.000000
5850 16390 1 0.16500 119244.000000
5851 13227 1 0.16500 119244.000000
5851 14574 1 0.16500 119244.000000
5852 13227 1 0.16500 119244.000000
5852 15299 1 0.16500 119244.000000
5853 13228 1 0.16500 119244.000000
5853 16587 1 0.16500 119244.000000
5854 13229 1 0.16500 119244.000000
5854 14213 1 0.16500 119244.000000
5855 13229 1 0.16500 119244.000000
5855 14216 1 0.16500 119244.000000
5856 13229 1 0.16500 119244.000000
5856 15799 1 0.16500 119244.000000
5857 13229 1 0.16500 119244.000000
5857 16132 1 0.16500 119244.000000
5858 12939 1 0.16500 119244.000000
5858 13230 1 0.16500 119244.000000
5859 13230 1 0.16500 119244.000000
5859 13709 1 0.16500 119244.000000
5860 15969 1 0.16500 119244.000000
5860 18548 1 0.16500 119244.000000
5861 15532 1 0.16500 119244.000000
5861 15969 1 0.16500 119244.000000
5862 13231 1 0.16500 119244.000000
5862 16298 1 0.16500 119244.000000
5863 14588 1 0.16500 119244.000000
5863 15466 1 0.16500 119244.000000
5864 13231 1 0.16500 119244.000000
5864 15466 1 0.16500 119244.000000
5865 13232 1 0.16500 119244.000000
5865 15754 1 0.16500 119244.000000
5866 13232 1 0.16500 119244.000000
5866 18614 1 0.16500 119244.000000
5867 13232 1 0.16500 119244.000000
5867 16478 1 0.16500 119244.000000
5868 13233 1 0.16500 119244.000000
5868 14854 1 0.16500 119244.000000
5869 13233 1 0.16500 119244.000000
5869 16769 1 0.16500 119244.000000
5870 13234 1 0.16500 119244.000000
5870 15588 1 0.16500 119244.000000
5871 13234 1 0.16500 119244.000000
5871 14040 1 0.16500 119244.000000
5872 13234 1 0.16500 119244.000000
5872 16145 1 0.16500 119244.000000
5873 13235 1 0.16500 119244.000000
5873 13388 1 0.16500 119244.000000
5874 13235 1 0.16500 119244.000000
5874 15561 1 0.16500 119244.000000
5875 13235 1 0.16500 119244.000000
5875 13883 1 0.16500 119244.000000
5876 13236 1 0.16500 119244.000000
5876 13707 1 0.16500 119244.000000
5877 13236 1 0.16500 119244.000000
5877 14168 1 0.16500 119244.000000
5878 13236 1 0.16500 119244.000000
5878 13638 1 0.16500 119244.000000
5879 11783 1 0.16500 119244.000000
5879 13236 1 0.16500 119244.000000
5880 13237 1 0.16500 119244.000000
5880 14128 1 0.16500 119244.000000
5881 13237 1 0.16500 119244.000000
5881 14007 1 0.16500 119244.000000
5882 13237 1 0.16500 119244.000000
5882 14098 1 0.16500 119244.000000
5883 13237 1 0.16500 119244.000000
5883 15887 1 0.16500 119244.000000
5884 13238 1 0.16500 119244.000000
5884 15350 1 0.16500 119244.000000
5885 13238 1 0.16500 119244.000000
5885 13742 1 0.16500 119244.000000
5886 13238 1 0.16500 119244.000000
5886 16388 1 0.16500 119244.000000
5887 13239 1 0.16500 119244.000000
5887 17014 1 0.16500 119244.000000
5888 13239 1 0.16500 119244.000000
5888 15834 1 0.16500 119244.000000
5889 13240 1 0.16500 119244.000000
5889 13747 1 0.16500 119244.000000
5890 13240 1 0.16500 119244.000000
5890 14551 1 0.16500 119244.000000
5891 13240 1 0.16500 119244.000000
5891 15443 1 0.16500 119244.000000
5892 13241 1 0.16500 119244.000000
5892 13710 1 0.16500 119244.000000
5893 12643 1 0.16500 119244.000000
5893 13241 1 0.16500 119244.000000
5894 13241 1 0.16500 119244.000000
5894 15273 1 0.16500 119244.000000
5895 13242 1 0.16500 119244.000000
5895 14841 1 0.16500 119244.000000
5896 13242 1 0.16500 119244.000000
5896 15992 1 0.16500 119244.000000
5897 13242 1 0.16500 119244.000000
5897 14999 1 0.16500 119244.000000
5898 13243 1 0.16500 119244.000000
5898 16525 1 0.16500 119244.000000
5899 13243 1 0.16500 119244.000000
5899 16000 1 0.16500 119244.000000
5900 13243 1 0.16500 119244.000000
5900 15242 1 0.16500 119244.000000
5901 13244 1 0.16500 119244.000000
5901 14635 1 0.16500 119244.000000
5902 13244 1 0.16500 119244.000000
5902 13487 1 0.16500 119244.000000
5903 13244 1 0.16500 119244.000000
5903 14046 1 0.16500 119244.000000
5904 13245 1 0.16500 119244.000000
5904 13766 1 0.16500 119244.000000
5905 13245 1 0.16500 119244.000000
5905 15039 1 0.16500 119244.000000
5906 13245 1 0.16500 119244.000000
5906 16601 1 0.16500 119244.000000
5907 13245 1 0.16500 119244.000000
5907 13895 1 0.16500 119244.000000
5908 13246 1 0.16500 119244.000000
5908 16003 1 0.16500 119244.000000
5909 12357 1 0.16500 119244.000000
5909 13246 1 0.16500 119244.000000
5910 13246 1 0.16500 119244.000000
5910 13535 1 0.16500 119244.000000
5911 13247 1 0.16500 119244.000000
5911 14709 1 0.16500 119244.000000
5912 13247 1 0.16500 119244.000000
5912 13819 1 0.16500 119244.000000
5913 13247 1 0.16500 119244.000000
5913 15485 1 0.16500 119244.000000
5914 13248 1 0.16500 119244.000000
5914 15476 1 0.16500 119244.000000
5915 13248 1 0.16500 119244.000000
5915 15586 1 0.16500 119244.000000
5916 13248 1 0.16500 119244.000000
5916 13563 1 0.16500 119244.000000
5917 13249 1 0.16500 119244.000000
5917 13578 1 0.16500 119244.000000
5918 13249 1 0.16500 119244.000000
5918 13984 1 0.16500 119244.000000
5919 13250 1 0.16500 119244.000000
5919 16753 1 0.16500 119244.000000
5920 11741 1 0.16500 119244.000000
5920 13251 1 0.16500 119244.000000
5921 13251 1 0.16500 119244.000000
5921 15702 1 0.16500 119244.000000
5922 13251 1 0.16500 119244.000000
5922 13621 1 0.16500 119244.000000
5923 13252 1 0.16500 119244.000000
5923 16377 1 0.16500 119244.000000
5924 13252 1 0.16500 119244.000000
5924 16123 1 0.16500 119244.000000
5925 13252 1 0.16500 119244.000000
5925 13487 1 0.16500 119244.000000
5926 13253 1 0.16500 119244.000000
5926 14595 1 0.16500 119244.000000
5927 12450 1 0.16500 119244.000000
5927 13789 1 0.16500 119244.000000
5928 13254 1 0.16500 119244.000000
5928 16530 1 0.16500 119244.000000
5929 13254 1 0.16500 119244.000000
5929 15396 1 0.16500 119244.000000
5930 13255 1 0.16500 119244.000000
5930 14120 1 0.16500 119244.000000
5931 13255 1 0.16500 119244.000000
5931 16808 1 0.16500 119244.000000
5932 13255 1 0.16500 119244.000000
5932 14417 1 0.16500 119244.000000
5933 13255 1 0.16500 119244.000000
5933 14510 1 0.16500 119244.000000
5934 13256 1 0.16500 119244.000000
5934 14005 1 0.16500 119244.000000
5935 13257 1 0.16500 119244.000000
5935 15036 1 0.16500 119244.000000
5936 13257 1 0.16500 119244.000000
5936 14583 1 0.16500 119244.000000
5937 13258 1 0.16500 119244.000000
5937 14309 1 0.16500 119244.000000
5938 13258 1 0.16500 119244.000000
5938 13766 1 0.16500 119244.000000
5939 13259 1 0.16500 119244.000000
5939 14822 1 0.16500 119244.000000
5940 13259 1 0.16500 119244.000000
5940 13808 1 0.16500 119244.000000
5941 13259 1 0.16500 119244.000000
5941 15153 1 0.16500 119244.000000
5942 13259 1 0.16500 119244.000000
5942 14653 1 0.16500 119244.000000
5943 16241 1 0.16500 119244.000000
5943 16653 1 0.16500 119244.000000
5944 14313 1 0.16500 119244.000000
5944 16241 1 0.16500 119244.000000
5945 13260 1 0.16500 119244.000000
5945 16241 1 0.16500 119244.000000
5946 13261 1 0.16500 119244.000000
5946 15516 1 0.16500 119244.000000
5947 13261 1 0.16500 119244.000000
5947 15515 1 0.16500 119244.000000
5948 13261 1 0.16500 119244.000000
5948 13488 1 0.16500 119244.000000
5949 13262 1 0.16500 119244.000000
5949 16842 1 0.16500 119244.000000
5950 13262 1 0.16500 119244.000000
5950 14164 1 0.16500 119244.000000
5951 13262 1 0.16500 119244.000000
5951 13412 1 0.16500 119244.000000
5952 13262 1 0.16500 119244.000000
5952 13789 1 0.16500 119244.000000
5953 13263 1 0.16500 119244.000000
5953 14246 1 0.16500 119244.000000
5954 13263 1 0.16500 119244.000000
5954 15883 1 0.16500 119244.000000
5955 13002 1 0.16500 119244.000000
5955 13263 1 0.16500 119244.000000
5956 13263 1 0.16500 119244.000000
5956 16555 1 0.16500 119244.000000
5957 13264 1 0.16500 119244.000000
5957 14504 1 0.16500 119244.000000
5958 13264 1 0.16500 119244.000000
5958 14023 1 0.16500 119244.000000
5959 13264 1 0.16500 119244.000000
5959 13771 1 0.16500 119244.000000
5960 13264 1 0.16500 119244.000000
5960 15704 1 0.16500 119244.000000
5961 13265 1 0.16500 119244.000000
5961 13736 1 0.16500 119244.000000
5962 13265 1 0.16500 119244.000000
5962 13952 1 0.16500 119244.000000
5963 15459 1 0.16500 119244.000000
5963 18782 1 0.16500 119244.000000
5964 13266 1 0.16500 119244.000000
5964 13617 1 0.16500 119244.000000
5965 13266 1 0.16500 119244.000000
5965 18782 1 0.16500 119244.000000
5966 13267 1 0.16500 119244.000000
5966 15859 1 0.16500 119244.000000
5967 13267 1 0.16500 119244.000000
5967 15630 1 0.16500 119244.000000
5968 13268 1 0.16500 119244.000000
5968 14263 1 0.16500 119244.000000
5969 13268 1 0.16500 119244.000000
5969 18485 1 0.16500 119244.000000
5970 13269 1 0.16500 119244.000000
5970 14564 1 0.16500 119244.000000
5971 13269 1 0.16500 119244.000000
5971 14549 1 0.16500 119244.000000
5972 13269 1 0.16500 119244.000000
5972 13815 1 0.16500 119244.000000
5973 13679 1 0.16500 119244.000000
5973 14564 1 0.16500 119244.000000
5974 13270 1 0.16500 119244.000000
5974 16968 1 0.16500 119244.000000
5975 13270 1 0.16500 119244.000000
5975 13671 1 0.16500 119244.000000
5976 13271 1 0.16500 119244.000000
5976 13952 1 0.16500 119244.000000
5977 13271 1 0.16500 119244.000000
5977 15652 1 0.16500 119244.000000
5978 13782 1 0.16500 119244.000000
5978 14537 1 0.16500 119244.000000
5979 13272 1 0.16500 119244.000000
5979 15229 1 0.16500 119244.000000
5980 13272 1 0.16500 119244.000000
5980 13782 1 0.16500 119244.000000
5981 13782 1 0.16500 119244.000000
5981 15189 1 0.16500 119244.000000
5982 13273 1 0.16500 119244.000000
5982 14300 1 0.16500 119244.000000
5983 13273 1 0.16500 119244.000000
5983 13470 1 0.16500 119244.000000
5984 13274 1 0.16500 119244.000000
5984 15938 1 0.16500 119244.000000
5985 13274 1 0.16500 119244.000000
5985 14437 1 0.16500 119244.000000
5986 13274 1 0.16500 119244.000000
5986 13564 1 0.16500 119244.000000
5987 13275 1 0.16500 119244.000000
5987 16827 1 0.16500 119244.000000
5988 13275 1 0.16500 119244.000000
5988 15933 1 0.16500 119244.000000
5989 13276 1 0.16500 119244.000000
5989 16403 1 0.16500 119244.000000
5990 13276 1 0.16500 119244.000000
5990 14984 1 0.16500 119244.000000
5991 13277 1 0.16500 119244.000000
5991 18908 1 0.16500 119244.000000
5992 13277 1 0.16500 119244.000000
5992 13447 1 0.16500 119244.000000
5993 13278 1 0.16500 119244.000000
5993 15605 1 0.16500 119244.000000
5994 13278 1 0.16500 119244.000000
5994 13825 1 0.16500 119244.000000
5995 13278 1 0.16500 119244.000000
5995 16755 1 0.16500 119244.000000
5996 13278 1 0.16500 119244.000000
5996 15256 1 0.16500 119244.000000
5997 13279 1 0.16500 119244.000000
5997 17469 1 0.16500 119244.000000
5998 13279 1 0.16500 119244.000000
5998 18707 1 0.16500 119244.000000
5999 13280 1 0.16500 119244.000000
5999 16220 1 0.16500 119244.000000
6000 13281 1 0.16500 119244.000000
6000 18872 1 0.16500 119244.000000
6001 13281 1 0.16500 119244.000000
6001 16916 1 0.16500 119244.000000
6002 13282 1 0.16500 119244.000000
6002 15723 1 0.16500 119244.000000
6003 13282 1 0.16500 119244.000000
6003 14049 1 0.16500 119244.000000
6004 13282 1 0.16500 119244.000000
6004 13316 1 0.16500 119244.000000
6005 16821 1 0.16500 119244.000000
6005 18551 1 0.16500 119244.000000
6006 15746 1 0.16500 119244.000000
6006 18551 1 0.16500 119244.000000
6007 13283 1 0.16500 119244.000000
6007 15889 1 0.16500 119244.000000
6008 13283 1 0.16500 119244.000000
6008 13389 1 0.16500 119244.000000
6009 13283 1 0.16500 119244.000000
6009 15870 1 0.16500 119244.000000
6010 13283 1 0.16500 119244.000000
6010 14018 1 0.16500 119244.000000
6011 13284 1 0.16500 119244.000000
6011 15913 1 0.16500 119244.000000
6012 13284 1 0.16500 119244.000000
6012 16366 1 0.16500 119244.000000
6013 13285 1 0.16500 119244.000000
6013 13365 1 0.16500 119244.000000
6014 13285 1 0.16500 119244.000000
6014 15097 1 0.16500 119244.000000
6015 13285 1 0.16500 119244.000000
6015 15483 1 0.16500 119244.000000
6016 13286 1 0.16500 119244.000000
6016 16917 1 0.16500 119244.000000
6017 13286 1 0.16500 119244.000000
6017 14989 1 0.16500 119244.000000
6018 13286 1 0.16500 119244.000000
6018 15318 1 0.16500 119244.000000
6019 13286 1 0.16500 119244.000000
6019 16737 1 0.16500 119244.000000
6020 11831 1 0.16500 119244.000000
6020 13611 1 0.16500 119244.000000
6021 11831 1 0.16500 119244.000000
6021 16688 1 0.16500 119244.000000
6022 13288 1 0.16500 119244.000000
6022 15798 1 0.16500 119244.000000
6023 13288 1 0.16500 119244.000000
6023 13985 1 0.16500 119244.000000
6024 13288 1 0.16500 119244.000000
6024 14002 1 0.16500 119244.000000
6025 13288 1 0.16500 119244.000000
6025 15157 1 0.16500 119244.000000
6026 18554 1 0.16500 119244.000000
6026 18572 1 0.16500 119244.000000
6027 15610 1 0.16500 119244.000000
6027 18554 1 0.16500 119244.000000
6028 13289 1 0.16500 119244.000000
6028 13976 1 0.16500 119244.000000
6029 13289 1 0.16500 119244.000000
6029 15581 1 0.16500 119244.000000
6030 13289 1 0.16500 119244.000000
6030 16526 1 0.16500 119244.000000
6031 16505 1 0.16500 119244.000000
6031 17927 1 0.16500 119244.000000
6032 16505 1 0.16500 119244.000000
6032 18557 1 0.16500 119244.000000
6033 13290 1 0.16500 119244.000000
6033 13921 1 0.16500 119244.000000
6034 13290 1 0.16500 119244.000000
6034 14784 1 0.16500 119244.000000
6035 13291 1 0.16500 119244.000000
6035 13837 1 0.16500 119244.000000
6036 13291 1 0.16500 119244.000000
6036 16982 1 0.16500 119244.000000
6037 13291 1 0.16500 119244.000000
6037 14121 1 0.16500 119244.000000
6038 13292 1 0.16500 119244.000000
6038 18563 1 0.16500 119244.000000
6039 13293 1 0.16500 119244.000000
6039 14266 1 0.16500 119244.000000
6040 13293 1 0.16500 119244.000000
6040 16594 1 0.16500 119244.000000
6041 13293 1 0.16500 119244.000000
6041 13892 1 0.16500 119244.000000
6042 13293 1 0.16500 119244.000000
6042 16056 1 0.16500 119244.000000
6043 13294 1 0.16500 119244.000000
6043 16706 1 0.16500 119244.000000
6044 13294 1 0.16500 119244.000000
6044 14735 1 0.16500 119244.000000
6045 13294 1 0.16500 119244.000000
6045 16151 1 0.16500 119244.000000
6046 13294 1 0.16500 119244.000000
6046 16640 1 0.16500 119244.000000
6047 13295 1 0.16500 119244.000000
6047 16262 1 0.16500 119244.000000
6048 13295 1 0.16500 119244.000000
6048 14465 1 0.16500 119244.000000
6049 13295 1 0.16500 119244.000000
6049 15855 1 0.16500 119244.000000
6050 13296 1 0.16500 119244.000000
6050 16924 1 0.16500 119244.000000
6051 13297 1 0.16500 119244.000000
6051 13976 1 0.16500 119244.000000
6052 13298 1 0.16500 119244.000000
6052 15242 1 0.16500 119244.000000
6053 13298 1 0.16500 119244.000000
6053 15968 1 0.16500 119244.000000
6054 13298 1 0.16500 119244.000000
6054 15090 1 0.16500 119244.000000
6055 13299 1 0.16500 119244.000000
6055 15278 1 0.16500 119244.000000
6056 13299 1 0.16500 119244.000000
6056 14166 1 0.16500 119244.000000
6057 13299 1 0.16500 119244.000000
6057 18650 1 0.16500 119244.000000
6058 13300 1 0.16500 119244.000000
6058 15129 1 0.16500 119244.000000
6059 13300 1 0.16500 119244.000000
6059 16581 1 0.16500 119244.000000
6060 13300 1 0.16500 119244.000000
6060 16408 1 0.16500 119244.000000
6061 13302 1 0.16500 119244.000000
6061 16862 1 0.16500 119244.000000
6062 13303 1 0.16500 119244.000000
6062 13469 1 0.16500 119244.000000
6063 13303 1 0.16500 119244.000000
6063 15120 1 0.16500 119244.000000
6064 13303 1 0.16500 119244.000000
6064 16289 1 0.16500 119244.000000
6065 13304 1 0.16500 119244.000000
6065 13693 1 0.16500 119244.000000
6066 13304 1 0.16500 119244.000000
6066 16919 1 0.16500 119244.000000
6067 13304 1 0.16500 119244.000000
6067 15894 1 0.16500 119244.000000
6068 13305 1 0.16500 119244.000000
6068 16280 1 0.16500 119244.000000
6069 13305 1 0.16500 119244.000000
6069 13835 1 0.16500 119244.000000
6070 13306 1 0.16500 119244.000000
6070 16045 1 0.16500 119244.000000
6071 13306 1 0.16500 119244.000000
6071 18869 1 0.16500 119244.000000
6072 13306 1 0.16500 119244.000000
6072 16790 1 0.16500 119244.000000
6073 13306 1 0.16500 119244.000000
6073 14680 1 0.16500 119244.000000
6074 13307 1 0.16500 119244.000000
6074 14594 1 0.16500 119244.000000
6075 13307 1 0.16500 119244.000000
6075 14588 1 0.16500 119244.000000
6076 13308 1 0.16500 119244.000000
6076 16989 1 0.16500 119244.000000
6077 13308 1 0.16500 119244.000000
6077 15160 1 0.16500 119244.000000
6078 13308 1 0.16500 119244.000000
6078 16433 1 0.16500 119244.000000
6079 13309 1 0.16500 119244.000000
6079 14261 1 0.16500 119244.000000
6080 13309 1 0.16500 119244.000000
6080 15816 1 0.16500 119244.000000
6081 13310 1 0.16500 119244.000000
6081 15102 1 0.16500 119244.000000
6082 13310 1 0.16500 119244.000000
6082 15555 1 0.16500 119244.000000
6083 13310 1 0.16500 119244.000000
6083 14770 1 0.16500 119244.000000
6084 13311 1 0.16500 119244.000000
6084 14022 1 0.16500 119244.000000
6085 13311 1 0.16500 119244.000000
6085 14777 1 0.16500 119244.000000
6086 13311 1 0.16500 119244.000000
6086 13732 1 0.16500 119244.000000
6087 13311 1 0.16500 119244.000000
6087 15127 1 0.16500 119244.000000
6088 13312 1 0.16500 119244.000000
6088 16984 1 0.16500 119244.000000
6089 13312 1 0.16500 119244.000000
6089 18902 1 0.16500 119244.000000
6090 13313 1 0.16500 119244.000000
6090 15692 1 0.16500 119244.000000
6091 13313 1 0.16500 119244.000000
6091 16432 1 0.16500 119244.000000
6092 13313 1 0.16500 119244.000000
6092 14479 1 0.16500 119244.000000
6093 13313 1 0.16500 119244.000000
6093 14203 1 0.16500 119244.000000
6094 13314 1 0.16500 119244.000000
6094 15478 1 0.16500 119244.000000
6095 13314 1 0.16500 119244.000000
6095 16675 1 0.16500 119244.000000
6096 13314 1 0.16500 119244.000000
6096 13651 1 0.16500 119244.000000
6097 13315 1 0.16500 119244.000000
6097 13699 1 0.16500 119244.000000
6098 13315 1 0.16500 119244.000000
6098 13761 1 0.16500 119244.000000
6099 14768 1 0.16500 119244.000000
6099 18560 1 0.16500 119244.000000
6100 17603 1 0.16500 119244.000000
6100 18560 1 0.16500 119244.000000
6101 14389 1 0.16500 119244.000000
6101 18560 1 0.16500 119244.000000
6102 13316 1 0.16500 119244.000000
6102 15228 1 0.16500 119244.000000
6103 13316 1 0.16500 119244.000000
6103 16922 1 0.16500 119244.000000
6104 13317 1 0.16500 119244.000000
6104 16377 1 0.16500 119244.000000
6105 13317 1 0.16500 119244.000000
6105 13819 1 0.16500 119244.000000
6106 13317 1 0.16500 119244.000000
6106 14602 1 0.16500 119244.000000
6107 13317 1 0.16500 119244.000000
6107 14934 1 0.16500 119244.000000
6108 13318 1 0.16500 119244.000000
6108 16269 1 0.16500 119244.000000
6109 13318 1 0.16500 119244.000000
6109 16247 1 0.16500 119244.000000
6110 13318 1 0.16500 119244.000000
6110 15677 1 0.16500 119244.000000
6111 13319 1 0.16500 119244.000000
6111 14828 1 0.16500 119244.000000
6112 15275 1 0.16500 119244.000000
6112 15571 1 0.16500 119244.000000
6113 13319 1 0.16500 119244.000000
6113 15275 1 0.16500 119244.000000
6114 16368 1 0.16500 119244.000000
6114 16426 1 0.16500 119244.000000
6115 13320 1 0.16500 119244.000000
6115 15953 1 0.16500 119244.000000
6116 12868 1 0.16500 119244.000000
6116 13321 1 0.16500 119244.000000
6117 13321 1 0.16500 119244.000000
6117 16665 1 0.16500 119244.000000
6118 13322 1 0.16500 119244.000000
6118 16489 1 0.16500 119244.000000
6119 13323 1 0.16500 119244.000000
6119 16179 1 0.16500 119244.000000
6120 13323 1 0.16500 119244.000000
6120 13356 1 0.16500 119244.000000
6121 13323 1 0.16500 119244.000000
6121 14045 1 0.16500 119244.000000
6122 13324 1 0.16500 119244.000000
6122 16246 1 0.16500 119244.000000
6123 13324 1 0.16500 119244.000000
6123 14092 1 0.16500 119244.000000
6124 13325 1 0.16500 119244.000000
6124 14902 1 0.16500 119244.000000
6125 13325 1 0.16500 119244.000000
6125 16274 1 0.16500 119244.000000
6126 13325 1 0.16500 119244.000000
6126 17413 1 0.16500 119244.000000
6127 13325 1 0.16500 119244.000000
6127 13516 1 0.16500 119244.000000
6128 13326 1 0.16500 119244.000000
6128 13745 1 0.16500 119244.000000
6129 12316 1 0.16500 119244.000000
6129 13327 1 0.16500 119244.000000
6130 13327 1 0.16500 119244.000000
6130 17371 1 0.16500 119244.000000
6131 13327 1 0.16500 119244.000000
6131 14506 1 0.16500 119244.000000
6132 13328 1 0.16500 119244.000000
6132 13329 1 0.16500 119244.000000
6133 13328 1 0.16500 119244.000000
6133 13533 1 0.16500 119244.000000
6134 13328 1 0.16500 119244.000000
6134 15792 1 0.16500 119244.000000
6135 13776 1 0.16500 119244.000000
6135 15701 1 0.16500 119244.000000
6136 13329 1 0.16500 119244.000000
6136 13359 1 0.16500 119244.000000
6137 13330 1 0.16500 119244.000000
6137 15204 1 0.16500 119244.000000
6138 13330 1 0.16500 119244.000000
6138 13845 1 0.16500 119244.000000
6139 13330 1 0.16500 119244.000000
6139 14129 1 0.16500 119244.000000
6140 13330 1 0.16500 119244.000000
6140 16376 1 0.16500 119244.000000
6141 13331 1 0.16500 119244.000000
6141 13492 1 0.16500 119244.000000
6142 13331 1 0.16500 119244.000000
6142 16288 1 0.16500 119244.000000
6143 13331 1 0.16500 119244.000000
6143 14428 1 0.16500 119244.000000
6144 13332 1 0.16500 119244.000000
6144 16415 1 0.16500 119244.000000
6145 14352 1 0.16500 119244.000000
6145 14940 1 0.16500 119244.000000
6146 13333 1 0.16500 119244.000000
6146 14352 1 0.16500 119244.000000
6147 14352 1 0.16500 119244.000000
6147 16110 1 0.16500 119244.000000
6148 13334 1 0.16500 119244.000000
6148 13814 1 0.16500 119244.000000
6149 13334 1 0.16500 119244.000000
6149 15868 1 0.16500 119244.000000
6150 13335 1 0.16500 119244.000000
6150 16636 1 0.16500 119244.000000
6151 13335 1 0.16500 119244.000000
6151 19082 1 0.16500 119244.000000
6152 13335 1 0.16500 119244.000000
6152 17903 1 0.16500 119244.000000
6153 13335 1 0.16500 119244.000000
6153 15822 1 0.16500 119244.000000
6154 13336 1 0.16500 119244.000000
6154 14390 1 0.16500 119244.000000
6155 13337 1 0.16500 119244.000000
6155 14382 1 0.16500 119244.000000
6156 13337 1 0.16500 119244.000000
6156 14553 1 0.16500 119244.000000
6157 13337 1 0.16500 119244.000000
6157 14209 1 0.16500 119244.000000
6158 13338 1 0.16500 119244.000000
6158 16210 1 0.16500 119244.000000
6159 13338 1 0.16500 119244.000000
6159 14183 1 0.16500 119244.000000
6160 13339 1 0.16500 119244.000000
6160 14591 1 0.16500 119244.000000
6161 12873 1 0.16500 119244.000000
6161 13850 1 0.16500 119244.000000
6162 13850 1 0.16500 119244.000000
6162 16075 1 0.16500 119244.000000
6163 13340 1 0.16500 119244.000000
6163 13801 1 0.16500 119244.000000
6164 13340 1 0.16500 119244.000000
6164 13923 1 0.16500 119244.000000
6165 13341 1 0.16500 119244.000000
6165 14640 1 0.16500 119244.000000
6166 13341 1 0.16500 119244.000000
6166 14155 1 0.16500 119244.000000
6167 14509 1 0.16500 119244.000000
6167 16732 1 0.16500 119244.000000
6168 13342 1 0.16500 119244.000000
6168 16236 1 0.16500 119244.000000
6169 13342 1 0.16500 119244.000000
6169 15826 1 0.16500 119244.000000
6170 13342 1 0.16500 119244.000000
6170 14509 1 0.16500 119244.000000
6171 13343 1 0.16500 119244.000000
6171 15750 1 0.16500 119244.000000
6172 13343 1 0.16500 119244.000000
6172 18815 1 0.16500 119244.000000
6173 14680 1 0.16500 119244.000000
6173 18563 1 0.16500 119244.000000
6174 14652 1 0.16500 119244.000000
6174 18563 1 0.16500 119244.000000
6175 16267 1 0.16500 119244.000000
6175 17017 1 0.16500 119244.000000
6176 13344 1 0.16500 119244.000000
6176 13796 1 0.16500 119244.000000
6177 13344 1 0.16500 119244.000000
6177 16652 1 0.16500 119244.000000
6178 12021 1 0.16500 119244.000000
6178 17017 1 0.16500 119244.000000
6179 13345 1 0.16500 119244.000000
6179 15236 1 0.16500 119244.000000
6180 13345 1 0.16500 119244.000000
6180 13378 1 0.16500 119244.000000
6181 13346 1 0.16500 119244.000000
6181 16041 1 0.16500 119244.000000
6182 13346 1 0.16500 119244.000000
6182 16692 1 0.16500 119244.000000
6183 13346 1 0.16500 119244.000000
6183 14430 1 0.16500 119244.000000
6184 13346 1 0.16500 119244.000000
6184 14605 1 0.16500 119244.000000
6185 13347 1 0.16500 119244.000000
6185 14711 1 0.16500 119244.000000
6186 13347 1 0.16500 119244.000000
6186 13737 1 0.16500 119244.000000
6187 13347 1 0.16500 119244.000000
6187 16216 1 0.16500 119244.000000
6188 13348 1 0.16500 119244.000000
6188 13604 1 0.16500 119244.000000
6189 13348 1 0.16500 119244.000000
6189 16737 1 0.16500 119244.000000
6190 13348 1 0.16500 119244.000000
6190 14537 1 0.16500 119244.000000
6191 13348 1 0.16500 119244.000000
6191 13865 1 0.16500 119244.000000
6192 14741 1 0.16500 119244.000000
6192 18095 1 0.16500 119244.000000
6193 13349 1 0.16500 119244.000000
6193 14794 1 0.16500 119244.000000
6194 13349 1 0.16500 119244.000000
6194 13940 1 0.16500 119244.000000
6195 13349 1 0.16500 119244.000000
6195 15177 1 0.16500 119244.000000
6196 13349 1 0.16500 119244.000000
6196 14483 1 0.16500 119244.000000
6197 13350 1 0.16500 119244.000000
6197 16269 1 0.16500 119244.000000
6198 13350 1 0.16500 119244.000000
6198 15395 1 0.16500 119244.000000
6199 14341 1 0.16500 119244.000000
6199 14691 1 0.16500 119244.000000
6200 13351 1 0.16500 119244.000000
6200 16235 1 0.16500 119244.000000
6201 13351 1 0.16500 119244.000000
6201 14893 1 0.16500 119244.000000
6202 13351 1 0.16500 119244.000000
6202 13629 1 0.16500 119244.000000
6203 13352 1 0.16500 119244.000000
6203 13772 1 0.16500 119244.000000
6204 13352 1 0.16500 119244.000000
6204 13720 1 0.16500 119244.000000
6205 13353 1 0.16500 119244.000000
6205 14555 1 0.16500 119244.000000
6206 13353 1 0.16500 119244.000000
6206 16466 1 0.16500 119244.000000
6207 13353 1 0.16500 119244.000000
6207 15169 1 0.16500 119244.000000
6208 13354 1 0.16500 119244.000000
6208 14714 1 0.16500 119244.000000
6209 13354 1 0.16500 119244.000000
6209 14706 1 0.16500 119244.000000
6210 13355 1 0.16500 119244.000000
6210 15212 1 0.16500 119244.000000
6211 13355 1 0.16500 119244.000000
6211 16329 1 0.16500 119244.000000
6212 13355 1 0.16500 119244.000000
6212 14801 1 0.16500 119244.000000
6213 13355 1 0.16500 119244.000000
6213 16723 1 0.16500 119244.000000
6214 13356 1 0.16500 119244.000000
6214 13593 1 0.16500 119244.000000
6215 13357 1 0.16500 119244.000000
6215 13961 1 0.16500 119244.000000
6216 13357 1 0.16500 119244.000000
6216 13542 1 0.16500 119244.000000
6217 13357 1 0.16500 119244.000000
6217 14245 1 0.16500 119244.000000
6218 13358 1 0.16500 119244.000000
6218 15476 1 0.16500 119244.000000
6219 13358 1 0.16500 119244.000000
6219 15507 1 0.16500 119244.000000
6220 13359 1 0.16500 119244.000000
6220 16003 1 0.16500 119244.000000
6221 13360 1 0.16500 119244.000000
6221 16892 1 0.16500 119244.000000
6222 13015 1 0.16500 119244.000000
6222 13360 1 0.16500 119244.000000
6223 13361 1 0.16500 119244.000000
6223 16069 1 0.16500 119244.000000
6224 13361 1 0.16500 119244.000000
6224 14402 1 0.16500 119244.000000
6225 13361 1 0.16500 119244.000000
6225 18995 1 0.16500 119244.000000
6226 13362 1 0.16500 119244.000000
6226 15030 1 0.16500 119244.000000
6227 13362 1 0.16500 119244.000000
6227 16523 1 0.16500 119244.000000
6228 13362 1 0.16500 119244.000000
6228 14383 1 0.16500 119244.000000
6229 13363 1 0.16500 119244.000000
6229 15671 1 0.16500 119244.000000
6230 13364 1 0.16500 119244.000000
6230 16976 1 0.16500 119244.000000
6231 13364 1 0.16500 119244.000000
6231 14368 1 0.16500 119244.000000
6232 13364 1 0.16500 119244.000000
6232 18131 1 0.16500 119244.000000
6233 17519 1 0.16500 119244.000000
6233 17831 1 0.16500 119244.000000
6234 12689 1 0.16500 119244.000000
6234 14276 1 0.16500 119244.000000
6235 13365 1 0.16500 119244.000000
6235 15686 1 0.16500 119244.000000
6236 13366 1 0.16500 119244.000000
6236 14612 1 0.16500 119244.000000
6237 13366 1 0.16500 119244.000000
6237 13784 1 0.16500 119244.000000
6238 13366 1 0.16500 119244.000000
6238 15416 1 0.16500 119244.000000
6239 13367 1 0.16500 119244.000000
6239 16367 1 0.16500 119244.000000
6240 13367 1 0.16500 119244.000000
6240 14200 1 0.16500 119244.000000
6241 13367 1 0.16500 119244.000000
6241 16866 1 0.16500 119244.000000
6242 13367 1 0.16500 119244.000000
6242 16925 1 0.16500 119244.000000
6243 13368 1 0.16500 119244.000000
6243 14101 1 0.16500 119244.000000
6244 13368 1 0.16500 119244.000000
6244 15535 1 0.16500 119244.000000
6245 13369 1 0.16500 119244.000000
6245 16654 1 0.16500 119244.000000
6246 13370 1 0.16500 119244.000000
6246 15444 1 0.16500 119244.000000
6247 13370 1 0.16500 119244.000000
6247 16273 1 0.16500 119244.000000
6248 13371 1 0.16500 119244.000000
6248 16041 1 0.16500 119244.000000
6249 13371 1 0.16500 119244.000000
6249 14776 1 0.16500 119244.000000
6250 13371 1 0.16500 119244.000000
6250 13512 1 0.16500 119244.000000
6251 13372 1 0.16500 119244.000000
6251 19019 1 0.16500 119244.000000
6252 13373 1 0.16500 119244.000000
6252 16376 1 0.16500 119244.000000
6253 13373 1 0.16500 119244.000000
6253 14686 1 0.16500 119244.000000
6254 13373 1 0.16500 119244.000000
6254 14530 1 0.16500 119244.000000
6255 13374 1 0.16500 119244.000000
6255 14713 1 0.16500 119244.000000
6256 14592 1 0.16500 119244.000000
6256 15315 1 0.16500 119244.000000
6257 13374 1 0.16500 119244.000000
6257 13664 1 0.16500 119244.000000
6258 13374 1 0.16500 119244.000000
6258 14592 1 0.16500 119244.000000
6259 13375 1 0.16500 119244.000000
6259 14500 1 0.16500 119244.000000
6260 13375 1 0.16500 119244.000000
6260 16710 1 0.16500 119244.000000
6261 13375 1 0.16500 119244.000000
6261 16088 1 0.16500 119244.000000
6262 13376 1 0.16500 119244.000000
6262 19061 1 0.16500 119244.000000
6263 13376 1 0.16500 119244.000000
6263 18899 1 0.16500 119244.000000
6264 13376 1 0.16500 119244.000000
6264 14457 1 0.16500 119244.000000
6265 13377 1 0.16500 119244.000000
6265 13733 1 0.16500 119244.000000
6266 11628 1 0.16500 119244.000000
6266 16163 1 0.16500 119244.000000
6267 13379 1 0.16500 119244.000000
6267 15809 1 0.16500 119244.000000
6268 13380 1 0.16500 119244.000000
6268 16810 1 0.16500 119244.000000
6269 13380 1 0.16500 119244.000000
6269 16015 1 0.16500 119244.000000
6270 13380 1 0.16500 119244.000000
6270 15049 1 0.16500 119244.000000
6271 13380 1 0.16500 119244.000000
6271 16414 1 0.16500 119244.000000
6272 13381 1 0.16500 119244.000000
6272 16078 1 0.16500 119244.000000
6273 13381 1 0.16500 119244.000000
6273 15890 1 0.16500 119244.000000
6274 13381 1 0.16500 119244.000000
6274 14966 1 0.16500 119244.000000
6275 14260 1 0.16500 119244.000000
6275 14966 1 0.16500 119244.000000
6276 14124 1 0.16500 119244.000000
6276 18566 1 0.16500 119244.000000
6277 14043 1 0.16500 119244.000000
6277 18566 1 0.16500 119244.000000
6278 13382 1 0.16500 119244.000000
6278 16859 1 0.16500 119244.000000
6279 13382 1 0.16500 119244.000000
6279 15253 1 0.16500 119244.000000
6280 13382 1 0.16500 119244.000000
6280 16638 1 0.16500 119244.000000
6281 13382 1 0.16500 119244.000000
6281 15435 1 0.16500 119244.000000
6282 13383 1 0.16500 119244.000000
6282 16921 1 0.16500 119244.000000
6283 12490 1 0.16500 119244.000000
6283 13384 1 0.16500 119244.000000
6284 13384 1 0.16500 119244.000000
6284 16516 1 0.16500 119244.000000
6285 13384 1 0.16500 119244.000000
6285 15452 1 0.16500 119244.000000
6286 13385 1 0.16500 119244.000000
6286 16177 1 0.16500 119244.000000
6287 13385 1 0.16500 119244.000000
6287 16371 1 0.16500 119244.000000
6288 13386 1 0.16500 119244.000000
6288 16799 1 0.16500 119244.000000
6289 13386 1 0.16500 119244.000000
6289 16490 1 0.16500 119244.000000
6290 13387 1 0.16500 119244.000000
6290 16809 1 0.16500 119244.000000
6291 13387 1 0.16500 119244.000000
6291 16532 1 0.16500 119244.000000
6292 13388 1 0.16500 119244.000000
6292 14844 1 0.16500 119244.000000
6293 13388 1 0.16500 119244.000000
6293 15400 1 0.16500 119244.000000
6294 13388 1 0.16500 119244.000000
6294 14255 1 0.16500 119244.000000
6295 13389 1 0.16500 119244.000000
6295 16244 1 0.16500 119244.000000
6296 13389 1 0.16500 119244.000000
6296 16189 1 0.16500 119244.000000
6297 13390 1 0.16500 119244.000000
6297 16232 1 0.16500 119244.000000
6298 13390 1 0.16500 119244.000000
6298 16317 1 0.16500 119244.000000
6299 13390 1 0.16500 119244.000000
6299 15794 1 0.16500 119244.000000
6300 13390 1 0.16500 119244.000000
6300 15895 1 0.16500 119244.000000
6301 13391 1 0.16500 119244.000000
6301 14775 1 0.16500 119244.000000
6302 13391 1 0.16500 119244.000000
6302 19040 1 0.16500 119244.000000
6303 13391 1 0.16500 119244.000000
6303 16185 1 0.16500 119244.000000
6304 13392 1 0.16500 119244.000000
6304 16531 1 0.16500 119244.000000
6305 13392 1 0.16500 119244.000000
6305 16480 1 0.16500 119244.000000
6306 13393 1 0.16500 119244.000000
6306 14481 1 0.16500 119244.000000
6307 13393 1 0.16500 119244.000000
6307 18818 1 0.16500 119244.000000
6308 13393 1 0.16500 119244.000000
6308 16734 1 0.16500 119244.000000
6309 13394 1 0.16500 119244.000000
6309 15288 1 0.16500 119244.000000
6310 13394 1 0.16500 119244.000000
6310 18758 1 0.16500 119244.000000
6311 13395 1 0.16500 119244.000000
6311 14034 1 0.16500 119244.000000
6312 13395 1 0.16500 119244.000000
6312 14648 1 0.16500 119244.000000
6313 13395 1 0.16500 119244.000000
6313 13417 1 0.16500 119244.000000
6314 17651 1 0.16500 119244.000000
6314 18827 1 0.16500 119244.000000
6315 15807 1 0.16500 119244.000000
6315 17651 1 0.16500 119244.000000
6316 13396 1 0.16500 119244.000000
6316 16490 1 0.16500 119244.000000
6317 13396 1 0.16500 119244.000000
6317 16276 1 0.16500 119244.000000
6318 13396 1 0.16500 119244.000000
6318 14177 1 0.16500 119244.000000
6319 13397 1 0.16500 119244.000000
6319 15270 1 0.16500 119244.000000
6320 13397 1 0.16500 119244.000000
6320 14874 1 0.16500 119244.000000
6321 13333 1 0.16500 119244.000000
6321 13397 1 0.16500 119244.000000
6322 13397 1 0.16500 119244.000000
6322 16790 1 0.16500 119244.000000
6323 13398 1 0.16500 119244.000000
6323 13954 1 0.16500 119244.000000
6324 13398 1 0.16500 119244.000000
6324 15692 1 0.16500 119244.000000
6325 13399 1 0.16500 119244.000000
6325 16854 1 0.16500 119244.000000
6326 13399 1 0.16500 119244.000000
6326 14310 1 0.16500 119244.000000
6327 13399 1 0.16500 119244.000000
6327 13862 1 0.16500 119244.000000
6328 13400 1 0.16500 119244.000000
6328 16858 1 0.16500 119244.000000
6329 13400 1 0.16500 119244.000000
6329 16923 1 0.16500 119244.000000
6330 13400 1 0.16500 119244.000000
6330 16217 1 0.16500 119244.000000
6331 13401 1 0.16500 119244.000000
6331 14945 1 0.16500 119244.000000
6332 13401 1 0.16500 119244.000000
6332 16749 1 0.16500 119244.000000
6333 13401 1 0.16500 119244.000000
6333 15706 1 0.16500 119244.000000
6334 13401 1 0.16500 119244.000000
6334 14209 1 0.16500 119244.000000
6335 13402 1 0.16500 119244.000000
6335 14799 1 0.16500 119244.000000
6336 13403 1 0.16500 119244.000000
6336 14639 1 0.16500 119244.000000
6337 14639 1 0.16500 119244.000000
6337 16288 1 0.16500 119244.000000
6338 13404 1 0.16500 119244.000000
6338 13938 1 0.16500 119244.000000
6339 13404 1 0.16500 119244.000000
6339 16633 1 0.16500 119244.000000
6340 13405 1 0.16500 119244.000000
6340 17008 1 0.16500 119244.000000
6341 13405 1 0.16500 119244.000000
6341 18119 1 0.16500 119244.000000
6342 13405 1 0.16500 119244.000000
6342 15624 1 0.16500 119244.000000
6343 13406 1 0.16500 119244.000000
6343 15983 1 0.16500 119244.000000
6344 15983 1 0.16500 119244.000000
6344 16076 1 0.16500 119244.000000
6345 13406 1 0.16500 119244.000000
6345 16662 1 0.16500 119244.000000
6346 13407 1 0.16500 119244.000000
6346 13742 1 0.16500 119244.000000
6347 13407 1 0.16500 119244.000000
6347 15678 1 0.16500 119244.000000
6348 13407 1 0.16500 119244.000000
6348 16929 1 0.16500 119244.000000
6349 13407 1 0.16500 119244.000000
6349 13581 1 0.16500 119244.000000
6350 13408 1 0.16500 119244.000000
6350 14734 1 0.16500 119244.000000
6351 13408 1 0.16500 119244.000000
6351 16866 1 0.16500 119244.000000
6352 13409 1 0.16500 119244.000000
6352 16816 1 0.16500 119244.000000
6353 13409 1 0.16500 119244.000000
6353 16610 1 0.16500 119244.000000
6354 13410 1 0.16500 119244.000000
6354 13585 1 0.16500 119244.000000
6355 13410 1 0.16500 119244.000000
6355 16999 1 0.16500 119244.000000
6356 12970 1 0.16500 119244.000000
6356 16056 1 0.16500 119244.000000
6357 13411 1 0.16500 119244.000000
6357 14500 1 0.16500 119244.000000
6358 13412 1 0.16500 119244.000000
6358 14168 1 0.16500 119244.000000
6359 13412 1 0.16500 119244.000000
6359 15524 1 0.16500 119244.000000
6360 13413 1 0.16500 119244.000000
6360 16076 1 0.16500 119244.000000
6361 14229 1 0.16500 119244.000000
6361 15864 1 0.16500 119244.000000
6362 13413 1 0.16500 119244.000000
6362 15294 1 0.16500 119244.000000
6363 13413 1 0.16500 119244.000000
6363 14229 1 0.16500 119244.000000
6364 13414 1 0.16500 119244.000000
6364 18668 1 0.16500 119244.000000
6365 13414 1 0.16500 119244.000000
6365 14622 1 0.16500 119244.000000
6366 13414 1 0.16500 119244.000000
6366 16004 1 0.16500 119244.000000
6367 13414 1 0.16500 119244.000000
6367 15005 1 0.16500 119244.000000
6368 13415 1 0.16500 119244.000000
6368 13625 1 0.16500 119244.000000
6369 12831 1 0.16500 119244.000000
6369 13415 1 0.16500 119244.000000
6370 13415 1 0.16500 119244.000000
6370 14354 1 0.16500 119244.000000
6371 13416 1 0.16500 119244.000000
6371 15502 1 0.16500 119244.000000
6372 13416 1 0.16500 119244.000000
6372 14894 1 0.16500 119244.000000
6373 13416 1 0.16500 119244.000000
6373 15722 1 0.16500 119244.000000
6374 13417 1 0.16500 119244.000000
6374 16809 1 0.16500 119244.000000
6375 13417 1 0.16500 119244.000000
6375 15854 1 0.16500 119244.000000
6376 13418 1 0.16500 119244.000000
6376 15306 1 0.16500 119244.000000
6377 13418 1 0.16500 119244.000000
6377 15538 1 0.16500 119244.000000
6378 13419 1 0.16500 119244.000000
6378 16367 1 0.16500 119244.000000
6379 13419 1 0.16500 119244.000000
6379 18662 1 0.16500 119244.000000
6380 13419 1 0.16500 119244.000000
6380 14734 1 0.16500 119244.000000
6381 13420 1 0.16500 119244.000000
6381 16640 1 0.16500 119244.000000
6382 13421 1 0.16500 119244.000000
6382 15649 1 0.16500 119244.000000
6383 13422 1 0.16500 119244.000000
6383 18596 1 0.16500 119244.000000
6384 13422 1 0.16500 119244.000000
6384 14799 1 0.16500 119244.000000
6385 14362 1 0.16500 119244.000000
6385 18569 1 0.16500 119244.000000
6386 18569 1 0.16500 119244.000000
6386 19028 1 0.16500 119244.000000
6387 13423 1 0.16500 119244.000000
6387 14116 1 0.16500 119244.000000
6388 13423 1 0.16500 119244.000000
6388 14618 1 0.16500 119244.000000
6389 13423 1 0.16500 119244.000000
6389 15045 1 0.16500 119244.000000
6390 13423 1 0.16500 119244.000000
6390 16324 1 0.16500 119244.000000
6391 13424 1 0.16500 119244.000000
6391 16140 1 0.16500 119244.000000
6392 13424 1 0.16500 119244.000000
6392 13430 1 0.16500 119244.000000
6393 13424 1 0.16500 119244.000000
6393 16709 1 0.16500 119244.000000
6394 13424 1 0.16500 119244.000000
6394 16841 1 0.16500 119244.000000
6395 13425 1 0.16500 119244.000000
6395 13696 1 0.16500 119244.000000
6396 13425 1 0.16500 119244.000000
6396 15904 1 0.16500 119244.000000
6397 13425 1 0.16500 119244.000000
6397 14746 1 0.16500 119244.000000
6398 13426 1 0.16500 119244.000000
6398 13567 1 0.16500 119244.000000
6399 13426 1 0.16500 119244.000000
6399 16100 1 0.16500 119244.000000
6400 13567 1 0.16500 119244.000000
6400 15164 1 0.16500 119244.000000
6401 15252 1 0.16500 119244.000000
6401 16591 1 0.16500 119244.000000
6402 13427 1 0.16500 119244.000000
6402 14077 1 0.16500 119244.000000
6403 13427 1 0.16500 119244.000000
6403 15220 1 0.16500 119244.000000
6404 13428 1 0.16500 119244.000000
6404 16866 1 0.16500 119244.000000
6405 13428 1 0.16500 119244.000000
6405 15482 1 0.16500 119244.000000
6406 13428 1 0.16500 119244.000000
6406 13442 1 0.16500 119244.000000
6407 13429 1 0.16500 119244.000000
6407 13847 1 0.16500 119244.000000
6408 13429 1 0.16500 119244.000000
6408 16391 1 0.16500 119244.000000
6409 13430 1 0.16500 119244.000000
6409 15230 1 0.16500 119244.000000
6410 13431 1 0.16500 119244.000000
6410 13857 1 0.16500 119244.000000
6411 13431 1 0.16500 119244.000000
6411 16172 1 0.16500 119244.000000
6412 14903 1 0.16500 119244.000000
6412 16168 1 0.16500 119244.000000
6413 14878 1 0.16500 119244.000000
6413 16168 1 0.16500 119244.000000
6414 13432 1 0.16500 119244.000000
6414 16168 1 0.16500 119244.000000
6415 13433 1 0.16500 119244.000000
6415 15262 1 0.16500 119244.000000
6416 13434 1 0.16500 119244.000000
6416 16584 1 0.16500 119244.000000
6417 15984 1 0.16500 119244.000000
6417 16150 1 0.16500 119244.000000
6418 13434 1 0.16500 119244.000000
6418 16150 1 0.16500 119244.000000
6419 13435 1 0.16500 119244.000000
6419 13752 1 0.16500 119244.000000
6420 13435 1 0.16500 119244.000000
6420 16513 1 0.16500 119244.000000
6421 13436 1 0.16500 119244.000000
6421 14630 1 0.16500 119244.000000
6422 13436 1 0.16500 119244.000000
6422 15929 1 0.16500 119244.000000
6423 13437 1 0.16500 119244.000000
6423 13582 1 0.16500 119244.000000
6424 13438 1 0.16500 119244.000000
6424 14359 1 0.16500 119244.000000
6425 13438 1 0.16500 119244.000000
6425 19010 1 0.16500 119244.000000
6426 13438 1 0.16500 119244.000000
6426 14520 1 0.16500 119244.000000
6427 13438 1 0.16500 119244.000000
6427 17771 1 0.16500 119244.000000
6428 13439 1 0.16500 119244.000000
6428 16113 1 0.16500 119244.000000
6429 13439 1 0.16500 119244.000000
6429 14763 1 0.16500 119244.000000
6430 13440 1 0.16500 119244.000000
6430 15817 1 0.16500 119244.000000
6431 13440 1 0.16500 119244.000000
6431 13862 1 0.16500 119244.000000
6432 13441 1 0.16500 119244.000000
6432 16417 1 0.16500 119244.000000
6433 13441 1 0.16500 119244.000000
6433 13880 1 0.16500 119244.000000
6434 13442 1 0.16500 119244.000000
6434 15139 1 0.16500 119244.000000
6435 13442 1 0.16500 119244.000000
6435 15606 1 0.16500 119244.000000
6436 13442 1 0.16500 119244.000000
6436 15447 1 0.16500 119244.000000
6437 15606 1 0.16500 119244.000000
6437 16739 1 0.16500 119244.000000
6438 13443 1 0.16500 119244.000000
6438 14218 1 0.16500 119244.000000
6439 13443 1 0.16500 119244.000000
6439 14497 1 0.16500 119244.000000
6440 13444 1 0.16500 119244.000000
6440 15613 1 0.16500 119244.000000
6441 13444 1 0.16500 119244.000000
6441 16242 1 0.16500 119244.000000
6442 13444 1 0.16500 119244.000000
6442 15874 1 0.16500 119244.000000
6443 13445 1 0.16500 119244.000000
6443 13968 1 0.16500 119244.000000
6444 13445 1 0.16500 119244.000000
6444 13741 1 0.16500 119244.000000
6445 13445 1 0.16500 119244.000000
6445 13818 1 0.16500 119244.000000
6446 13445 1 0.16500 119244.000000
6446 14149 1 0.16500 119244.000000
6447 13446 1 0.16500 119244.000000
6447 13871 1 0.16500 119244.000000
6448 13446 1 0.16500 119244.000000
6448 14212 1 0.16500 119244.000000
6449 13446 1 0.16500 119244.000000
6449 14235 1 0.16500 119244.000000
6450 13447 1 0.16500 119244.000000
6450 13877 1 0.16500 119244.000000
6451 13447 1 0.16500 119244.000000
6451 15160 1 0.16500 119244.000000
6452 13447 1 0.16500 119244.000000
6452 18926 1 0.16500 119244.000000
6453 13448 1 0.16500 119244.000000
6453 14808 1 0.16500 119244.000000
6454 13448 1 0.16500 119244.000000
6454 15865 1 0.16500 119244.000000
6455 13448 1 0.16500 119244.000000
6455 16101 1 0.16500 119244.000000
6456 13449 1 0.16500 119244.000000
6456 14126 1 0.16500 119244.000000
6457 13449 1 0.16500 119244.000000
6457 13528 1 0.16500 119244.000000
6458 13449 1 0.16500 119244.000000
6458 14463 1 0.16500 119244.000000
6459 13449 1 0.16500 119244.000000
6459 16302 1 0.16500 119244.000000
6460 13450 1 0.16500 119244.000000
6460 14756 1 0.16500 119244.000000
6461 13450 1 0.16500 119244.000000
6461 14076 1 0.16500 119244.000000
6462 13450 1 0.16500 119244.000000
6462 14370 1 0.16500 119244.000000
6463 13450 1 0.16500 119244.000000
6463 15582 1 0.16500 119244.000000
6464 13451 1 0.16500 119244.000000
6464 14784 1 0.16500 119244.000000
6465 13451 1 0.16500 119244.000000
6465 15644 1 0.16500 119244.000000
6466 13451 1 0.16500 119244.000000
6466 16178 1 0.16500 119244.000000
6467 13452 1 0.16500 119244.000000
6467 15694 1 0.16500 119244.000000
6468 12631 1 0.16500 119244.000000
6468 14234 1 0.16500 119244.000000
6469 13453 1 0.16500 119244.000000
6469 14114 1 0.16500 119244.000000
6470 12631 1 0.16500 119244.000000
6470 15024 1 0.16500 119244.000000
6471 13454 1 0.16500 119244.000000
6471 14280 1 0.16500 119244.000000
6472 13454 1 0.16500 119244.000000
6472 14824 1 0.16500 119244.000000
6473 13455 1 0.16500 119244.000000
6473 16024 1 0.16500 119244.000000
6474 13455 1 0.16500 119244.000000
6474 15650 1 0.16500 119244.000000
6475 13455 1 0.16500 119244.000000
6475 16115 1 0.16500 119244.000000
6476 13456 1 0.16500 119244.000000
6476 13628 1 0.16500 119244.000000
6477 13456 1 0.16500 119244.000000
6477 15186 1 0.16500 119244.000000
6478 13456 1 0.16500 119244.000000
6478 15870 1 0.16500 119244.000000
6479 13001 1 0.16500 119244.000000
6479 13457 1 0.16500 119244.000000
6480 13458 1 0.16500 119244.000000
6480 16214 1 0.16500 119244.000000
6481 13458 1 0.16500 119244.000000
6481 14205 1 0.16500 119244.000000
6482 13458 1 0.16500 119244.000000
6482 15379 1 0.16500 119244.000000
6483 13459 1 0.16500 119244.000000
6483 15214 1 0.16500 119244.000000
6484 13459 1 0.16500 119244.000000
6484 15892 1 0.16500 119244.000000
6485 13459 1 0.16500 119244.000000
6485 14616 1 0.16500 119244.000000
6486 18575 1 0.16500 119244.000000
6486 18647 1 0.16500 119244.000000
6487 14653 1 0.16500 119244.000000
6487 18575 1 0.16500 119244.000000
6488 14587 1 0.16500 119244.000000
6488 14653 1 0.16500 119244.000000
6489 13460 1 0.16500 119244.000000
6489 15014 1 0.16500 119244.000000
6490 13461 1 0.16500 119244.000000
6490 14259 1 0.16500 119244.000000
6491 13461 1 0.16500 119244.000000
6491 15764 1 0.16500 119244.000000
6492 12419 1 0.16500 119244.000000
6492 15489 1 0.16500 119244.000000
6493 13462 1 0.16500 119244.000000
6493 14755 1 0.16500 119244.000000
6494 13462 1 0.16500 119244.000000
6494 16505 1 0.16500 119244.000000
6495 13462 1 0.16500 119244.000000
6495 15949 1 0.16500 119244.000000
6496 12211 1 0.16500 119244.000000
6496 13462 1 0.16500 119244.000000
6497 13463 1 0.16500 119244.000000
6497 14196 1 0.16500 119244.000000
6498 13463 1 0.16500 119244.000000
6498 15128 1 0.16500 119244.000000
6499 13463 1 0.16500 119244.000000
6499 14645 1 0.16500 119244.000000
6500 13463 1 0.16500 119244.000000
6500 16794 1 0.16500 119244.000000
6501 13464 1 0.16500 119244.000000
6501 15165 1 0.16500 119244.000000
6502 13464 1 0.16500 119244.000000
6502 13592 1 0.16500 119244.000000
6503 13465 1 0.16500 119244.000000
6503 14487 1 0.16500 119244.000000
6504 13465 1 0.16500 119244.000000
6504 16376 1 0.16500 119244.000000
6505 13466 1 0.16500 119244.000000
6505 16682 1 0.16500 119244.000000
6506 13466 1 0.16500 119244.000000
6506 13795 1 0.16500 119244.000000
6507 13467 1 0.16500 119244.000000
6507 16066 1 0.16500 119244.000000
6508 13468 1 0.16500 119244.000000
6508 15407 1 0.16500 119244.000000
6509 13468 1 0.16500 119244.000000
6509 15374 1 0.16500 119244.000000
6510 13468 1 0.16500 119244.000000
6510 13732 1 0.16500 119244.000000
6511 13468 1 0.16500 119244.000000
6511 14948 1 0.16500 119244.000000
6512 13469 1 0.16500 119244.000000
6512 16763 1 0.16500 119244.000000
6513 13470 1 0.16500 119244.000000
6513 16010 1 0.16500 119244.000000
6514 13470 1 0.16500 119244.000000
6514 15302 1 0.16500 119244.000000
6515 13471 1 0.16500 119244.000000
6515 14080 1 0.16500 119244.000000
6516 13471 1 0.16500 119244.000000
6516 15978 1 0.16500 119244.000000
6517 13472 1 0.16500 119244.000000
6517 18950 1 0.16500 119244.000000
6518 13472 1 0.16500 119244.000000
6518 13761 1 0.16500 119244.000000
6519 15187 1 0.16500 119244.000000
6519 18950 1 0.16500 119244.000000
6520 13474 1 0.16500 119244.000000
6520 16605 1 0.16500 119244.000000
6521 13474 1 0.16500 119244.000000
6521 14480 1 0.16500 119244.000000
6522 13475 1 0.16500 119244.000000
6522 13556 1 0.16500 119244.000000
6523 13475 1 0.16500 119244.000000
6523 15674 1 0.16500 119244.000000
6524 13475 1 0.16500 119244.000000
6524 14279 1 0.16500 119244.000000
6525 13476 1 0.16500 119244.000000
6525 16676 1 0.16500 119244.000000
6526 14282 1 0.16500 119244.000000
6526 18578 1 0.16500 119244.000000
6527 13477 1 0.16500 119244.000000
6527 13654 1 0.16500 119244.000000
6528 13477 1 0.16500 119244.000000
6528 14424 1 0.16500 119244.000000
6529 13477 1 0.16500 119244.000000
6529 16889 1 0.16500 119244.000000
6530 13478 1 0.16500 119244.000000
6530 16816 1 0.16500 119244.000000
6531 13478 1 0.16500 119244.000000
6531 16362 1 0.16500 119244.000000
6532 13479 1 0.16500 119244.000000
6532 14262 1 0.16500 119244.000000
6533 13479 1 0.16500 119244.000000
6533 18803 1 0.16500 119244.000000
6534 13479 1 0.16500 119244.000000
6534 13758 1 0.16500 119244.000000
6535 13479 1 0.16500 119244.000000
6535 13525 1 0.16500 119244.000000
6536 13480 1 0.16500 119244.000000
6536 14414 1 0.16500 119244.000000
6537 13480 1 0.16500 119244.000000
6537 14032 1 0.16500 119244.000000
6538 13481 1 0.16500 119244.000000
6538 16838 1 0.16500 119244.000000
6539 13481 1 0.16500 119244.000000
6539 14805 1 0.16500 119244.000000
6540 13483 1 0.16500 119244.000000
6540 15771 1 0.16500 119244.000000
6541 13483 1 0.16500 119244.000000
6541 15940 1 0.16500 119244.000000
6542 13483 1 0.16500 119244.000000
6542 14776 1 0.16500 119244.000000
6543 13483 1 0.16500 119244.000000
6543 16784 1 0.16500 119244.000000
6544 13484 1 0.16500 119244.000000
6544 13612 1 0.16500 119244.000000
6545 13484 1 0.16500 119244.000000
6545 14228 1 0.16500 119244.000000
6546 14228 1 0.16500 119244.000000
6546 14778 1 0.16500 119244.000000
6547 11805 1 0.16500 119244.000000
6547 14037 1 0.16500 119244.000000
6548 11805 1 0.16500 119244.000000
6548 16045 1 0.16500 119244.000000
6549 11805 1 0.16500 119244.000000
6549 16006 1 0.16500 119244.000000
6550 13486 1 0.16500 119244.000000
6550 14465 1 0.16500 119244.000000
6551 13486 1 0.16500 119244.000000
6551 14006 1 0.16500 119244.000000
6552 14006 1 0.16500 119244.000000
6552 16262 1 0.16500 119244.000000
6553 13487 1 0.16500 119244.000000
6553 13837 1 0.16500 119244.000000
6554 13487 1 0.16500 119244.000000
6554 15599 1 0.16500 119244.000000
6555 11703 1 0.16500 119244.000000
6555 13488 1 0.16500 119244.000000
6556 16339 1 0.16500 119244.000000
6556 17843 1 0.16500 119244.000000
6557 17843 1 0.16500 119244.000000
6557 18593 1 0.16500 119244.000000
6558 13489 1 0.16500 119244.000000
6558 14987 1 0.16500 119244.000000
6559 13490 1 0.16500 119244.000000
6559 16714 1 0.16500 119244.000000
6560 13490 1 0.16500 119244.000000
6560 13502 1 0.16500 119244.000000
6561 13490 1 0.16500 119244.000000
6561 14700 1 0.16500 119244.000000
6562 13490 1 0.16500 119244.000000
6562 16915 1 0.16500 119244.000000
6563 13491 1 0.16500 119244.000000
6563 15384 1 0.16500 119244.000000
6564 13491 1 0.16500 119244.000000
6564 16378 1 0.16500 119244.000000
6565 13491 1 0.16500 119244.000000
6565 15277 1 0.16500 119244.000000
6566 16401 1 0.16500 119244.000000
6566 18581 1 0.16500 119244.000000
6567 16697 1 0.16500 119244.000000
6567 18581 1 0.16500 119244.000000
6568 18581 1 0.16500 119244.000000
6568 18758 1 0.16500 119244.000000
6569 15251 1 0.16500 119244.000000
6569 18584 1 0.16500 119244.000000
6570 16494 1 0.16500 119244.000000
6570 18584 1 0.16500 119244.000000
6571 13492 1 0.16500 119244.000000
6571 16578 1 0.16500 119244.000000
6572 15300 1 0.16500 119244.000000
6572 18587 1 0.16500 119244.000000
6573 15640 1 0.16500 119244.000000
6573 18587 1 0.16500 119244.000000
6574 13949 1 0.16500 119244.000000
6574 15300 1 0.16500 119244.000000
6575 13493 1 0.16500 119244.000000
6575 16756 1 0.16500 119244.000000
6576 13493 1 0.16500 119244.000000
6576 15449 1 0.16500 119244.000000
6577 13493 1 0.16500 119244.000000
6577 15655 1 0.16500 119244.000000
6578 13494 1 0.16500 119244.000000
6578 16771 1 0.16500 119244.000000
6579 13494 1 0.16500 119244.000000
6579 15505 1 0.16500 119244.000000
6580 13494 1 0.16500 119244.000000
6580 13959 1 0.16500 119244.000000
6581 13495 1 0.16500 119244.000000
6581 16198 1 0.16500 119244.000000
6582 13496 1 0.16500 119244.000000
6582 15483 1 0.16500 119244.000000
6583 13496 1 0.16500 119244.000000
6583 14003 1 0.16500 119244.000000
6584 13496 1 0.16500 119244.000000
6584 16294 1 0.16500 119244.000000
6585 13496 1 0.16500 119244.000000
6585 15252 1 0.16500 119244.000000
6586 13497 1 0.16500 119244.000000
6586 15477 1 0.16500 119244.000000
6587 15477 1 0.16500 119244.000000
6587 16262 1 0.16500 119244.000000
6588 14255 1 0.16500 119244.000000
6588 15146 1 0.16500 119244.000000
6589 13498 1 0.16500 119244.000000
6589 15146 1 0.16500 119244.000000
6590 13498 1 0.16500 119244.000000
6590 15053 1 0.16500 119244.000000
6591 13498 1 0.16500 119244.000000
6591 14152 1 0.16500 119244.000000
6592 13499 1 0.16500 119244.000000
6592 13997 1 0.16500 119244.000000
6593 13499 1 0.16500 119244.000000
6593 13549 1 0.16500 119244.000000
6594 13500 1 0.16500 119244.000000
6594 15962 1 0.16500 119244.000000
6595 13500 1 0.16500 119244.000000
6595 18941 1 0.16500 119244.000000
6596 13500 1 0.16500 119244.000000
6596 15793 1 0.16500 119244.000000
6597 13501 1 0.16500 119244.000000
6597 16290 1 0.16500 119244.000000
6598 13501 1 0.16500 119244.000000
6598 14918 1 0.16500 119244.000000
6599 13501 1 0.16500 119244.000000
6599 14165 1 0.16500 119244.000000
6600 13502 1 0.16500 119244.000000
6600 14426 1 0.16500 119244.000000
6601 13502 1 0.16500 119244.000000
6601 15142 1 0.16500 119244.000000
6602 13503 1 0.16500 119244.000000
6602 15245 1 0.16500 119244.000000
6603 13503 1 0.16500 119244.000000
6603 15859 1 0.16500 119244.000000
6604 13503 1 0.16500 119244.000000
6604 15121 1 0.16500 119244.000000
6605 13503 1 0.16500 119244.000000
6605 16082 1 0.16500 119244.000000
6606 13504 1 0.16500 119244.000000
6606 14733 1 0.16500 119244.000000
6607 13504 1 0.16500 119244.000000
6607 15079 1 0.16500 119244.000000
6608 13505 1 0.16500 119244.000000
6608 14861 1 0.16500 119244.000000
6609 13505 1 0.16500 119244.000000
6609 14559 1 0.16500 119244.000000
6610 13505 1 0.16500 119244.000000
6610 15608 1 0.16500 119244.000000
6611 13505 1 0.16500 119244.000000
6611 14076 1 0.16500 119244.000000
6612 13506 1 0.16500 119244.000000
6612 15711 1 0.16500 119244.000000
6613 13506 1 0.16500 119244.000000
6613 15066 1 0.16500 119244.000000
6614 13506 1 0.16500 119244.000000
6614 16055 1 0.16500 119244.000000
6615 13507 1 0.16500 119244.000000
6615 18827 1 0.16500 119244.000000
6616 13498 1 0.16500 119244.000000
6616 13507 1 0.16500 119244.000000
6617 13507 1 0.16500 119244.000000
6617 16503 1 0.16500 119244.000000
6618 13508 1 0.16500 119244.000000
6618 15158 1 0.16500 119244.000000
6619 13508 1 0.16500 119244.000000
6619 16238 1 0.16500 119244.000000
6620 13509 1 0.16500 119244.000000
6620 14640 1 0.16500 119244.000000
6621 13509 1 0.16500 119244.000000
6621 16556 1 0.16500 119244.000000
6622 13951 1 0.16500 119244.000000
6622 14640 1 0.16500 119244.000000
6623 13510 1 0.16500 119244.000000
6623 15657 1 0.16500 119244.000000
6624 13510 1 0.16500 119244.000000
6624 15303 1 0.16500 119244.000000
6625 13511 1 0.16500 119244.000000
6625 15916 1 0.16500 119244.000000
6626 13511 1 0.16500 119244.000000
6626 15248 1 0.16500 119244.000000
6627 13511 1 0.16500 119244.000000
6627 16054 1 0.16500 119244.000000
6628 13511 1 0.16500 119244.000000
6628 15734 1 0.16500 119244.000000
6629 13512 1 0.16500 119244.000000
6629 15668 1 0.16500 119244.000000
6630 13512 1 0.16500 119244.000000
6630 15223 1 0.16500 119244.000000
6631 13513 1 0.16500 119244.000000
6631 14808 1 0.16500 119244.000000
6632 13513 1 0.16500 119244.000000
6632 16166 1 0.16500 119244.000000
6633 13515 1 0.16500 119244.000000
6633 14599 1 0.16500 119244.000000
6634 13515 1 0.16500 119244.000000
6634 15532 1 0.16500 119244.000000
6635 13515 1 0.16500 119244.000000
6635 14796 1 0.16500 119244.000000
6636 13516 1 0.16500 119244.000000
6636 14506 1 0.16500 119244.000000
6637 13516 1 0.16500 119244.000000
6637 14715 1 0.16500 119244.000000
6638 13516 1 0.16500 119244.000000
6638 16291 1 0.16500 119244.000000
6639 13517 1 0.16500 119244.000000
6639 13839 1 0.16500 119244.000000
6640 13518 1 0.16500 119244.000000
6640 16544 1 0.16500 119244.000000
6641 13518 1 0.16500 119244.000000
6641 14474 1 0.16500 119244.000000
6642 13518 1 0.16500 119244.000000
6642 15508 1 0.16500 119244.000000
6643 18590 1 0.16500 119244.000000
6643 18824 1 0.16500 119244.000000
6644 13519 1 0.16500 119244.000000
6644 16387 1 0.16500 119244.000000
6645 13381 1 0.16500 119244.000000
6645 13519 1 0.16500 119244.000000
6646 13519 1 0.16500 119244.000000
6646 18677 1 0.16500 119244.000000
6647 15357 1 0.16500 119244.000000
6647 18593 1 0.16500 119244.000000
6648 13520 1 0.16500 119244.000000
6648 16837 1 0.16500 119244.000000
6649 13520 1 0.16500 119244.000000
6649 14941 1 0.16500 119244.000000
6650 13520 1 0.16500 119244.000000
6650 18236 1 0.16500 119244.000000
6651 13521 1 0.16500 119244.000000
6651 13921 1 0.16500 119244.000000
6652 13521 1 0.16500 119244.000000
6652 14002 1 0.16500 119244.000000
6653 13521 1 0.16500 119244.000000
6653 15453 1 0.16500 119244.000000
6654 13521 1 0.16500 119244.000000
6654 16321 1 0.16500 119244.000000
6655 13522 1 0.16500 119244.000000
6655 13636 1 0.16500 119244.000000
6656 13522 1 0.16500 119244.000000
6656 13848 1 0.16500 119244.000000
6657 13522 1 0.16500 119244.000000
6657 14199 1 0.16500 119244.000000
6658 14923 1 0.16500 119244.000000
6658 18596 1 0.16500 119244.000000
6659 13523 1 0.16500 119244.000000
6659 16476 1 0.16500 119244.000000
6660 13523 1 0.16500 119244.000000
6660 13772 1 0.16500 119244.000000
6661 13523 1 0.16500 119244.000000
6661 14683 1 0.16500 119244.000000
6662 13524 1 0.16500 119244.000000
6662 14018 1 0.16500 119244.000000
6663 13524 1 0.16500 119244.000000
6663 15057 1 0.16500 119244.000000
6664 13525 1 0.16500 119244.000000
6664 15613 1 0.16500 119244.000000
6665 13525 1 0.16500 119244.000000
6665 14878 1 0.16500 119244.000000
6666 13526 1 0.16500 119244.000000
6666 18704 1 0.16500 119244.000000
6667 13526 1 0.16500 119244.000000
6667 15865 1 0.16500 119244.000000
6668 13527 1 0.16500 119244.000000
6668 13914 1 0.16500 119244.000000
6669 13527 1 0.16500 119244.000000
6669 14908 1 0.16500 119244.000000
6670 13527 1 0.16500 119244.000000
6670 16061 1 0.16500 119244.000000
6671 13528 1 0.16500 119244.000000
6671 14992 1 0.16500 119244.000000
6672 13528 1 0.16500 119244.000000
6672 15277 1 0.16500 119244.000000
6673 13529 1 0.16500 119244.000000
6673 16886 1 0.16500 119244.000000
6674 13529 1 0.16500 119244.000000
6674 16116 1 0.16500 119244.000000
6675 13529 1 0.16500 119244.000000
6675 14904 1 0.16500 119244.000000
6676 13530 1 0.16500 119244.000000
6676 13657 1 0.16500 119244.000000
6677 13530 1 0.16500 119244.000000
6677 16998 1 0.16500 119244.000000
6678 13530 1 0.16500 119244.000000
6678 13686 1 0.16500 119244.000000
6679 13531 1 0.16500 119244.000000
6679 16299 1 0.16500 119244.000000
6680 13531 1 0.16500 119244.000000
6680 16422 1 0.16500 119244.000000
6681 13531 1 0.16500 119244.000000
6681 15951 1 0.16500 119244.000000
6682 13531 1 0.16500 119244.000000
6682 15340 1 0.16500 119244.000000
6683 13532 1 0.16500 119244.000000
6683 14112 1 0.16500 119244.000000
6684 13533 1 0.16500 119244.000000
6684 16148 1 0.16500 119244.000000
6685 13534 1 0.16500 119244.000000
6685 15916 1 0.16500 119244.000000
6686 13534 1 0.16500 119244.000000
6686 14522 1 0.16500 119244.000000
6687 13535 1 0.16500 119244.000000
6687 13856 1 0.16500 119244.000000
6688 13536 1 0.16500 119244.000000
6688 16900 1 0.16500 119244.000000
6689 13536 1 0.16500 119244.000000
6689 14692 1 0.16500 119244.000000
6690 13536 1 0.16500 119244.000000
6690 15270 1 0.16500 119244.000000
6691 13537 1 0.16500 119244.000000
6691 13661 1 0.16500 119244.000000
6692 13537 1 0.16500 119244.000000
6692 15829 1 0.16500 119244.000000
6693 13537 1 0.16500 119244.000000
6693 16758 1 0.16500 119244.000000
6694 13537 1 0.16500 119244.000000
6694 15124 1 0.16500 119244.000000
6695 13538 1 0.16500 119244.000000
6695 14470 1 0.16500 119244.000000
6696 13538 1 0.16500 119244.000000
6696 13961 1 0.16500 119244.000000
6697 13538 1 0.16500 119244.000000
6697 13624 1 0.16500 119244.000000
6698 13538 1 0.16500 119244.000000
6698 16777 1 0.16500 119244.000000
6699 13539 1 0.16500 119244.000000
6699 15346 1 0.16500 119244.000000
6700 13539 1 0.16500 119244.000000
6700 16052 1 0.16500 119244.000000
6701 13539 1 0.16500 119244.000000
6701 14466 1 0.16500 119244.000000
6702 13539 1 0.16500 119244.000000
6702 14139 1 0.16500 119244.000000
6703 13540 1 0.16500 119244.000000
6703 14821 1 0.16500 119244.000000
6704 14821 1 0.16500 119244.000000
6704 16913 1 0.16500 119244.000000
6705 13541 1 0.16500 119244.000000
6705 15939 1 0.16500 119244.000000
6706 13541 1 0.16500 119244.000000
6706 13851 1 0.16500 119244.000000
6707 13542 1 0.16500 119244.000000
6707 14360 1 0.16500 119244.000000
6708 13542 1 0.16500 119244.000000
6708 14651 1 0.16500 119244.000000
6709 13543 1 0.16500 119244.000000
6709 14457 1 0.16500 119244.000000
6710 13543 1 0.16500 119244.000000
6710 15832 1 0.16500 119244.000000
6711 13544 1 0.16500 119244.000000
6711 16319 1 0.16500 119244.000000
6712 13545 1 0.16500 119244.000000
6712 15751 1 0.16500 119244.000000
6713 13545 1 0.16500 119244.000000
6713 14872 1 0.16500 119244.000000
6714 13545 1 0.16500 119244.000000
6714 17009 1 0.16500 119244.000000
6715 12945 1 0.16500 119244.000000
6715 13545 1 0.16500 119244.000000
6716 13546 1 0.16500 119244.000000
6716 13904 1 0.16500 119244.000000
6717 13547 1 0.16500 119244.000000
6717 15029 1 0.16500 119244.000000
6718 13547 1 0.16500 119244.000000
6718 16418 1 0.16500 119244.000000
6719 13547 1 0.16500 119244.000000
6719 14488 1 0.16500 119244.000000
6720 13547 1 0.16500 119244.000000
6720 14191 1 0.16500 119244.000000
6721 13548 1 0.16500 119244.000000
6721 14330 1 0.16500 119244.000000
6722 13548 1 0.16500 119244.000000
6722 16398 1 0.16500 119244.000000
6723 13548 1 0.16500 119244.000000
6723 14312 1 0.16500 119244.000000
6724 13549 1 0.16500 119244.000000
6724 16323 1 0.16500 119244.000000
6725 14760 1 0.16500 119244.000000
6725 19115 1 0.16500 119244.000000
6726 14859 1 0.16500 119244.000000
6726 17699 1 0.16500 119244.000000
6727 13550 1 0.16500 119244.000000
6727 15429 1 0.16500 119244.000000
6728 13550 1 0.16500 119244.000000
6728 15645 1 0.16500 119244.000000
6729 13551 1 0.16500 119244.000000
6729 15998 1 0.16500 119244.000000
6730 13551 1 0.16500 119244.000000
6730 15365 1 0.16500 119244.000000
6731 13551 1 0.16500 119244.000000
6731 16834 1 0.16500 119244.000000
6732 13552 1 0.16500 119244.000000
6732 13666 1 0.16500 119244.000000
6733 13552 1 0.16500 119244.000000
6733 18935 1 0.16500 119244.000000
6734 15077 1 0.16500 119244.000000
6734 19007 1 0.16500 119244.000000
6735 16966 1 0.16500 119244.000000
6735 19007 1 0.16500 119244.000000
6736 13553 1 0.16500 119244.000000
6736 14877 1 0.16500 119244.000000
6737 12031 1 0.16500 119244.000000
6737 18791 1 0.16500 119244.000000
6738 13554 1 0.16500 119244.000000
6738 15780 1 0.16500 119244.000000
6739 13554 1 0.16500 119244.000000
6739 14425 1 0.16500 119244.000000
6740 13554 1 0.16500 119244.000000
6740 15364 1 0.16500 119244.000000
6741 15432 1 0.16500 119244.000000
6741 18599 1 0.16500 119244.000000
6742 14235 1 0.16500 119244.000000
6742 18599 1 0.16500 119244.000000
6743 13555 1 0.16500 119244.000000
6743 15103 1 0.16500 119244.000000
6744 13555 1 0.16500 119244.000000
6744 16115 1 0.16500 119244.000000
6745 13555 1 0.16500 119244.000000
6745 16072 1 0.16500 119244.000000
6746 13556 1 0.16500 119244.000000
6746 18839 1 0.16500 119244.000000
6747 13556 1 0.16500 119244.000000
6747 13756 1 0.16500 119244.000000
6748 13557 1 0.16500 119244.000000
6748 16702 1 0.16500 119244.000000
6749 13557 1 0.16500 119244.000000
6749 13724 1 0.16500 119244.000000
6750 13557 1 0.16500 119244.000000
6750 14051 1 0.16500 119244.000000
6751 13557 1 0.16500 119244.000000
6751 16893 1 0.16500 119244.000000
6752 13558 1 0.16500 119244.000000
6752 17003 1 0.16500 119244.000000
6753 13558 1 0.16500 119244.000000
6753 14009 1 0.16500 119244.000000
6754 13558 1 0.16500 119244.000000
6754 13809 1 0.16500 119244.000000
6755 13558 1 0.16500 119244.000000
6755 13930 1 0.16500 119244.000000
6756 13559 1 0.16500 119244.000000
6756 14978 1 0.16500 119244.000000
6757 13559 1 0.16500 119244.000000
6757 14805 1 0.16500 119244.000000
6758 13560 1 0.16500 119244.000000
6758 15700 1 0.16500 119244.000000
6759 13561 1 0.16500 119244.000000
6759 14389 1 0.16500 119244.000000
6760 13561 1 0.16500 119244.000000
6760 16207 1 0.16500 119244.000000
6761 13561 1 0.16500 119244.000000
6761 13909 1 0.16500 119244.000000
6762 13806 1 0.16500 119244.000000
6762 15805 1 0.16500 119244.000000
6763 15783 1 0.16500 119244.000000
6763 15805 1 0.16500 119244.000000
6764 13562 1 0.16500 119244.000000
6764 16963 1 0.16500 119244.000000
6765 13847 1 0.16500 119244.000000
6765 15615 1 0.16500 119244.000000
6766 13563 1 0.16500 119244.000000
6766 16635 1 0.16500 119244.000000
6767 13563 1 0.16500 119244.000000
6767 15615 1 0.16500 119244.000000
6768 12508 1 0.16500 119244.000000
6768 13564 1 0.16500 119244.000000
6769 13564 1 0.16500 119244.000000
6769 14360 1 0.16500 119244.000000
6770 13564 1 0.16500 119244.000000
6770 14723 1 0.16500 119244.000000
6771 13565 1 0.16500 119244.000000
6771 15708 1 0.16500 119244.000000
6772 13565 1 0.16500 119244.000000
6772 16125 1 0.16500 119244.000000
6773 13565 1 0.16500 119244.000000
6773 15783 1 0.16500 119244.000000
6774 13566 1 0.16500 119244.000000
6774 14631 1 0.16500 119244.000000
6775 13566 1 0.16500 119244.000000
6775 16702 1 0.16500 119244.000000
6776 13566 1 0.16500 119244.000000
6776 16768 1 0.16500 119244.000000
6777 13567 1 0.16500 119244.000000
6777 14717 1 0.16500 119244.000000
6778 13426 1 0.16500 119244.000000
6778 16839 1 0.16500 119244.000000
6779 13567 1 0.16500 119244.000000
6779 14816 1 0.16500 119244.000000
6780 14490 1 0.16500 119244.000000
6780 16144 1 0.16500 119244.000000
6781 13568 1 0.16500 119244.000000
6781 14490 1 0.16500 119244.000000
6782 13568 1 0.16500 119244.000000
6782 16677 1 0.16500 119244.000000
6783 13570 1 0.16500 119244.000000
6783 16224 1 0.16500 119244.000000
6784 13570 1 0.16500 119244.000000
6784 16246 1 0.16500 119244.000000
6785 12224 1 0.16500 119244.000000
6785 16005 1 0.16500 119244.000000
6786 13571 1 0.16500 119244.000000
6786 15118 1 0.16500 119244.000000
6787 16005 1 0.16500 119244.000000
6787 17017 1 0.16500 119244.000000
6788 13572 1 0.16500 119244.000000
6788 14057 1 0.16500 119244.000000
6789 13572 1 0.16500 119244.000000
6789 13989 1 0.16500 119244.000000
6790 13572 1 0.16500 119244.000000
6790 14953 1 0.16500 119244.000000
6791 13573 1 0.16500 119244.000000
6791 13822 1 0.16500 119244.000000
6792 13573 1 0.16500 119244.000000
6792 15494 1 0.16500 119244.000000
6793 13573 1 0.16500 119244.000000
6793 14627 1 0.16500 119244.000000
6794 12536 1 0.16500 119244.000000
6794 15088 1 0.16500 119244.000000
6795 13574 1 0.16500 119244.000000
6795 16150 1 0.16500 119244.000000
6796 13575 1 0.16500 119244.000000
6796 16882 1 0.16500 119244.000000
6797 13575 1 0.16500 119244.000000
6797 14719 1 0.16500 119244.000000
6798 13576 1 0.16500 119244.000000
6798 15143 1 0.16500 119244.000000
6799 13576 1 0.16500 119244.000000
6799 16406 1 0.16500 119244.000000
6800 13576 1 0.16500 119244.000000
6800 14085 1 0.16500 119244.000000
6801 13577 1 0.16500 119244.000000
6801 16689 1 0.16500 119244.000000
6802 13577 1 0.16500 119244.000000
6802 13596 1 0.16500 119244.000000
6803 13577 1 0.16500 119244.000000
6803 16279 1 0.16500 119244.000000
6804 13578 1 0.16500 119244.000000
6804 16855 1 0.16500 119244.000000
6805 13578 1 0.16500 119244.000000
6805 16710 1 0.16500 119244.000000
6806 13578 1 0.16500 119244.000000
6806 15899 1 0.16500 119244.000000
6807 13579 1 0.16500 119244.000000
6807 16036 1 0.16500 119244.000000
6808 13579 1 0.16500 119244.000000
6808 14161 1 0.16500 119244.000000
6809 13579 1 0.16500 119244.000000
6809 16964 1 0.16500 119244.000000
6810 13047 1 0.16500 119244.000000
6810 13701 1 0.16500 119244.000000
6811 13581 1 0.16500 119244.000000
6811 16736 1 0.16500 119244.000000
6812 13582 1 0.16500 119244.000000
6812 16277 1 0.16500 119244.000000
6813 13583 1 0.16500 119244.000000
6813 14818 1 0.16500 119244.000000
6814 13583 1 0.16500 119244.000000
6814 15519 1 0.16500 119244.000000
6815 12916 1 0.16500 119244.000000
6815 13584 1 0.16500 119244.000000
6816 13584 1 0.16500 119244.000000
6816 15927 1 0.16500 119244.000000
6817 13585 1 0.16500 119244.000000
6817 15445 1 0.16500 119244.000000
6818 13585 1 0.16500 119244.000000
6818 15863 1 0.16500 119244.000000
6819 13586 1 0.16500 119244.000000
6819 15241 1 0.16500 119244.000000
6820 13223 1 0.16500 119244.000000
6820 13586 1 0.16500 119244.000000
6821 13586 1 0.16500 119244.000000
6821 16666 1 0.16500 119244.000000
6822 13486 1 0.16500 119244.000000
6822 13586 1 0.16500 119244.000000
6823 13587 1 0.16500 119244.000000
6823 16705 1 0.16500 119244.000000
6824 13587 1 0.16500 119244.000000
6824 16551 1 0.16500 119244.000000
6825 13589 1 0.16500 119244.000000
6825 14923 1 0.16500 119244.000000
6826 13589 1 0.16500 119244.000000
6826 16060 1 0.16500 119244.000000
6827 13589 1 0.16500 119244.000000
6827 17427 1 0.16500 119244.000000
6828 13590 1 0.16500 119244.000000
6828 16360 1 0.16500 119244.000000
6829 13590 1 0.16500 119244.000000
6829 16891 1 0.16500 119244.000000
6830 13590 1 0.16500 119244.000000
6830 15831 1 0.16500 119244.000000
6831 13591 1 0.16500 119244.000000
6831 13634 1 0.16500 119244.000000
6832 13591 1 0.16500 119244.000000
6832 14404 1 0.16500 119244.000000
6833 13592 1 0.16500 119244.000000
6833 16157 1 0.16500 119244.000000
6834 13592 1 0.16500 119244.000000
6834 14272 1 0.16500 119244.000000
6835 13593 1 0.16500 119244.000000
6835 16031 1 0.16500 119244.000000
6836 14544 1 0.16500 119244.000000
6836 14889 1 0.16500 119244.000000
6837 13593 1 0.16500 119244.000000
6837 14889 1 0.16500 119244.000000
6838 13594 1 0.16500 119244.000000
6838 16967 1 0.16500 119244.000000
6839 13594 1 0.16500 119244.000000
6839 15038 1 0.16500 119244.000000
6840 13595 1 0.16500 119244.000000
6840 15231 1 0.16500 119244.000000
6841 13596 1 0.16500 119244.000000
6841 15176 1 0.16500 119244.000000
6842 13596 1 0.16500 119244.000000
6842 15161 1 0.16500 119244.000000
6843 13597 1 0.16500 119244.000000
6843 18923 1 0.16500 119244.000000
6844 13597 1 0.16500 119244.000000
6844 13895 1 0.16500 119244.000000
6845 13598 1 0.16500 119244.000000
6845 15175 1 0.16500 119244.000000
6846 13598 1 0.16500 119244.000000
6846 14811 1 0.16500 119244.000000
6847 13598 1 0.16500 119244.000000
6847 15995 1 0.16500 119244.000000
6848 13598 1 0.16500 119244.000000
6848 16450 1 0.16500 119244.000000
6849 13599 1 0.16500 119244.000000
6849 15854 1 0.16500 119244.000000
6850 13599 1 0.16500 119244.000000
6850 15303 1 0.16500 119244.000000
6851 13599 1 0.16500 119244.000000
6851 14034 1 0.16500 119244.000000
6852 11745 1 0.16500 119244.000000
6852 13600 1 0.16500 119244.000000
6853 12148 1 0.16500 119244.000000
6853 13600 1 0.16500 119244.000000
6854 13601 1 0.16500 119244.000000
6854 15803 1 0.16500 119244.000000
6855 13601 1 0.16500 119244.000000
6855 16132 1 0.16500 119244.000000
6856 13602 1 0.16500 119244.000000
6856 16151 1 0.16500 119244.000000
6857 13602 1 0.16500 119244.000000
6857 14744 1 0.16500 119244.000000
6858 13602 1 0.16500 119244.000000
6858 15742 1 0.16500 119244.000000
6859 13602 1 0.16500 119244.000000
6859 16025 1 0.16500 119244.000000
6860 13603 1 0.16500 119244.000000
6860 16084 1 0.16500 119244.000000
6861 12603 1 0.16500 119244.000000
6861 16786 1 0.16500 119244.000000
6862 13603 1 0.16500 119244.000000
6862 14929 1 0.16500 119244.000000
6863 13604 1 0.16500 119244.000000
6863 16586 1 0.16500 119244.000000
6864 13605 1 0.16500 119244.000000
6864 16331 1 0.16500 119244.000000
6865 13605 1 0.16500 119244.000000
6865 15406 1 0.16500 119244.000000
6866 13605 1 0.16500 119244.000000
6866 16709 1 0.16500 119244.000000
6867 14443 1 0.16500 119244.000000
6867 16915 1 0.16500 119244.000000
6868 13606 1 0.16500 119244.000000
6868 15142 1 0.16500 119244.000000
6869 13606 1 0.16500 119244.000000
6869 14443 1 0.16500 119244.000000
6870 13607 1 0.16500 119244.000000
6870 15291 1 0.16500 119244.000000
6871 13607 1 0.16500 119244.000000
6871 15071 1 0.16500 119244.000000
6872 13608 1 0.16500 119244.000000
6872 16240 1 0.16500 119244.000000
6873 13608 1 0.16500 119244.000000
6873 15039 1 0.16500 119244.000000
6874 13608 1 0.16500 119244.000000
6874 16538 1 0.16500 119244.000000
6875 13609 1 0.16500 119244.000000
6875 14629 1 0.16500 119244.000000
6876 13609 1 0.16500 119244.000000
6876 14378 1 0.16500 119244.000000
6877 13609 1 0.16500 119244.000000
6877 16344 1 0.16500 119244.000000
6878 13610 1 0.16500 119244.000000
6878 15245 1 0.16500 119244.000000
6879 13610 1 0.16500 119244.000000
6879 16040 1 0.16500 119244.000000
6880 13611 1 0.16500 119244.000000
6880 16925 1 0.16500 119244.000000
6881 13611 1 0.16500 119244.000000
6881 15278 1 0.16500 119244.000000
6882 13611 1 0.16500 119244.000000
6882 14200 1 0.16500 119244.000000
6883 12264 1 0.16500 119244.000000
6883 13612 1 0.16500 119244.000000
6884 13612 1 0.16500 119244.000000
6884 14592 1 0.16500 119244.000000
6885 13613 1 0.16500 119244.000000
6885 16126 1 0.16500 119244.000000
6886 13613 1 0.16500 119244.000000
6886 16692 1 0.16500 119244.000000
6887 13614 1 0.16500 119244.000000
6887 14189 1 0.16500 119244.000000
6888 13615 1 0.16500 119244.000000
6888 13977 1 0.16500 119244.000000
6889 13616 1 0.16500 119244.000000
6889 18806 1 0.16500 119244.000000
6890 13616 1 0.16500 119244.000000
6890 14154 1 0.16500 119244.000000
6891 13617 1 0.16500 119244.000000
6891 16217 1 0.16500 119244.000000
6892 13617 1 0.16500 119244.000000
6892 18854 1 0.16500 119244.000000
6893 13618 1 0.16500 119244.000000
6893 14463 1 0.16500 119244.000000
6894 13618 1 0.16500 119244.000000
6894 15066 1 0.16500 119244.000000
6895 13619 1 0.16500 119244.000000
6895 14938 1 0.16500 119244.000000
6896 13619 1 0.16500 119244.000000
6896 15669 1 0.16500 119244.000000
6897 15669 1 0.16500 119244.000000
6897 15883 1 0.16500 119244.000000
6898 13619 1 0.16500 119244.000000
6898 15927 1 0.16500 119244.000000
6899 13620 1 0.16500 119244.000000
6899 18728 1 0.16500 119244.000000
6900 13620 1 0.16500 119244.000000
6900 16035 1 0.16500 119244.000000
6901 15972 1 0.16500 119244.000000
6901 18602 1 0.16500 119244.000000
6902 13621 1 0.16500 119244.000000
6902 15073 1 0.16500 119244.000000
6903 13621 1 0.16500 119244.000000
6903 14340 1 0.16500 119244.000000
6904 13621 1 0.16500 119244.000000
6904 15421 1 0.16500 119244.000000
6905 13622 1 0.16500 119244.000000
6905 14095 1 0.16500 119244.000000
6906 13623 1 0.16500 119244.000000
6906 13798 1 0.16500 119244.000000
6907 13623 1 0.16500 119244.000000
6907 16176 1 0.16500 119244.000000
6908 13623 1 0.16500 119244.000000
6908 16080 1 0.16500 119244.000000
6909 13623 1 0.16500 119244.000000
6909 15836 1 0.16500 119244.000000
6910 13624 1 0.16500 119244.000000
6910 14435 1 0.16500 119244.000000
6911 13625 1 0.16500 119244.000000
6911 15414 1 0.16500 119244.000000
6912 13625 1 0.16500 119244.000000
6912 13849 1 0.16500 119244.000000
6913 13626 1 0.16500 119244.000000
6913 18974 1 0.16500 119244.000000
6914 13626 1 0.16500 119244.000000
6914 15133 1 0.16500 119244.000000
6915 13626 1 0.16500 119244.000000
6915 16883 1 0.16500 119244.000000
6916 13627 1 0.16500 119244.000000
6916 13847 1 0.16500 119244.000000
6917 13627 1 0.16500 119244.000000
6917 14943 1 0.16500 119244.000000
6918 13628 1 0.16500 119244.000000
6918 14632 1 0.16500 119244.000000
6919 13628 1 0.16500 119244.000000
6919 15369 1 0.16500 119244.000000
6920 13628 1 0.16500 119244.000000
6920 15484 1 0.16500 119244.000000
6921 16759 1 0.16500 119244.000000
6921 17133 1 0.16500 119244.000000
6922 13629 1 0.16500 119244.000000
6922 14167 1 0.16500 119244.000000
6923 13629 1 0.16500 119244.000000
6923 14722 1 0.16500 119244.000000
6924 14722 1 0.16500 119244.000000
6924 18734 1 0.16500 119244.000000
6925 13630 1 0.16500 119244.000000
6925 13856 1 0.16500 119244.000000
6926 15269 1 0.16500 119244.000000
6926 18605 1 0.16500 119244.000000
6927 13631 1 0.16500 119244.000000
6927 15446 1 0.16500 119244.000000
6928 13631 1 0.16500 119244.000000
6928 15465 1 0.16500 119244.000000
6929 13631 1 0.16500 119244.000000
6929 15695 1 0.16500 119244.000000
6930 13632 1 0.16500 119244.000000
6930 14257 1 0.16500 119244.000000
6931 13633 1 0.16500 119244.000000
6931 16616 1 0.16500 119244.000000
6932 13633 1 0.16500 119244.000000
6932 18737 1 0.16500 119244.000000
6933 13634 1 0.16500 119244.000000
6933 14377 1 0.16500 119244.000000
6934 13634 1 0.16500 119244.000000
6934 15824 1 0.16500 119244.000000
6935 13635 1 0.16500 119244.000000
6935 14418 1 0.16500 119244.000000
6936 13635 1 0.16500 119244.000000
6936 15417 1 0.16500 119244.000000
6937 13635 1 0.16500 119244.000000
6937 15779 1 0.16500 119244.000000
6938 13636 1 0.16500 119244.000000
6938 15782 1 0.16500 119244.000000
6939 13636 1 0.16500 119244.000000
6939 16227 1 0.16500 119244.000000
6940 13636 1 0.16500 119244.000000
6940 14315 1 0.16500 119244.000000
6941 13637 1 0.16500 119244.000000
6941 16102 1 0.16500 119244.000000
6942 13637 1 0.16500 119244.000000
6942 16044 1 0.16500 119244.000000
6943 13637 1 0.16500 119244.000000
6943 13930 1 0.16500 119244.000000
6944 13638 1 0.16500 119244.000000
6944 16416 1 0.16500 119244.000000
6945 13638 1 0.16500 119244.000000
6945 15110 1 0.16500 119244.000000
6946 13639 1 0.16500 119244.000000
6946 14457 1 0.16500 119244.000000
6947 13639 1 0.16500 119244.000000
6947 16340 1 0.16500 119244.000000
6948 14761 1 0.16500 119244.000000
6948 15259 1 0.16500 119244.000000
6949 15259 1 0.16500 119244.000000
6949 15447 1 0.16500 119244.000000
6950 13640 1 0.16500 119244.000000
6950 15259 1 0.16500 119244.000000
6951 13641 1 0.16500 119244.000000
6951 15997 1 0.16500 119244.000000
6952 13641 1 0.16500 119244.000000
6952 13894 1 0.16500 119244.000000
6953 13641 1 0.16500 119244.000000
6953 16085 1 0.16500 119244.000000
6954 13641 1 0.16500 119244.000000
6954 15996 1 0.16500 119244.000000
6955 13642 1 0.16500 119244.000000
6955 16851 1 0.16500 119244.000000
6956 13642 1 0.16500 119244.000000
6956 15158 1 0.16500 119244.000000
6957 13642 1 0.16500 119244.000000
6957 13995 1 0.16500 119244.000000
6958 13643 1 0.16500 119244.000000
6958 16390 1 0.16500 119244.000000
6959 12654 1 0.16500 119244.000000
6959 16999 1 0.16500 119244.000000
6960 13644 1 0.16500 119244.000000
6960 14613 1 0.16500 119244.000000
6961 13616 1 0.16500 119244.000000
6961 13645 1 0.16500 119244.000000
6962 13646 1 0.16500 119244.000000
6962 15073 1 0.16500 119244.000000
6963 13646 1 0.16500 119244.000000
6963 13980 1 0.16500 119244.000000
6964 13980 1 0.16500 119244.000000
6964 14810 1 0.16500 119244.000000
6965 13891 1 0.16500 119244.000000
6965 15562 1 0.16500 119244.000000
6966 13647 1 0.16500 119244.000000
6966 15351 1 0.16500 119244.000000
6967 13647 1 0.16500 119244.000000
6967 15562 1 0.16500 119244.000000
6968 13648 1 0.16500 119244.000000
6968 15200 1 0.16500 119244.000000
6969 15200 1 0.16500 119244.000000
6969 15684 1 0.16500 119244.000000
6970 13649 1 0.16500 119244.000000
6970 15145 1 0.16500 119244.000000
6971 12541 1 0.16500 119244.000000
6971 13883 1 0.16500 119244.000000
6972 13650 1 0.16500 119244.000000
6972 14804 1 0.16500 119244.000000
6973 13650 1 0.16500 119244.000000
6973 14593 1 0.16500 119244.000000
6974 13650 1 0.16500 119244.000000
6974 16323 1 0.16500 119244.000000
6975 13651 1 0.16500 119244.000000
6975 15659 1 0.16500 119244.000000
6976 13651 1 0.16500 119244.000000
6976 14932 1 0.16500 119244.000000
6977 13651 1 0.16500 119244.000000
6977 13888 1 0.16500 119244.000000
6978 15044 1 0.16500 119244.000000
6978 18608 1 0.16500 119244.000000
6979 13652 1 0.16500 119244.000000
6979 16389 1 0.16500 119244.000000
6980 13652 1 0.16500 119244.000000
6980 14803 1 0.16500 119244.000000
6981 13652 1 0.16500 119244.000000
6981 15780 1 0.16500 119244.000000
6982 13654 1 0.16500 119244.000000
6982 15368 1 0.16500 119244.000000
6983 13654 1 0.16500 119244.000000
6983 15605 1 0.16500 119244.000000
6984 13655 1 0.16500 119244.000000
6984 14853 1 0.16500 119244.000000
6985 13655 1 0.16500 119244.000000
6985 15632 1 0.16500 119244.000000
6986 13655 1 0.16500 119244.000000
6986 14004 1 0.16500 119244.000000
6987 13656 1 0.16500 119244.000000
6987 16415 1 0.16500 119244.000000
6988 13656 1 0.16500 119244.000000
6988 15809 1 0.16500 119244.000000
6989 13657 1 0.16500 119244.000000
6989 13889 1 0.16500 119244.000000
6990 13657 1 0.16500 119244.000000
6990 15361 1 0.16500 119244.000000
6991 13658 1 0.16500 119244.000000
6991 15967 1 0.16500 119244.000000
6992 13658 1 0.16500 119244.000000
6992 16643 1 0.16500 119244.000000
6993 13659 1 0.16500 119244.000000
6993 16480 1 0.16500 119244.000000
6994 13659 1 0.16500 119244.000000
6994 16743 1 0.16500 119244.000000
6995 13660 1 0.16500 119244.000000
6995 14195 1 0.16500 119244.000000
6996 13660 1 0.16500 119244.000000
6996 14807 1 0.16500 119244.000000
6997 13661 1 0.16500 119244.000000
6997 18968 1 0.16500 119244.000000
6998 13662 1 0.16500 119244.000000
6998 14318 1 0.16500 119244.000000
6999 13662 1 0.16500 119244.000000
6999 13909 1 0.16500 119244.000000
7000 13663 1 0.16500 119244.000000
7000 16139 1 0.16500 119244.000000
7001 14127 1 0.16500 119244.000000
7001 18611 1 0.16500 119244.000000
7002 11717 1 0.16500 119244.000000
7002 13664 1 0.16500 119244.000000
7003 13665 1 0.16500 119244.000000
7003 16089 1 0.16500 119244.000000
7004 13665 1 0.16500 119244.000000
7004 16608 1 0.16500 119244.000000
7005 13665 1 0.16500 119244.000000
7005 15820 1 0.16500 119244.000000
7006 13666 1 0.16500 119244.000000
7006 15858 1 0.16500 119244.000000
7007 13667 1 0.16500 119244.000000
7007 15491 1 0.16500 119244.000000
7008 13667 1 0.16500 119244.000000
7008 16778 1 0.16500 119244.000000
7009 13667 1 0.16500 119244.000000
7009 15056 1 0.16500 119244.000000
7010 13668 1 0.16500 119244.000000
7010 14665 1 0.16500 119244.000000
7011 13668 1 0.16500 119244.000000
7011 16040 1 0.16500 119244.000000
7012 13668 1 0.16500 119244.000000
7012 15263 1 0.16500 119244.000000
7013 13669 1 0.16500 119244.000000
7013 15401 1 0.16500 119244.000000
7014 13669 1 0.16500 119244.000000
7014 14683 1 0.16500 119244.000000
7015 13669 1 0.16500 119244.000000
7015 16476 1 0.16500 119244.000000
7016 13669 1 0.16500 119244.000000
7016 16015 1 0.16500 119244.000000
7017 13670 1 0.16500 119244.000000
7017 15991 1 0.16500 119244.000000
7018 13670 1 0.16500 119244.000000
7018 16816 1 0.16500 119244.000000
7019 13671 1 0.16500 119244.000000
7019 14972 1 0.16500 119244.000000
7020 13671 1 0.16500 119244.000000
7020 17287 1 0.16500 119244.000000
7021 13672 1 0.16500 119244.000000
7021 16352 1 0.16500 119244.000000
7022 13672 1 0.16500 119244.000000
7022 13822 1 0.16500 119244.000000
7023 13672 1 0.16500 119244.000000
7023 16824 1 0.16500 119244.000000
7024 13673 1 0.16500 119244.000000
7024 16119 1 0.16500 119244.000000
7025 13673 1 0.16500 119244.000000
7025 14435 1 0.16500 119244.000000
7026 13673 1 0.16500 119244.000000
7026 15959 1 0.16500 119244.000000
7027 13673 1 0.16500 119244.000000
7027 16286 1 0.16500 119244.000000
7028 13674 1 0.16500 119244.000000
7028 14189 1 0.16500 119244.000000
7029 13674 1 0.16500 119244.000000
7029 15396 1 0.16500 119244.000000
7030 13674 1 0.16500 119244.000000
7030 16768 1 0.16500 119244.000000
7031 13674 1 0.16500 119244.000000
7031 13724 1 0.16500 119244.000000
7032 13675 1 0.16500 119244.000000
7032 16180 1 0.16500 119244.000000
7033 13675 1 0.16500 119244.000000
7033 16333 1 0.16500 119244.000000
7034 13675 1 0.16500 119244.000000
7034 14793 1 0.16500 119244.000000
7035 13676 1 0.16500 119244.000000
7035 14406 1 0.16500 119244.000000
7036 13676 1 0.16500 119244.000000
7036 15598 1 0.16500 119244.000000
7037 13676 1 0.16500 119244.000000
7037 19076 1 0.16500 119244.000000
7038 13678 1 0.16500 119244.000000
7038 16591 1 0.16500 119244.000000
7039 13678 1 0.16500 119244.000000
7039 15521 1 0.16500 119244.000000
7040 13678 1 0.16500 119244.000000
7040 14731 1 0.16500 119244.000000
7041 13678 1 0.16500 119244.000000
7041 16658 1 0.16500 119244.000000
7042 13679 1 0.16500 119244.000000
7042 15715 1 0.16500 119244.000000
7043 13679 1 0.16500 119244.000000
7043 15591 1 0.16500 119244.000000
7044 13680 1 0.16500 119244.000000
7044 14747 1 0.16500 119244.000000
7045 13680 1 0.16500 119244.000000
7045 14610 1 0.16500 119244.000000
7046 13680 1 0.16500 119244.000000
7046 15614 1 0.16500 119244.000000
7047 13681 1 0.16500 119244.000000
7047 16411 1 0.16500 119244.000000
7048 13681 1 0.16500 119244.000000
7048 14094 1 0.16500 119244.000000
7049 13681 1 0.16500 119244.000000
7049 14588 1 0.16500 119244.000000
7050 13681 1 0.16500 119244.000000
7050 15151 1 0.16500 119244.000000
7051 13682 1 0.16500 119244.000000
7051 15372 1 0.16500 119244.000000
7052 13683 1 0.16500 119244.000000
7052 16452 1 0.16500 119244.000000
7053 13684 1 0.16500 119244.000000
7053 14540 1 0.16500 119244.000000
7054 13684 1 0.16500 119244.000000
7054 13966 1 0.16500 119244.000000
7055 13685 1 0.16500 119244.000000
7055 16942 1 0.16500 119244.000000
7056 13686 1 0.16500 119244.000000
7056 16964 1 0.16500 119244.000000
7057 13686 1 0.16500 119244.000000
7057 14562 1 0.16500 119244.000000
7058 13687 1 0.16500 119244.000000
7058 14313 1 0.16500 119244.000000
7059 13687 1 0.16500 119244.000000
7059 14533 1 0.16500 119244.000000
7060 13687 1 0.16500 119244.000000
7060 16468 1 0.16500 119244.000000
7061 13688 1 0.16500 119244.000000
7061 14628 1 0.16500 119244.000000
7062 13688 1 0.16500 119244.000000
7062 15583 1 0.16500 119244.000000
7063 14628 1 0.16500 119244.000000
7063 16098 1 0.16500 119244.000000
7064 13688 1 0.16500 119244.000000
7064 14512 1 0.16500 119244.000000
7065 13689 1 0.16500 119244.000000
7065 15838 1 0.16500 119244.000000
7066 13689 1 0.16500 119244.000000
7066 17161 1 0.16500 119244.000000
7067 13690 1 0.16500 119244.000000
7067 14823 1 0.16500 119244.000000
7068 13690 1 0.16500 119244.000000
7068 16141 1 0.16500 119244.000000
7069 13690 1 0.16500 119244.000000
7069 15351 1 0.16500 119244.000000
7070 13690 1 0.16500 119244.000000
7070 14623 1 0.16500 119244.000000
7071 13691 1 0.16500 119244.000000
7071 16225 1 0.16500 119244.000000
7072 13691 1 0.16500 119244.000000
7072 16771 1 0.16500 119244.000000
7073 13691 1 0.16500 119244.000000
7073 19165 1 0.16500 119244.000000
7074 13692 1 0.16500 119244.000000
7074 15335 1 0.16500 119244.000000
7075 13692 1 0.16500 119244.000000
7075 14353 1 0.16500 119244.000000
7076 13692 1 0.16500 119244.000000
7076 16119 1 0.16500 119244.000000
7077 13693 1 0.16500 119244.000000
7077 15179 1 0.16500 119244.000000
7078 13693 1 0.16500 119244.000000
7078 15786 1 0.16500 119244.000000
7079 13694 1 0.16500 119244.000000
7079 16322 1 0.16500 119244.000000
7080 13694 1 0.16500 119244.000000
7080 14918 1 0.16500 119244.000000
7081 13694 1 0.16500 119244.000000
7081 15667 1 0.16500 119244.000000
7082 14918 1 0.16500 119244.000000
7082 16523 1 0.16500 119244.000000
7083 13695 1 0.16500 119244.000000
7083 14871 1 0.16500 119244.000000
7084 13695 1 0.16500 119244.000000
7084 13860 1 0.16500 119244.000000
7085 12596 1 0.16500 119244.000000
7085 13696 1 0.16500 119244.000000
7086 13696 1 0.16500 119244.000000
7086 15209 1 0.16500 119244.000000
7087 13697 1 0.16500 119244.000000
7087 14914 1 0.16500 119244.000000
7088 13697 1 0.16500 119244.000000
7088 14448 1 0.16500 119244.000000
7089 13697 1 0.16500 119244.000000
7089 14742 1 0.16500 119244.000000
7090 13698 1 0.16500 119244.000000
7090 16407 1 0.16500 119244.000000
7091 13819 1 0.16500 119244.000000
7091 16454 1 0.16500 119244.000000
7092 13698 1 0.16500 119244.000000
7092 16454 1 0.16500 119244.000000
7093 13698 1 0.16500 119244.000000
7093 13840 1 0.16500 119244.000000
7094 13699 1 0.16500 119244.000000
7094 18950 1 0.16500 119244.000000
7095 13700 1 0.16500 119244.000000
7095 16563 1 0.16500 119244.000000
7096 13700 1 0.16500 119244.000000
7096 16186 1 0.16500 119244.000000
7097 13700 1 0.16500 119244.000000
7097 16718 1 0.16500 119244.000000
7098 14923 1 0.16500 119244.000000
7098 18614 1 0.16500 119244.000000
7099 13701 1 0.16500 119244.000000
7099 14030 1 0.16500 119244.000000
7100 13701 1 0.16500 119244.000000
7100 14917 1 0.16500 119244.000000
7101 13702 1 0.16500 119244.000000
7101 15224 1 0.16500 119244.000000
7102 13702 1 0.16500 119244.000000
7102 14986 1 0.16500 119244.000000
7103 13703 1 0.16500 119244.000000
7103 14021 1 0.16500 119244.000000
7104 13703 1 0.16500 119244.000000
7104 14442 1 0.16500 119244.000000
7105 13704 1 0.16500 119244.000000
7105 16677 1 0.16500 119244.000000
7106 13704 1 0.16500 119244.000000
7106 14721 1 0.16500 119244.000000
7107 13704 1 0.16500 119244.000000
7107 15573 1 0.16500 119244.000000
7108 13705 1 0.16500 119244.000000
7108 16460 1 0.16500 119244.000000
7109 13705 1 0.16500 119244.000000
7109 15258 1 0.16500 119244.000000
7110 13705 1 0.16500 119244.000000
7110 15438 1 0.16500 119244.000000
7111 13705 1 0.16500 119244.000000
7111 16582 1 0.16500 119244.000000
7112 13706 1 0.16500 119244.000000
7112 16989 1 0.16500 119244.000000
7113 13706 1 0.16500 119244.000000
7113 18986 1 0.16500 119244.000000
7114 13706 1 0.16500 119244.000000
7114 18839 1 0.16500 119244.000000
7115 13707 1 0.16500 119244.000000
7115 15530 1 0.16500 119244.000000
7116 13707 1 0.16500 119244.000000
7116 16263 1 0.16500 119244.000000
7117 13707 1 0.16500 119244.000000
7117 15814 1 0.16500 119244.000000
7118 13708 1 0.16500 119244.000000
7118 15007 1 0.16500 119244.000000
7119 13708 1 0.16500 119244.000000
7119 15503 1 0.16500 119244.000000
7120 13708 1 0.16500 119244.000000
7120 15293 1 0.16500 119244.000000
7121 13709 1 0.16500 119244.000000
7121 16089 1 0.16500 119244.000000
7122 13709 1 0.16500 119244.000000
7122 14214 1 0.16500 119244.000000
7123 13709 1 0.16500 119244.000000
7123 13746 1 0.16500 119244.000000
7124 13710 1 0.16500 119244.000000
7124 14974 1 0.16500 119244.000000
7125 13710 1 0.16500 119244.000000
7125 16282 1 0.16500 119244.000000
7126 14974 1 0.16500 119244.000000
7126 15004 1 0.16500 119244.000000
7127 13711 1 0.16500 119244.000000
7127 18980 1 0.16500 119244.000000
7128 13711 1 0.16500 119244.000000
7128 13905 1 0.16500 119244.000000
7129 13711 1 0.16500 119244.000000
7129 13789 1 0.16500 119244.000000
7130 13711 1 0.16500 119244.000000
7130 16511 1 0.16500 119244.000000
7131 13712 1 0.16500 119244.000000
7131 16296 1 0.16500 119244.000000
7132 15096 1 0.16500 119244.000000
7132 16296 1 0.16500 119244.000000
7133 13714 1 0.16500 119244.000000
7133 15032 1 0.16500 119244.000000
7134 13714 1 0.16500 119244.000000
7134 16854 1 0.16500 119244.000000
7135 13715 1 0.16500 119244.000000
7135 13913 1 0.16500 119244.000000
7136 13715 1 0.16500 119244.000000
7136 14058 1 0.16500 119244.000000
7137 13715 1 0.16500 119244.000000
7137 15743 1 0.16500 119244.000000
7138 13716 1 0.16500 119244.000000
7138 15176 1 0.16500 119244.000000
7139 13716 1 0.16500 119244.000000
7139 15011 1 0.16500 119244.000000
7140 13716 1 0.16500 119244.000000
7140 16422 1 0.16500 119244.000000
7141 18617 1 0.16500 119244.000000
7141 18896 1 0.16500 119244.000000
7142 14671 1 0.16500 119244.000000
7142 18617 1 0.16500 119244.000000
7143 13717 1 0.16500 119244.000000
7143 13871 1 0.16500 119244.000000
7144 13057 1 0.16500 119244.000000
7144 14703 1 0.16500 119244.000000
7145 13717 1 0.16500 119244.000000
7145 15408 1 0.16500 119244.000000
7146 13718 1 0.16500 119244.000000
7146 15011 1 0.16500 119244.000000
7147 13718 1 0.16500 119244.000000
7147 16264 1 0.16500 119244.000000
7148 13718 1 0.16500 119244.000000
7148 16394 1 0.16500 119244.000000
7149 13719 1 0.16500 119244.000000
7149 15287 1 0.16500 119244.000000
7150 13719 1 0.16500 119244.000000
7150 16857 1 0.16500 119244.000000
7151 13719 1 0.16500 119244.000000
7151 13787 1 0.16500 119244.000000
7152 13720 1 0.16500 119244.000000
7152 15436 1 0.16500 119244.000000
7153 13721 1 0.16500 119244.000000
7153 14282 1 0.16500 119244.000000
7154 13721 1 0.16500 119244.000000
7154 16775 1 0.16500 119244.000000
7155 13722 1 0.16500 119244.000000
7155 16450 1 0.16500 119244.000000
7156 13722 1 0.16500 119244.000000
7156 15599 1 0.16500 119244.000000
7157 13722 1 0.16500 119244.000000
7157 16123 1 0.16500 119244.000000
7158 13723 1 0.16500 119244.000000
7158 14783 1 0.16500 119244.000000
7159 13723 1 0.16500 119244.000000
7159 14498 1 0.16500 119244.000000
7160 13723 1 0.16500 119244.000000
7160 16412 1 0.16500 119244.000000
7161 13723 1 0.16500 119244.000000
7161 15642 1 0.16500 119244.000000
7162 13724 1 0.16500 119244.000000
7162 14036 1 0.16500 119244.000000
7163 13724 1 0.16500 119244.000000
7163 16406 1 0.16500 119244.000000
7164 13725 1 0.16500 119244.000000
7164 16323 1 0.16500 119244.000000
7165 13725 1 0.16500 119244.000000
7165 14767 1 0.16500 119244.000000
7166 13725 1 0.16500 119244.000000
7166 14690 1 0.16500 119244.000000
7167 13726 1 0.16500 119244.000000
7167 15249 1 0.16500 119244.000000
7168 14933 1 0.16500 119244.000000
7168 17627 1 0.16500 119244.000000
7169 14000 1 0.16500 119244.000000
7169 17627 1 0.16500 119244.000000
7170 15662 1 0.16500 119244.000000
7170 17627 1 0.16500 119244.000000
7171 13727 1 0.16500 119244.000000
7171 15841 1 0.16500 119244.000000
7172 13728 1 0.16500 119244.000000
7172 15804 1 0.16500 119244.000000
7173 13728 1 0.16500 119244.000000
7173 14028 1 0.16500 119244.000000
7174 13728 1 0.16500 119244.000000
7174 16201 1 0.16500 119244.000000
7175 13729 1 0.16500 119244.000000
7175 16898 1 0.16500 119244.000000
7176 13729 1 0.16500 119244.000000
7176 15177 1 0.16500 119244.000000
7177 12044 1 0.16500 119244.000000
7177 13729 1 0.16500 119244.000000
7178 13730 1 0.16500 119244.000000
7178 14010 1 0.16500 119244.000000
7179 13730 1 0.16500 119244.000000
7179 15895 1 0.16500 119244.000000
7180 18620 1 0.16500 119244.000000
7180 18776 1 0.16500 119244.000000
7181 13731 1 0.16500 119244.000000
7181 13845 1 0.16500 119244.000000
7182 13731 1 0.16500 119244.000000
7182 14101 1 0.16500 119244.000000
7183 13732 1 0.16500 119244.000000
7183 16170 1 0.16500 119244.000000
7184 13733 1 0.16500 119244.000000
7184 15302 1 0.16500 119244.000000
7185 13733 1 0.16500 119244.000000
7185 14307 1 0.16500 119244.000000
7186 13734 1 0.16500 119244.000000
7186 14007 1 0.16500 119244.000000
7187 13734 1 0.16500 119244.000000
7187 16006 1 0.16500 119244.000000
7188 13734 1 0.16500 119244.000000
7188 14128 1 0.16500 119244.000000
7189 13734 1 0.16500 119244.000000
7189 13916 1 0.16500 119244.000000
7190 13735 1 0.16500 119244.000000
7190 16593 1 0.16500 119244.000000
7191 13735 1 0.16500 119244.000000
7191 14193 1 0.16500 119244.000000
7192 13735 1 0.16500 119244.000000
7192 16716 1 0.16500 119244.000000
7193 13735 1 0.16500 119244.000000
7193 13762 1 0.16500 119244.000000
7194 13206 1 0.16500 119244.000000
7194 13736 1 0.16500 119244.000000
7195 13736 1 0.16500 119244.000000
7195 16173 1 0.16500 119244.000000
7196 13738 1 0.16500 119244.000000
7196 14929 1 0.16500 119244.000000
7197 13738 1 0.16500 119244.000000
7197 16668 1 0.16500 119244.000000
7198 11968 1 0.16500 119244.000000
7198 18623 1 0.16500 119244.000000
7199 13739 1 0.16500 119244.000000
7199 16341 1 0.16500 119244.000000
7200 13739 1 0.16500 119244.000000
7200 14905 1 0.16500 119244.000000
7201 13740 1 0.16500 119244.000000
7201 14041 1 0.16500 119244.000000
7202 13740 1 0.16500 119244.000000
7202 14649 1 0.16500 119244.000000
7203 13741 1 0.16500 119244.000000
7203 15935 1 0.16500 119244.000000
7204 13741 1 0.16500 119244.000000
7204 14972 1 0.16500 119244.000000
7205 13742 1 0.16500 119244.000000
7205 15365 1 0.16500 119244.000000
7206 13742 1 0.16500 119244.000000
7206 14666 1 0.16500 119244.000000
7207 13743 1 0.16500 119244.000000
7207 15979 1 0.16500 119244.000000
7208 13743 1 0.16500 119244.000000
7208 14089 1 0.16500 119244.000000
7209 13744 1 0.16500 119244.000000
7209 13934 1 0.16500 119244.000000
7210 13746 1 0.16500 119244.000000
7210 15863 1 0.16500 119244.000000
7211 13746 1 0.16500 119244.000000
7211 16501 1 0.16500 119244.000000
7212 13746 1 0.16500 119244.000000
7212 13948 1 0.16500 119244.000000
7213 13747 1 0.16500 119244.000000
7213 14171 1 0.16500 119244.000000
7214 13748 1 0.16500 119244.000000
7214 14536 1 0.16500 119244.000000
7215 13748 1 0.16500 119244.000000
7215 14433 1 0.16500 119244.000000
7216 14536 1 0.16500 119244.000000
7216 16723 1 0.16500 119244.000000
7217 18626 1 0.16500 119244.000000
7217 18707 1 0.16500 119244.000000
7218 13749 1 0.16500 119244.000000
7218 18743 1 0.16500 119244.000000
7219 13749 1 0.16500 119244.000000
7219 18059 1 0.16500 119244.000000
7220 13749 1 0.16500 119244.000000
7220 16023 1 0.16500 119244.000000
7221 13749 1 0.16500 119244.000000
7221 16064 1 0.16500 119244.000000
7222 13750 1 0.16500 119244.000000
7222 16282 1 0.16500 119244.000000
7223 13750 1 0.16500 119244.000000
7223 13778 1 0.16500 119244.000000
7224 14489 1 0.16500 119244.000000
7224 14577 1 0.16500 119244.000000
7225 13751 1 0.16500 119244.000000
7225 14577 1 0.16500 119244.000000
7226 13751 1 0.16500 119244.000000
7226 16820 1 0.16500 119244.000000
7227 13752 1 0.16500 119244.000000
7227 14719 1 0.16500 119244.000000
7228 13753 1 0.16500 119244.000000
7228 16301 1 0.16500 119244.000000
7229 13753 1 0.16500 119244.000000
7229 16693 1 0.16500 119244.000000
7230 13753 1 0.16500 119244.000000
7230 15131 1 0.16500 119244.000000
7231 13753 1 0.16500 119244.000000
7231 13789 1 0.16500 119244.000000
7232 13754 1 0.16500 119244.000000
7232 15262 1 0.16500 119244.000000
7233 13432 1 0.16500 119244.000000
7233 13754 1 0.16500 119244.000000
7234 13754 1 0.16500 119244.000000
7234 14878 1 0.16500 119244.000000
7235 13755 1 0.16500 119244.000000
7235 14729 1 0.16500 119244.000000
7236 13755 1 0.16500 119244.000000
7236 15132 1 0.16500 119244.000000
7237 15284 1 0.16500 119244.000000
7237 16374 1 0.16500 119244.000000
7238 13756 1 0.16500 119244.000000
7238 15049 1 0.16500 119244.000000
7239 13756 1 0.16500 119244.000000
7239 14073 1 0.16500 119244.000000
7240 16513 1 0.16500 119244.000000
7240 16946 1 0.16500 119244.000000
7241 13757 1 0.16500 119244.000000
7241 16513 1 0.16500 119244.000000
7242 13757 1 0.16500 119244.000000
7242 16978 1 0.16500 119244.000000
7243 13758 1 0.16500 119244.000000
7243 14903 1 0.16500 119244.000000
7244 13758 1 0.16500 119244.000000
7244 16646 1 0.16500 119244.000000
7245 13759 1 0.16500 119244.000000
7245 16732 1 0.16500 119244.000000
7246 13759 1 0.16500 119244.000000
7246 14686 1 0.16500 119244.000000
7247 13760 1 0.16500 119244.000000
7247 13815 1 0.16500 119244.000000
7248 13760 1 0.16500 119244.000000
7248 15551 1 0.16500 119244.000000
7249 13760 1 0.16500 119244.000000
7249 13840 1 0.16500 119244.000000
7250 13760 1 0.16500 119244.000000
7250 15336 1 0.16500 119244.000000
7251 13761 1 0.16500 119244.000000
7251 14380 1 0.16500 119244.000000
7252 14158 1 0.16500 119244.000000
7252 14380 1 0.16500 119244.000000
7253 13762 1 0.16500 119244.000000
7253 13833 1 0.16500 119244.000000
7254 13763 1 0.16500 119244.000000
7254 14139 1 0.16500 119244.000000
7255 13764 1 0.16500 119244.000000
7255 14275 1 0.16500 119244.000000
7256 13764 1 0.16500 119244.000000
7256 13973 1 0.16500 119244.000000
7257 16373 1 0.16500 119244.000000
7257 17771 1 0.16500 119244.000000
7258 13765 1 0.16500 119244.000000
7258 16903 1 0.16500 119244.000000
7259 13765 1 0.16500 119244.000000
7259 16229 1 0.16500 119244.000000
7260 13766 1 0.16500 119244.000000
7260 14983 1 0.16500 119244.000000
7261 13766 1 0.16500 119244.000000
7261 15748 1 0.16500 119244.000000
7262 13767 1 0.16500 119244.000000
7262 15093 1 0.16500 119244.000000
7263 13767 1 0.16500 119244.000000
7263 16398 1 0.16500 119244.000000
7264 13767 1 0.16500 119244.000000
7264 16252 1 0.16500 119244.000000
7265 12220 1 0.16500 119244.000000
7265 13768 1 0.16500 119244.000000
7266 13768 1 0.16500 119244.000000
7266 14578 1 0.16500 119244.000000
7267 13769 1 0.16500 119244.000000
7267 15476 1 0.16500 119244.000000
7268 13770 1 0.16500 119244.000000
7268 13777 1 0.16500 119244.000000
7269 14638 1 0.16500 119244.000000
7269 15574 1 0.16500 119244.000000
7270 13772 1 0.16500 119244.000000
7270 15574 1 0.16500 119244.000000
7271 13773 1 0.16500 119244.000000
7271 13860 1 0.16500 119244.000000
7272 13773 1 0.16500 119244.000000
7272 15719 1 0.16500 119244.000000
7273 13773 1 0.16500 119244.000000
7273 14887 1 0.16500 119244.000000
7274 13773 1 0.16500 119244.000000
7274 15797 1 0.16500 119244.000000
7275 13774 1 0.16500 119244.000000
7275 14662 1 0.16500 119244.000000
7276 13774 1 0.16500 119244.000000
7276 16140 1 0.16500 119244.000000
7277 14803 1 0.16500 119244.000000
7277 16462 1 0.16500 119244.000000
7278 13775 1 0.16500 119244.000000
7278 14987 1 0.16500 119244.000000
7279 13775 1 0.16500 119244.000000
7279 16462 1 0.16500 119244.000000
7280 13775 1 0.16500 119244.000000
7280 16727 1 0.16500 119244.000000
7281 13776 1 0.16500 119244.000000
7281 15792 1 0.16500 119244.000000
7282 15405 1 0.16500 119244.000000
7282 15792 1 0.16500 119244.000000
7283 13328 1 0.16500 119244.000000
7283 13796 1 0.16500 119244.000000
7284 13777 1 0.16500 119244.000000
7284 13803 1 0.16500 119244.000000
7285 13777 1 0.16500 119244.000000
7285 18905 1 0.16500 119244.000000
7286 13777 1 0.16500 119244.000000
7286 18746 1 0.16500 119244.000000
7287 13778 1 0.16500 119244.000000
7287 16109 1 0.16500 119244.000000
7288 14573 1 0.16500 119244.000000
7288 16109 1 0.16500 119244.000000
7289 13779 1 0.16500 119244.000000
7289 16104 1 0.16500 119244.000000
7290 13779 1 0.16500 119244.000000
7290 15480 1 0.16500 119244.000000
7291 16104 1 0.16500 119244.000000
7291 16369 1 0.16500 119244.000000
7292 13780 1 0.16500 119244.000000
7292 14737 1 0.16500 119244.000000
7293 13780 1 0.16500 119244.000000
7293 15917 1 0.16500 119244.000000
7294 13780 1 0.16500 119244.000000
7294 16487 1 0.16500 119244.000000
7295 13781 1 0.16500 119244.000000
7295 14833 1 0.16500 119244.000000
7296 13781 1 0.16500 119244.000000
7296 15055 1 0.16500 119244.000000
7297 13781 1 0.16500 119244.000000
7297 14422 1 0.16500 119244.000000
7298 13783 1 0.16500 119244.000000
7298 14326 1 0.16500 119244.000000
7299 13783 1 0.16500 119244.000000
7299 15147 1 0.16500 119244.000000
7300 13783 1 0.16500 119244.000000
7300 16569 1 0.16500 119244.000000
7301 14905 1 0.16500 119244.000000
7301 18629 1 0.16500 119244.000000
7302 18629 1 0.16500 119244.000000
7302 18740 1 0.16500 119244.000000
7303 13784 1 0.16500 119244.000000
7303 15575 1 0.16500 119244.000000
7304 13784 1 0.16500 119244.000000
7304 16946 1 0.16500 119244.000000
7305 13784 1 0.16500 119244.000000
7305 15375 1 0.16500 119244.000000
7306 13785 1 0.16500 119244.000000
7306 15667 1 0.16500 119244.000000
7307 13785 1 0.16500 119244.000000
7307 14178 1 0.16500 119244.000000
7308 13413 1 0.16500 119244.000000
7308 13785 1 0.16500 119244.000000
7309 13786 1 0.16500 119244.000000
7309 16129 1 0.16500 119244.000000
7310 13786 1 0.16500 119244.000000
7310 13844 1 0.16500 119244.000000
7311 13786 1 0.16500 119244.000000
7311 16542 1 0.16500 119244.000000
7312 13786 1 0.16500 119244.000000
7312 15790 1 0.16500 119244.000000
7313 13787 1 0.16500 119244.000000
7313 15535 1 0.16500 119244.000000
7314 13787 1 0.16500 119244.000000
7314 15546 1 0.16500 119244.000000
7315 13788 1 0.16500 119244.000000
7315 15198 1 0.16500 119244.000000
7316 13788 1 0.16500 119244.000000
7316 15700 1 0.16500 119244.000000
7317 13790 1 0.16500 119244.000000
7317 14205 1 0.16500 119244.000000
7318 13790 1 0.16500 119244.000000
7318 16436 1 0.16500 119244.000000
7319 11880 1 0.16500 119244.000000
7319 16482 1 0.16500 119244.000000
7320 11880 1 0.16500 119244.000000
7320 14778 1 0.16500 119244.000000
7321 13792 1 0.16500 119244.000000
7321 14175 1 0.16500 119244.000000
7322 13792 1 0.16500 119244.000000
7322 16828 1 0.16500 119244.000000
7323 13793 1 0.16500 119244.000000
7323 15909 1 0.16500 119244.000000
7324 13793 1 0.16500 119244.000000
7324 15898 1 0.16500 119244.000000
7325 14521 1 0.16500 119244.000000
7325 15909 1 0.16500 119244.000000
7326 13998 1 0.16500 119244.000000
7326 15734 1 0.16500 119244.000000
7327 13795 1 0.16500 119244.000000
7327 14794 1 0.16500 119244.000000
7328 13795 1 0.16500 119244.000000
7328 13998 1 0.16500 119244.000000
7329 13796 1 0.16500 119244.000000
7329 16005 1 0.16500 119244.000000
7330 13797 1 0.16500 119244.000000
7330 15332 1 0.16500 119244.000000
7331 13798 1 0.16500 119244.000000
7331 17010 1 0.16500 119244.000000
7332 13798 1 0.16500 119244.000000
7332 14861 1 0.16500 119244.000000
7333 13798 1 0.16500 119244.000000
7333 14756 1 0.16500 119244.000000
7334 13799 1 0.16500 119244.000000
7334 14674 1 0.16500 119244.000000
7335 13799 1 0.16500 119244.000000
7335 16424 1 0.16500 119244.000000
7336 13799 1 0.16500 119244.000000
7336 16848 1 0.16500 119244.000000
7337 13799 1 0.16500 119244.000000
7337 15786 1 0.16500 119244.000000
7338 13800 1 0.16500 119244.000000
7338 16713 1 0.16500 119244.000000
7339 13800 1 0.16500 119244.000000
7339 14781 1 0.16500 119244.000000
7340 13800 1 0.16500 119244.000000
7340 15398 1 0.16500 119244.000000
7341 13867 1 0.16500 119244.000000
7341 16949 1 0.16500 119244.000000
7342 13801 1 0.16500 119244.000000
7342 13867 1 0.16500 119244.000000
7343 13801 1 0.16500 119244.000000
7343 16083 1 0.16500 119244.000000
7344 13801 1 0.16500 119244.000000
7344 15844 1 0.16500 119244.000000
7345 13802 1 0.16500 119244.000000
7345 16352 1 0.16500 119244.000000
7346 13802 1 0.16500 119244.000000
7346 15037 1 0.16500 119244.000000
7347 13802 1 0.16500 119244.000000
7347 16908 1 0.16500 119244.000000
7348 13803 1 0.16500 119244.000000
7348 16974 1 0.16500 119244.000000
7349 13803 1 0.16500 119244.000000
7349 16921 1 0.16500 119244.000000
7350 13803 1 0.16500 119244.000000
7350 16451 1 0.16500 119244.000000
7351 13804 1 0.16500 119244.000000
7351 13917 1 0.16500 119244.000000
7352 13804 1 0.16500 119244.000000
7352 14735 1 0.16500 119244.000000
7353 13804 1 0.16500 119244.000000
7353 16952 1 0.16500 119244.000000
7354 13805 1 0.16500 119244.000000
7354 15511 1 0.16500 119244.000000
7355 13805 1 0.16500 119244.000000
7355 16074 1 0.16500 119244.000000
7356 13805 1 0.16500 119244.000000
7356 14593 1 0.16500 119244.000000
7357 13806 1 0.16500 119244.000000
7357 16571 1 0.16500 119244.000000
7358 13562 1 0.16500 119244.000000
7358 15129 1 0.16500 119244.000000
7359 13562 1 0.16500 119244.000000
7359 13806 1 0.16500 119244.000000
7360 13807 1 0.16500 119244.000000
7360 16763 1 0.16500 119244.000000
7361 13807 1 0.16500 119244.000000
7361 15141 1 0.16500 119244.000000
7362 13807 1 0.16500 119244.000000
7362 16447 1 0.16500 119244.000000
7363 13808 1 0.16500 119244.000000
7363 18647 1 0.16500 119244.000000
7364 13808 1 0.16500 119244.000000
7364 18686 1 0.16500 119244.000000
7365 13808 1 0.16500 119244.000000
7365 15473 1 0.16500 119244.000000
7366 13809 1 0.16500 119244.000000
7366 15961 1 0.16500 119244.000000
7367 13810 1 0.16500 119244.000000
7367 13993 1 0.16500 119244.000000
7368 11577 1 0.16500 119244.000000
7368 16754 1 0.16500 119244.000000
7369 13811 1 0.16500 119244.000000
7369 14543 1 0.16500 119244.000000
7370 13812 1 0.16500 119244.000000
7370 14225 1 0.16500 119244.000000
7371 11828 1 0.16500 119244.000000
7371 14849 1 0.16500 119244.000000
7372 13812 1 0.16500 119244.000000
7372 16321 1 0.16500 119244.000000
7373 11841 1 0.16500 119244.000000
7373 13571 1 0.16500 119244.000000
7374 13813 1 0.16500 119244.000000
7374 14974 1 0.16500 119244.000000
7375 14626 1 0.16500 119244.000000
7375 18635 1 0.16500 119244.000000
7376 15833 1 0.16500 119244.000000
7376 18635 1 0.16500 119244.000000
7377 13816 1 0.16500 119244.000000
7377 15861 1 0.16500 119244.000000
7378 13816 1 0.16500 119244.000000
7378 16878 1 0.16500 119244.000000
7379 13816 1 0.16500 119244.000000
7379 14188 1 0.16500 119244.000000
7380 13816 1 0.16500 119244.000000
7380 15627 1 0.16500 119244.000000
7381 13817 1 0.16500 119244.000000
7381 14641 1 0.16500 119244.000000
7382 13817 1 0.16500 119244.000000
7382 16849 1 0.16500 119244.000000
7383 13818 1 0.16500 119244.000000
7383 15989 1 0.16500 119244.000000
7384 13820 1 0.16500 119244.000000
7384 14849 1 0.16500 119244.000000
7385 13820 1 0.16500 119244.000000
7385 15618 1 0.16500 119244.000000
7386 13820 1 0.16500 119244.000000
7386 14024 1 0.16500 119244.000000
7387 13820 1 0.16500 119244.000000
7387 16063 1 0.16500 119244.000000
7388 13821 1 0.16500 119244.000000
7388 16529 1 0.16500 119244.000000
7389 13821 1 0.16500 119244.000000
7389 14160 1 0.16500 119244.000000
7390 13822 1 0.16500 119244.000000
7390 16357 1 0.16500 119244.000000
7391 13822 1 0.16500 119244.000000
7391 15353 1 0.16500 119244.000000
7392 13823 1 0.16500 119244.000000
7392 14757 1 0.16500 119244.000000
7393 13823 1 0.16500 119244.000000
7393 14831 1 0.16500 119244.000000
7394 13825 1 0.16500 119244.000000
7394 14424 1 0.16500 119244.000000
7395 13825 1 0.16500 119244.000000
7395 15225 1 0.16500 119244.000000
7396 13825 1 0.16500 119244.000000
7396 16060 1 0.16500 119244.000000
7397 13826 1 0.16500 119244.000000
7397 14313 1 0.16500 119244.000000
7398 13826 1 0.16500 119244.000000
7398 13938 1 0.16500 119244.000000
7399 14961 1 0.16500 119244.000000
7399 18638 1 0.16500 119244.000000
7400 16977 1 0.16500 119244.000000
7400 18638 1 0.16500 119244.000000
7401 13827 1 0.16500 119244.000000
7401 15122 1 0.16500 119244.000000
7402 13827 1 0.16500 119244.000000
7402 14522 1 0.16500 119244.000000
7403 13827 1 0.16500 119244.000000
7403 13904 1 0.16500 119244.000000
7404 13827 1 0.16500 119244.000000
7404 15916 1 0.16500 119244.000000
7405 13828 1 0.16500 119244.000000
7405 16553 1 0.16500 119244.000000
7406 13828 1 0.16500 119244.000000
7406 14420 1 0.16500 119244.000000
7407 13828 1 0.16500 119244.000000
7407 16237 1 0.16500 119244.000000
7408 13829 1 0.16500 119244.000000
7408 16146 1 0.16500 119244.000000
7409 12609 1 0.16500 119244.000000
7409 13838 1 0.16500 119244.000000
7410 14809 1 0.16500 119244.000000
7410 16146 1 0.16500 119244.000000
7411 13830 1 0.16500 119244.000000
7411 16471 1 0.16500 119244.000000
7412 13830 1 0.16500 119244.000000
7412 14492 1 0.16500 119244.000000
7413 13830 1 0.16500 119244.000000
7413 15196 1 0.16500 119244.000000
7414 13831 1 0.16500 119244.000000
7414 14471 1 0.16500 119244.000000
7415 13832 1 0.16500 119244.000000
7415 14772 1 0.16500 119244.000000
7416 13832 1 0.16500 119244.000000
7416 15058 1 0.16500 119244.000000
7417 13833 1 0.16500 119244.000000
7417 16463 1 0.16500 119244.000000
7418 13076 1 0.16500 119244.000000
7418 13834 1 0.16500 119244.000000
7419 13834 1 0.16500 119244.000000
7419 14147 1 0.16500 119244.000000
7420 13834 1 0.16500 119244.000000
7420 14673 1 0.16500 119244.000000
7421 13835 1 0.16500 119244.000000
7421 15991 1 0.16500 119244.000000
7422 13835 1 0.16500 119244.000000
7422 14118 1 0.16500 119244.000000
7423 13837 1 0.16500 119244.000000
7423 16295 1 0.16500 119244.000000
7424 13838 1 0.16500 119244.000000
7424 15379 1 0.16500 119244.000000
7425 13838 1 0.16500 119244.000000
7425 16967 1 0.16500 119244.000000
7426 13838 1 0.16500 119244.000000
7426 14062 1 0.16500 119244.000000
7427 13839 1 0.16500 119244.000000
7427 16086 1 0.16500 119244.000000
7428 13839 1 0.16500 119244.000000
7428 14289 1 0.16500 119244.000000
7429 13839 1 0.16500 119244.000000
7429 15867 1 0.16500 119244.000000
7430 13840 1 0.16500 119244.000000
7430 15776 1 0.16500 119244.000000
7431 12319 1 0.16500 119244.000000
7431 15715 1 0.16500 119244.000000
7432 13840 1 0.16500 119244.000000
7432 15715 1 0.16500 119244.000000
7433 13841 1 0.16500 119244.000000
7433 14745 1 0.16500 119244.000000
7434 13842 1 0.16500 119244.000000
7434 15860 1 0.16500 119244.000000
7435 13842 1 0.16500 119244.000000
7435 16261 1 0.16500 119244.000000
7436 13842 1 0.16500 119244.000000
7436 13879 1 0.16500 119244.000000
7437 13843 1 0.16500 119244.000000
7437 15957 1 0.16500 119244.000000
7438 13843 1 0.16500 119244.000000
7438 15544 1 0.16500 119244.000000
7439 13843 1 0.16500 119244.000000
7439 16904 1 0.16500 119244.000000
7440 13844 1 0.16500 119244.000000
7440 14410 1 0.16500 119244.000000
7441 13844 1 0.16500 119244.000000
7441 14514 1 0.16500 119244.000000
7442 13845 1 0.16500 119244.000000
7442 16687 1 0.16500 119244.000000
7443 13846 1 0.16500 119244.000000
7443 15463 1 0.16500 119244.000000
7444 13846 1 0.16500 119244.000000
7444 14888 1 0.16500 119244.000000
7445 13846 1 0.16500 119244.000000
7445 14854 1 0.16500 119244.000000
7446 13563 1 0.16500 119244.000000
7446 15288 1 0.16500 119244.000000
7447 13848 1 0.16500 119244.000000
7447 16914 1 0.16500 119244.000000
7448 13848 1 0.16500 119244.000000
7448 14781 1 0.16500 119244.000000
7449 13849 1 0.16500 119244.000000
7449 14554 1 0.16500 119244.000000
7450 13849 1 0.16500 119244.000000
7450 14494 1 0.16500 119244.000000
7451 12873 1 0.16500 119244.000000
7451 14253 1 0.16500 119244.000000
7452 13850 1 0.16500 119244.000000
7452 14141 1 0.16500 119244.000000
7453 13850 1 0.16500 119244.000000
7453 14003 1 0.16500 119244.000000
7454 13851 1 0.16500 119244.000000
7454 17005 1 0.16500 119244.000000
7455 13851 1 0.16500 119244.000000
7455 15633 1 0.16500 119244.000000
7456 13851 1 0.16500 119244.000000
7456 14875 1 0.16500 119244.000000
7457 13852 1 0.16500 119244.000000
7457 15974 1 0.16500 119244.000000
7458 13852 1 0.16500 119244.000000
7458 16165 1 0.16500 119244.000000
7459 13853 1 0.16500 119244.000000
7459 16035 1 0.16500 119244.000000
7460 13853 1 0.16500 119244.000000
7460 14959 1 0.16500 119244.000000
7461 13853 1 0.16500 119244.000000
7461 16156 1 0.16500 119244.000000
7462 13854 1 0.16500 119244.000000
7462 15055 1 0.16500 119244.000000
7463 13854 1 0.16500 119244.000000
7463 16734 1 0.16500 119244.000000
7464 13855 1 0.16500 119244.000000
7464 16646 1 0.16500 119244.000000
7465 13855 1 0.16500 119244.000000
7465 14262 1 0.16500 119244.000000
7466 13855 1 0.16500 119244.000000
7466 15527 1 0.16500 119244.000000
7467 13856 1 0.16500 119244.000000
7467 14364 1 0.16500 119244.000000
7468 13856 1 0.16500 119244.000000
7468 14886 1 0.16500 119244.000000
7469 13741 1 0.16500 119244.000000
7469 13857 1 0.16500 119244.000000
7470 14498 1 0.16500 119244.000000
7470 17161 1 0.16500 119244.000000
7471 13858 1 0.16500 119244.000000
7471 16618 1 0.16500 119244.000000
7472 13859 1 0.16500 119244.000000
7472 16473 1 0.16500 119244.000000
7473 13860 1 0.16500 119244.000000
7473 16467 1 0.16500 119244.000000
7474 13861 1 0.16500 119244.000000
7474 15113 1 0.16500 119244.000000
7475 13861 1 0.16500 119244.000000
7475 15517 1 0.16500 119244.000000
7476 13861 1 0.16500 119244.000000
7476 15367 1 0.16500 119244.000000
7477 13509 1 0.16500 119244.000000
7477 13861 1 0.16500 119244.000000
7478 13862 1 0.16500 119244.000000
7478 15560 1 0.16500 119244.000000
7479 13863 1 0.16500 119244.000000
7479 13965 1 0.16500 119244.000000
7480 13863 1 0.16500 119244.000000
7480 14324 1 0.16500 119244.000000
7481 13864 1 0.16500 119244.000000
7481 14696 1 0.16500 119244.000000
7482 13864 1 0.16500 119244.000000
7482 15941 1 0.16500 119244.000000
7483 13864 1 0.16500 119244.000000
7483 13900 1 0.16500 119244.000000
7484 13865 1 0.16500 119244.000000
7484 15556 1 0.16500 119244.000000
7485 13866 1 0.16500 119244.000000
7485 15000 1 0.16500 119244.000000
7486 13866 1 0.16500 119244.000000
7486 16359 1 0.16500 119244.000000
7487 13868 1 0.16500 119244.000000
7487 14535 1 0.16500 119244.000000
7488 13868 1 0.16500 119244.000000
7488 15628 1 0.16500 119244.000000
7489 13868 1 0.16500 119244.000000
7489 15144 1 0.16500 119244.000000
7490 13869 1 0.16500 119244.000000
7490 14961 1 0.16500 119244.000000
7491 13869 1 0.16500 119244.000000
7491 13967 1 0.16500 119244.000000
7492 13869 1 0.16500 119244.000000
7492 14001 1 0.16500 119244.000000
7493 13870 1 0.16500 119244.000000
7493 15767 1 0.16500 119244.000000
7494 13870 1 0.16500 119244.000000
7494 15726 1 0.16500 119244.000000
7495 13871 1 0.16500 119244.000000
7495 14687 1 0.16500 119244.000000
7496 13871 1 0.16500 119244.000000
7496 14462 1 0.16500 119244.000000
7497 13890 1 0.16500 119244.000000
7497 18641 1 0.16500 119244.000000
7498 13872 1 0.16500 119244.000000
7498 14650 1 0.16500 119244.000000
7499 13872 1 0.16500 119244.000000
7499 15988 1 0.16500 119244.000000
7500 13872 1 0.16500 119244.000000
7500 14192 1 0.16500 119244.000000
7501 13872 1 0.16500 119244.000000
7501 14407 1 0.16500 119244.000000
7502 13873 1 0.16500 119244.000000
7502 15681 1 0.16500 119244.000000
7503 13873 1 0.16500 119244.000000
7503 14594 1 0.16500 119244.000000
7504 13873 1 0.16500 119244.000000
7504 14588 1 0.16500 119244.000000
7505 13874 1 0.16500 119244.000000
7505 16235 1 0.16500 119244.000000
7506 13629 1 0.16500 119244.000000
7506 13874 1 0.16500 119244.000000
7507 14847 1 0.16500 119244.000000
7507 15462 1 0.16500 119244.000000
7508 13876 1 0.16500 119244.000000
7508 14847 1 0.16500 119244.000000
7509 13876 1 0.16500 119244.000000
7509 15320 1 0.16500 119244.000000
7510 14556 1 0.16500 119244.000000
7510 18644 1 0.16500 119244.000000
7511 13877 1 0.16500 119244.000000
7511 14446 1 0.16500 119244.000000
7512 12290 1 0.16500 119244.000000
7512 13877 1 0.16500 119244.000000
7513 14447 1 0.16500 119244.000000
7513 16368 1 0.16500 119244.000000
7514 14107 1 0.16500 119244.000000
7514 14447 1 0.16500 119244.000000
7515 13878 1 0.16500 119244.000000
7515 15304 1 0.16500 119244.000000
7516 13879 1 0.16500 119244.000000
7516 14072 1 0.16500 119244.000000
7517 13879 1 0.16500 119244.000000
7517 16361 1 0.16500 119244.000000
7518 13880 1 0.16500 119244.000000
7518 14650 1 0.16500 119244.000000
7519 13880 1 0.16500 119244.000000
7519 15759 1 0.16500 119244.000000
7520 13881 1 0.16500 119244.000000
7520 15850 1 0.16500 119244.000000
7521 13881 1 0.16500 119244.000000
7521 15804 1 0.16500 119244.000000
7522 15804 1 0.16500 119244.000000
7522 16689 1 0.16500 119244.000000
7523 13882 1 0.16500 119244.000000
7523 16844 1 0.16500 119244.000000
7524 13882 1 0.16500 119244.000000
7524 15165 1 0.16500 119244.000000
7525 13882 1 0.16500 119244.000000
7525 14323 1 0.16500 119244.000000
7526 13883 1 0.16500 119244.000000
7526 16567 1 0.16500 119244.000000
7527 13883 1 0.16500 119244.000000
7527 15400 1 0.16500 119244.000000
7528 13194 1 0.16500 119244.000000
7528 13884 1 0.16500 119244.000000
7529 13884 1 0.16500 119244.000000
7529 14166 1 0.16500 119244.000000
7530 13885 1 0.16500 119244.000000
7530 15188 1 0.16500 119244.000000
7531 13885 1 0.16500 119244.000000
7531 16708 1 0.16500 119244.000000
7532 13885 1 0.16500 119244.000000
7532 15775 1 0.16500 119244.000000
7533 13886 1 0.16500 119244.000000
7533 14149 1 0.16500 119244.000000
7534 13886 1 0.16500 119244.000000
7534 14972 1 0.16500 119244.000000
7535 13887 1 0.16500 119244.000000
7535 16926 1 0.16500 119244.000000
7536 13888 1 0.16500 119244.000000
7536 16604 1 0.16500 119244.000000
7537 13888 1 0.16500 119244.000000
7537 16856 1 0.16500 119244.000000
7538 13889 1 0.16500 119244.000000
7538 15893 1 0.16500 119244.000000
7539 13890 1 0.16500 119244.000000
7539 16813 1 0.16500 119244.000000
7540 13890 1 0.16500 119244.000000
7540 15623 1 0.16500 119244.000000
7541 13891 1 0.16500 119244.000000
7541 16411 1 0.16500 119244.000000
7542 13891 1 0.16500 119244.000000
7542 15956 1 0.16500 119244.000000
7543 13891 1 0.16500 119244.000000
7543 14496 1 0.16500 119244.000000
7544 13892 1 0.16500 119244.000000
7544 16203 1 0.16500 119244.000000
7545 13893 1 0.16500 119244.000000
7545 16378 1 0.16500 119244.000000
7546 13893 1 0.16500 119244.000000
7546 18842 1 0.16500 119244.000000
7547 13895 1 0.16500 119244.000000
7547 14063 1 0.16500 119244.000000
7548 13896 1 0.16500 119244.000000
7548 14491 1 0.16500 119244.000000
7549 13896 1 0.16500 119244.000000
7549 14147 1 0.16500 119244.000000
7550 13896 1 0.16500 119244.000000
7550 15617 1 0.16500 119244.000000
7551 13897 1 0.16500 119244.000000
7551 17567 1 0.16500 119244.000000
7552 13897 1 0.16500 119244.000000
7552 16996 1 0.16500 119244.000000
7553 13898 1 0.16500 119244.000000
7553 15214 1 0.16500 119244.000000
7554 13898 1 0.16500 119244.000000
7554 16963 1 0.16500 119244.000000
7555 13899 1 0.16500 119244.000000
7555 14482 1 0.16500 119244.000000
7556 13900 1 0.16500 119244.000000
7556 15314 1 0.16500 119244.000000
7557 13900 1 0.16500 119244.000000
7557 15123 1 0.16500 119244.000000
7558 13900 1 0.16500 119244.000000
7558 14563 1 0.16500 119244.000000
7559 13901 1 0.16500 119244.000000
7559 14173 1 0.16500 119244.000000
7560 13902 1 0.16500 119244.000000
7560 15925 1 0.16500 119244.000000
7561 13902 1 0.16500 119244.000000
7561 16886 1 0.16500 119244.000000
7562 13902 1 0.16500 119244.000000
7562 15054 1 0.16500 119244.000000
7563 13902 1 0.16500 119244.000000
7563 14117 1 0.16500 119244.000000
7564 13903 1 0.16500 119244.000000
7564 15501 1 0.16500 119244.000000
7565 13903 1 0.16500 119244.000000
7565 14020 1 0.16500 119244.000000
7566 13904 1 0.16500 119244.000000
7566 16317 1 0.16500 119244.000000
7567 13905 1 0.16500 119244.000000
7567 14891 1 0.16500 119244.000000
7568 14891 1 0.16500 119244.000000
7568 16678 1 0.16500 119244.000000
7569 13905 1 0.16500 119244.000000
7569 14294 1 0.16500 119244.000000
7570 14445 1 0.16500 119244.000000
7570 14960 1 0.16500 119244.000000
7571 13906 1 0.16500 119244.000000
7571 14445 1 0.16500 119244.000000
7572 13906 1 0.16500 119244.000000
7572 14750 1 0.16500 119244.000000
7573 13907 1 0.16500 119244.000000
7573 14898 1 0.16500 119244.000000
7574 13907 1 0.16500 119244.000000
7574 15658 1 0.16500 119244.000000
7575 13907 1 0.16500 119244.000000
7575 16400 1 0.16500 119244.000000
7576 13910 1 0.16500 119244.000000
7576 14547 1 0.16500 119244.000000
7577 13910 1 0.16500 119244.000000
7577 15872 1 0.16500 119244.000000
7578 13911 1 0.16500 119244.000000
7578 15255 1 0.16500 119244.000000
7579 13912 1 0.16500 119244.000000
7579 15031 1 0.16500 119244.000000
7580 13912 1 0.16500 119244.000000
7580 17273 1 0.16500 119244.000000
7581 13912 1 0.16500 119244.000000
7581 15597 1 0.16500 119244.000000
7582 13913 1 0.16500 119244.000000
7582 15532 1 0.16500 119244.000000
7583 13914 1 0.16500 119244.000000
7583 16767 1 0.16500 119244.000000
7584 13915 1 0.16500 119244.000000
7584 14563 1 0.16500 119244.000000
7585 13915 1 0.16500 119244.000000
7585 15470 1 0.16500 119244.000000
7586 13916 1 0.16500 119244.000000
7586 16469 1 0.16500 119244.000000
7587 13916 1 0.16500 119244.000000
7587 16855 1 0.16500 119244.000000
7588 13917 1 0.16500 119244.000000
7588 16151 1 0.16500 119244.000000
7589 13917 1 0.16500 119244.000000
7589 14395 1 0.16500 119244.000000
7590 13917 1 0.16500 119244.000000
7590 14021 1 0.16500 119244.000000
7591 13918 1 0.16500 119244.000000
7591 14887 1 0.16500 119244.000000
7592 13918 1 0.16500 119244.000000
7592 16708 1 0.16500 119244.000000
7593 13918 1 0.16500 119244.000000
7593 15893 1 0.16500 119244.000000
7594 13919 1 0.16500 119244.000000
7594 15434 1 0.16500 119244.000000
7595 13919 1 0.16500 119244.000000
7595 14894 1 0.16500 119244.000000
7596 13919 1 0.16500 119244.000000
7596 15046 1 0.16500 119244.000000
7597 13920 1 0.16500 119244.000000
7597 14143 1 0.16500 119244.000000
7598 13920 1 0.16500 119244.000000
7598 16826 1 0.16500 119244.000000
7599 13921 1 0.16500 119244.000000
7599 16378 1 0.16500 119244.000000
7600 13921 1 0.16500 119244.000000
7600 14295 1 0.16500 119244.000000
7601 13922 1 0.16500 119244.000000
7601 13926 1 0.16500 119244.000000
7602 13922 1 0.16500 119244.000000
7602 15922 1 0.16500 119244.000000
7603 14430 1 0.16500 119244.000000
7603 15540 1 0.16500 119244.000000
7604 13923 1 0.16500 119244.000000
7604 15464 1 0.16500 119244.000000
7605 13923 1 0.16500 119244.000000
7605 15540 1 0.16500 119244.000000
7606 13923 1 0.16500 119244.000000
7606 15347 1 0.16500 119244.000000
7607 13924 1 0.16500 119244.000000
7607 16183 1 0.16500 119244.000000
7608 13925 1 0.16500 119244.000000
7608 14759 1 0.16500 119244.000000
7609 13925 1 0.16500 119244.000000
7609 15536 1 0.16500 119244.000000
7610 13926 1 0.16500 119244.000000
7610 15822 1 0.16500 119244.000000
7611 13927 1 0.16500 119244.000000
7611 14292 1 0.16500 119244.000000
7612 14413 1 0.16500 119244.000000
7612 16133 1 0.16500 119244.000000
7613 13928 1 0.16500 119244.000000
7613 16133 1 0.16500 119244.000000
7614 13150 1 0.16500 119244.000000
7614 13928 1 0.16500 119244.000000
7615 13929 1 0.16500 119244.000000
7615 16253 1 0.16500 119244.000000
7616 13929 1 0.16500 119244.000000
7616 16990 1 0.16500 119244.000000
7617 13929 1 0.16500 119244.000000
7617 15340 1 0.16500 119244.000000
7618 13931 1 0.16500 119244.000000
7618 14315 1 0.16500 119244.000000
7619 13931 1 0.16500 119244.000000
7619 14199 1 0.16500 119244.000000
7620 13931 1 0.16500 119244.000000
7620 14879 1 0.16500 119244.000000
7621 13932 1 0.16500 119244.000000
7621 16715 1 0.16500 119244.000000
7622 13932 1 0.16500 119244.000000
7622 14830 1 0.16500 119244.000000
7623 13932 1 0.16500 119244.000000
7623 15522 1 0.16500 119244.000000
7624 13933 1 0.16500 119244.000000
7624 15187 1 0.16500 119244.000000
7625 13933 1 0.16500 119244.000000
7625 14743 1 0.16500 119244.000000
7626 13933 1 0.16500 119244.000000
7626 15172 1 0.16500 119244.000000
7627 13934 1 0.16500 119244.000000
7627 19073 1 0.16500 119244.000000
7628 13934 1 0.16500 119244.000000
7628 15023 1 0.16500 119244.000000
7629 13935 1 0.16500 119244.000000
7629 15369 1 0.16500 119244.000000
7630 13935 1 0.16500 119244.000000
7630 15848 1 0.16500 119244.000000
7631 13935 1 0.16500 119244.000000
7631 16698 1 0.16500 119244.000000
7632 13936 1 0.16500 119244.000000
7632 15010 1 0.16500 119244.000000
7633 13936 1 0.16500 119244.000000
7633 15476 1 0.16500 119244.000000
7634 13936 1 0.16500 119244.000000
7634 16407 1 0.16500 119244.000000
7635 13936 1 0.16500 119244.000000
7635 15551 1 0.16500 119244.000000
7636 15846 1 0.16500 119244.000000
7636 18653 1 0.16500 119244.000000
7637 13937 1 0.16500 119244.000000
7637 14325 1 0.16500 119244.000000
7638 13937 1 0.16500 119244.000000
7638 16636 1 0.16500 119244.000000
7639 13937 1 0.16500 119244.000000
7639 16498 1 0.16500 119244.000000
7640 13938 1 0.16500 119244.000000
7640 14834 1 0.16500 119244.000000
7641 13938 1 0.16500 119244.000000
7641 14775 1 0.16500 119244.000000
7642 13939 1 0.16500 119244.000000
7642 16441 1 0.16500 119244.000000
7643 13939 1 0.16500 119244.000000
7643 16589 1 0.16500 119244.000000
7644 14695 1 0.16500 119244.000000
7644 16160 1 0.16500 119244.000000
7645 13940 1 0.16500 119244.000000
7645 16160 1 0.16500 119244.000000
7646 12080 1 0.16500 119244.000000
7646 13940 1 0.16500 119244.000000
7647 13941 1 0.16500 119244.000000
7647 15835 1 0.16500 119244.000000
7648 13941 1 0.16500 119244.000000
7648 14185 1 0.16500 119244.000000
7649 13942 1 0.16500 119244.000000
7649 16468 1 0.16500 119244.000000
7650 13942 1 0.16500 119244.000000
7650 14025 1 0.16500 119244.000000
7651 13943 1 0.16500 119244.000000
7651 14828 1 0.16500 119244.000000
7652 13943 1 0.16500 119244.000000
7652 15670 1 0.16500 119244.000000
7653 13943 1 0.16500 119244.000000
7653 14542 1 0.16500 119244.000000
7654 13944 1 0.16500 119244.000000
7654 16880 1 0.16500 119244.000000
7655 13139 1 0.16500 119244.000000
7655 16275 1 0.16500 119244.000000
7656 13945 1 0.16500 119244.000000
7656 15567 1 0.16500 119244.000000
7657 13946 1 0.16500 119244.000000
7657 17711 1 0.16500 119244.000000
7658 12694 1 0.16500 119244.000000
7658 15367 1 0.16500 119244.000000
7659 13947 1 0.16500 119244.000000
7659 15026 1 0.16500 119244.000000
7660 13947 1 0.16500 119244.000000
7660 16016 1 0.16500 119244.000000
7661 18656 1 0.16500 119244.000000
7661 18860 1 0.16500 119244.000000
7662 14056 1 0.16500 119244.000000
7662 18656 1 0.16500 119244.000000
7663 12030 1 0.16500 119244.000000
7663 18860 1 0.16500 119244.000000
7664 14857 1 0.16500 119244.000000
7664 18659 1 0.16500 119244.000000
7665 13949 1 0.16500 119244.000000
7665 14818 1 0.16500 119244.000000
7666 13949 1 0.16500 119244.000000
7666 14221 1 0.16500 119244.000000
7667 13950 1 0.16500 119244.000000
7667 15593 1 0.16500 119244.000000
7668 13951 1 0.16500 119244.000000
7668 16035 1 0.16500 119244.000000
7669 11660 1 0.16500 119244.000000
7669 14451 1 0.16500 119244.000000
7670 13271 1 0.16500 119244.000000
7670 16563 1 0.16500 119244.000000
7671 13952 1 0.16500 119244.000000
7671 16670 1 0.16500 119244.000000
7672 15306 1 0.16500 119244.000000
7672 16670 1 0.16500 119244.000000
7673 13953 1 0.16500 119244.000000
7673 15347 1 0.16500 119244.000000
7674 13151 1 0.16500 119244.000000
7674 13954 1 0.16500 119244.000000
7675 13955 1 0.16500 119244.000000
7675 15632 1 0.16500 119244.000000
7676 13955 1 0.16500 119244.000000
7676 16044 1 0.16500 119244.000000
7677 13955 1 0.16500 119244.000000
7677 15505 1 0.16500 119244.000000
7678 13956 1 0.16500 119244.000000
7678 15136 1 0.16500 119244.000000
7679 13956 1 0.16500 119244.000000
7679 16299 1 0.16500 119244.000000
7680 13956 1 0.16500 119244.000000
7680 15119 1 0.16500 119244.000000
7681 13957 1 0.16500 119244.000000
7681 15604 1 0.16500 119244.000000
7682 13957 1 0.16500 119244.000000
7682 14733 1 0.16500 119244.000000
7683 13958 1 0.16500 119244.000000
7683 14843 1 0.16500 119244.000000
7684 13958 1 0.16500 119244.000000
7684 16862 1 0.16500 119244.000000
7685 13958 1 0.16500 119244.000000
7685 16229 1 0.16500 119244.000000
7686 15050 1 0.16500 119244.000000
7686 18662 1 0.16500 119244.000000
7687 14266 1 0.16500 119244.000000
7687 18665 1 0.16500 119244.000000
7688 15729 1 0.16500 119244.000000
7688 18665 1 0.16500 119244.000000
7689 13960 1 0.16500 119244.000000
7689 15795 1 0.16500 119244.000000
7690 13960 1 0.16500 119244.000000
7690 16699 1 0.16500 119244.000000
7691 13961 1 0.16500 119244.000000
7691 16188 1 0.16500 119244.000000
7692 13961 1 0.16500 119244.000000
7692 16622 1 0.16500 119244.000000
7693 15058 1 0.16500 119244.000000
7693 15886 1 0.16500 119244.000000
7694 13962 1 0.16500 119244.000000
7694 14298 1 0.16500 119244.000000
7695 13962 1 0.16500 119244.000000
7695 15058 1 0.16500 119244.000000
7696 13962 1 0.16500 119244.000000
7696 16537 1 0.16500 119244.000000
7697 13963 1 0.16500 119244.000000
7697 16943 1 0.16500 119244.000000
7698 13963 1 0.16500 119244.000000
7698 14860 1 0.16500 119244.000000
7699 14659 1 0.16500 119244.000000
7699 16943 1 0.16500 119244.000000
7700 13964 1 0.16500 119244.000000
7700 16761 1 0.16500 119244.000000
7701 13964 1 0.16500 119244.000000
7701 16093 1 0.16500 119244.000000
7702 13965 1 0.16500 119244.000000
7702 16290 1 0.16500 119244.000000
7703 13965 1 0.16500 119244.000000
7703 14786 1 0.16500 119244.000000
7704 13966 1 0.16500 119244.000000
7704 15611 1 0.16500 119244.000000
7705 13966 1 0.16500 119244.000000
7705 16189 1 0.16500 119244.000000
7706 13967 1 0.16500 119244.000000
7706 14432 1 0.16500 119244.000000
7707 13967 1 0.16500 119244.000000
7707 15034 1 0.16500 119244.000000
7708 13968 1 0.16500 119244.000000
7708 16599 1 0.16500 119244.000000
7709 13968 1 0.16500 119244.000000
7709 15989 1 0.16500 119244.000000
7710 13968 1 0.16500 119244.000000
7710 15559 1 0.16500 119244.000000
7711 13969 1 0.16500 119244.000000
7711 18974 1 0.16500 119244.000000
7712 13969 1 0.16500 119244.000000
7712 14652 1 0.16500 119244.000000
7713 13970 1 0.16500 119244.000000
7713 15852 1 0.16500 119244.000000
7714 13653 1 0.16500 119244.000000
7714 13970 1 0.16500 119244.000000
7715 13971 1 0.16500 119244.000000
7715 16811 1 0.16500 119244.000000
7716 13971 1 0.16500 119244.000000
7716 16543 1 0.16500 119244.000000
7717 13971 1 0.16500 119244.000000
7717 14955 1 0.16500 119244.000000
7718 13972 1 0.16500 119244.000000
7718 16907 1 0.16500 119244.000000
7719 13972 1 0.16500 119244.000000
7719 15690 1 0.16500 119244.000000
7720 13972 1 0.16500 119244.000000
7720 16041 1 0.16500 119244.000000
7721 13973 1 0.16500 119244.000000
7721 15034 1 0.16500 119244.000000
7722 13974 1 0.16500 119244.000000
7722 14230 1 0.16500 119244.000000
7723 13974 1 0.16500 119244.000000
7723 16476 1 0.16500 119244.000000
7724 13974 1 0.16500 119244.000000
7724 14656 1 0.16500 119244.000000
7725 13974 1 0.16500 119244.000000
7725 15475 1 0.16500 119244.000000
7726 13975 1 0.16500 119244.000000
7726 14857 1 0.16500 119244.000000
7727 13975 1 0.16500 119244.000000
7727 16258 1 0.16500 119244.000000
7728 13975 1 0.16500 119244.000000
7728 14835 1 0.16500 119244.000000
7729 13976 1 0.16500 119244.000000
7729 16863 1 0.16500 119244.000000
7730 13976 1 0.16500 119244.000000
7730 15363 1 0.16500 119244.000000
7731 13977 1 0.16500 119244.000000
7731 14825 1 0.16500 119244.000000
7732 13978 1 0.16500 119244.000000
7732 15081 1 0.16500 119244.000000
7733 13978 1 0.16500 119244.000000
7733 17975 1 0.16500 119244.000000
7734 13978 1 0.16500 119244.000000
7734 15997 1 0.16500 119244.000000
7735 13979 1 0.16500 119244.000000
7735 16288 1 0.16500 119244.000000
7736 13979 1 0.16500 119244.000000
7736 15073 1 0.16500 119244.000000
7737 13979 1 0.16500 119244.000000
7737 14316 1 0.16500 119244.000000
7738 13980 1 0.16500 119244.000000
7738 15249 1 0.16500 119244.000000
7739 13646 1 0.16500 119244.000000
7739 15043 1 0.16500 119244.000000
7740 11741 1 0.16500 119244.000000
7740 13980 1 0.16500 119244.000000
7741 13981 1 0.16500 119244.000000
7741 19001 1 0.16500 119244.000000
7742 13981 1 0.16500 119244.000000
7742 15095 1 0.16500 119244.000000
7743 13981 1 0.16500 119244.000000
7743 14781 1 0.16500 119244.000000
7744 13981 1 0.16500 119244.000000
7744 16040 1 0.16500 119244.000000
7745 13982 1 0.16500 119244.000000
7745 16370 1 0.16500 119244.000000
7746 13983 1 0.16500 119244.000000
7746 15676 1 0.16500 119244.000000
7747 13983 1 0.16500 119244.000000
7747 14906 1 0.16500 119244.000000
7748 13983 1 0.16500 119244.000000
7748 14677 1 0.16500 119244.000000
7749 13983 1 0.16500 119244.000000
7749 15859 1 0.16500 119244.000000
7750 13985 1 0.16500 119244.000000
7750 16321 1 0.16500 119244.000000
7751 13985 1 0.16500 119244.000000
7751 15618 1 0.16500 119244.000000
7752 13986 1 0.16500 119244.000000
7752 16385 1 0.16500 119244.000000
7753 13986 1 0.16500 119244.000000
7753 16025 1 0.16500 119244.000000
7754 13986 1 0.16500 119244.000000
7754 16324 1 0.16500 119244.000000
7755 13987 1 0.16500 119244.000000
7755 16940 1 0.16500 119244.000000
7756 13987 1 0.16500 119244.000000
7756 15624 1 0.16500 119244.000000
7757 13987 1 0.16500 119244.000000
7757 16910 1 0.16500 119244.000000
7758 13988 1 0.16500 119244.000000
7758 16337 1 0.16500 119244.000000
7759 12721 1 0.16500 119244.000000
7759 16857 1 0.16500 119244.000000
7760 13989 1 0.16500 119244.000000
7760 16089 1 0.16500 119244.000000
7761 12939 1 0.16500 119244.000000
7761 16558 1 0.16500 119244.000000
7762 13991 1 0.16500 119244.000000
7762 18686 1 0.16500 119244.000000
7763 13999 1 0.16500 119244.000000
7763 18686 1 0.16500 119244.000000
7764 13991 1 0.16500 119244.000000
7764 16281 1 0.16500 119244.000000
7765 11947 1 0.16500 119244.000000
7765 16977 1 0.16500 119244.000000
7766 13992 1 0.16500 119244.000000
7766 15543 1 0.16500 119244.000000
7767 13992 1 0.16500 119244.000000
7767 15034 1 0.16500 119244.000000
7768 13993 1 0.16500 119244.000000
7768 15174 1 0.16500 119244.000000
7769 15308 1 0.16500 119244.000000
7769 18668 1 0.16500 119244.000000
7770 18668 1 0.16500 119244.000000
7770 19130 1 0.16500 119244.000000
7771 13994 1 0.16500 119244.000000
7771 16663 1 0.16500 119244.000000
7772 13994 1 0.16500 119244.000000
7772 15062 1 0.16500 119244.000000
7773 11718 1 0.16500 119244.000000
7773 13994 1 0.16500 119244.000000
7774 14869 1 0.16500 119244.000000
7774 16085 1 0.16500 119244.000000
7775 13995 1 0.16500 119244.000000
7775 15158 1 0.16500 119244.000000
7776 13995 1 0.16500 119244.000000
7776 16085 1 0.16500 119244.000000
7777 13996 1 0.16500 119244.000000
7777 14072 1 0.16500 119244.000000
7778 13997 1 0.16500 119244.000000
7778 16796 1 0.16500 119244.000000
7779 13997 1 0.16500 119244.000000
7779 14690 1 0.16500 119244.000000
7780 13998 1 0.16500 119244.000000
7780 15533 1 0.16500 119244.000000
7781 13795 1 0.16500 119244.000000
7781 15309 1 0.16500 119244.000000
7782 13998 1 0.16500 119244.000000
7782 16801 1 0.16500 119244.000000
7783 13999 1 0.16500 119244.000000
7783 18575 1 0.16500 119244.000000
7784 14829 1 0.16500 119244.000000
7784 16693 1 0.16500 119244.000000
7785 13999 1 0.16500 119244.000000
7785 14829 1 0.16500 119244.000000
7786 14000 1 0.16500 119244.000000
7786 14655 1 0.16500 119244.000000
7787 14000 1 0.16500 119244.000000
7787 15949 1 0.16500 119244.000000
7788 14001 1 0.16500 119244.000000
7788 15106 1 0.16500 119244.000000
7789 14001 1 0.16500 119244.000000
7789 16460 1 0.16500 119244.000000
7790 14001 1 0.16500 119244.000000
7790 16977 1 0.16500 119244.000000
7791 14002 1 0.16500 119244.000000
7791 15558 1 0.16500 119244.000000
7792 14003 1 0.16500 119244.000000
7792 15934 1 0.16500 119244.000000
7793 14004 1 0.16500 119244.000000
7793 15553 1 0.16500 119244.000000
7794 14004 1 0.16500 119244.000000
7794 16964 1 0.16500 119244.000000
7795 14004 1 0.16500 119244.000000
7795 15188 1 0.16500 119244.000000
7796 14005 1 0.16500 119244.000000
7796 16628 1 0.16500 119244.000000
7797 14005 1 0.16500 119244.000000
7797 14449 1 0.16500 119244.000000
7798 14007 1 0.16500 119244.000000
7798 16575 1 0.16500 119244.000000
7799 14007 1 0.16500 119244.000000
7799 14420 1 0.16500 119244.000000
7800 14008 1 0.16500 119244.000000
7800 14213 1 0.16500 119244.000000
7801 14009 1 0.16500 119244.000000
7801 15768 1 0.16500 119244.000000
7802 14009 1 0.16500 119244.000000
7802 16595 1 0.16500 119244.000000
7803 14010 1 0.16500 119244.000000
7803 14604 1 0.16500 119244.000000
7804 14011 1 0.16500 119244.000000
7804 15685 1 0.16500 119244.000000
7805 14012 1 0.16500 119244.000000
7805 17783 1 0.16500 119244.000000
7806 14012 1 0.16500 119244.000000
7806 16425 1 0.16500 119244.000000
7807 14013 1 0.16500 119244.000000
7807 15246 1 0.16500 119244.000000
7808 14014 1 0.16500 119244.000000
7808 15344 1 0.16500 119244.000000
7809 14014 1 0.16500 119244.000000
7809 14244 1 0.16500 119244.000000
7810 14014 1 0.16500 119244.000000
7810 15271 1 0.16500 119244.000000
7811 14014 1 0.16500 119244.000000
7811 16032 1 0.16500 119244.000000
7812 14015 1 0.16500 119244.000000
7812 14292 1 0.16500 119244.000000
7813 14015 1 0.16500 119244.000000
7813 16617 1 0.16500 119244.000000
7814 14016 1 0.16500 119244.000000
7814 16156 1 0.16500 119244.000000
7815 14016 1 0.16500 119244.000000
7815 14104 1 0.16500 119244.000000
7816 14017 1 0.16500 119244.000000
7816 16204 1 0.16500 119244.000000
7817 14017 1 0.16500 119244.000000
7817 15743 1 0.16500 119244.000000
7818 16291 1 0.16500 119244.000000
7818 18011 1 0.16500 119244.000000
7819 16274 1 0.16500 119244.000000
7819 18011 1 0.16500 119244.000000
7820 12510 1 0.16500 119244.000000
7820 15611 1 0.16500 119244.000000
7821 14019 1 0.16500 119244.000000
7821 15977 1 0.16500 119244.000000
7822 14019 1 0.16500 119244.000000
7822 15586 1 0.16500 119244.000000
7823 14020 1 0.16500 119244.000000
7823 14376 1 0.16500 119244.000000
7824 14020 1 0.16500 119244.000000
7824 16947 1 0.16500 119244.000000
7825 14020 1 0.16500 119244.000000
7825 16297 1 0.16500 119244.000000
7826 14022 1 0.16500 119244.000000
7826 16554 1 0.16500 119244.000000
7827 14022 1 0.16500 119244.000000
7827 16935 1 0.16500 119244.000000
7828 14023 1 0.16500 119244.000000
7828 16715 1 0.16500 119244.000000
7829 14023 1 0.16500 119244.000000
7829 16558 1 0.16500 119244.000000
7830 14024 1 0.16500 119244.000000
7830 17014 1 0.16500 119244.000000
7831 14024 1 0.16500 119244.000000
7831 15415 1 0.16500 119244.000000
7832 16762 1 0.16500 119244.000000
7832 16993 1 0.16500 119244.000000
7833 14025 1 0.16500 119244.000000
7833 16993 1 0.16500 119244.000000
7834 14026 1 0.16500 119244.000000
7834 15211 1 0.16500 119244.000000
7835 14026 1 0.16500 119244.000000
7835 15411 1 0.16500 119244.000000
7836 14026 1 0.16500 119244.000000
7836 15067 1 0.16500 119244.000000
7837 14027 1 0.16500 119244.000000
7837 14840 1 0.16500 119244.000000
7838 14027 1 0.16500 119244.000000
7838 15078 1 0.16500 119244.000000
7839 14028 1 0.16500 119244.000000
7839 14367 1 0.16500 119244.000000
7840 14029 1 0.16500 119244.000000
7840 14862 1 0.16500 119244.000000
7841 14029 1 0.16500 119244.000000
7841 14132 1 0.16500 119244.000000
7842 14030 1 0.16500 119244.000000
7842 14671 1 0.16500 119244.000000
7843 16155 1 0.16500 119244.000000
7843 18671 1 0.16500 119244.000000
7844 14056 1 0.16500 119244.000000
7844 18671 1 0.16500 119244.000000
7845 16643 1 0.16500 119244.000000
7845 18671 1 0.16500 119244.000000
7846 14031 1 0.16500 119244.000000
7846 15085 1 0.16500 119244.000000
7847 14031 1 0.16500 119244.000000
7847 14032 1 0.16500 119244.000000
7848 14032 1 0.16500 119244.000000
7848 14947 1 0.16500 119244.000000
7849 14032 1 0.16500 119244.000000
7849 15911 1 0.16500 119244.000000
7850 14033 1 0.16500 119244.000000
7850 14983 1 0.16500 119244.000000
7851 16008 1 0.16500 119244.000000
7851 18863 1 0.16500 119244.000000
7852 14033 1 0.16500 119244.000000
7852 16008 1 0.16500 119244.000000
7853 14034 1 0.16500 119244.000000
7853 16410 1 0.16500 119244.000000
7854 14035 1 0.16500 119244.000000
7854 15650 1 0.16500 119244.000000
7855 14035 1 0.16500 119244.000000
7855 14060 1 0.16500 119244.000000
7856 14036 1 0.16500 119244.000000
7856 16030 1 0.16500 119244.000000
7857 14036 1 0.16500 119244.000000
7857 14687 1 0.16500 119244.000000
7858 14036 1 0.16500 119244.000000
7858 16530 1 0.16500 119244.000000
7859 14163 1 0.16500 119244.000000
7859 18179 1 0.16500 119244.000000
7860 14037 1 0.16500 119244.000000
7860 17615 1 0.16500 119244.000000
7861 14037 1 0.16500 119244.000000
7861 18974 1 0.16500 119244.000000
7862 14038 1 0.16500 119244.000000
7862 15004 1 0.16500 119244.000000
7863 14038 1 0.16500 119244.000000
7863 16681 1 0.16500 119244.000000
7864 14038 1 0.16500 119244.000000
7864 16974 1 0.16500 119244.000000
7865 13434 1 0.16500 119244.000000
7865 14039 1 0.16500 119244.000000
7866 14039 1 0.16500 119244.000000
7866 14845 1 0.16500 119244.000000
7867 14039 1 0.16500 119244.000000
7867 14669 1 0.16500 119244.000000
7868 14039 1 0.16500 119244.000000
7868 16929 1 0.16500 119244.000000
7869 14041 1 0.16500 119244.000000
7869 16560 1 0.16500 119244.000000
7870 14041 1 0.16500 119244.000000
7870 14090 1 0.16500 119244.000000
7871 14042 1 0.16500 119244.000000
7871 15741 1 0.16500 119244.000000
7872 14042 1 0.16500 119244.000000
7872 14806 1 0.16500 119244.000000
7873 14043 1 0.16500 119244.000000
7873 15908 1 0.16500 119244.000000
7874 14043 1 0.16500 119244.000000
7874 16481 1 0.16500 119244.000000
7875 14044 1 0.16500 119244.000000
7875 14962 1 0.16500 119244.000000
7876 14044 1 0.16500 119244.000000
7876 14358 1 0.16500 119244.000000
7877 14044 1 0.16500 119244.000000
7877 17975 1 0.16500 119244.000000
7878 13593 1 0.16500 119244.000000
7878 14045 1 0.16500 119244.000000
7879 14045 1 0.16500 119244.000000
7879 15939 1 0.16500 119244.000000
7880 14045 1 0.16500 119244.000000
7880 16634 1 0.16500 119244.000000
7881 14046 1 0.16500 119244.000000
7881 16346 1 0.16500 119244.000000
7882 14046 1 0.16500 119244.000000
7882 16657 1 0.16500 119244.000000
7883 14047 1 0.16500 119244.000000
7883 15512 1 0.16500 119244.000000
7884 14047 1 0.16500 119244.000000
7884 15966 1 0.16500 119244.000000
7885 14047 1 0.16500 119244.000000
7885 14140 1 0.16500 119244.000000
7886 14048 1 0.16500 119244.000000
7886 16189 1 0.16500 119244.000000
7887 14048 1 0.16500 119244.000000
7887 16244 1 0.16500 119244.000000
7888 14048 1 0.16500 119244.000000
7888 15452 1 0.16500 119244.000000
7889 14049 1 0.16500 119244.000000
7889 16828 1 0.16500 119244.000000
7890 14049 1 0.16500 119244.000000
7890 16409 1 0.16500 119244.000000
7891 14049 1 0.16500 119244.000000
7891 15052 1 0.16500 119244.000000
7892 14050 1 0.16500 119244.000000
7892 14507 1 0.16500 119244.000000
7893 14050 1 0.16500 119244.000000
7893 15541 1 0.16500 119244.000000
7894 14050 1 0.16500 119244.000000
7894 14070 1 0.16500 119244.000000
7895 14051 1 0.16500 119244.000000
7895 16473 1 0.16500 119244.000000
7896 14051 1 0.16500 119244.000000
7896 16530 1 0.16500 119244.000000
7897 12094 1 0.16500 119244.000000
7897 14051 1 0.16500 119244.000000
7898 14052 1 0.16500 119244.000000
7898 14668 1 0.16500 119244.000000
7899 14052 1 0.16500 119244.000000
7899 15032 1 0.16500 119244.000000
7900 14052 1 0.16500 119244.000000
7900 15960 1 0.16500 119244.000000
7901 14053 1 0.16500 119244.000000
7901 14809 1 0.16500 119244.000000
7902 14054 1 0.16500 119244.000000
7902 16725 1 0.16500 119244.000000
7903 14054 1 0.16500 119244.000000
7903 14562 1 0.16500 119244.000000
7904 14055 1 0.16500 119244.000000
7904 16576 1 0.16500 119244.000000
7905 14055 1 0.16500 119244.000000
7905 14432 1 0.16500 119244.000000
7906 14057 1 0.16500 119244.000000
7906 14945 1 0.16500 119244.000000
7907 14057 1 0.16500 119244.000000
7907 14382 1 0.16500 119244.000000
7908 18674 1 0.16500 119244.000000
7908 19067 1 0.16500 119244.000000
7909 14058 1 0.16500 119244.000000
7909 17189 1 0.16500 119244.000000
7910 14058 1 0.16500 119244.000000
7910 18692 1 0.16500 119244.000000
7911 14059 1 0.16500 119244.000000
7911 16751 1 0.16500 119244.000000
7912 14059 1 0.16500 119244.000000
7912 15348 1 0.16500 119244.000000
7913 14060 1 0.16500 119244.000000
7913 14284 1 0.16500 119244.000000
7914 14060 1 0.16500 119244.000000
7914 15120 1 0.16500 119244.000000
7915 14060 1 0.16500 119244.000000
7915 16447 1 0.16500 119244.000000
7916 14061 1 0.16500 119244.000000
7916 16606 1 0.16500 119244.000000
7917 14061 1 0.16500 119244.000000
7917 16395 1 0.16500 119244.000000
7918 14062 1 0.16500 119244.000000
7918 15655 1 0.16500 119244.000000
7919 14062 1 0.16500 119244.000000
7919 14809 1 0.16500 119244.000000
7920 14062 1 0.16500 119244.000000
7920 15988 1 0.16500 119244.000000
7921 14063 1 0.16500 119244.000000
7921 15218 1 0.16500 119244.000000
7922 14063 1 0.16500 119244.000000
7922 14541 1 0.16500 119244.000000
7923 14064 1 0.16500 119244.000000
7923 15421 1 0.16500 119244.000000
7924 14064 1 0.16500 119244.000000
7924 16470 1 0.16500 119244.000000
7925 14064 1 0.16500 119244.000000
7925 14123 1 0.16500 119244.000000
7926 14065 1 0.16500 119244.000000
7926 15851 1 0.16500 119244.000000
7927 14066 1 0.16500 119244.000000
7927 16980 1 0.16500 119244.000000
7928 14066 1 0.16500 119244.000000
7928 14619 1 0.16500 119244.000000
7929 14067 1 0.16500 119244.000000
7929 16797 1 0.16500 119244.000000
7930 14067 1 0.16500 119244.000000
7930 15626 1 0.16500 119244.000000
7931 14067 1 0.16500 119244.000000
7931 14135 1 0.16500 119244.000000
7932 14068 1 0.16500 119244.000000
7932 16396 1 0.16500 119244.000000
7933 14068 1 0.16500 119244.000000
7933 17329 1 0.16500 119244.000000
7934 14069 1 0.16500 119244.000000
7934 16653 1 0.16500 119244.000000
7935 14069 1 0.16500 119244.000000
7935 16107 1 0.16500 119244.000000
7936 14069 1 0.16500 119244.000000
7936 14609 1 0.16500 119244.000000
7937 14070 1 0.16500 119244.000000
7937 16177 1 0.16500 119244.000000
7938 14070 1 0.16500 119244.000000
7938 14461 1 0.16500 119244.000000
7939 14070 1 0.16500 119244.000000
7939 15171 1 0.16500 119244.000000
7940 14071 1 0.16500 119244.000000
7940 16903 1 0.16500 119244.000000
7941 14071 1 0.16500 119244.000000
7941 15074 1 0.16500 119244.000000
7942 14072 1 0.16500 119244.000000
7942 15637 1 0.16500 119244.000000
7943 14073 1 0.16500 119244.000000
7943 14398 1 0.16500 119244.000000
7944 14073 1 0.16500 119244.000000
7944 16292 1 0.16500 119244.000000
7945 15023 1 0.16500 119244.000000
7945 19120 1 0.16500 119244.000000
7946 14074 1 0.16500 119244.000000
7946 14693 1 0.16500 119244.000000
7947 14074 1 0.16500 119244.000000
7947 15874 1 0.16500 119244.000000
7948 14074 1 0.16500 119244.000000
7948 14262 1 0.16500 119244.000000
7949 14075 1 0.16500 119244.000000
7949 16312 1 0.16500 119244.000000
7950 14076 1 0.16500 119244.000000
7950 15457 1 0.16500 119244.000000
7951 14077 1 0.16500 119244.000000
7951 16730 1 0.16500 119244.000000
7952 14077 1 0.16500 119244.000000
7952 15525 1 0.16500 119244.000000
7953 13119 1 0.16500 119244.000000
7953 14077 1 0.16500 119244.000000
7954 14078 1 0.16500 119244.000000
7954 16837 1 0.16500 119244.000000
7955 14079 1 0.16500 119244.000000
7955 16809 1 0.16500 119244.000000
7956 14080 1 0.16500 119244.000000
7956 16136 1 0.16500 119244.000000
7957 14081 1 0.16500 119244.000000
7957 16728 1 0.16500 119244.000000
7958 14081 1 0.16500 119244.000000
7958 14560 1 0.16500 119244.000000
7959 14081 1 0.16500 119244.000000
7959 15823 1 0.16500 119244.000000
7960 14082 1 0.16500 119244.000000
7960 15469 1 0.16500 119244.000000
7961 14082 1 0.16500 119244.000000
7961 16850 1 0.16500 119244.000000
7962 14083 1 0.16500 119244.000000
7962 16930 1 0.16500 119244.000000
7963 14084 1 0.16500 119244.000000
7963 16262 1 0.16500 119244.000000
7964 14084 1 0.16500 119244.000000
7964 15978 1 0.16500 119244.000000
7965 14084 1 0.16500 119244.000000
7965 16497 1 0.16500 119244.000000
7966 14084 1 0.16500 119244.000000
7966 15855 1 0.16500 119244.000000
7967 14085 1 0.16500 119244.000000
7967 15891 1 0.16500 119244.000000
7968 14085 1 0.16500 119244.000000
7968 14294 1 0.16500 119244.000000
7969 14087 1 0.16500 119244.000000
7969 15481 1 0.16500 119244.000000
7970 14087 1 0.16500 119244.000000
7970 15533 1 0.16500 119244.000000
7971 14087 1 0.16500 119244.000000
7971 15248 1 0.16500 119244.000000
7972 16833 1 0.16500 119244.000000
7972 16871 1 0.16500 119244.000000
7973 14920 1 0.16500 119244.000000
7973 16833 1 0.16500 119244.000000
7974 14088 1 0.16500 119244.000000
7974 16833 1 0.16500 119244.000000
7975 14089 1 0.16500 119244.000000
7975 16243 1 0.16500 119244.000000
7976 14089 1 0.16500 119244.000000
7976 15005 1 0.16500 119244.000000
7977 14090 1 0.16500 119244.000000
7977 14797 1 0.16500 119244.000000
7978 14091 1 0.16500 119244.000000
7978 16778 1 0.16500 119244.000000
7979 14091 1 0.16500 119244.000000
7979 15976 1 0.16500 119244.000000
7980 14091 1 0.16500 119244.000000
7980 17591 1 0.16500 119244.000000
7981 14092 1 0.16500 119244.000000
7981 18836 1 0.16500 119244.000000
7982 14093 1 0.16500 119244.000000
7982 16592 1 0.16500 119244.000000
7983 14093 1 0.16500 119244.000000
7983 16082 1 0.16500 119244.000000
7984 14094 1 0.16500 119244.000000
7984 16936 1 0.16500 119244.000000
7985 14094 1 0.16500 119244.000000
7985 15059 1 0.16500 119244.000000
7986 14095 1 0.16500 119244.000000
7986 15293 1 0.16500 119244.000000
7987 14095 1 0.16500 119244.000000
7987 15926 1 0.16500 119244.000000
7988 14095 1 0.16500 119244.000000
7988 16894 1 0.16500 119244.000000
7989 14096 1 0.16500 119244.000000
7989 14570 1 0.16500 119244.000000
7990 14096 1 0.16500 119244.000000
7990 18119 1 0.16500 119244.000000
7991 14096 1 0.16500 119244.000000
7991 16707 1 0.16500 119244.000000
7992 14097 1 0.16500 119244.000000
7992 15678 1 0.16500 119244.000000
7993 14097 1 0.16500 119244.000000
7993 14669 1 0.16500 119244.000000
7994 14098 1 0.16500 119244.000000
7994 16314 1 0.16500 119244.000000
7995 14099 1 0.16500 119244.000000
7995 15213 1 0.16500 119244.000000
7996 14099 1 0.16500 119244.000000
7996 15141 1 0.16500 119244.000000
7997 14099 1 0.16500 119244.000000
7997 16130 1 0.16500 119244.000000
7998 14100 1 0.16500 119244.000000
7998 16378 1 0.16500 119244.000000
7999 14100 1 0.16500 119244.000000
7999 14353 1 0.16500 119244.000000
8000 14100 1 0.16500 119244.000000
8000 15080 1 0.16500 119244.000000
8001 14102 1 0.16500 119244.000000
8001 14838 1 0.16500 119244.000000
8002 14102 1 0.16500 119244.000000
8002 14881 1 0.16500 119244.000000
8003 14102 1 0.16500 119244.000000
8003 16202 1 0.16500 119244.000000
8004 14103 1 0.16500 119244.000000
8004 15270 1 0.16500 119244.000000
8005 14103 1 0.16500 119244.000000
8005 15523 1 0.16500 119244.000000
8006 14103 1 0.16500 119244.000000
8006 16438 1 0.16500 119244.000000
8007 14103 1 0.16500 119244.000000
8007 14354 1 0.16500 119244.000000
8008 14104 1 0.16500 119244.000000
8008 16035 1 0.16500 119244.000000
8009 14104 1 0.16500 119244.000000
8009 14926 1 0.16500 119244.000000
8010 14105 1 0.16500 119244.000000
8010 14273 1 0.16500 119244.000000
8011 14105 1 0.16500 119244.000000
8011 14910 1 0.16500 119244.000000
8012 14106 1 0.16500 119244.000000
8012 16200 1 0.16500 119244.000000
8013 14106 1 0.16500 119244.000000
8013 16712 1 0.16500 119244.000000
8014 13878 1 0.16500 119244.000000
8014 14107 1 0.16500 119244.000000
8015 14108 1 0.16500 119244.000000
8015 16646 1 0.16500 119244.000000
8016 14108 1 0.16500 119244.000000
8016 14586 1 0.16500 119244.000000
8017 14108 1 0.16500 119244.000000
8017 16950 1 0.16500 119244.000000
8018 14108 1 0.16500 119244.000000
8018 15105 1 0.16500 119244.000000
8019 14109 1 0.16500 119244.000000
8019 15852 1 0.16500 119244.000000
8020 14109 1 0.16500 119244.000000
8020 16926 1 0.16500 119244.000000
8021 14109 1 0.16500 119244.000000
8021 14724 1 0.16500 119244.000000
8022 13374 1 0.16500 119244.000000
8022 14109 1 0.16500 119244.000000
8023 14110 1 0.16500 119244.000000
8023 15726 1 0.16500 119244.000000
8024 14110 1 0.16500 119244.000000
8024 15238 1 0.16500 119244.000000
8025 14111 1 0.16500 119244.000000
8025 16849 1 0.16500 119244.000000
8026 14111 1 0.16500 119244.000000
8026 16280 1 0.16500 119244.000000
8027 14111 1 0.16500 119244.000000
8027 15685 1 0.16500 119244.000000
8028 14112 1 0.16500 119244.000000
8028 16684 1 0.16500 119244.000000
8029 14113 1 0.16500 119244.000000
8029 14245 1 0.16500 119244.000000
8030 14113 1 0.16500 119244.000000
8030 16955 1 0.16500 119244.000000
8031 14113 1 0.16500 119244.000000
8031 14460 1 0.16500 119244.000000
8032 14113 1 0.16500 119244.000000
8032 16182 1 0.16500 119244.000000
8033 14114 1 0.16500 119244.000000
8033 14656 1 0.16500 119244.000000
8034 14114 1 0.16500 119244.000000
8034 14693 1 0.16500 119244.000000
8035 14114 1 0.16500 119244.000000
8035 15183 1 0.16500 119244.000000
8036 14115 1 0.16500 119244.000000
8036 14787 1 0.16500 119244.000000
8037 14115 1 0.16500 119244.000000
8037 15471 1 0.16500 119244.000000
8038 14116 1 0.16500 119244.000000
8038 16065 1 0.16500 119244.000000
8039 14116 1 0.16500 119244.000000
8039 15948 1 0.16500 119244.000000
8040 14117 1 0.16500 119244.000000
8040 15658 1 0.16500 119244.000000
8041 14117 1 0.16500 119244.000000
8041 14383 1 0.16500 119244.000000
8042 14118 1 0.16500 119244.000000
8042 14223 1 0.16500 119244.000000
8043 15376 1 0.16500 119244.000000
8043 18677 1 0.16500 119244.000000
8044 15376 1 0.16500 119244.000000
8044 15945 1 0.16500 119244.000000
8045 14119 1 0.16500 119244.000000
8045 17819 1 0.16500 119244.000000
8046 14120 1 0.16500 119244.000000
8046 16807 1 0.16500 119244.000000
8047 14121 1 0.16500 119244.000000
8047 16101 1 0.16500 119244.000000
8048 14121 1 0.16500 119244.000000
8048 16105 1 0.16500 119244.000000
8049 14122 1 0.16500 119244.000000
8049 15491 1 0.16500 119244.000000
8050 14122 1 0.16500 119244.000000
8050 16228 1 0.16500 119244.000000
8051 14123 1 0.16500 119244.000000
8051 14718 1 0.16500 119244.000000
8052 14123 1 0.16500 119244.000000
8052 14175 1 0.16500 119244.000000
8053 14125 1 0.16500 119244.000000
8053 15660 1 0.16500 119244.000000
8054 14125 1 0.16500 119244.000000
8054 16004 1 0.16500 119244.000000
8055 14126 1 0.16500 119244.000000
8055 15337 1 0.16500 119244.000000
8056 14126 1 0.16500 119244.000000
8056 14726 1 0.16500 119244.000000
8057 11952 1 0.16500 119244.000000
8057 14126 1 0.16500 119244.000000
8058 17639 1 0.16500 119244.000000
8058 18680 1 0.16500 119244.000000
8059 15757 1 0.16500 119244.000000
8059 18680 1 0.16500 119244.000000
8060 14127 1 0.16500 119244.000000
8060 15751 1 0.16500 119244.000000
8061 14127 1 0.16500 119244.000000
8061 14957 1 0.16500 119244.000000
8062 14128 1 0.16500 119244.000000
8062 15133 1 0.16500 119244.000000
8063 14129 1 0.16500 119244.000000
8063 16172 1 0.16500 119244.000000
8064 14130 1 0.16500 119244.000000
8064 16455 1 0.16500 119244.000000
8065 14130 1 0.16500 119244.000000
8065 16557 1 0.16500 119244.000000
8066 14130 1 0.16500 119244.000000
8066 14719 1 0.16500 119244.000000
8067 16313 1 0.16500 119244.000000
8067 19125 1 0.16500 119244.000000
8068 14131 1 0.16500 119244.000000
8068 14375 1 0.16500 119244.000000
8069 14131 1 0.16500 119244.000000
8069 15856 1 0.16500 119244.000000
8070 14132 1 0.16500 119244.000000
8070 15430 1 0.16500 119244.000000
8071 14132 1 0.16500 119244.000000
8071 14607 1 0.16500 119244.000000
8072 14133 1 0.16500 119244.000000
8072 15850 1 0.16500 119244.000000
8073 14134 1 0.16500 119244.000000
8073 16784 1 0.16500 119244.000000
8074 14135 1 0.16500 119244.000000
8074 15437 1 0.16500 119244.000000
8075 14136 1 0.16500 119244.000000
8075 14538 1 0.16500 119244.000000
8076 14136 1 0.16500 119244.000000
8076 15316 1 0.16500 119244.000000
8077 14136 1 0.16500 119244.000000
8077 16042 1 0.16500 119244.000000
8078 14137 1 0.16500 119244.000000
8078 14336 1 0.16500 119244.000000
8079 14137 1 0.16500 119244.000000
8079 15535 1 0.16500 119244.000000
8080 14137 1 0.16500 119244.000000
8080 15198 1 0.16500 119244.000000
8081 14138 1 0.16500 119244.000000
8081 19082 1 0.16500 119244.000000
8082 14139 1 0.16500 119244.000000
8082 15810 1 0.16500 119244.000000
8083 14139 1 0.16500 119244.000000
8083 15370 1 0.16500 119244.000000
8084 13763 1 0.16500 119244.000000
8084 14573 1 0.16500 119244.000000
8085 14140 1 0.16500 119244.000000
8085 15620 1 0.16500 119244.000000
8086 14140 1 0.16500 119244.000000
8086 15040 1 0.16500 119244.000000
8087 14141 1 0.16500 119244.000000
8087 15543 1 0.16500 119244.000000
8088 14141 1 0.16500 119244.000000
8088 15483 1 0.16500 119244.000000
8089 14142 1 0.16500 119244.000000
8089 14784 1 0.16500 119244.000000
8090 12801 1 0.16500 119244.000000
8090 14142 1 0.16500 119244.000000
8091 14994 1 0.16500 119244.000000
8091 18683 1 0.16500 119244.000000
8092 15124 1 0.16500 119244.000000
8092 18683 1 0.16500 119244.000000
8093 17399 1 0.16500 119244.000000
8093 18683 1 0.16500 119244.000000
8094 14143 1 0.16500 119244.000000
8094 14507 1 0.16500 119244.000000
8095 14143 1 0.16500 119244.000000
8095 19160 1 0.16500 119244.000000
8096 14144 1 0.16500 119244.000000
8096 16128 1 0.16500 119244.000000
8097 14144 1 0.16500 119244.000000
8097 19070 1 0.16500 119244.000000
8098 14145 1 0.16500 119244.000000
8098 16464 1 0.16500 119244.000000
8099 16012 1 0.16500 119244.000000
8099 16380 1 0.16500 119244.000000
8100 14145 1 0.16500 119244.000000
8100 14364 1 0.16500 119244.000000
8101 14145 1 0.16500 119244.000000
8101 16380 1 0.16500 119244.000000
8102 14146 1 0.16500 119244.000000
8102 15169 1 0.16500 119244.000000
8103 14146 1 0.16500 119244.000000
8103 16358 1 0.16500 119244.000000
8104 14146 1 0.16500 119244.000000
8104 14257 1 0.16500 119244.000000
8105 14688 1 0.16500 119244.000000
8105 16143 1 0.16500 119244.000000
8106 14148 1 0.16500 119244.000000
8106 14688 1 0.16500 119244.000000
8107 14150 1 0.16500 119244.000000
8107 16051 1 0.16500 119244.000000
8108 14151 1 0.16500 119244.000000
8108 15104 1 0.16500 119244.000000
8109 14151 1 0.16500 119244.000000
8109 16340 1 0.16500 119244.000000
8110 14151 1 0.16500 119244.000000
8110 16823 1 0.16500 119244.000000
8111 14152 1 0.16500 119244.000000
8111 18827 1 0.16500 119244.000000
8112 14152 1 0.16500 119244.000000
8112 16336 1 0.16500 119244.000000
8113 14153 1 0.16500 119244.000000
8113 15768 1 0.16500 119244.000000
8114 14153 1 0.16500 119244.000000
8114 14161 1 0.16500 119244.000000
8115 12401 1 0.16500 119244.000000
8115 15648 1 0.16500 119244.000000
8116 14154 1 0.16500 119244.000000
8116 16867 1 0.16500 119244.000000
8117 14155 1 0.16500 119244.000000
8117 15488 1 0.16500 119244.000000
8118 14155 1 0.16500 119244.000000
8118 15756 1 0.16500 119244.000000
8119 14156 1 0.16500 119244.000000
8119 16552 1 0.16500 119244.000000
8120 14156 1 0.16500 119244.000000
8120 16205 1 0.16500 119244.000000
8121 14156 1 0.16500 119244.000000
8121 16479 1 0.16500 119244.000000
8122 13748 1 0.16500 119244.000000
8122 14157 1 0.16500 119244.000000
8123 14158 1 0.16500 119244.000000
8123 16442 1 0.16500 119244.000000
8124 14158 1 0.16500 119244.000000
8124 16618 1 0.16500 119244.000000
8125 14159 1 0.16500 119244.000000
8125 14377 1 0.16500 119244.000000
8126 14159 1 0.16500 119244.000000
8126 16518 1 0.16500 119244.000000
8127 14160 1 0.16500 119244.000000
8127 16894 1 0.16500 119244.000000
8128 14160 1 0.16500 119244.000000
8128 15765 1 0.16500 119244.000000
8129 14160 1 0.16500 119244.000000
8129 14575 1 0.16500 119244.000000
8130 14161 1 0.16500 119244.000000
8130 16595 1 0.16500 119244.000000
8131 14161 1 0.16500 119244.000000
8131 14853 1 0.16500 119244.000000
8132 14162 1 0.16500 119244.000000
8132 14939 1 0.16500 119244.000000
8133 14162 1 0.16500 119244.000000
8133 16804 1 0.16500 119244.000000
8134 14163 1 0.16500 119244.000000
8134 15373 1 0.16500 119244.000000
8135 14163 1 0.16500 119244.000000
8135 15362 1 0.16500 119244.000000
8136 14164 1 0.16500 119244.000000
8136 14188 1 0.16500 119244.000000
8137 14164 1 0.16500 119244.000000
8137 15007 1 0.16500 119244.000000
8138 14164 1 0.16500 119244.000000
8138 16059 1 0.16500 119244.000000
8139 14165 1 0.16500 119244.000000
8139 16695 1 0.16500 119244.000000
8140 14165 1 0.16500 119244.000000
8140 15925 1 0.16500 119244.000000
8141 14165 1 0.16500 119244.000000
8141 15738 1 0.16500 119244.000000
8142 14166 1 0.16500 119244.000000
8142 16367 1 0.16500 119244.000000
8143 14167 1 0.16500 119244.000000
8143 15257 1 0.16500 119244.000000
8144 14167 1 0.16500 119244.000000
8144 15285 1 0.16500 119244.000000
8145 14168 1 0.16500 119244.000000
8145 16571 1 0.16500 119244.000000
8146 14169 1 0.16500 119244.000000
8146 15244 1 0.16500 119244.000000
8147 14169 1 0.16500 119244.000000
8147 16579 1 0.16500 119244.000000
8148 14634 1 0.16500 119244.000000
8148 16392 1 0.16500 119244.000000
8149 14170 1 0.16500 119244.000000
8149 16392 1 0.16500 119244.000000
8150 13991 1 0.16500 119244.000000
8150 16134 1 0.16500 119244.000000
8151 14171 1 0.16500 119244.000000
8151 14299 1 0.16500 119244.000000
8152 14171 1 0.16500 119244.000000
8152 15929 1 0.16500 119244.000000
8153 15216 1 0.16500 119244.000000
8153 18689 1 0.16500 119244.000000
8154 14172 1 0.16500 119244.000000
8154 15426 1 0.16500 119244.000000
8155 14172 1 0.16500 119244.000000
8155 15569 1 0.16500 119244.000000
8156 15426 1 0.16500 119244.000000
8156 15921 1 0.16500 119244.000000
8157 14172 1 0.16500 119244.000000
8157 14667 1 0.16500 119244.000000
8158 14173 1 0.16500 119244.000000
8158 15138 1 0.16500 119244.000000
8159 14173 1 0.16500 119244.000000
8159 16852 1 0.16500 119244.000000
8160 14174 1 0.16500 119244.000000
8160 17013 1 0.16500 119244.000000
8161 11909 1 0.16500 119244.000000
8161 14909 1 0.16500 119244.000000
8162 11909 1 0.16500 119244.000000
8162 14174 1 0.16500 119244.000000
8163 14175 1 0.16500 119244.000000
8163 14338 1 0.16500 119244.000000
8164 14175 1 0.16500 119244.000000
8164 16311 1 0.16500 119244.000000
8165 14176 1 0.16500 119244.000000
8165 15771 1 0.16500 119244.000000
8166 11903 1 0.16500 119244.000000
8166 16647 1 0.16500 119244.000000
8167 14177 1 0.16500 119244.000000
8167 16666 1 0.16500 119244.000000
8168 14178 1 0.16500 119244.000000
8168 14771 1 0.16500 119244.000000
8169 14179 1 0.16500 119244.000000
8169 15241 1 0.16500 119244.000000
8170 14179 1 0.16500 119244.000000
8170 16644 1 0.16500 119244.000000
8171 14179 1 0.16500 119244.000000
8171 14361 1 0.16500 119244.000000
8172 14180 1 0.16500 119244.000000
8172 15610 1 0.16500 119244.000000
8173 14180 1 0.16500 119244.000000
8173 14646 1 0.16500 119244.000000
8174 14180 1 0.16500 119244.000000
8174 16050 1 0.16500 119244.000000
8175 14181 1 0.16500 119244.000000
8175 14462 1 0.16500 119244.000000
8176 14181 1 0.16500 119244.000000
8176 15408 1 0.16500 119244.000000
8177 14181 1 0.16500 119244.000000
8177 15314 1 0.16500 119244.000000
8178 14181 1 0.16500 119244.000000
8178 15232 1 0.16500 119244.000000
8179 14182 1 0.16500 119244.000000
8179 16080 1 0.16500 119244.000000
8180 14182 1 0.16500 119244.000000
8180 15245 1 0.16500 119244.000000
8181 14182 1 0.16500 119244.000000
8181 14981 1 0.16500 119244.000000
8182 14182 1 0.16500 119244.000000
8182 15635 1 0.16500 119244.000000
8183 14183 1 0.16500 119244.000000
8183 16329 1 0.16500 119244.000000
8184 14183 1 0.16500 119244.000000
8184 15002 1 0.16500 119244.000000
8185 14184 1 0.16500 119244.000000
8185 16240 1 0.16500 119244.000000
8186 14185 1 0.16500 119244.000000
8186 14247 1 0.16500 119244.000000
8187 14185 1 0.16500 119244.000000
8187 16725 1 0.16500 119244.000000
8188 14185 1 0.16500 119244.000000
8188 15917 1 0.16500 119244.000000
8189 14186 1 0.16500 119244.000000
8189 15433 1 0.16500 119244.000000
8190 14186 1 0.16500 119244.000000
8190 15239 1 0.16500 119244.000000
8191 14186 1 0.16500 119244.000000
8191 15382 1 0.16500 119244.000000
8192 14187 1 0.16500 119244.000000
8192 14764 1 0.16500 119244.000000
8193 14187 1 0.16500 119244.000000
8193 14305 1 0.16500 119244.000000
8194 14187 1 0.16500 119244.000000
8194 15312 1 0.16500 119244.000000
8195 14188 1 0.16500 119244.000000
8195 15268 1 0.16500 119244.000000
8196 14188 1 0.16500 119244.000000
8196 14595 1 0.16500 119244.000000
8197 14189 1 0.16500 119244.000000
8197 15769 1 0.16500 119244.000000
8198 14190 1 0.16500 119244.000000
8198 14514 1 0.16500 119244.000000
8199 14191 1 0.16500 119244.000000
8199 14214 1 0.16500 119244.000000
8200 14191 1 0.16500 119244.000000
8200 15445 1 0.16500 119244.000000
8201 14191 1 0.16500 119244.000000
8201 16631 1 0.16500 119244.000000
8202 14192 1 0.16500 119244.000000
8202 15683 1 0.16500 119244.000000
8203 14193 1 0.16500 119244.000000
8203 14819 1 0.16500 119244.000000
8204 14193 1 0.16500 119244.000000
8204 14765 1 0.16500 119244.000000
8205 14194 1 0.16500 119244.000000
8205 16685 1 0.16500 119244.000000
8206 14194 1 0.16500 119244.000000
8206 16907 1 0.16500 119244.000000
8207 14194 1 0.16500 119244.000000
8207 16027 1 0.16500 119244.000000
8208 14195 1 0.16500 119244.000000
8208 16454 1 0.16500 119244.000000
8209 14195 1 0.16500 119244.000000
8209 16377 1 0.16500 119244.000000
8210 14196 1 0.16500 119244.000000
8210 16896 1 0.16500 119244.000000
8211 12596 1 0.16500 119244.000000
8211 14422 1 0.16500 119244.000000
8212 11627 1 0.16500 119244.000000
8212 12875 1 0.16500 119244.000000
8213 14198 1 0.16500 119244.000000
8213 16004 1 0.16500 119244.000000
8214 14199 1 0.16500 119244.000000
8214 15940 1 0.16500 119244.000000
8215 14199 1 0.16500 119244.000000
8215 14976 1 0.16500 119244.000000
8216 14772 1 0.16500 119244.000000
8216 16919 1 0.16500 119244.000000
8217 14200 1 0.16500 119244.000000
8217 14772 1 0.16500 119244.000000
8218 14201 1 0.16500 119244.000000
8218 16774 1 0.16500 119244.000000
8219 14201 1 0.16500 119244.000000
8219 15063 1 0.16500 119244.000000
8220 14202 1 0.16500 119244.000000
8220 16021 1 0.16500 119244.000000
8221 16204 1 0.16500 119244.000000
8221 18692 1 0.16500 119244.000000
8222 16045 1 0.16500 119244.000000
8222 17615 1 0.16500 119244.000000
8223 14203 1 0.16500 119244.000000
8223 16037 1 0.16500 119244.000000
8224 14203 1 0.16500 119244.000000
8224 15545 1 0.16500 119244.000000
8225 14203 1 0.16500 119244.000000
8225 16995 1 0.16500 119244.000000
8226 14204 1 0.16500 119244.000000
8226 16570 1 0.16500 119244.000000
8227 14204 1 0.16500 119244.000000
8227 14440 1 0.16500 119244.000000
8228 14204 1 0.16500 119244.000000
8228 16602 1 0.16500 119244.000000
8229 14206 1 0.16500 119244.000000
8229 15721 1 0.16500 119244.000000
8230 14206 1 0.16500 119244.000000
8230 16952 1 0.16500 119244.000000
8231 14206 1 0.16500 119244.000000
8231 14403 1 0.16500 119244.000000
8232 14206 1 0.16500 119244.000000
8232 14941 1 0.16500 119244.000000
8233 14207 1 0.16500 119244.000000
8233 16338 1 0.16500 119244.000000
8234 14207 1 0.16500 119244.000000
8234 19175 1 0.16500 119244.000000
8235 14208 1 0.16500 119244.000000
8235 15068 1 0.16500 119244.000000
8236 14208 1 0.16500 119244.000000
8236 16541 1 0.16500 119244.000000
8237 14544 1 0.16500 119244.000000
8237 18695 1 0.16500 119244.000000
8238 14209 1 0.16500 119244.000000
8238 16901 1 0.16500 119244.000000
8239 14209 1 0.16500 119244.000000
8239 15934 1 0.16500 119244.000000
8240 15018 1 0.16500 119244.000000
8240 16789 1 0.16500 119244.000000
8241 14210 1 0.16500 119244.000000
8241 15311 1 0.16500 119244.000000
8242 14210 1 0.16500 119244.000000
8242 16789 1 0.16500 119244.000000
8243 14211 1 0.16500 119244.000000
8243 15235 1 0.16500 119244.000000
8244 14211 1 0.16500 119244.000000
8244 14376 1 0.16500 119244.000000
8245 14211 1 0.16500 119244.000000
8245 15885 1 0.16500 119244.000000
8246 14212 1 0.16500 119244.000000
8246 15232 1 0.16500 119244.000000
8247 14213 1 0.16500 119244.000000
8247 15818 1 0.16500 119244.000000
8248 14214 1 0.16500 119244.000000
8248 14574 1 0.16500 119244.000000
8249 14215 1 0.16500 119244.000000
8249 15762 1 0.16500 119244.000000
8250 14215 1 0.16500 119244.000000
8250 16499 1 0.16500 119244.000000
8251 14215 1 0.16500 119244.000000
8251 15307 1 0.16500 119244.000000
8252 14215 1 0.16500 119244.000000
8252 14603 1 0.16500 119244.000000
8253 14216 1 0.16500 119244.000000
8253 16230 1 0.16500 119244.000000
8254 14216 1 0.16500 119244.000000
8254 14713 1 0.16500 119244.000000
8255 14216 1 0.16500 119244.000000
8255 16986 1 0.16500 119244.000000
8256 14217 1 0.16500 119244.000000
8256 15898 1 0.16500 119244.000000
8257 14217 1 0.16500 119244.000000
8257 14328 1 0.16500 119244.000000
8258 14217 1 0.16500 119244.000000
8258 14679 1 0.16500 119244.000000
8259 15999 1 0.16500 119244.000000
8259 18305 1 0.16500 119244.000000
8260 14218 1 0.16500 119244.000000
8260 15789 1 0.16500 119244.000000
8261 14218 1 0.16500 119244.000000
8261 15544 1 0.16500 119244.000000
8262 16342 1 0.16500 119244.000000
8262 18701 1 0.16500 119244.000000
8263 14219 1 0.16500 119244.000000
8263 14701 1 0.16500 119244.000000
8264 14219 1 0.16500 119244.000000
8264 15957 1 0.16500 119244.000000
8265 15677 1 0.16500 119244.000000
8265 17021 1 0.16500 119244.000000
8266 14220 1 0.16500 119244.000000
8266 16388 1 0.16500 119244.000000
8267 14220 1 0.16500 119244.000000
8267 16494 1 0.16500 119244.000000
8268 14220 1 0.16500 119244.000000
8268 17005 1 0.16500 119244.000000
8269 14222 1 0.16500 119244.000000
8269 15339 1 0.16500 119244.000000
8270 14222 1 0.16500 119244.000000
8270 16518 1 0.16500 119244.000000
8271 14222 1 0.16500 119244.000000
8271 14592 1 0.16500 119244.000000
8272 14223 1 0.16500 119244.000000
8272 16181 1 0.16500 119244.000000
8273 14224 1 0.16500 119244.000000
8273 17016 1 0.16500 119244.000000
8274 14225 1 0.16500 119244.000000
8274 16457 1 0.16500 119244.000000
8275 14226 1 0.16500 119244.000000
8275 16213 1 0.16500 119244.000000
8276 14227 1 0.16500 119244.000000
8276 16387 1 0.16500 119244.000000
8277 13484 1 0.16500 119244.000000
8277 14813 1 0.16500 119244.000000
8278 14228 1 0.16500 119244.000000
8278 15634 1 0.16500 119244.000000
8279 13484 1 0.16500 119244.000000
8279 15315 1 0.16500 119244.000000
8280 14229 1 0.16500 119244.000000
8280 16676 1 0.16500 119244.000000
8281 14230 1 0.16500 119244.000000
8281 16564 1 0.16500 119244.000000
8282 14230 1 0.16500 119244.000000
8282 14594 1 0.16500 119244.000000
8283 14594 1 0.16500 119244.000000
8283 15059 1 0.16500 119244.000000
8284 14231 1 0.16500 119244.000000
8284 16151 1 0.16500 119244.000000
8285 14231 1 0.16500 119244.000000
8285 14545 1 0.16500 119244.000000
8286 14231 1 0.16500 119244.000000
8286 15332 1 0.16500 119244.000000
8287 14231 1 0.16500 119244.000000
8287 14442 1 0.16500 119244.000000
8288 14232 1 0.16500 119244.000000
8288 15417 1 0.16500 119244.000000
8289 14232 1 0.16500 119244.000000
8289 19135 1 0.16500 119244.000000
8290 14233 1 0.16500 119244.000000
8290 16542 1 0.16500 119244.000000
8291 14233 1 0.16500 119244.000000
8291 16948 1 0.16500 119244.000000
8292 14234 1 0.16500 119244.000000
8292 15831 1 0.16500 119244.000000
8293 14234 1 0.16500 119244.000000
8293 14704 1 0.16500 119244.000000
8294 13312 1 0.16500 119244.000000
8294 15510 1 0.16500 119244.000000
8295 14235 1 0.16500 119244.000000
8295 16530 1 0.16500 119244.000000
8296 14235 1 0.16500 119244.000000
8296 19155 1 0.16500 119244.000000
8297 14236 1 0.16500 119244.000000
8297 14883 1 0.16500 119244.000000
8298 16250 1 0.16500 119244.000000
8298 18704 1 0.16500 119244.000000
8299 14237 1 0.16500 119244.000000
8299 15297 1 0.16500 119244.000000
8300 14237 1 0.16500 119244.000000
8300 14909 1 0.16500 119244.000000
8301 14237 1 0.16500 119244.000000
8301 15818 1 0.16500 119244.000000
8302 14238 1 0.16500 119244.000000
8302 15177 1 0.16500 119244.000000
8303 14238 1 0.16500 119244.000000
8303 16610 1 0.16500 119244.000000
8304 14238 1 0.16500 119244.000000
8304 16415 1 0.16500 119244.000000
8305 14239 1 0.16500 119244.000000
8305 16010 1 0.16500 119244.000000
8306 14239 1 0.16500 119244.000000
8306 14937 1 0.16500 119244.000000
8307 14240 1 0.16500 119244.000000
8307 14495 1 0.16500 119244.000000
8308 14240 1 0.16500 119244.000000
8308 16684 1 0.16500 119244.000000
8309 14241 1 0.16500 119244.000000
8309 15645 1 0.16500 119244.000000
8310 14241 1 0.16500 119244.000000
8310 16853 1 0.16500 119244.000000
8311 14241 1 0.16500 119244.000000
8311 16701 1 0.16500 119244.000000
8312 14242 1 0.16500 119244.000000
8312 16989 1 0.16500 119244.000000
8313 14242 1 0.16500 119244.000000
8313 15727 1 0.16500 119244.000000
8314 13207 1 0.16500 119244.000000
8314 16699 1 0.16500 119244.000000
8315 15160 1 0.16500 119244.000000
8315 15727 1 0.16500 119244.000000
8316 14243 1 0.16500 119244.000000
8316 16148 1 0.16500 119244.000000
8317 14243 1 0.16500 119244.000000
8317 15554 1 0.16500 119244.000000
8318 14243 1 0.16500 119244.000000
8318 14365 1 0.16500 119244.000000
8319 14243 1 0.16500 119244.000000
8319 16878 1 0.16500 119244.000000
8320 14244 1 0.16500 119244.000000
8320 14759 1 0.16500 119244.000000
8321 14245 1 0.16500 119244.000000
8321 16534 1 0.16500 119244.000000
8322 14245 1 0.16500 119244.000000
8322 14651 1 0.16500 119244.000000
8323 14246 1 0.16500 119244.000000
8323 14938 1 0.16500 119244.000000
8324 14246 1 0.16500 119244.000000
8324 14900 1 0.16500 119244.000000
8325 14247 1 0.16500 119244.000000
8325 15423 1 0.16500 119244.000000
8326 14247 1 0.16500 119244.000000
8326 16716 1 0.16500 119244.000000
8327 14248 1 0.16500 119244.000000
8327 15092 1 0.16500 119244.000000
8328 14248 1 0.16500 119244.000000
8328 16166 1 0.16500 119244.000000
8329 14248 1 0.16500 119244.000000
8329 15773 1 0.16500 119244.000000
8330 12319 1 0.16500 119244.000000
8330 14248 1 0.16500 119244.000000
8331 14249 1 0.16500 119244.000000
8331 18854 1 0.16500 119244.000000
8332 14249 1 0.16500 119244.000000
8332 16858 1 0.16500 119244.000000
8333 14250 1 0.16500 119244.000000
8333 16582 1 0.16500 119244.000000
8334 14250 1 0.16500 119244.000000
8334 14547 1 0.16500 119244.000000
8335 14250 1 0.16500 119244.000000
8335 16639 1 0.16500 119244.000000
8336 14251 1 0.16500 119244.000000
8336 16986 1 0.16500 119244.000000
8337 14251 1 0.16500 119244.000000
8337 15923 1 0.16500 119244.000000
8338 14251 1 0.16500 119244.000000
8338 14356 1 0.16500 119244.000000
8339 14251 1 0.16500 119244.000000
8339 15315 1 0.16500 119244.000000
8340 14252 1 0.16500 119244.000000
8340 14865 1 0.16500 119244.000000
8341 14252 1 0.16500 119244.000000
8341 15822 1 0.16500 119244.000000
8342 14253 1 0.16500 119244.000000
8342 15206 1 0.16500 119244.000000
8343 14254 1 0.16500 119244.000000
8343 14348 1 0.16500 119244.000000
8344 14254 1 0.16500 119244.000000
8344 16172 1 0.16500 119244.000000
8345 14254 1 0.16500 119244.000000
8345 16202 1 0.16500 119244.000000
8346 14255 1 0.16500 119244.000000
8346 16644 1 0.16500 119244.000000
8347 14255 1 0.16500 119244.000000
8347 16881 1 0.16500 119244.000000
8348 14256 1 0.16500 119244.000000
8348 15765 1 0.16500 119244.000000
8349 14256 1 0.16500 119244.000000
8349 15467 1 0.16500 119244.000000
8350 14256 1 0.16500 119244.000000
8350 15779 1 0.16500 119244.000000
8351 14258 1 0.16500 119244.000000
8351 15514 1 0.16500 119244.000000
8352 14258 1 0.16500 119244.000000
8352 16642 1 0.16500 119244.000000
8353 14258 1 0.16500 119244.000000
8353 14340 1 0.16500 119244.000000
8354 15791 1 0.16500 119244.000000
8354 18707 1 0.16500 119244.000000
8355 14259 1 0.16500 119244.000000
8355 15330 1 0.16500 119244.000000
8356 14259 1 0.16500 119244.000000
8356 14834 1 0.16500 119244.000000
8357 14260 1 0.16500 119244.000000
8357 14820 1 0.16500 119244.000000
8358 14260 1 0.16500 119244.000000
8358 16626 1 0.16500 119244.000000
8359 14261 1 0.16500 119244.000000
8359 15459 1 0.16500 119244.000000
8360 14261 1 0.16500 119244.000000
8360 14619 1 0.16500 119244.000000
8361 14261 1 0.16500 119244.000000
8361 16793 1 0.16500 119244.000000
8362 14262 1 0.16500 119244.000000
8362 15167 1 0.16500 119244.000000
8363 14263 1 0.16500 119244.000000
8363 15666 1 0.16500 119244.000000
8364 14263 1 0.16500 119244.000000
8364 15949 1 0.16500 119244.000000
8365 14263 1 0.16500 119244.000000
8365 16750 1 0.16500 119244.000000
8366 14264 1 0.16500 119244.000000
8366 14668 1 0.16500 119244.000000
8367 14264 1 0.16500 119244.000000
8367 14291 1 0.16500 119244.000000
8368 14265 1 0.16500 119244.000000
8368 14795 1 0.16500 119244.000000
8369 14265 1 0.16500 119244.000000
8369 14296 1 0.16500 119244.000000
8370 14265 1 0.16500 119244.000000
8370 14700 1 0.16500 119244.000000
8371 18710 1 0.16500 119244.000000
8371 18743 1 0.16500 119244.000000
8372 14266 1 0.16500 119244.000000
8372 15166 1 0.16500 119244.000000
8373 16663 1 0.16500 119244.000000
8373 18695 1 0.16500 119244.000000
8374 14267 1 0.16500 119244.000000
8374 16559 1 0.16500 119244.000000
8375 14267 1 0.16500 119244.000000
8375 18875 1 0.16500 119244.000000
8376 16399 1 0.16500 119244.000000
8376 18293 1 0.16500 119244.000000
8377 14268 1 0.16500 119244.000000
8377 14789 1 0.16500 119244.000000
8378 14269 1 0.16500 119244.000000
8378 16427 1 0.16500 119244.000000
8379 14270 1 0.16500 119244.000000
8379 16178 1 0.16500 119244.000000
8380 14270 1 0.16500 119244.000000
8380 16746 1 0.16500 119244.000000
8381 14622 1 0.16500 119244.000000
8381 18059 1 0.16500 119244.000000
8382 14271 1 0.16500 119244.000000
8382 16971 1 0.16500 119244.000000
8383 11862 1 0.16500 119244.000000
8383 14271 1 0.16500 119244.000000
8384 14272 1 0.16500 119244.000000
8384 15215 1 0.16500 119244.000000
8385 14273 1 0.16500 119244.000000
8385 14582 1 0.16500 119244.000000
8386 14274 1 0.16500 119244.000000
8386 14399 1 0.16500 119244.000000
8387 14274 1 0.16500 119244.000000
8387 16379 1 0.16500 119244.000000
8388 14274 1 0.16500 119244.000000
8388 15546 1 0.16500 119244.000000
8389 14275 1 0.16500 119244.000000
8389 18788 1 0.16500 119244.000000
8390 14276 1 0.16500 119244.000000
8390 15447 1 0.16500 119244.000000
8391 14276 1 0.16500 119244.000000
8391 15606 1 0.16500 119244.000000
8392 14277 1 0.16500 119244.000000
8392 14847 1 0.16500 119244.000000
8393 14277 1 0.16500 119244.000000
8393 15887 1 0.16500 119244.000000
8394 14278 1 0.16500 119244.000000
8394 16959 1 0.16500 119244.000000
8395 14278 1 0.16500 119244.000000
8395 14684 1 0.16500 119244.000000
8396 14278 1 0.16500 119244.000000
8396 15289 1 0.16500 119244.000000
8397 14279 1 0.16500 119244.000000
8397 14638 1 0.16500 119244.000000
8398 14279 1 0.16500 119244.000000
8398 16785 1 0.16500 119244.000000
8399 14280 1 0.16500 119244.000000
8399 16212 1 0.16500 119244.000000
8400 14280 1 0.16500 119244.000000
8400 15502 1 0.16500 119244.000000
8401 14281 1 0.16500 119244.000000
8401 16827 1 0.16500 119244.000000
8402 14281 1 0.16500 119244.000000
8402 16435 1 0.16500 119244.000000
8403 14283 1 0.16500 119244.000000
8403 16471 1 0.16500 119244.000000
8404 14995 1 0.16500 119244.000000
8404 17783 1 0.16500 119244.000000
8405 17783 1 0.16500 119244.000000
8405 18965 1 0.16500 119244.000000
8406 14284 1 0.16500 119244.000000
8406 16970 1 0.16500 119244.000000
8407 14284 1 0.16500 119244.000000
8407 14556 1 0.16500 119244.000000
8408 14285 1 0.16500 119244.000000
8408 15696 1 0.16500 119244.000000
8409 14285 1 0.16500 119244.000000
8409 15494 1 0.16500 119244.000000
8410 14285 1 0.16500 119244.000000
8410 14860 1 0.16500 119244.000000
8411 14286 1 0.16500 119244.000000
8411 16244 1 0.16500 119244.000000
8412 16293 1 0.16500 119244.000000
8412 17091 1 0.16500 119244.000000
8413 14287 1 0.16500 119244.000000
8413 14620 1 0.16500 119244.000000
8414 14287 1 0.16500 119244.000000
8414 14358 1 0.16500 119244.000000
8415 14288 1 0.16500 119244.000000
8415 15392 1 0.16500 119244.000000
8416 14288 1 0.16500 119244.000000
8416 16022 1 0.16500 119244.000000
8417 14288 1 0.16500 119244.000000
8417 16277 1 0.16500 119244.000000
8418 14289 1 0.16500 119244.000000
8418 15640 1 0.16500 119244.000000
8419 14289 1 0.16500 119244.000000
8419 14450 1 0.16500 119244.000000
8420 14289 1 0.16500 119244.000000
8420 16643 1 0.16500 119244.000000
8421 13007 1 0.16500 119244.000000
8421 15712 1 0.16500 119244.000000
8422 14290 1 0.16500 119244.000000
8422 14956 1 0.16500 119244.000000
8423 14291 1 0.16500 119244.000000
8423 16108 1 0.16500 119244.000000
8424 14291 1 0.16500 119244.000000
8424 14647 1 0.16500 119244.000000
8425 14291 1 0.16500 119244.000000
8425 15706 1 0.16500 119244.000000
8426 15091 1 0.16500 119244.000000
8426 16747 1 0.16500 119244.000000
8427 14292 1 0.16500 119244.000000
8427 16747 1 0.16500 119244.000000
8428 14868 1 0.16500 119244.000000
8428 16747 1 0.16500 119244.000000
8429 16428 1 0.16500 119244.000000
8429 16705 1 0.16500 119244.000000
8430 14293 1 0.16500 119244.000000
8430 15072 1 0.16500 119244.000000
8431 14293 1 0.16500 119244.000000
8431 16705 1 0.16500 119244.000000
8432 14294 1 0.16500 119244.000000
8432 16702 1 0.16500 119244.000000
8433 14294 1 0.16500 119244.000000
8433 15524 1 0.16500 119244.000000
8434 14295 1 0.16500 119244.000000
8434 16647 1 0.16500 119244.000000
8435 14295 1 0.16500 119244.000000
8435 15558 1 0.16500 119244.000000
8436 15713 1 0.16500 119244.000000
8436 16647 1 0.16500 119244.000000
8437 15279 1 0.16500 119244.000000
8437 15970 1 0.16500 119244.000000
8438 14296 1 0.16500 119244.000000
8438 18833 1 0.16500 119244.000000
8439 14296 1 0.16500 119244.000000
8439 15970 1 0.16500 119244.000000
8440 14297 1 0.16500 119244.000000
8440 16134 1 0.16500 119244.000000
8441 14297 1 0.16500 119244.000000
8441 14822 1 0.16500 119244.000000
8442 14298 1 0.16500 119244.000000
8442 15654 1 0.16500 119244.000000
8443 14299 1 0.16500 119244.000000
8443 15111 1 0.16500 119244.000000
8444 14300 1 0.16500 119244.000000
8444 16621 1 0.16500 119244.000000
8445 14301 1 0.16500 119244.000000
8445 14336 1 0.16500 119244.000000
8446 14301 1 0.16500 119244.000000
8446 16532 1 0.16500 119244.000000
8447 14301 1 0.16500 119244.000000
8447 15193 1 0.16500 119244.000000
8448 14302 1 0.16500 119244.000000
8448 15518 1 0.16500 119244.000000
8449 14302 1 0.16500 119244.000000
8449 16147 1 0.16500 119244.000000
8450 16147 1 0.16500 119244.000000
8450 16278 1 0.16500 119244.000000
8451 14303 1 0.16500 119244.000000
8451 16535 1 0.16500 119244.000000
8452 14303 1 0.16500 119244.000000
8452 14788 1 0.16500 119244.000000
8453 14303 1 0.16500 119244.000000
8453 15681 1 0.16500 119244.000000
8454 16535 1 0.16500 119244.000000
8454 16588 1 0.16500 119244.000000
8455 14304 1 0.16500 119244.000000
8455 15340 1 0.16500 119244.000000
8456 11775 1 0.16500 119244.000000
8456 15871 1 0.16500 119244.000000
8457 14306 1 0.16500 119244.000000
8457 16052 1 0.16500 119244.000000
8458 14306 1 0.16500 119244.000000
8458 15520 1 0.16500 119244.000000
8459 16152 1 0.16500 119244.000000
8459 17735 1 0.16500 119244.000000
8460 14307 1 0.16500 119244.000000
8460 16756 1 0.16500 119244.000000
8461 14690 1 0.16500 119244.000000
8461 16756 1 0.16500 119244.000000
8462 14308 1 0.16500 119244.000000
8462 15608 1 0.16500 119244.000000
8463 14308 1 0.16500 119244.000000
8463 14981 1 0.16500 119244.000000
8464 14308 1 0.16500 119244.000000
8464 15550 1 0.16500 119244.000000
8465 14309 1 0.16500 119244.000000
8465 15009 1 0.16500 119244.000000
8466 14309 1 0.16500 119244.000000
8466 15913 1 0.16500 119244.000000
8467 14310 1 0.16500 119244.000000
8467 16931 1 0.16500 119244.000000
8468 14311 1 0.16500 119244.000000
8468 15524 1 0.16500 119244.000000
8469 13905 1 0.16500 119244.000000
8469 14311 1 0.16500 119244.000000
8470 14311 1 0.16500 119244.000000
8470 16511 1 0.16500 119244.000000
8471 14311 1 0.16500 119244.000000
8471 15781 1 0.16500 119244.000000
8472 14312 1 0.16500 119244.000000
8472 16429 1 0.16500 119244.000000
8473 14314 1 0.16500 119244.000000
8473 16656 1 0.16500 119244.000000
8474 14314 1 0.16500 119244.000000
8474 15532 1 0.16500 119244.000000
8475 14315 1 0.16500 119244.000000
8475 15327 1 0.16500 119244.000000
8476 14316 1 0.16500 119244.000000
8476 14412 1 0.16500 119244.000000
8477 14316 1 0.16500 119244.000000
8477 16315 1 0.16500 119244.000000
8478 14317 1 0.16500 119244.000000
8478 15374 1 0.16500 119244.000000
8479 14317 1 0.16500 119244.000000
8479 16965 1 0.16500 119244.000000
8480 14317 1 0.16500 119244.000000
8480 16946 1 0.16500 119244.000000
8481 14318 1 0.16500 119244.000000
8481 14830 1 0.16500 119244.000000
8482 14318 1 0.16500 119244.000000
8482 15749 1 0.16500 119244.000000
8483 14319 1 0.16500 119244.000000
8483 18800 1 0.16500 119244.000000
8484 14320 1 0.16500 119244.000000
8484 14409 1 0.16500 119244.000000
8485 14320 1 0.16500 119244.000000
8485 15214 1 0.16500 119244.000000
8486 14321 1 0.16500 119244.000000
8486 16514 1 0.16500 119244.000000
8487 14321 1 0.16500 119244.000000
8487 15193 1 0.16500 119244.000000
8488 14321 1 0.16500 119244.000000
8488 16809 1 0.16500 119244.000000
8489 14322 1 0.16500 119244.000000
8489 15238 1 0.16500 119244.000000
8490 14322 1 0.16500 119244.000000
8490 16458 1 0.16500 119244.000000
8491 14322 1 0.16500 119244.000000
8491 15120 1 0.16500 119244.000000
8492 16326 1 0.16500 119244.000000
8492 18713 1 0.16500 119244.000000
8493 14323 1 0.16500 119244.000000
8493 18896 1 0.16500 119244.000000
8494 14323 1 0.16500 119244.000000
8494 15276 1 0.16500 119244.000000
8495 14324 1 0.16500 119244.000000
8495 16518 1 0.16500 119244.000000
8496 14324 1 0.16500 119244.000000
8496 15104 1 0.16500 119244.000000
8497 15578 1 0.16500 119244.000000
8497 18962 1 0.16500 119244.000000
8498 14325 1 0.16500 119244.000000
8498 17903 1 0.16500 119244.000000
8499 14689 1 0.16500 119244.000000
8499 15578 1 0.16500 119244.000000
8500 14325 1 0.16500 119244.000000
8500 15578 1 0.16500 119244.000000
8501 14712 1 0.16500 119244.000000
8501 17591 1 0.16500 119244.000000
8502 14326 1 0.16500 119244.000000
8502 15022 1 0.16500 119244.000000
8503 14326 1 0.16500 119244.000000
8503 14692 1 0.16500 119244.000000
8504 14326 1 0.16500 119244.000000
8504 14429 1 0.16500 119244.000000
8505 12371 1 0.16500 119244.000000
8505 15828 1 0.16500 119244.000000
8506 12371 1 0.16500 119244.000000
8506 14345 1 0.16500 119244.000000
8507 14328 1 0.16500 119244.000000
8507 15595 1 0.16500 119244.000000
8508 14329 1 0.16500 119244.000000
8508 15860 1 0.16500 119244.000000
8509 14329 1 0.16500 119244.000000
8509 16361 1 0.16500 119244.000000
8510 14329 1 0.16500 119244.000000
8510 15784 1 0.16500 119244.000000
8511 14331 1 0.16500 119244.000000
8511 19064 1 0.16500 119244.000000
8512 14331 1 0.16500 119244.000000
8512 15997 1 0.16500 119244.000000
8513 14332 1 0.16500 119244.000000
8513 15492 1 0.16500 119244.000000
8514 14333 1 0.16500 119244.000000
8514 16059 1 0.16500 119244.000000
8515 14333 1 0.16500 119244.000000
8515 15205 1 0.16500 119244.000000
8516 14333 1 0.16500 119244.000000
8516 16878 1 0.16500 119244.000000
8517 14334 1 0.16500 119244.000000
8517 16787 1 0.16500 119244.000000
8518 14335 1 0.16500 119244.000000
8518 17002 1 0.16500 119244.000000
8519 14336 1 0.16500 119244.000000
8519 15546 1 0.16500 119244.000000
8520 17567 1 0.16500 119244.000000
8520 18716 1 0.16500 119244.000000
8521 14337 1 0.16500 119244.000000
8521 14967 1 0.16500 119244.000000
8522 14337 1 0.16500 119244.000000
8522 16432 1 0.16500 119244.000000
8523 14338 1 0.16500 119244.000000
8523 15215 1 0.16500 119244.000000
8524 14338 1 0.16500 119244.000000
8524 16997 1 0.16500 119244.000000
8525 11595 1 0.16500 119244.000000
8525 14732 1 0.16500 119244.000000
8526 11595 1 0.16500 119244.000000
8526 15029 1 0.16500 119244.000000
8527 11595 1 0.16500 119244.000000
8527 14590 1 0.16500 119244.000000
8528 14340 1 0.16500 119244.000000
8528 14412 1 0.16500 119244.000000
8529 14340 1 0.16500 119244.000000
8529 15043 1 0.16500 119244.000000
8530 14342 1 0.16500 119244.000000
8530 14626 1 0.16500 119244.000000
8531 14342 1 0.16500 119244.000000
8531 16225 1 0.16500 119244.000000
8532 14343 1 0.16500 119244.000000
8532 16713 1 0.16500 119244.000000
8533 14343 1 0.16500 119244.000000
8533 15798 1 0.16500 119244.000000
8534 14343 1 0.16500 119244.000000
8534 16805 1 0.16500 119244.000000
8535 14344 1 0.16500 119244.000000
8535 16355 1 0.16500 119244.000000
8536 14344 1 0.16500 119244.000000
8536 15659 1 0.16500 119244.000000
8537 14344 1 0.16500 119244.000000
8537 16675 1 0.16500 119244.000000
8538 14345 1 0.16500 119244.000000
8538 16596 1 0.16500 119244.000000
8539 14345 1 0.16500 119244.000000
8539 14698 1 0.16500 119244.000000
8540 14346 1 0.16500 119244.000000
8540 16546 1 0.16500 119244.000000
8541 14346 1 0.16500 119244.000000
8541 15944 1 0.16500 119244.000000
8542 14346 1 0.16500 119244.000000
8542 16887 1 0.16500 119244.000000
8543 14347 1 0.16500 119244.000000
8543 15171 1 0.16500 119244.000000
8544 14347 1 0.16500 119244.000000
8544 16371 1 0.16500 119244.000000
8545 14347 1 0.16500 119244.000000
8545 14461 1 0.16500 119244.000000
8546 14348 1 0.16500 119244.000000
8546 15669 1 0.16500 119244.000000
8547 14349 1 0.16500 119244.000000
8547 15483 1 0.16500 119244.000000
8548 14349 1 0.16500 119244.000000
8548 15934 1 0.16500 119244.000000
8549 14349 1 0.16500 119244.000000
8549 14591 1 0.16500 119244.000000
8550 14350 1 0.16500 119244.000000
8550 16306 1 0.16500 119244.000000
8551 14351 1 0.16500 119244.000000
8551 15157 1 0.16500 119244.000000
8552 14351 1 0.16500 119244.000000
8552 15512 1 0.16500 119244.000000
8553 14351 1 0.16500 119244.000000
8553 15040 1 0.16500 119244.000000
8554 14353 1 0.16500 119244.000000
8554 16916 1 0.16500 119244.000000
8555 14353 1 0.16500 119244.000000
8555 14385 1 0.16500 119244.000000
8556 14354 1 0.16500 119244.000000
8556 16781 1 0.16500 119244.000000
8557 14354 1 0.16500 119244.000000
8557 16874 1 0.16500 119244.000000
8558 14355 1 0.16500 119244.000000
8558 15330 1 0.16500 119244.000000
8559 14355 1 0.16500 119244.000000
8559 16762 1 0.16500 119244.000000
8560 14356 1 0.16500 119244.000000
8560 16366 1 0.16500 119244.000000
8561 14356 1 0.16500 119244.000000
8561 16487 1 0.16500 119244.000000
8562 14357 1 0.16500 119244.000000
8562 15911 1 0.16500 119244.000000
8563 14358 1 0.16500 119244.000000
8563 16783 1 0.16500 119244.000000
8564 14359 1 0.16500 119244.000000
8564 16785 1 0.16500 119244.000000
8565 14359 1 0.16500 119244.000000
8565 15699 1 0.16500 119244.000000
8566 14360 1 0.16500 119244.000000
8566 16492 1 0.16500 119244.000000
8567 14361 1 0.16500 119244.000000
8567 15544 1 0.16500 119244.000000
8568 14362 1 0.16500 119244.000000
8568 14949 1 0.16500 119244.000000
8569 14362 1 0.16500 119244.000000
8569 16242 1 0.16500 119244.000000
8570 14363 1 0.16500 119244.000000
8570 15604 1 0.16500 119244.000000
8571 14363 1 0.16500 119244.000000
8571 16980 1 0.16500 119244.000000
8572 14363 1 0.16500 119244.000000
8572 16173 1 0.16500 119244.000000
8573 14768 1 0.16500 119244.000000
8573 18722 1 0.16500 119244.000000
8574 16439 1 0.16500 119244.000000
8574 18722 1 0.16500 119244.000000
8575 14365 1 0.16500 119244.000000
8575 15627 1 0.16500 119244.000000
8576 14366 1 0.16500 119244.000000
8576 16776 1 0.16500 119244.000000
8577 14366 1 0.16500 119244.000000
8577 16219 1 0.16500 119244.000000
8578 14366 1 0.16500 119244.000000
8578 16814 1 0.16500 119244.000000
8579 14366 1 0.16500 119244.000000
8579 14444 1 0.16500 119244.000000
8580 14367 1 0.16500 119244.000000
8580 16105 1 0.16500 119244.000000
8581 11981 1 0.16500 119244.000000
8581 14367 1 0.16500 119244.000000
8582 14368 1 0.16500 119244.000000
8582 15637 1 0.16500 119244.000000
8583 14369 1 0.16500 119244.000000
8583 16439 1 0.16500 119244.000000
8584 14369 1 0.16500 119244.000000
8584 15935 1 0.16500 119244.000000
8585 11804 1 0.16500 119244.000000
8585 14369 1 0.16500 119244.000000
8586 14370 1 0.16500 119244.000000
8586 15399 1 0.16500 119244.000000
8587 14370 1 0.16500 119244.000000
8587 15608 1 0.16500 119244.000000
8588 14371 1 0.16500 119244.000000
8588 16503 1 0.16500 119244.000000
8589 14371 1 0.16500 119244.000000
8589 15919 1 0.16500 119244.000000
8590 14372 1 0.16500 119244.000000
8590 16013 1 0.16500 119244.000000
8591 14372 1 0.16500 119244.000000
8591 15464 1 0.16500 119244.000000
8592 14372 1 0.16500 119244.000000
8592 15844 1 0.16500 119244.000000
8593 13082 1 0.16500 119244.000000
8593 14947 1 0.16500 119244.000000
8594 14373 1 0.16500 119244.000000
8594 14414 1 0.16500 119244.000000
8595 14373 1 0.16500 119244.000000
8595 16807 1 0.16500 119244.000000
8596 14374 1 0.16500 119244.000000
8596 16069 1 0.16500 119244.000000
8597 14374 1 0.16500 119244.000000
8597 16154 1 0.16500 119244.000000
8598 14374 1 0.16500 119244.000000
8598 16500 1 0.16500 119244.000000
8599 14375 1 0.16500 119244.000000
8599 15408 1 0.16500 119244.000000
8600 14375 1 0.16500 119244.000000
8600 15909 1 0.16500 119244.000000
8601 14375 1 0.16500 119244.000000
8601 18785 1 0.16500 119244.000000
8602 14376 1 0.16500 119244.000000
8602 15101 1 0.16500 119244.000000
8603 14376 1 0.16500 119244.000000
8603 16743 1 0.16500 119244.000000
8604 14378 1 0.16500 119244.000000
8604 15485 1 0.16500 119244.000000
8605 14379 1 0.16500 119244.000000
8605 16792 1 0.16500 119244.000000
8606 14379 1 0.16500 119244.000000
8606 16572 1 0.16500 119244.000000
8607 14379 1 0.16500 119244.000000
8607 16885 1 0.16500 119244.000000
8608 14379 1 0.16500 119244.000000
8608 16255 1 0.16500 119244.000000
8609 14210 1 0.16500 119244.000000
8609 14380 1 0.16500 119244.000000
8610 14381 1 0.16500 119244.000000
8610 16565 1 0.16500 119244.000000
8611 14381 1 0.16500 119244.000000
8611 16287 1 0.16500 119244.000000
8612 12026 1 0.16500 119244.000000
8612 16598 1 0.16500 119244.000000
8613 14382 1 0.16500 119244.000000
8613 16558 1 0.16500 119244.000000
8614 14382 1 0.16500 119244.000000
8614 16287 1 0.16500 119244.000000
8615 14383 1 0.16500 119244.000000
8615 15472 1 0.16500 119244.000000
8616 14383 1 0.16500 119244.000000
8616 14880 1 0.16500 119244.000000
8617 14384 1 0.16500 119244.000000
8617 19170 1 0.16500 119244.000000
8618 14384 1 0.16500 119244.000000
8618 15056 1 0.16500 119244.000000
8619 14385 1 0.16500 119244.000000
8619 17867 1 0.16500 119244.000000
8620 14385 1 0.16500 119244.000000
8620 15384 1 0.16500 119244.000000
8621 18725 1 0.16500 119244.000000
8621 18923 1 0.16500 119244.000000
8622 11706 1 0.16500 119244.000000
8622 15224 1 0.16500 119244.000000
8623 14386 1 0.16500 119244.000000
8623 14801 1 0.16500 119244.000000
8624 14386 1 0.16500 119244.000000
8624 15979 1 0.16500 119244.000000
8625 14387 1 0.16500 119244.000000
8625 16322 1 0.16500 119244.000000
8626 14388 1 0.16500 119244.000000
8626 15421 1 0.16500 119244.000000
8627 14388 1 0.16500 119244.000000
8627 16950 1 0.16500 119244.000000
8628 14388 1 0.16500 119244.000000
8628 14412 1 0.16500 119244.000000
8629 14388 1 0.16500 119244.000000
8629 15514 1 0.16500 119244.000000
8630 14389 1 0.16500 119244.000000
8630 16265 1 0.16500 119244.000000
8631 14390 1 0.16500 119244.000000
8631 14539 1 0.16500 119244.000000
8632 14390 1 0.16500 119244.000000
8632 14888 1 0.16500 119244.000000
8633 14390 1 0.16500 119244.000000
8633 16026 1 0.16500 119244.000000
8634 14391 1 0.16500 119244.000000
8634 16031 1 0.16500 119244.000000
8635 14391 1 0.16500 119244.000000
8635 14738 1 0.16500 119244.000000
8636 14391 1 0.16500 119244.000000
8636 15939 1 0.16500 119244.000000
8637 15236 1 0.16500 119244.000000
8637 15316 1 0.16500 119244.000000
8638 15036 1 0.16500 119244.000000
8638 15316 1 0.16500 119244.000000
8639 14392 1 0.16500 119244.000000
8639 15316 1 0.16500 119244.000000
8640 14393 1 0.16500 119244.000000
8640 16416 1 0.16500 119244.000000
8641 14394 1 0.16500 119244.000000
8641 15853 1 0.16500 119244.000000
8642 14394 1 0.16500 119244.000000
8642 14497 1 0.16500 119244.000000
8643 14395 1 0.16500 119244.000000
8643 15635 1 0.16500 119244.000000
8644 14395 1 0.16500 119244.000000
8644 15884 1 0.16500 119244.000000
8645 14396 1 0.16500 119244.000000
8645 15350 1 0.16500 119244.000000
8646 14396 1 0.16500 119244.000000
8646 15365 1 0.16500 119244.000000
8647 16528 1 0.16500 119244.000000
8647 18728 1 0.16500 119244.000000
8648 16556 1 0.16500 119244.000000
8648 18728 1 0.16500 119244.000000
8649 14397 1 0.16500 119244.000000
8649 15470 1 0.16500 119244.000000
8650 14397 1 0.16500 119244.000000
8650 16102 1 0.16500 119244.000000
8651 14398 1 0.16500 119244.000000
8651 16015 1 0.16500 119244.000000
8652 14399 1 0.16500 119244.000000
8652 14832 1 0.16500 119244.000000
8653 14400 1 0.16500 119244.000000
8653 16301 1 0.16500 119244.000000
8654 14400 1 0.16500 119244.000000
8654 15503 1 0.16500 119244.000000
8655 14401 1 0.16500 119244.000000
8655 15452 1 0.16500 119244.000000
8656 14401 1 0.16500 119244.000000
8656 16544 1 0.16500 119244.000000
8657 14402 1 0.16500 119244.000000
8657 15262 1 0.16500 119244.000000
8658 14402 1 0.16500 119244.000000
8658 18797 1 0.16500 119244.000000
8659 14403 1 0.16500 119244.000000
8659 15589 1 0.16500 119244.000000
8660 14404 1 0.16500 119244.000000
8660 14831 1 0.16500 119244.000000
8661 14404 1 0.16500 119244.000000
8661 16195 1 0.16500 119244.000000
8662 14405 1 0.16500 119244.000000
8662 15392 1 0.16500 119244.000000
8663 14405 1 0.16500 119244.000000
8663 16755 1 0.16500 119244.000000
8664 13232 1 0.16500 119244.000000
8664 14405 1 0.16500 119244.000000
8665 14405 1 0.16500 119244.000000
8665 14923 1 0.16500 119244.000000
8666 14496 1 0.16500 119244.000000
8666 16731 1 0.16500 119244.000000
8667 14496 1 0.16500 119244.000000
8667 15381 1 0.16500 119244.000000
8668 14406 1 0.16500 119244.000000
8668 15736 1 0.16500 119244.000000
8669 14407 1 0.16500 119244.000000
8669 15675 1 0.16500 119244.000000
8670 14408 1 0.16500 119244.000000
8670 16845 1 0.16500 119244.000000
8671 14408 1 0.16500 119244.000000
8671 16733 1 0.16500 119244.000000
8672 14410 1 0.16500 119244.000000
8672 16949 1 0.16500 119244.000000
8673 14411 1 0.16500 119244.000000
8673 15326 1 0.16500 119244.000000
8674 14411 1 0.16500 119244.000000
8674 14476 1 0.16500 119244.000000
8675 11588 1 0.16500 119244.000000
8675 14413 1 0.16500 119244.000000
8676 14413 1 0.16500 119244.000000
8676 16711 1 0.16500 119244.000000
8677 14413 1 0.16500 119244.000000
8677 15827 1 0.16500 119244.000000
8678 14414 1 0.16500 119244.000000
8678 15089 1 0.16500 119244.000000
8679 15537 1 0.16500 119244.000000
8679 16175 1 0.16500 119244.000000
8680 14415 1 0.16500 119244.000000
8680 16175 1 0.16500 119244.000000
8681 14416 1 0.16500 119244.000000
8681 15487 1 0.16500 119244.000000
8682 14416 1 0.16500 119244.000000
8682 15592 1 0.16500 119244.000000
8683 14416 1 0.16500 119244.000000
8683 16260 1 0.16500 119244.000000
8684 14416 1 0.16500 119244.000000
8684 14948 1 0.16500 119244.000000
8685 14417 1 0.16500 119244.000000
8685 15386 1 0.16500 119244.000000
8686 14418 1 0.16500 119244.000000
8686 15068 1 0.16500 119244.000000
8687 14418 1 0.16500 119244.000000
8687 16745 1 0.16500 119244.000000
8688 14419 1 0.16500 119244.000000
8688 16975 1 0.16500 119244.000000
8689 14419 1 0.16500 119244.000000
8689 16084 1 0.16500 119244.000000
8690 14420 1 0.16500 119244.000000
8690 16379 1 0.16500 119244.000000
8691 14421 1 0.16500 119244.000000
8691 16572 1 0.16500 119244.000000
8692 14421 1 0.16500 119244.000000
8692 14969 1 0.16500 119244.000000
8693 14421 1 0.16500 119244.000000
8693 16792 1 0.16500 119244.000000
8694 14421 1 0.16500 119244.000000
8694 15915 1 0.16500 119244.000000
8695 14422 1 0.16500 119244.000000
8695 14773 1 0.16500 119244.000000
8696 14423 1 0.16500 119244.000000
8696 15194 1 0.16500 119244.000000
8697 14424 1 0.16500 119244.000000
8697 16877 1 0.16500 119244.000000
8698 14425 1 0.16500 119244.000000
8698 16389 1 0.16500 119244.000000
8699 14425 1 0.16500 119244.000000
8699 14662 1 0.16500 119244.000000
8700 14426 1 0.16500 119244.000000
8700 16265 1 0.16500 119244.000000
8701 14426 1 0.16500 119244.000000
8701 14768 1 0.16500 119244.000000
8702 14427 1 0.16500 119244.000000
8702 15087 1 0.16500 119244.000000
8703 14427 1 0.16500 119244.000000
8703 14984 1 0.16500 119244.000000
8704 14428 1 0.16500 119244.000000
8704 15880 1 0.16500 119244.000000
8705 14428 1 0.16500 119244.000000
8705 15842 1 0.16500 119244.000000
8706 14429 1 0.16500 119244.000000
8706 16219 1 0.16500 119244.000000
8707 14431 1 0.16500 119244.000000
8707 16033 1 0.16500 119244.000000
8708 14431 1 0.16500 119244.000000
8708 16071 1 0.16500 119244.000000
8709 14431 1 0.16500 119244.000000
8709 16245 1 0.16500 119244.000000
8710 14432 1 0.16500 119244.000000
8710 15964 1 0.16500 119244.000000
8711 14432 1 0.16500 119244.000000
8711 14451 1 0.16500 119244.000000
8712 14433 1 0.16500 119244.000000
8712 16543 1 0.16500 119244.000000
8713 14434 1 0.16500 119244.000000
8713 16135 1 0.16500 119244.000000
8714 14434 1 0.16500 119244.000000
8714 15555 1 0.16500 119244.000000
8715 14435 1 0.16500 119244.000000
8715 16955 1 0.16500 119244.000000
8716 14436 1 0.16500 119244.000000
8716 16237 1 0.16500 119244.000000
8717 14436 1 0.16500 119244.000000
8717 15440 1 0.16500 119244.000000
8718 14436 1 0.16500 119244.000000
8718 15965 1 0.16500 119244.000000
8719 14437 1 0.16500 119244.000000
8719 15509 1 0.16500 119244.000000
8720 14437 1 0.16500 119244.000000
8720 16704 1 0.16500 119244.000000
8721 14438 1 0.16500 119244.000000
8721 14687 1 0.16500 119244.000000
8722 14438 1 0.16500 119244.000000
8722 15572 1 0.16500 119244.000000
8723 14439 1 0.16500 119244.000000
8723 16162 1 0.16500 119244.000000
8724 14439 1 0.16500 119244.000000
8724 15341 1 0.16500 119244.000000
8725 14439 1 0.16500 119244.000000
8725 15081 1 0.16500 119244.000000
8726 14440 1 0.16500 119244.000000
8726 14900 1 0.16500 119244.000000
8727 14440 1 0.16500 119244.000000
8727 15456 1 0.16500 119244.000000
8728 14441 1 0.16500 119244.000000
8728 16036 1 0.16500 119244.000000
8729 11637 1 0.16500 119244.000000
8729 14441 1 0.16500 119244.000000
8730 14441 1 0.16500 119244.000000
8730 15923 1 0.16500 119244.000000
8731 16607 1 0.16500 119244.000000
8731 18731 1 0.16500 119244.000000
8732 16504 1 0.16500 119244.000000
8732 18731 1 0.16500 119244.000000
8733 14442 1 0.16500 119244.000000
8733 15174 1 0.16500 119244.000000
8734 14443 1 0.16500 119244.000000
8734 16722 1 0.16500 119244.000000
8735 13606 1 0.16500 119244.000000
8735 16868 1 0.16500 119244.000000
8736 14444 1 0.16500 119244.000000
8736 16130 1 0.16500 119244.000000
8737 14445 1 0.16500 119244.000000
8737 14660 1 0.16500 119244.000000
8738 14446 1 0.16500 119244.000000
8738 16811 1 0.16500 119244.000000
8739 14446 1 0.16500 119244.000000
8739 16880 1 0.16500 119244.000000
8740 14446 1 0.16500 119244.000000
8740 16335 1 0.16500 119244.000000
8741 14447 1 0.16500 119244.000000
8741 15474 1 0.16500 119244.000000
8742 14448 1 0.16500 119244.000000
8742 15977 1 0.16500 119244.000000
8743 14448 1 0.16500 119244.000000
8743 15745 1 0.16500 119244.000000
8744 14449 1 0.16500 119244.000000
8744 14921 1 0.16500 119244.000000
8745 14449 1 0.16500 119244.000000
8745 16506 1 0.16500 119244.000000
8746 14450 1 0.16500 119244.000000
8746 16047 1 0.16500 119244.000000
8747 14452 1 0.16500 119244.000000
8747 14466 1 0.16500 119244.000000
8748 14452 1 0.16500 119244.000000
8748 15403 1 0.16500 119244.000000
8749 14452 1 0.16500 119244.000000
8749 15810 1 0.16500 119244.000000
8750 14453 1 0.16500 119244.000000
8750 16063 1 0.16500 119244.000000
8751 14454 1 0.16500 119244.000000
8751 15403 1 0.16500 119244.000000
8752 14455 1 0.16500 119244.000000
8752 14458 1 0.16500 119244.000000
8753 14455 1 0.16500 119244.000000
8753 14670 1 0.16500 119244.000000
8754 14456 1 0.16500 119244.000000
8754 15612 1 0.16500 119244.000000
8755 14456 1 0.16500 119244.000000
8755 14549 1 0.16500 119244.000000
8756 14456 1 0.16500 119244.000000
8756 16489 1 0.16500 119244.000000
8757 14458 1 0.16500 119244.000000
8757 16248 1 0.16500 119244.000000
8758 14459 1 0.16500 119244.000000
8758 15675 1 0.16500 119244.000000
8759 14459 1 0.16500 119244.000000
8759 15344 1 0.16500 119244.000000
8760 18737 1 0.16500 119244.000000
8760 19049 1 0.16500 119244.000000
8761 16166 1 0.16500 119244.000000
8761 18737 1 0.16500 119244.000000
8762 14460 1 0.16500 119244.000000
8762 15959 1 0.16500 119244.000000
8763 14461 1 0.16500 119244.000000
8763 15462 1 0.16500 119244.000000
8764 14462 1 0.16500 119244.000000
8764 14467 1 0.16500 119244.000000
8765 14462 1 0.16500 119244.000000
8765 14696 1 0.16500 119244.000000
8766 14463 1 0.16500 119244.000000
8766 14913 1 0.16500 119244.000000
8767 14463 1 0.16500 119244.000000
8767 16285 1 0.16500 119244.000000
8768 14464 1 0.16500 119244.000000
8768 14993 1 0.16500 119244.000000
8769 14464 1 0.16500 119244.000000
8769 16199 1 0.16500 119244.000000
8770 14465 1 0.16500 119244.000000
8770 15645 1 0.16500 119244.000000
8771 14465 1 0.16500 119244.000000
8771 15869 1 0.16500 119244.000000
8772 14467 1 0.16500 119244.000000
8772 16721 1 0.16500 119244.000000
8773 14468 1 0.16500 119244.000000
8773 16519 1 0.16500 119244.000000
8774 14468 1 0.16500 119244.000000
8774 14884 1 0.16500 119244.000000
8775 14469 1 0.16500 119244.000000
8775 15766 1 0.16500 119244.000000
8776 14469 1 0.16500 119244.000000
8776 15469 1 0.16500 119244.000000
8777 14470 1 0.16500 119244.000000
8777 14712 1 0.16500 119244.000000
8778 14471 1 0.16500 119244.000000
8778 15607 1 0.16500 119244.000000
8779 14471 1 0.16500 119244.000000
8779 14769 1 0.16500 119244.000000
8780 14472 1 0.16500 119244.000000
8780 16205 1 0.16500 119244.000000
8781 14472 1 0.16500 119244.000000
8781 15923 1 0.16500 119244.000000
8782 14472 1 0.16500 119244.000000
8782 15282 1 0.16500 119244.000000
8783 14473 1 0.16500 119244.000000
8783 16924 1 0.16500 119244.000000
8784 14473 1 0.16500 119244.000000
8784 14915 1 0.16500 119244.000000
8785 14474 1 0.16500 119244.000000
8785 15673 1 0.16500 119244.000000
8786 14475 1 0.16500 119244.000000
8786 15490 1 0.16500 119244.000000
8787 14475 1 0.16500 119244.000000
8787 16043 1 0.16500 119244.000000
8788 14476 1 0.16500 119244.000000
8788 15253 1 0.16500 119244.000000
8789 14476 1 0.16500 119244.000000
8789 15932 1 0.16500 119244.000000
8790 14477 1 0.16500 119244.000000
8790 15135 1 0.16500 119244.000000
8791 14477 1 0.16500 119244.000000
8791 15630 1 0.16500 119244.000000
8792 14477 1 0.16500 119244.000000
8792 14964 1 0.16500 119244.000000
8793 14478 1 0.16500 119244.000000
8793 15172 1 0.16500 119244.000000
8794 14478 1 0.16500 119244.000000
8794 16018 1 0.16500 119244.000000
8795 14479 1 0.16500 119244.000000
8795 15127 1 0.16500 119244.000000
8796 14480 1 0.16500 119244.000000
8796 14752 1 0.16500 119244.000000
8797 14480 1 0.16500 119244.000000
8797 14824 1 0.16500 119244.000000
8798 14481 1 0.16500 119244.000000
8798 15209 1 0.16500 119244.000000
8799 14481 1 0.16500 119244.000000
8799 18989 1 0.16500 119244.000000
8800 14482 1 0.16500 119244.000000
8800 16001 1 0.16500 119244.000000
8801 13962 1 0.16500 119244.000000
8801 14482 1 0.16500 119244.000000
8802 14482 1 0.16500 119244.000000
8802 15278 1 0.16500 119244.000000
8803 14483 1 0.16500 119244.000000
8803 16467 1 0.16500 119244.000000
8804 14483 1 0.16500 119244.000000
8804 14486 1 0.16500 119244.000000
8805 14484 1 0.16500 119244.000000
8805 15094 1 0.16500 119244.000000
8806 14484 1 0.16500 119244.000000
8806 14618 1 0.16500 119244.000000
8807 14484 1 0.16500 119244.000000
8807 16356 1 0.16500 119244.000000
8808 14485 1 0.16500 119244.000000
8808 15582 1 0.16500 119244.000000
8809 14486 1 0.16500 119244.000000
8809 16610 1 0.16500 119244.000000
8810 14486 1 0.16500 119244.000000
8810 14871 1 0.16500 119244.000000
8811 14486 1 0.16500 119244.000000
8811 15991 1 0.16500 119244.000000
8812 14487 1 0.16500 119244.000000
8812 16602 1 0.16500 119244.000000
8813 15290 1 0.16500 119244.000000
8813 18743 1 0.16500 119244.000000
8814 14488 1 0.16500 119244.000000
8814 15299 1 0.16500 119244.000000
8815 12903 1 0.16500 119244.000000
8815 18998 1 0.16500 119244.000000
8816 14489 1 0.16500 119244.000000
8816 15144 1 0.16500 119244.000000
8817 14490 1 0.16500 119244.000000
8817 16615 1 0.16500 119244.000000
8818 14491 1 0.16500 119244.000000
8818 16346 1 0.16500 119244.000000
8819 14491 1 0.16500 119244.000000
8819 16786 1 0.16500 119244.000000
8820 14492 1 0.16500 119244.000000
8820 16652 1 0.16500 119244.000000
8821 14493 1 0.16500 119244.000000
8821 16332 1 0.16500 119244.000000
8822 18746 1 0.16500 119244.000000
8822 18968 1 0.16500 119244.000000
8823 14494 1 0.16500 119244.000000
8823 14932 1 0.16500 119244.000000
8824 14494 1 0.16500 119244.000000
8824 16423 1 0.16500 119244.000000
8825 14495 1 0.16500 119244.000000
8825 15583 1 0.16500 119244.000000
8826 16141 1 0.16500 119244.000000
8826 16731 1 0.16500 119244.000000
8827 14499 1 0.16500 119244.000000
8827 14599 1 0.16500 119244.000000
8828 14499 1 0.16500 119244.000000
8828 15181 1 0.16500 119244.000000
8829 14314 1 0.16500 119244.000000
8829 14499 1 0.16500 119244.000000
8830 14500 1 0.16500 119244.000000
8830 16172 1 0.16500 119244.000000
8831 14501 1 0.16500 119244.000000
8831 16319 1 0.16500 119244.000000
8832 14501 1 0.16500 119244.000000
8832 16015 1 0.16500 119244.000000
8833 14501 1 0.16500 119244.000000
8833 15338 1 0.16500 119244.000000
8834 14501 1 0.16500 119244.000000
8834 15024 1 0.16500 119244.000000
8835 14502 1 0.16500 119244.000000
8835 14759 1 0.16500 119244.000000
8836 14503 1 0.16500 119244.000000
8836 15862 1 0.16500 119244.000000
8837 14504 1 0.16500 119244.000000
8837 15234 1 0.16500 119244.000000
8838 14505 1 0.16500 119244.000000
8838 15360 1 0.16500 119244.000000
8839 14505 1 0.16500 119244.000000
8839 15706 1 0.16500 119244.000000
8840 14505 1 0.16500 119244.000000
8840 16287 1 0.16500 119244.000000
8841 14506 1 0.16500 119244.000000
8841 18035 1 0.16500 119244.000000
8842 14506 1 0.16500 119244.000000
8842 14884 1 0.16500 119244.000000
8843 14507 1 0.16500 119244.000000
8843 16493 1 0.16500 119244.000000
8844 14507 1 0.16500 119244.000000
8844 15580 1 0.16500 119244.000000
8845 14508 1 0.16500 119244.000000
8845 16689 1 0.16500 119244.000000
8846 14508 1 0.16500 119244.000000
8846 16668 1 0.16500 119244.000000
8847 14509 1 0.16500 119244.000000
8847 15712 1 0.16500 119244.000000
8848 13342 1 0.16500 119244.000000
8848 15137 1 0.16500 119244.000000
8849 14510 1 0.16500 119244.000000
8849 15672 1 0.16500 119244.000000
8850 14511 1 0.16500 119244.000000
8850 16933 1 0.16500 119244.000000
8851 16053 1 0.16500 119244.000000
8851 17819 1 0.16500 119244.000000
8852 14513 1 0.16500 119244.000000
8852 15243 1 0.16500 119244.000000
8853 14513 1 0.16500 119244.000000
8853 15490 1 0.16500 119244.000000
8854 14513 1 0.16500 119244.000000
8854 16675 1 0.16500 119244.000000
8855 13149 1 0.16500 119244.000000
8855 16895 1 0.16500 119244.000000
8856 14515 1 0.16500 119244.000000
8856 14976 1 0.16500 119244.000000
8857 14515 1 0.16500 119244.000000
8857 14776 1 0.16500 119244.000000
8858 14516 1 0.16500 119244.000000
8858 16210 1 0.16500 119244.000000
8859 14516 1 0.16500 119244.000000
8859 15794 1 0.16500 119244.000000
8860 14516 1 0.16500 119244.000000
8860 16682 1 0.16500 119244.000000
8861 14517 1 0.16500 119244.000000
8861 16566 1 0.16500 119244.000000
8862 14517 1 0.16500 119244.000000
8862 14958 1 0.16500 119244.000000
8863 14517 1 0.16500 119244.000000
8863 15474 1 0.16500 119244.000000
8864 14518 1 0.16500 119244.000000
8864 16641 1 0.16500 119244.000000
8865 14518 1 0.16500 119244.000000
8865 16645 1 0.16500 119244.000000
8866 14519 1 0.16500 119244.000000
8866 15215 1 0.16500 119244.000000
8867 14519 1 0.16500 119244.000000
8867 16741 1 0.16500 119244.000000
8868 14520 1 0.16500 119244.000000
8868 14775 1 0.16500 119244.000000
8869 16214 1 0.16500 119244.000000
8869 18263 1 0.16500 119244.000000
8870 14521 1 0.16500 119244.000000
8870 16630 1 0.16500 119244.000000
8871 14521 1 0.16500 119244.000000
8871 14679 1 0.16500 119244.000000
8872 14523 1 0.16500 119244.000000
8872 15469 1 0.16500 119244.000000
8873 14524 1 0.16500 119244.000000
8873 15257 1 0.16500 119244.000000
8874 14524 1 0.16500 119244.000000
8874 15876 1 0.16500 119244.000000
8875 14524 1 0.16500 119244.000000
8875 15149 1 0.16500 119244.000000
8876 14525 1 0.16500 119244.000000
8876 15216 1 0.16500 119244.000000
8877 14526 1 0.16500 119244.000000
8877 15446 1 0.16500 119244.000000
8878 14527 1 0.16500 119244.000000
8878 14940 1 0.16500 119244.000000
8879 14527 1 0.16500 119244.000000
8879 17105 1 0.16500 119244.000000
8880 14528 1 0.16500 119244.000000
8880 15514 1 0.16500 119244.000000
8881 14529 1 0.16500 119244.000000
8881 15438 1 0.16500 119244.000000
8882 14529 1 0.16500 119244.000000
8882 16573 1 0.16500 119244.000000
8883 14530 1 0.16500 119244.000000
8883 15718 1 0.16500 119244.000000
8884 14531 1 0.16500 119244.000000
8884 16117 1 0.16500 119244.000000
8885 14531 1 0.16500 119244.000000
8885 15973 1 0.16500 119244.000000
8886 14532 1 0.16500 119244.000000
8886 14856 1 0.16500 119244.000000
8887 14532 1 0.16500 119244.000000
8887 16184 1 0.16500 119244.000000
8888 14534 1 0.16500 119244.000000
8888 16436 1 0.16500 119244.000000
8889 14534 1 0.16500 119244.000000
8889 16417 1 0.16500 119244.000000
8890 14534 1 0.16500 119244.000000
8890 14767 1 0.16500 119244.000000
8891 14535 1 0.16500 119244.000000
8891 14780 1 0.16500 119244.000000
8892 14535 1 0.16500 119244.000000
8892 15862 1 0.16500 119244.000000
8893 13647 1 0.16500 119244.000000
8893 14536 1 0.16500 119244.000000
8894 12333 1 0.16500 119244.000000
8894 16395 1 0.16500 119244.000000
8895 14537 1 0.16500 119244.000000
8895 16738 1 0.16500 119244.000000
8896 14538 1 0.16500 119244.000000
8896 15179 1 0.16500 119244.000000
8897 14538 1 0.16500 119244.000000
8897 15194 1 0.16500 119244.000000
8898 14538 1 0.16500 119244.000000
8898 15434 1 0.16500 119244.000000
8899 14539 1 0.16500 119244.000000
8899 14936 1 0.16500 119244.000000
8900 14540 1 0.16500 119244.000000
8900 16737 1 0.16500 119244.000000
8901 14540 1 0.16500 119244.000000
8901 16165 1 0.16500 119244.000000
8902 14541 1 0.16500 119244.000000
8902 16432 1 0.16500 119244.000000
8903 14541 1 0.16500 119244.000000
8903 16538 1 0.16500 119244.000000
8904 14542 1 0.16500 119244.000000
8904 16810 1 0.16500 119244.000000
8905 14542 1 0.16500 119244.000000
8905 16959 1 0.16500 119244.000000
8906 14542 1 0.16500 119244.000000
8906 15442 1 0.16500 119244.000000
8907 14543 1 0.16500 119244.000000
8907 16393 1 0.16500 119244.000000
8908 14544 1 0.16500 119244.000000
8908 15363 1 0.16500 119244.000000
8909 14546 1 0.16500 119244.000000
8909 15263 1 0.16500 119244.000000
8910 14546 1 0.16500 119244.000000
8910 14976 1 0.16500 119244.000000
8911 14547 1 0.16500 119244.000000
8911 16221 1 0.16500 119244.000000
8912 14547 1 0.16500 119244.000000
8912 15083 1 0.16500 119244.000000
8913 14548 1 0.16500 119244.000000
8913 14628 1 0.16500 119244.000000
8914 14549 1 0.16500 119244.000000
8914 14971 1 0.16500 119244.000000
8915 14549 1 0.16500 119244.000000
8915 15019 1 0.16500 119244.000000
8916 13472 1 0.16500 119244.000000
8916 14550 1 0.16500 119244.000000
8917 14551 1 0.16500 119244.000000
8917 15873 1 0.16500 119244.000000
8918 14552 1 0.16500 119244.000000
8918 15244 1 0.16500 119244.000000
8919 14552 1 0.16500 119244.000000
8919 15082 1 0.16500 119244.000000
8920 14552 1 0.16500 119244.000000
8920 15620 1 0.16500 119244.000000
8921 14553 1 0.16500 119244.000000
8921 16501 1 0.16500 119244.000000
8922 14553 1 0.16500 119244.000000
8922 16539 1 0.16500 119244.000000
8923 18752 1 0.16500 119244.000000
8923 19079 1 0.16500 119244.000000
8924 14555 1 0.16500 119244.000000
8924 15525 1 0.16500 119244.000000
8925 14555 1 0.16500 119244.000000
8925 16919 1 0.16500 119244.000000
8926 14555 1 0.16500 119244.000000
8926 15427 1 0.16500 119244.000000
8927 14556 1 0.16500 119244.000000
8927 16803 1 0.16500 119244.000000
8928 17483 1 0.16500 119244.000000
8928 18755 1 0.16500 119244.000000
8929 14557 1 0.16500 119244.000000
8929 16730 1 0.16500 119244.000000
8930 14558 1 0.16500 119244.000000
8930 16939 1 0.16500 119244.000000
8931 14558 1 0.16500 119244.000000
8931 16774 1 0.16500 119244.000000
8932 14558 1 0.16500 119244.000000
8932 16154 1 0.16500 119244.000000
8933 14558 1 0.16500 119244.000000
8933 16427 1 0.16500 119244.000000
8934 14559 1 0.16500 119244.000000
8934 16592 1 0.16500 119244.000000
8935 14559 1 0.16500 119244.000000
8935 15828 1 0.16500 119244.000000
8936 14560 1 0.16500 119244.000000
8936 15318 1 0.16500 119244.000000
8937 14561 1 0.16500 119244.000000
8937 15314 1 0.16500 119244.000000
8938 14561 1 0.16500 119244.000000
8938 18917 1 0.16500 119244.000000
8939 14115 1 0.16500 119244.000000
8939 14562 1 0.16500 119244.000000
8940 14563 1 0.16500 119244.000000
8940 16721 1 0.16500 119244.000000
8941 14564 1 0.16500 119244.000000
8941 14610 1 0.16500 119244.000000
8942 15451 1 0.16500 119244.000000
8942 18758 1 0.16500 119244.000000
8943 14565 1 0.16500 119244.000000
8943 16457 1 0.16500 119244.000000
8944 14565 1 0.16500 119244.000000
8944 15157 1 0.16500 119244.000000
8945 14565 1 0.16500 119244.000000
8945 16671 1 0.16500 119244.000000
8946 14565 1 0.16500 119244.000000
8946 16914 1 0.16500 119244.000000
8947 14566 1 0.16500 119244.000000
8947 16552 1 0.16500 119244.000000
8948 14566 1 0.16500 119244.000000
8948 14805 1 0.16500 119244.000000
8949 14567 1 0.16500 119244.000000
8949 16902 1 0.16500 119244.000000
8950 14567 1 0.16500 119244.000000
8950 15600 1 0.16500 119244.000000
8951 14567 1 0.16500 119244.000000
8951 15798 1 0.16500 119244.000000
8952 14567 1 0.16500 119244.000000
8952 16961 1 0.16500 119244.000000
8953 14568 1 0.16500 119244.000000
8953 15804 1 0.16500 119244.000000
8954 14569 1 0.16500 119244.000000
8954 17867 1 0.16500 119244.000000
8955 14569 1 0.16500 119244.000000
8955 15377 1 0.16500 119244.000000
8956 14569 1 0.16500 119244.000000
8956 15091 1 0.16500 119244.000000
8957 14570 1 0.16500 119244.000000
8957 14882 1 0.16500 119244.000000
8958 14570 1 0.16500 119244.000000
8958 17008 1 0.16500 119244.000000
8959 14570 1 0.16500 119244.000000
8959 15784 1 0.16500 119244.000000
8960 14572 1 0.16500 119244.000000
8960 14576 1 0.16500 119244.000000
8961 14573 1 0.16500 119244.000000
8961 17891 1 0.16500 119244.000000
8962 15647 1 0.16500 119244.000000
8962 18023 1 0.16500 119244.000000
8963 14574 1 0.16500 119244.000000
8963 16999 1 0.16500 119244.000000
8964 14575 1 0.16500 119244.000000
8964 15792 1 0.16500 119244.000000
8965 14575 1 0.16500 119244.000000
8965 16924 1 0.16500 119244.000000
8966 14575 1 0.16500 119244.000000
8966 16703 1 0.16500 119244.000000
8967 14576 1 0.16500 119244.000000
8967 16218 1 0.16500 119244.000000
8968 14577 1 0.16500 119244.000000
8968 16022 1 0.16500 119244.000000
8969 14577 1 0.16500 119244.000000
8969 15981 1 0.16500 119244.000000
8970 12348 1 0.16500 119244.000000
8970 16566 1 0.16500 119244.000000
8971 14579 1 0.16500 119244.000000
8971 16994 1 0.16500 119244.000000
8972 14579 1 0.16500 119244.000000
8972 15724 1 0.16500 119244.000000
8973 14579 1 0.16500 119244.000000
8973 14955 1 0.16500 119244.000000
8974 14580 1 0.16500 119244.000000
8974 15047 1 0.16500 119244.000000
8975 16612 1 0.16500 119244.000000
8975 18761 1 0.16500 119244.000000
8976 12273 1 0.16500 119244.000000
8976 14797 1 0.16500 119244.000000
8977 14581 1 0.16500 119244.000000
8977 16327 1 0.16500 119244.000000
8978 14581 1 0.16500 119244.000000
8978 15301 1 0.16500 119244.000000
8979 14582 1 0.16500 119244.000000
8979 16775 1 0.16500 119244.000000
8980 14582 1 0.16500 119244.000000
8980 15221 1 0.16500 119244.000000
8981 14582 1 0.16500 119244.000000
8981 15651 1 0.16500 119244.000000
8982 14583 1 0.16500 119244.000000
8982 16042 1 0.16500 119244.000000
8983 14583 1 0.16500 119244.000000
8983 15353 1 0.16500 119244.000000
8984 14584 1 0.16500 119244.000000
8984 16733 1 0.16500 119244.000000
8985 14584 1 0.16500 119244.000000
8985 18866 1 0.16500 119244.000000
8986 11868 1 0.16500 119244.000000
8986 15554 1 0.16500 119244.000000
8987 14586 1 0.16500 119244.000000
8987 16997 1 0.16500 119244.000000
8988 14586 1 0.16500 119244.000000
8988 16470 1 0.16500 119244.000000
8989 14586 1 0.16500 119244.000000
8989 14788 1 0.16500 119244.000000
8990 14587 1 0.16500 119244.000000
8990 16511 1 0.16500 119244.000000
8991 14589 1 0.16500 119244.000000
8991 15938 1 0.16500 119244.000000
8992 14589 1 0.16500 119244.000000
8992 16516 1 0.16500 119244.000000
8993 14590 1 0.16500 119244.000000
8993 16339 1 0.16500 119244.000000
8994 14590 1 0.16500 119244.000000
8994 16836 1 0.16500 119244.000000
8995 14591 1 0.16500 119244.000000
8995 15543 1 0.16500 119244.000000
8996 14593 1 0.16500 119244.000000
8996 16875 1 0.16500 119244.000000
8997 14593 1 0.16500 119244.000000
8997 14982 1 0.16500 119244.000000
8998 14230 1 0.16500 119244.000000
8998 16111 1 0.16500 119244.000000
8999 14595 1 0.16500 119244.000000
8999 15409 1 0.16500 119244.000000
9000 14595 1 0.16500 119244.000000
9000 14952 1 0.16500 119244.000000
9001 16896 1 0.16500 119244.000000
9001 18317 1 0.16500 119244.000000
9002 14596 1 0.16500 119244.000000
9002 16686 1 0.16500 119244.000000
9003 14596 1 0.16500 119244.000000
9003 15987 1 0.16500 119244.000000
9004 14596 1 0.16500 119244.000000
9004 16143 1 0.16500 119244.000000
9005 14597 1 0.16500 119244.000000
9005 15910 1 0.16500 119244.000000
9006 14598 1 0.16500 119244.000000
9006 14953 1 0.16500 119244.000000
9007 14598 1 0.16500 119244.000000
9007 16960 1 0.16500 119244.000000
9008 14598 1 0.16500 119244.000000
9008 16773 1 0.16500 119244.000000
9009 14599 1 0.16500 119244.000000
9009 16656 1 0.16500 119244.000000
9010 12030 1 0.16500 119244.000000
9010 14600 1 0.16500 119244.000000
9011 14601 1 0.16500 119244.000000
9011 15510 1 0.16500 119244.000000
9012 14601 1 0.16500 119244.000000
9012 14746 1 0.16500 119244.000000
9013 14602 1 0.16500 119244.000000
9013 16295 1 0.16500 119244.000000
9014 14602 1 0.16500 119244.000000
9014 15773 1 0.16500 119244.000000
9015 14603 1 0.16500 119244.000000
9015 14927 1 0.16500 119244.000000
9016 14927 1 0.16500 119244.000000
9016 15552 1 0.16500 119244.000000
9017 14603 1 0.16500 119244.000000
9017 16799 1 0.16500 119244.000000
9018 14604 1 0.16500 119244.000000
9018 16099 1 0.16500 119244.000000
9019 14605 1 0.16500 119244.000000
9019 14667 1 0.16500 119244.000000
9020 12219 1 0.16500 119244.000000
9020 14606 1 0.16500 119244.000000
9021 14606 1 0.16500 119244.000000
9021 16453 1 0.16500 119244.000000
9022 14607 1 0.16500 119244.000000
9022 15602 1 0.16500 119244.000000
9023 14607 1 0.16500 119244.000000
9023 16349 1 0.16500 119244.000000
9024 14608 1 0.16500 119244.000000
9024 15439 1 0.16500 119244.000000
9025 14608 1 0.16500 119244.000000
9025 16397 1 0.16500 119244.000000
9026 14609 1 0.16500 119244.000000
9026 16345 1 0.16500 119244.000000
9027 14609 1 0.16500 119244.000000
9027 16025 1 0.16500 119244.000000
9028 14609 1 0.16500 119244.000000
9028 15847 1 0.16500 119244.000000
9029 14610 1 0.16500 119244.000000
9029 15272 1 0.16500 119244.000000
9030 14610 1 0.16500 119244.000000
9030 15019 1 0.16500 119244.000000
9031 14611 1 0.16500 119244.000000
9031 15749 1 0.16500 119244.000000
9032 14611 1 0.16500 119244.000000
9032 18812 1 0.16500 119244.000000
9033 13775 1 0.16500 119244.000000
9033 14611 1 0.16500 119244.000000
9034 14612 1 0.16500 119244.000000
9034 14959 1 0.16500 119244.000000
9035 15467 1 0.16500 119244.000000
9035 19135 1 0.16500 119244.000000
9036 14614 1 0.16500 119244.000000
9036 16491 1 0.16500 119244.000000
9037 14614 1 0.16500 119244.000000
9037 15035 1 0.16500 119244.000000
9038 14615 1 0.16500 119244.000000
9038 15961 1 0.16500 119244.000000
9039 14615 1 0.16500 119244.000000
9039 15368 1 0.16500 119244.000000
9040 14616 1 0.16500 119244.000000
9040 15708 1 0.16500 119244.000000
9041 15530 1 0.16500 119244.000000
9041 16233 1 0.16500 119244.000000
9042 14616 1 0.16500 119244.000000
9042 16233 1 0.16500 119244.000000
9043 14616 1 0.16500 119244.000000
9043 15862 1 0.16500 119244.000000
9044 14617 1 0.16500 119244.000000
9044 15076 1 0.16500 119244.000000
9045 14618 1 0.16500 119244.000000
9045 16081 1 0.16500 119244.000000
9046 14619 1 0.16500 119244.000000
9046 15396 1 0.16500 119244.000000
9047 14619 1 0.16500 119244.000000
9047 16228 1 0.16500 119244.000000
9048 14620 1 0.16500 119244.000000
9048 19175 1 0.16500 119244.000000
9049 14621 1 0.16500 119244.000000
9049 15576 1 0.16500 119244.000000
9050 14621 1 0.16500 119244.000000
9050 16567 1 0.16500 119244.000000
9051 14622 1 0.16500 119244.000000
9051 15203 1 0.16500 119244.000000
9052 14622 1 0.16500 119244.000000
9052 16927 1 0.16500 119244.000000
9053 14623 1 0.16500 119244.000000
9053 15598 1 0.16500 119244.000000
9054 14624 1 0.16500 119244.000000
9054 14795 1 0.16500 119244.000000
9055 14624 1 0.16500 119244.000000
9055 16498 1 0.16500 119244.000000
9056 12791 1 0.16500 119244.000000
9056 14626 1 0.16500 119244.000000
9057 14627 1 0.16500 119244.000000
9057 14885 1 0.16500 119244.000000
9058 14627 1 0.16500 119244.000000
9058 16691 1 0.16500 119244.000000
9059 14627 1 0.16500 119244.000000
9059 15037 1 0.16500 119244.000000
9060 14628 1 0.16500 119244.000000
9060 14651 1 0.16500 119244.000000
9061 13688 1 0.16500 119244.000000
9061 15366 1 0.16500 119244.000000
9062 12634 1 0.16500 119244.000000
9062 14629 1 0.16500 119244.000000
9063 14629 1 0.16500 119244.000000
9063 14742 1 0.16500 119244.000000
9064 14629 1 0.16500 119244.000000
9064 16597 1 0.16500 119244.000000
9065 14630 1 0.16500 119244.000000
9065 15104 1 0.16500 119244.000000
9066 14631 1 0.16500 119244.000000
9066 16308 1 0.16500 119244.000000
9067 15327 1 0.16500 119244.000000
9067 18764 1 0.16500 119244.000000
9068 14632 1 0.16500 119244.000000
9068 15629 1 0.16500 119244.000000
9069 15154 1 0.16500 119244.000000
9069 15629 1 0.16500 119244.000000
9070 14633 1 0.16500 119244.000000
9070 16913 1 0.16500 119244.000000
9071 14633 1 0.16500 119244.000000
9071 15323 1 0.16500 119244.000000
9072 14634 1 0.16500 119244.000000
9072 15762 1 0.16500 119244.000000
9073 12858 1 0.16500 119244.000000
9073 15561 1 0.16500 119244.000000
9074 14635 1 0.16500 119244.000000
9074 16256 1 0.16500 119244.000000
9075 14635 1 0.16500 119244.000000
9075 15222 1 0.16500 119244.000000
9076 14636 1 0.16500 119244.000000
9076 15711 1 0.16500 119244.000000
9077 14636 1 0.16500 119244.000000
9077 15832 1 0.16500 119244.000000
9078 14636 1 0.16500 119244.000000
9078 16969 1 0.16500 119244.000000
9079 14636 1 0.16500 119244.000000
9079 16554 1 0.16500 119244.000000
9080 14637 1 0.16500 119244.000000
9080 17015 1 0.16500 119244.000000
9081 14637 1 0.16500 119244.000000
9081 14645 1 0.16500 119244.000000
9082 15191 1 0.16500 119244.000000
9082 16190 1 0.16500 119244.000000
9083 14637 1 0.16500 119244.000000
9083 16190 1 0.16500 119244.000000
9084 14638 1 0.16500 119244.000000
9084 14683 1 0.16500 119244.000000
9085 13403 1 0.16500 119244.000000
9085 14775 1 0.16500 119244.000000
9086 14640 1 0.16500 119244.000000
9086 15486 1 0.16500 119244.000000
9087 14641 1 0.16500 119244.000000
9087 16000 1 0.16500 119244.000000
9088 14642 1 0.16500 119244.000000
9088 16863 1 0.16500 119244.000000
9089 14642 1 0.16500 119244.000000
9089 15646 1 0.16500 119244.000000
9090 14642 1 0.16500 119244.000000
9090 14754 1 0.16500 119244.000000
9091 14643 1 0.16500 119244.000000
9091 15149 1 0.16500 119244.000000
9092 14643 1 0.16500 119244.000000
9092 15352 1 0.16500 119244.000000
9093 14643 1 0.16500 119244.000000
9093 14644 1 0.16500 119244.000000
9094 14644 1 0.16500 119244.000000
9094 14855 1 0.16500 119244.000000
9095 14644 1 0.16500 119244.000000
9095 17016 1 0.16500 119244.000000
9096 14645 1 0.16500 119244.000000
9096 16675 1 0.16500 119244.000000
9097 14645 1 0.16500 119244.000000
9097 15325 1 0.16500 119244.000000
9098 12151 1 0.16500 119244.000000
9098 14646 1 0.16500 119244.000000
9099 14647 1 0.16500 119244.000000
9099 16568 1 0.16500 119244.000000
9100 14647 1 0.16500 119244.000000
9100 16752 1 0.16500 119244.000000
9101 14648 1 0.16500 119244.000000
9101 16486 1 0.16500 119244.000000
9102 14648 1 0.16500 119244.000000
9102 14863 1 0.16500 119244.000000
9103 16236 1 0.16500 119244.000000
9103 18767 1 0.16500 119244.000000
9104 16211 1 0.16500 119244.000000
9104 18767 1 0.16500 119244.000000
9105 14649 1 0.16500 119244.000000
9105 15511 1 0.16500 119244.000000
9106 14649 1 0.16500 119244.000000
9106 16604 1 0.16500 119244.000000
9107 14649 1 0.16500 119244.000000
9107 14658 1 0.16500 119244.000000
9108 14650 1 0.16500 119244.000000
9108 16474 1 0.16500 119244.000000
9109 14651 1 0.16500 119244.000000
9109 16333 1 0.16500 119244.000000
9110 14652 1 0.16500 119244.000000
9110 14681 1 0.16500 119244.000000
9111 13969 1 0.16500 119244.000000
9111 16469 1 0.16500 119244.000000
9112 14652 1 0.16500 119244.000000
9112 16006 1 0.16500 119244.000000
9113 14653 1 0.16500 119244.000000
9113 16301 1 0.16500 119244.000000
9114 14654 1 0.16500 119244.000000
9114 15409 1 0.16500 119244.000000
9115 14654 1 0.16500 119244.000000
9115 15268 1 0.16500 119244.000000
9116 14654 1 0.16500 119244.000000
9116 15739 1 0.16500 119244.000000
9117 14655 1 0.16500 119244.000000
9117 16603 1 0.16500 119244.000000
9118 14655 1 0.16500 119244.000000
9118 15671 1 0.16500 119244.000000
9119 15170 1 0.16500 119244.000000
9119 15671 1 0.16500 119244.000000
9120 14655 1 0.16500 119244.000000
9120 16444 1 0.16500 119244.000000
9121 14656 1 0.16500 119244.000000
9121 16319 1 0.16500 119244.000000
9122 14656 1 0.16500 119244.000000
9122 16249 1 0.16500 119244.000000
9123 14657 1 0.16500 119244.000000
9123 16844 1 0.16500 119244.000000
9124 14657 1 0.16500 119244.000000
9124 15729 1 0.16500 119244.000000
9125 14657 1 0.16500 119244.000000
9125 16594 1 0.16500 119244.000000
9126 16203 1 0.16500 119244.000000
9126 16594 1 0.16500 119244.000000
9127 14658 1 0.16500 119244.000000
9127 16913 1 0.16500 119244.000000
9128 13012 1 0.16500 119244.000000
9128 14658 1 0.16500 119244.000000
9129 14660 1 0.16500 119244.000000
9129 15112 1 0.16500 119244.000000
9130 13698 1 0.16500 119244.000000
9130 14661 1 0.16500 119244.000000
9131 14661 1 0.16500 119244.000000
9131 15010 1 0.16500 119244.000000
9132 14661 1 0.16500 119244.000000
9132 15591 1 0.16500 119244.000000
9133 14661 1 0.16500 119244.000000
9133 16962 1 0.16500 119244.000000
9134 12426 1 0.16500 119244.000000
9134 16471 1 0.16500 119244.000000
9135 14664 1 0.16500 119244.000000
9135 16700 1 0.16500 119244.000000
9136 14664 1 0.16500 119244.000000
9136 15735 1 0.16500 119244.000000
9137 14665 1 0.16500 119244.000000
9137 14976 1 0.16500 119244.000000
9138 14665 1 0.16500 119244.000000
9138 14781 1 0.16500 119244.000000
9139 16600 1 0.16500 119244.000000
9139 18770 1 0.16500 119244.000000
9140 14985 1 0.16500 119244.000000
9140 18770 1 0.16500 119244.000000
9141 14666 1 0.16500 119244.000000
9141 16579 1 0.16500 119244.000000
9142 14667 1 0.16500 119244.000000
9142 15186 1 0.16500 119244.000000
9143 15387 1 0.16500 119244.000000
9143 18773 1 0.16500 119244.000000
9144 14933 1 0.16500 119244.000000
9144 18773 1 0.16500 119244.000000
9145 14668 1 0.16500 119244.000000
9145 15518 1 0.16500 119244.000000
9146 16038 1 0.16500 119244.000000
9146 16752 1 0.16500 119244.000000
9147 15206 1 0.16500 119244.000000
9147 16038 1 0.16500 119244.000000
9148 14670 1 0.16500 119244.000000
9148 16038 1 0.16500 119244.000000
9149 14672 1 0.16500 119244.000000
9149 16860 1 0.16500 119244.000000
9150 14672 1 0.16500 119244.000000
9150 16113 1 0.16500 119244.000000
9151 14672 1 0.16500 119244.000000
9151 14796 1 0.16500 119244.000000
9152 14673 1 0.16500 119244.000000
9152 15286 1 0.16500 119244.000000
9153 14673 1 0.16500 119244.000000
9153 16024 1 0.16500 119244.000000
9154 14673 1 0.16500 119244.000000
9154 16072 1 0.16500 119244.000000
9155 14674 1 0.16500 119244.000000
9155 16485 1 0.16500 119244.000000
9156 14675 1 0.16500 119244.000000
9156 16048 1 0.16500 119244.000000
9157 14675 1 0.16500 119244.000000
9157 16358 1 0.16500 119244.000000
9158 14676 1 0.16500 119244.000000
9158 16095 1 0.16500 119244.000000
9159 13079 1 0.16500 119244.000000
9159 15048 1 0.16500 119244.000000
9160 14677 1 0.16500 119244.000000
9160 16374 1 0.16500 119244.000000
9161 14677 1 0.16500 119244.000000
9161 16179 1 0.16500 119244.000000
9162 14677 1 0.16500 119244.000000
9162 15858 1 0.16500 119244.000000
9163 14678 1 0.16500 119244.000000
9163 15027 1 0.16500 119244.000000
9164 14678 1 0.16500 119244.000000
9164 16645 1 0.16500 119244.000000
9165 14678 1 0.16500 119244.000000
9165 17012 1 0.16500 119244.000000
9166 14679 1 0.16500 119244.000000
9166 16906 1 0.16500 119244.000000
9167 14679 1 0.16500 119244.000000
9167 15626 1 0.16500 119244.000000
9168 14680 1 0.16500 119244.000000
9168 16110 1 0.16500 119244.000000
9169 14682 1 0.16500 119244.000000
9169 15721 1 0.16500 119244.000000
9170 14684 1 0.16500 119244.000000
9170 15571 1 0.16500 119244.000000
9171 14684 1 0.16500 119244.000000
9171 16792 1 0.16500 119244.000000
9172 12743 1 0.16500 119244.000000
9172 16227 1 0.16500 119244.000000
9173 14685 1 0.16500 119244.000000
9173 15960 1 0.16500 119244.000000
9174 12103 1 0.16500 119244.000000
9174 16892 1 0.16500 119244.000000
9175 15560 1 0.16500 119244.000000
9175 15960 1 0.16500 119244.000000
9176 14686 1 0.16500 119244.000000
9176 15394 1 0.16500 119244.000000
9177 14686 1 0.16500 119244.000000
9177 16472 1 0.16500 119244.000000
9178 14687 1 0.16500 119244.000000
9178 15143 1 0.16500 119244.000000
9179 14688 1 0.16500 119244.000000
9179 15701 1 0.16500 119244.000000
9180 14148 1 0.16500 119244.000000
9180 15601 1 0.16500 119244.000000
9181 14688 1 0.16500 119244.000000
9181 16686 1 0.16500 119244.000000
9182 14689 1 0.16500 119244.000000
9182 16403 1 0.16500 119244.000000
9183 14691 1 0.16500 119244.000000
9183 15833 1 0.16500 119244.000000
9184 14691 1 0.16500 119244.000000
9184 14936 1 0.16500 119244.000000
9185 14692 1 0.16500 119244.000000
9185 16438 1 0.16500 119244.000000
9186 14694 1 0.16500 119244.000000
9186 16822 1 0.16500 119244.000000
9187 14695 1 0.16500 119244.000000
9187 14871 1 0.16500 119244.000000
9188 14696 1 0.16500 119244.000000
9188 15572 1 0.16500 119244.000000
9189 14697 1 0.16500 119244.000000
9189 15993 1 0.16500 119244.000000
9190 14697 1 0.16500 119244.000000
9190 15450 1 0.16500 119244.000000
9191 14697 1 0.16500 119244.000000
9191 16363 1 0.16500 119244.000000
9192 14698 1 0.16500 119244.000000
9192 15172 1 0.16500 119244.000000
9193 15728 1 0.16500 119244.000000
9193 18779 1 0.16500 119244.000000
9194 12783 1 0.16500 119244.000000
9194 14699 1 0.16500 119244.000000
9195 14700 1 0.16500 119244.000000
9195 16931 1 0.16500 119244.000000
9196 14701 1 0.16500 119244.000000
9196 16395 1 0.16500 119244.000000
9197 14701 1 0.16500 119244.000000
9197 15973 1 0.16500 119244.000000
9198 14702 1 0.16500 119244.000000
9198 15815 1 0.16500 119244.000000
9199 14702 1 0.16500 119244.000000
9199 16381 1 0.16500 119244.000000
9200 14702 1 0.16500 119244.000000
9200 16382 1 0.16500 119244.000000
9201 14703 1 0.16500 119244.000000
9201 15493 1 0.16500 119244.000000
9202 14703 1 0.16500 119244.000000
9202 16611 1 0.16500 119244.000000
9203 14704 1 0.16500 119244.000000
9203 16360 1 0.16500 119244.000000
9204 14704 1 0.16500 119244.000000
9204 15625 1 0.16500 119244.000000
9205 14705 1 0.16500 119244.000000
9205 16835 1 0.16500 119244.000000
9206 14705 1 0.16500 119244.000000
9206 15010 1 0.16500 119244.000000
9207 14707 1 0.16500 119244.000000
9207 16840 1 0.16500 119244.000000
9208 14707 1 0.16500 119244.000000
9208 16489 1 0.16500 119244.000000
9209 14707 1 0.16500 119244.000000
9209 15614 1 0.16500 119244.000000
9210 14708 1 0.16500 119244.000000
9210 15952 1 0.16500 119244.000000
9211 14708 1 0.16500 119244.000000
9211 16940 1 0.16500 119244.000000
9212 14708 1 0.16500 119244.000000
9212 15857 1 0.16500 119244.000000
9213 14709 1 0.16500 119244.000000
9213 14758 1 0.16500 119244.000000
9214 14710 1 0.16500 119244.000000
9214 15422 1 0.16500 119244.000000
9215 14711 1 0.16500 119244.000000
9215 16046 1 0.16500 119244.000000
9216 14805 1 0.16500 119244.000000
9216 16234 1 0.16500 119244.000000
9217 15150 1 0.16500 119244.000000
9217 16622 1 0.16500 119244.000000
9218 14712 1 0.16500 119244.000000
9218 15150 1 0.16500 119244.000000
9219 14713 1 0.16500 119244.000000
9219 14724 1 0.16500 119244.000000
9220 14714 1 0.16500 119244.000000
9220 15468 1 0.16500 119244.000000
9221 14714 1 0.16500 119244.000000
9221 16417 1 0.16500 119244.000000
9222 14715 1 0.16500 119244.000000
9222 15617 1 0.16500 119244.000000
9223 14716 1 0.16500 119244.000000
9223 15006 1 0.16500 119244.000000
9224 14716 1 0.16500 119244.000000
9224 15099 1 0.16500 119244.000000
9225 14717 1 0.16500 119244.000000
9225 15572 1 0.16500 119244.000000
9226 14718 1 0.16500 119244.000000
9226 15723 1 0.16500 119244.000000
9227 14718 1 0.16500 119244.000000
9227 14858 1 0.16500 119244.000000
9228 12565 1 0.16500 119244.000000
9228 14719 1 0.16500 119244.000000
9229 14720 1 0.16500 119244.000000
9229 15313 1 0.16500 119244.000000
9230 14720 1 0.16500 119244.000000
9230 14891 1 0.16500 119244.000000
9231 14720 1 0.16500 119244.000000
9231 16702 1 0.16500 119244.000000
9232 14723 1 0.16500 119244.000000
9232 16186 1 0.16500 119244.000000
9233 14723 1 0.16500 119244.000000
9233 16184 1 0.16500 119244.000000
9234 14725 1 0.16500 119244.000000
9234 15781 1 0.16500 119244.000000
9235 14725 1 0.16500 119244.000000
9235 14982 1 0.16500 119244.000000
9236 14726 1 0.16500 119244.000000
9236 16196 1 0.16500 119244.000000
9237 14726 1 0.16500 119244.000000
9237 15082 1 0.16500 119244.000000
9238 14727 1 0.16500 119244.000000
9238 16727 1 0.16500 119244.000000
9239 14727 1 0.16500 119244.000000
9239 15190 1 0.16500 119244.000000
9240 14728 1 0.16500 119244.000000
9240 15545 1 0.16500 119244.000000
9241 14728 1 0.16500 119244.000000
9241 15063 1 0.16500 119244.000000
9242 14728 1 0.16500 119244.000000
9242 16538 1 0.16500 119244.000000
9243 14729 1 0.16500 119244.000000
9243 16767 1 0.16500 119244.000000
9244 14729 1 0.16500 119244.000000
9244 14785 1 0.16500 119244.000000
9245 14730 1 0.16500 119244.000000
9245 15919 1 0.16500 119244.000000
9246 14730 1 0.16500 119244.000000
9246 15053 1 0.16500 119244.000000
9247 14730 1 0.16500 119244.000000
9247 16305 1 0.16500 119244.000000
9248 14731 1 0.16500 119244.000000
9248 16058 1 0.16500 119244.000000
9249 14731 1 0.16500 119244.000000
9249 14741 1 0.16500 119244.000000
9250 14731 1 0.16500 119244.000000
9250 14855 1 0.16500 119244.000000
9251 14732 1 0.16500 119244.000000
9251 15055 1 0.16500 119244.000000
9252 14732 1 0.16500 119244.000000
9252 15880 1 0.16500 119244.000000
9253 14733 1 0.16500 119244.000000
9253 16975 1 0.16500 119244.000000
9254 14734 1 0.16500 119244.000000
9254 16665 1 0.16500 119244.000000
9255 14735 1 0.16500 119244.000000
9255 15305 1 0.16500 119244.000000
9256 14735 1 0.16500 119244.000000
9256 14892 1 0.16500 119244.000000
9257 14736 1 0.16500 119244.000000
9257 16420 1 0.16500 119244.000000
9258 14736 1 0.16500 119244.000000
9258 16096 1 0.16500 119244.000000
9259 14737 1 0.16500 119244.000000
9259 16240 1 0.16500 119244.000000
9260 14737 1 0.16500 119244.000000
9260 15039 1 0.16500 119244.000000
9261 14739 1 0.16500 119244.000000
9261 15113 1 0.16500 119244.000000
9262 14739 1 0.16500 119244.000000
9262 15517 1 0.16500 119244.000000
9263 14740 1 0.16500 119244.000000
9263 16320 1 0.16500 119244.000000
9264 14740 1 0.16500 119244.000000
9264 15301 1 0.16500 119244.000000
9265 14741 1 0.16500 119244.000000
9265 16294 1 0.16500 119244.000000
9266 14744 1 0.16500 119244.000000
9266 16112 1 0.16500 119244.000000
9267 14744 1 0.16500 119244.000000
9267 15332 1 0.16500 119244.000000
9268 14744 1 0.16500 119244.000000
9268 16653 1 0.16500 119244.000000
9269 14745 1 0.16500 119244.000000
9269 15397 1 0.16500 119244.000000
9270 14746 1 0.16500 119244.000000
9270 18800 1 0.16500 119244.000000
9271 15390 1 0.16500 119244.000000
9271 18800 1 0.16500 119244.000000
9272 14747 1 0.16500 119244.000000
9272 16105 1 0.16500 119244.000000
9273 14747 1 0.16500 119244.000000
9273 15322 1 0.16500 119244.000000
9274 14747 1 0.16500 119244.000000
9274 16840 1 0.16500 119244.000000
9275 14748 1 0.16500 119244.000000
9275 15853 1 0.16500 119244.000000
9276 16149 1 0.16500 119244.000000
9276 18785 1 0.16500 119244.000000
9277 14749 1 0.16500 119244.000000
9277 16097 1 0.16500 119244.000000
9278 14750 1 0.16500 119244.000000
9278 16983 1 0.16500 119244.000000
9279 14751 1 0.16500 119244.000000
9279 16427 1 0.16500 119244.000000
9280 14751 1 0.16500 119244.000000
9280 14765 1 0.16500 119244.000000
9281 14751 1 0.16500 119244.000000
9281 16939 1 0.16500 119244.000000
9282 14752 1 0.16500 119244.000000
9282 14863 1 0.16500 119244.000000
9283 12362 1 0.16500 119244.000000
9283 16091 1 0.16500 119244.000000
9284 17711 1 0.16500 119244.000000
9284 18845 1 0.16500 119244.000000
9285 14755 1 0.16500 119244.000000
9285 16603 1 0.16500 119244.000000
9286 16200 1 0.16500 119244.000000
9286 18788 1 0.16500 119244.000000
9287 14756 1 0.16500 119244.000000
9287 15457 1 0.16500 119244.000000
9288 14756 1 0.16500 119244.000000
9288 14985 1 0.16500 119244.000000
9289 14757 1 0.16500 119244.000000
9289 15461 1 0.16500 119244.000000
9290 14757 1 0.16500 119244.000000
9290 16067 1 0.16500 119244.000000
9291 14757 1 0.16500 119244.000000
9291 16662 1 0.16500 119244.000000
9292 14758 1 0.16500 119244.000000
9292 15563 1 0.16500 119244.000000
9293 14758 1 0.16500 119244.000000
9293 16937 1 0.16500 119244.000000
9294 14760 1 0.16500 119244.000000
9294 16424 1 0.16500 119244.000000
9295 14761 1 0.16500 119244.000000
9295 16539 1 0.16500 119244.000000
9296 14761 1 0.16500 119244.000000
9296 16203 1 0.16500 119244.000000
9297 14762 1 0.16500 119244.000000
9297 16903 1 0.16500 119244.000000
9298 14762 1 0.16500 119244.000000
9298 15031 1 0.16500 119244.000000
9299 14762 1 0.16500 119244.000000
9299 15016 1 0.16500 119244.000000
9300 14763 1 0.16500 119244.000000
9300 16254 1 0.16500 119244.000000
9301 14763 1 0.16500 119244.000000
9301 15955 1 0.16500 119244.000000
9302 14764 1 0.16500 119244.000000
9302 16314 1 0.16500 119244.000000
9303 14764 1 0.16500 119244.000000
9303 15753 1 0.16500 119244.000000
9304 12478 1 0.16500 119244.000000
9304 14765 1 0.16500 119244.000000
9305 14766 1 0.16500 119244.000000
9305 15843 1 0.16500 119244.000000
9306 14766 1 0.16500 119244.000000
9306 16077 1 0.16500 119244.000000
9307 14766 1 0.16500 119244.000000
9307 15170 1 0.16500 119244.000000
9308 14767 1 0.16500 119244.000000
9308 15759 1 0.16500 119244.000000
9309 14769 1 0.16500 119244.000000
9309 16761 1 0.16500 119244.000000
9310 14770 1 0.16500 119244.000000
9310 15054 1 0.16500 119244.000000
9311 14770 1 0.16500 119244.000000
9311 15961 1 0.16500 119244.000000
9312 14771 1 0.16500 119244.000000
9312 15703 1 0.16500 119244.000000
9313 14771 1 0.16500 119244.000000
9313 16676 1 0.16500 119244.000000
9314 14771 1 0.16500 119244.000000
9314 15321 1 0.16500 119244.000000
9315 14773 1 0.16500 119244.000000
9315 15927 1 0.16500 119244.000000
9316 14773 1 0.16500 119244.000000
9316 15557 1 0.16500 119244.000000
9317 14774 1 0.16500 119244.000000
9317 16618 1 0.16500 119244.000000
9318 14777 1 0.16500 119244.000000
9318 14948 1 0.16500 119244.000000
9319 14777 1 0.16500 119244.000000
9319 16909 1 0.16500 119244.000000
9320 14777 1 0.16500 119244.000000
9320 15207 1 0.16500 119244.000000
9321 14778 1 0.16500 119244.000000
9321 15217 1 0.16500 119244.000000
9322 14778 1 0.16500 119244.000000
9322 16942 1 0.16500 119244.000000
9323 14779 1 0.16500 119244.000000
9323 15958 1 0.16500 119244.000000
9324 14780 1 0.16500 119244.000000
9324 15942 1 0.16500 119244.000000
9325 14780 1 0.16500 119244.000000
9325 15708 1 0.16500 119244.000000
9326 14782 1 0.16500 119244.000000
9326 16048 1 0.16500 119244.000000
9327 14782 1 0.16500 119244.000000
9327 16095 1 0.16500 119244.000000
9328 14783 1 0.16500 119244.000000
9328 16021 1 0.16500 119244.000000
9329 12218 1 0.16500 119244.000000
9329 13019 1 0.16500 119244.000000
9330 14784 1 0.16500 119244.000000
9330 15713 1 0.16500 119244.000000
9331 14785 1 0.16500 119244.000000
9331 15344 1 0.16500 119244.000000
9332 14785 1 0.16500 119244.000000
9332 16596 1 0.16500 119244.000000
9333 14785 1 0.16500 119244.000000
9333 16284 1 0.16500 119244.000000
9334 14786 1 0.16500 119244.000000
9334 15755 1 0.16500 119244.000000
9335 13694 1 0.16500 119244.000000
9335 14786 1 0.16500 119244.000000
9336 14787 1 0.16500 119244.000000
9336 15481 1 0.16500 119244.000000
9337 14788 1 0.16500 119244.000000
9337 16111 1 0.16500 119244.000000
9338 14788 1 0.16500 119244.000000
9338 15527 1 0.16500 119244.000000
9339 14789 1 0.16500 119244.000000
9339 16861 1 0.16500 119244.000000
9340 14790 1 0.16500 119244.000000
9340 15946 1 0.16500 119244.000000
9341 14790 1 0.16500 119244.000000
9341 16302 1 0.16500 119244.000000
9342 14791 1 0.16500 119244.000000
9342 16642 1 0.16500 119244.000000
9343 14791 1 0.16500 119244.000000
9343 15334 1 0.16500 119244.000000
9344 14792 1 0.16500 119244.000000
9344 18947 1 0.16500 119244.000000
9345 14792 1 0.16500 119244.000000
9345 16399 1 0.16500 119244.000000
9346 14793 1 0.16500 119244.000000
9346 15638 1 0.16500 119244.000000
9347 14794 1 0.16500 119244.000000
9347 15342 1 0.16500 119244.000000
9348 14795 1 0.16500 119244.000000
9348 18962 1 0.16500 119244.000000
9349 14796 1 0.16500 119244.000000
9349 16254 1 0.16500 119244.000000
9350 14797 1 0.16500 119244.000000
9350 15136 1 0.16500 119244.000000
9351 14798 1 0.16500 119244.000000
9351 15042 1 0.16500 119244.000000
9352 12677 1 0.16500 119244.000000
9352 14798 1 0.16500 119244.000000
9353 14799 1 0.16500 119244.000000
9353 16561 1 0.16500 119244.000000
9354 14800 1 0.16500 119244.000000
9354 16745 1 0.16500 119244.000000
9355 14801 1 0.16500 119244.000000
9355 15310 1 0.16500 119244.000000
9356 14801 1 0.16500 119244.000000
9356 16087 1 0.16500 119244.000000
9357 14802 1 0.16500 119244.000000
9357 15230 1 0.16500 119244.000000
9358 14803 1 0.16500 119244.000000
9358 16271 1 0.16500 119244.000000
9359 15180 1 0.16500 119244.000000
9359 16258 1 0.16500 119244.000000
9360 14803 1 0.16500 119244.000000
9360 15180 1 0.16500 119244.000000
9361 14804 1 0.16500 119244.000000
9361 16074 1 0.16500 119244.000000
9362 14711 1 0.16500 119244.000000
9362 16234 1 0.16500 119244.000000
9363 14806 1 0.16500 119244.000000
9363 16370 1 0.16500 119244.000000
9364 14806 1 0.16500 119244.000000
9364 14873 1 0.16500 119244.000000
9365 14807 1 0.16500 119244.000000
9365 16123 1 0.16500 119244.000000
9366 14807 1 0.16500 119244.000000
9366 15410 1 0.16500 119244.000000
9367 14807 1 0.16500 119244.000000
9367 16492 1 0.16500 119244.000000
9368 14808 1 0.16500 119244.000000
9368 16820 1 0.16500 119244.000000
9369 14808 1 0.16500 119244.000000
9369 16295 1 0.16500 119244.000000
9370 14809 1 0.16500 119244.000000
9370 15088 1 0.16500 119244.000000
9371 14810 1 0.16500 119244.000000
9371 15295 1 0.16500 119244.000000
9372 14810 1 0.16500 119244.000000
9372 16418 1 0.16500 119244.000000
9373 14811 1 0.16500 119244.000000
9373 16506 1 0.16500 119244.000000
9374 14812 1 0.16500 119244.000000
9374 15302 1 0.16500 119244.000000
9375 16577 1 0.16500 119244.000000
9375 17259 1 0.16500 119244.000000
9376 14813 1 0.16500 119244.000000
9376 16632 1 0.16500 119244.000000
9377 14813 1 0.16500 119244.000000
9377 15923 1 0.16500 119244.000000
9378 14814 1 0.16500 119244.000000
9378 15905 1 0.16500 119244.000000
9379 14814 1 0.16500 119244.000000
9379 15071 1 0.16500 119244.000000
9380 14815 1 0.16500 119244.000000
9380 15596 1 0.16500 119244.000000
9381 14815 1 0.16500 119244.000000
9381 16859 1 0.16500 119244.000000
9382 14816 1 0.16500 119244.000000
9382 16628 1 0.16500 119244.000000
9383 14816 1 0.16500 119244.000000
9383 14880 1 0.16500 119244.000000
9384 14418 1 0.16500 119244.000000
9384 14818 1 0.16500 119244.000000
9385 14819 1 0.16500 119244.000000
9385 16939 1 0.16500 119244.000000
9386 14819 1 0.16500 119244.000000
9386 15109 1 0.16500 119244.000000
9387 14819 1 0.16500 119244.000000
9387 16774 1 0.16500 119244.000000
9388 16517 1 0.16500 119244.000000
9388 18131 1 0.16500 119244.000000
9389 14820 1 0.16500 119244.000000
9389 15986 1 0.16500 119244.000000
9390 14820 1 0.16500 119244.000000
9390 14911 1 0.16500 119244.000000
9391 14821 1 0.16500 119244.000000
9391 16072 1 0.16500 119244.000000
9392 14822 1 0.16500 119244.000000
9392 15117 1 0.16500 119244.000000
9393 14823 1 0.16500 119244.000000
9393 15138 1 0.16500 119244.000000
9394 11627 1 0.16500 119244.000000
9394 14823 1 0.16500 119244.000000
9395 14823 1 0.16500 119244.000000
9395 16619 1 0.16500 119244.000000
9396 14824 1 0.16500 119244.000000
9396 16613 1 0.16500 119244.000000
9397 14826 1 0.16500 119244.000000
9397 16154 1 0.16500 119244.000000
9398 14826 1 0.16500 119244.000000
9398 15289 1 0.16500 119244.000000
9399 14826 1 0.16500 119244.000000
9399 16679 1 0.16500 119244.000000
9400 14827 1 0.16500 119244.000000
9400 14911 1 0.16500 119244.000000
9401 14828 1 0.16500 119244.000000
9401 15006 1 0.16500 119244.000000
9402 14829 1 0.16500 119244.000000
9402 19185 1 0.16500 119244.000000
9403 14829 1 0.16500 119244.000000
9403 15033 1 0.16500 119244.000000
9404 14830 1 0.16500 119244.000000
9404 15619 1 0.16500 119244.000000
9405 17807 1 0.16500 119244.000000
9405 18791 1 0.16500 119244.000000
9406 14833 1 0.16500 119244.000000
9406 15669 1 0.16500 119244.000000
9407 14834 1 0.16500 119244.000000
9407 16127 1 0.16500 119244.000000
9408 14834 1 0.16500 119244.000000
9408 16653 1 0.16500 119244.000000
9409 14835 1 0.16500 119244.000000
9409 16389 1 0.16500 119244.000000
9410 14836 1 0.16500 119244.000000
9410 16034 1 0.16500 119244.000000
9411 14836 1 0.16500 119244.000000
9411 16654 1 0.16500 119244.000000
9412 14837 1 0.16500 119244.000000
9412 14863 1 0.16500 119244.000000
9413 14837 1 0.16500 119244.000000
9413 15881 1 0.16500 119244.000000
9414 14838 1 0.16500 119244.000000
9414 15890 1 0.16500 119244.000000
9415 14839 1 0.16500 119244.000000
9415 15257 1 0.16500 119244.000000
9416 14839 1 0.16500 119244.000000
9416 16058 1 0.16500 119244.000000
9417 14839 1 0.16500 119244.000000
9417 15603 1 0.16500 119244.000000
9418 14839 1 0.16500 119244.000000
9418 17016 1 0.16500 119244.000000
9419 14840 1 0.16500 119244.000000
9419 15171 1 0.16500 119244.000000
9420 14841 1 0.16500 119244.000000
9420 16677 1 0.16500 119244.000000
9421 13223 1 0.16500 119244.000000
9421 14841 1 0.16500 119244.000000
9422 14841 1 0.16500 119244.000000
9422 15645 1 0.16500 119244.000000
9423 14842 1 0.16500 119244.000000
9423 18830 1 0.16500 119244.000000
9424 14842 1 0.16500 119244.000000
9424 17483 1 0.16500 119244.000000
9425 14842 1 0.16500 119244.000000
9425 16221 1 0.16500 119244.000000
9426 14843 1 0.16500 119244.000000
9426 14915 1 0.16500 119244.000000
9427 14844 1 0.16500 119244.000000
9427 15549 1 0.16500 119244.000000
9428 14845 1 0.16500 119244.000000
9428 15088 1 0.16500 119244.000000
9429 14845 1 0.16500 119244.000000
9429 16987 1 0.16500 119244.000000
9430 14846 1 0.16500 119244.000000
9430 15273 1 0.16500 119244.000000
9431 14847 1 0.16500 119244.000000
9431 16371 1 0.16500 119244.000000
9432 14848 1 0.16500 119244.000000
9432 14934 1 0.16500 119244.000000
9433 14848 1 0.16500 119244.000000
9433 15599 1 0.16500 119244.000000
9434 14849 1 0.16500 119244.000000
9434 16973 1 0.16500 119244.000000
9435 14850 1 0.16500 119244.000000
9435 16420 1 0.16500 119244.000000
9436 14850 1 0.16500 119244.000000
9436 16943 1 0.16500 119244.000000
9437 14851 1 0.16500 119244.000000
9437 15035 1 0.16500 119244.000000
9438 14853 1 0.16500 119244.000000
9438 15413 1 0.16500 119244.000000
9439 14853 1 0.16500 119244.000000
9439 17003 1 0.16500 119244.000000
9440 14854 1 0.16500 119244.000000
9440 15626 1 0.16500 119244.000000
9441 14855 1 0.16500 119244.000000
9441 15876 1 0.16500 119244.000000
9442 14856 1 0.16500 119244.000000
9442 15806 1 0.16500 119244.000000
9443 14856 1 0.16500 119244.000000
9443 16563 1 0.16500 119244.000000
9444 14857 1 0.16500 119244.000000
9444 16496 1 0.16500 119244.000000
9445 14858 1 0.16500 119244.000000
9445 15233 1 0.16500 119244.000000
9446 14858 1 0.16500 119244.000000
9446 15880 1 0.16500 119244.000000
9447 14858 1 0.16500 119244.000000
9447 15228 1 0.16500 119244.000000
9448 14859 1 0.16500 119244.000000
9448 16192 1 0.16500 119244.000000
9449 14859 1 0.16500 119244.000000
9449 15301 1 0.16500 119244.000000
9450 14859 1 0.16500 119244.000000
9450 16560 1 0.16500 119244.000000
9451 14860 1 0.16500 119244.000000
9451 16872 1 0.16500 119244.000000
9452 14285 1 0.16500 119244.000000
9452 14885 1 0.16500 119244.000000
9453 14861 1 0.16500 119244.000000
9453 15918 1 0.16500 119244.000000
9454 14861 1 0.16500 119244.000000
9454 14981 1 0.16500 119244.000000
9455 14862 1 0.16500 119244.000000
9455 15608 1 0.16500 119244.000000
9456 16890 1 0.16500 119244.000000
9456 18884 1 0.16500 119244.000000
9457 14863 1 0.16500 119244.000000
9457 15502 1 0.16500 119244.000000
9458 14864 1 0.16500 119244.000000
9458 18803 1 0.16500 119244.000000
9459 14865 1 0.16500 119244.000000
9459 15968 1 0.16500 119244.000000
9460 14865 1 0.16500 119244.000000
9460 15359 1 0.16500 119244.000000
9461 14866 1 0.16500 119244.000000
9461 16690 1 0.16500 119244.000000
9462 14866 1 0.16500 119244.000000
9462 16468 1 0.16500 119244.000000
9463 14866 1 0.16500 119244.000000
9463 15436 1 0.16500 119244.000000
9464 15308 1 0.16500 119244.000000
9464 18794 1 0.16500 119244.000000
9465 13083 1 0.16500 119244.000000
9465 15150 1 0.16500 119244.000000
9466 14868 1 0.16500 119244.000000
9466 15377 1 0.16500 119244.000000
9467 14869 1 0.16500 119244.000000
9467 16162 1 0.16500 119244.000000
9468 14869 1 0.16500 119244.000000
9468 15237 1 0.16500 119244.000000
9469 12804 1 0.16500 119244.000000
9469 14870 1 0.16500 119244.000000
9470 14870 1 0.16500 119244.000000
9470 16526 1 0.16500 119244.000000
9471 14870 1 0.16500 119244.000000
9471 16211 1 0.16500 119244.000000
9472 14872 1 0.16500 119244.000000
9472 16154 1 0.16500 119244.000000
9473 14873 1 0.16500 119244.000000
9473 14999 1 0.16500 119244.000000
9474 14873 1 0.16500 119244.000000
9474 16701 1 0.16500 119244.000000
9475 14874 1 0.16500 119244.000000
9475 17001 1 0.16500 119244.000000
9476 14874 1 0.16500 119244.000000
9476 15500 1 0.16500 119244.000000
9477 14874 1 0.16500 119244.000000
9477 15440 1 0.16500 119244.000000
9478 14875 1 0.16500 119244.000000
9478 16494 1 0.16500 119244.000000
9479 14876 1 0.16500 119244.000000
9479 14910 1 0.16500 119244.000000
9480 14876 1 0.16500 119244.000000
9480 16364 1 0.16500 119244.000000
9481 14877 1 0.16500 119244.000000
9481 15238 1 0.16500 119244.000000
9482 14878 1 0.16500 119244.000000
9482 15874 1 0.16500 119244.000000
9483 14879 1 0.16500 119244.000000
9483 15839 1 0.16500 119244.000000
9484 14880 1 0.16500 119244.000000
9484 16937 1 0.16500 119244.000000
9485 14816 1 0.16500 119244.000000
9485 15164 1 0.16500 119244.000000
9486 12616 1 0.16500 119244.000000
9486 15653 1 0.16500 119244.000000
9487 14881 1 0.16500 119244.000000
9487 14938 1 0.16500 119244.000000
9488 14882 1 0.16500 119244.000000
9488 16851 1 0.16500 119244.000000
9489 14882 1 0.16500 119244.000000
9489 15566 1 0.16500 119244.000000
9490 14883 1 0.16500 119244.000000
9490 15372 1 0.16500 119244.000000
9491 14883 1 0.16500 119244.000000
9491 15162 1 0.16500 119244.000000
9492 15397 1 0.16500 119244.000000
9492 17217 1 0.16500 119244.000000
9493 14884 1 0.16500 119244.000000
9493 16090 1 0.16500 119244.000000
9494 14885 1 0.16500 119244.000000
9494 15025 1 0.16500 119244.000000
9495 14886 1 0.16500 119244.000000
9495 15756 1 0.16500 119244.000000
9496 14887 1 0.16500 119244.000000
9496 15309 1 0.16500 119244.000000
9497 14888 1 0.16500 119244.000000
9497 16020 1 0.16500 119244.000000
9498 14888 1 0.16500 119244.000000
9498 15437 1 0.16500 119244.000000
9499 14889 1 0.16500 119244.000000
9499 15971 1 0.16500 119244.000000
9500 14890 1 0.16500 119244.000000
9500 16431 1 0.16500 119244.000000
9501 14892 1 0.16500 119244.000000
9501 14911 1 0.16500 119244.000000
9502 14892 1 0.16500 119244.000000
9502 15399 1 0.16500 119244.000000
9503 14894 1 0.16500 119244.000000
9503 16876 1 0.16500 119244.000000
9504 14895 1 0.16500 119244.000000
9504 18929 1 0.16500 119244.000000
9505 16678 1 0.16500 119244.000000
9505 18980 1 0.16500 119244.000000
9506 14896 1 0.16500 119244.000000
9506 18980 1 0.16500 119244.000000
9507 14897 1 0.16500 119244.000000
9507 16070 1 0.16500 119244.000000
9508 13813 1 0.16500 119244.000000
9508 14897 1 0.16500 119244.000000
9509 14898 1 0.16500 119244.000000
9509 15531 1 0.16500 119244.000000
9510 12773 1 0.16500 119244.000000
9510 16104 1 0.16500 119244.000000
9511 14899 1 0.16500 119244.000000
9511 14966 1 0.16500 119244.000000
9512 14899 1 0.16500 119244.000000
9512 15986 1 0.16500 119244.000000
9513 14901 1 0.16500 119244.000000
9513 14939 1 0.16500 119244.000000
9514 14901 1 0.16500 119244.000000
9514 15472 1 0.16500 119244.000000
9515 14901 1 0.16500 119244.000000
9515 15382 1 0.16500 119244.000000
9516 14901 1 0.16500 119244.000000
9516 16937 1 0.16500 119244.000000
9517 12300 1 0.16500 119244.000000
9517 16090 1 0.16500 119244.000000
9518 14903 1 0.16500 119244.000000
9518 16249 1 0.16500 119244.000000
9519 14904 1 0.16500 119244.000000
9519 15064 1 0.16500 119244.000000
9520 14905 1 0.16500 119244.000000
9520 15534 1 0.16500 119244.000000
9521 14906 1 0.16500 119244.000000
9521 14997 1 0.16500 119244.000000
9522 14907 1 0.16500 119244.000000
9522 17013 1 0.16500 119244.000000
9523 14908 1 0.16500 119244.000000
9523 16864 1 0.16500 119244.000000
9524 14908 1 0.16500 119244.000000
9524 16805 1 0.16500 119244.000000
9525 14909 1 0.16500 119244.000000
9525 16255 1 0.16500 119244.000000
9526 14910 1 0.16500 119244.000000
9526 15674 1 0.16500 119244.000000
9527 14912 1 0.16500 119244.000000
9527 16014 1 0.16500 119244.000000
9528 14912 1 0.16500 119244.000000
9528 16261 1 0.16500 119244.000000
9529 14913 1 0.16500 119244.000000
9529 14992 1 0.16500 119244.000000
9530 14913 1 0.16500 119244.000000
9530 15071 1 0.16500 119244.000000
9531 14913 1 0.16500 119244.000000
9531 16055 1 0.16500 119244.000000
9532 15638 1 0.16500 119244.000000
9532 16180 1 0.16500 119244.000000
9533 14914 1 0.16500 119244.000000
9533 15638 1 0.16500 119244.000000
9534 14914 1 0.16500 119244.000000
9534 16962 1 0.16500 119244.000000
9535 14915 1 0.16500 119244.000000
9535 15419 1 0.16500 119244.000000
9536 14916 1 0.16500 119244.000000
9536 16466 1 0.16500 119244.000000
9537 14916 1 0.16500 119244.000000
9537 15894 1 0.16500 119244.000000
9538 14917 1 0.16500 119244.000000
9538 15112 1 0.16500 119244.000000
9539 14917 1 0.16500 119244.000000
9539 16843 1 0.16500 119244.000000
9540 14918 1 0.16500 119244.000000
9540 15054 1 0.16500 119244.000000
9541 14919 1 0.16500 119244.000000
9541 17603 1 0.16500 119244.000000
9542 14919 1 0.16500 119244.000000
9542 17287 1 0.16500 119244.000000
9543 14919 1 0.16500 119244.000000
9543 16439 1 0.16500 119244.000000
9544 14919 1 0.16500 119244.000000
9544 15357 1 0.16500 119244.000000
9545 14920 1 0.16500 119244.000000
9545 15670 1 0.16500 119244.000000
9546 14921 1 0.16500 119244.000000
9546 16839 1 0.16500 119244.000000
9547 14922 1 0.16500 119244.000000
9547 15391 1 0.16500 119244.000000
9548 14922 1 0.16500 119244.000000
9548 15050 1 0.16500 119244.000000
9549 17273 1 0.16500 119244.000000
9549 18953 1 0.16500 119244.000000
9550 14925 1 0.16500 119244.000000
9550 15689 1 0.16500 119244.000000
9551 14925 1 0.16500 119244.000000
9551 15764 1 0.16500 119244.000000
9552 14926 1 0.16500 119244.000000
9552 16545 1 0.16500 119244.000000
9553 14926 1 0.16500 119244.000000
9553 16465 1 0.16500 119244.000000
9554 14926 1 0.16500 119244.000000
9554 15486 1 0.16500 119244.000000
9555 14927 1 0.16500 119244.000000
9555 16029 1 0.16500 119244.000000
9556 14928 1 0.16500 119244.000000
9556 15014 1 0.16500 119244.000000
9557 14928 1 0.16500 119244.000000
9557 15077 1 0.16500 119244.000000
9558 15666 1 0.16500 119244.000000
9558 18557 1 0.16500 119244.000000
9559 14929 1 0.16500 119244.000000
9559 15428 1 0.16500 119244.000000
9560 14929 1 0.16500 119244.000000
9560 16131 1 0.16500 119244.000000
9561 14930 1 0.16500 119244.000000
9561 16383 1 0.16500 119244.000000
9562 14930 1 0.16500 119244.000000
9562 15631 1 0.16500 119244.000000
9563 14931 1 0.16500 119244.000000
9563 15313 1 0.16500 119244.000000
9564 14932 1 0.16500 119244.000000
9564 15325 1 0.16500 119244.000000
9565 14933 1 0.16500 119244.000000
9565 16813 1 0.16500 119244.000000
9566 14933 1 0.16500 119244.000000
9566 16614 1 0.16500 119244.000000
9567 14848 1 0.16500 119244.000000
9567 15888 1 0.16500 119244.000000
9568 14233 1 0.16500 119244.000000
9568 14935 1 0.16500 119244.000000
9569 14936 1 0.16500 119244.000000
9569 15958 1 0.16500 119244.000000
9570 14936 1 0.16500 119244.000000
9570 15458 1 0.16500 119244.000000
9571 14937 1 0.16500 119244.000000
9571 15419 1 0.16500 119244.000000
9572 14939 1 0.16500 119244.000000
9572 15564 1 0.16500 119244.000000
9573 14940 1 0.16500 119244.000000
9573 16355 1 0.16500 119244.000000
9574 14941 1 0.16500 119244.000000
9574 15836 1 0.16500 119244.000000
9575 14941 1 0.16500 119244.000000
9575 15709 1 0.16500 119244.000000
9576 14942 1 0.16500 119244.000000
9576 16697 1 0.16500 119244.000000
9577 14942 1 0.16500 119244.000000
9577 16914 1 0.16500 119244.000000
9578 14943 1 0.16500 119244.000000
9578 19058 1 0.16500 119244.000000
9579 14944 1 0.16500 119244.000000
9579 15480 1 0.16500 119244.000000
9580 14945 1 0.16500 119244.000000
9580 16960 1 0.16500 119244.000000
9581 14946 1 0.16500 119244.000000
9581 18926 1 0.16500 119244.000000
9582 14946 1 0.16500 119244.000000
9582 16222 1 0.16500 119244.000000
9583 14946 1 0.16500 119244.000000
9583 16483 1 0.16500 119244.000000
9584 14949 1 0.16500 119244.000000
9584 16735 1 0.16500 119244.000000
9585 14949 1 0.16500 119244.000000
9585 16208 1 0.16500 119244.000000
9586 14950 1 0.16500 119244.000000
9586 16780 1 0.16500 119244.000000
9587 14951 1 0.16500 119244.000000
9587 16498 1 0.16500 119244.000000
9588 14952 1 0.16500 119244.000000
9588 16694 1 0.16500 119244.000000
9589 14952 1 0.16500 119244.000000
9589 16693 1 0.16500 119244.000000
9590 14952 1 0.16500 119244.000000
9590 15861 1 0.16500 119244.000000
9591 14954 1 0.16500 119244.000000
9591 15299 1 0.16500 119244.000000
9592 14954 1 0.16500 119244.000000
9592 15357 1 0.16500 119244.000000
9593 14955 1 0.16500 119244.000000
9593 16222 1 0.16500 119244.000000
9594 14955 1 0.16500 119244.000000
9594 16077 1 0.16500 119244.000000
9595 14956 1 0.16500 119244.000000
9595 16381 1 0.16500 119244.000000
9596 14956 1 0.16500 119244.000000
9596 15038 1 0.16500 119244.000000
9597 15622 1 0.16500 119244.000000
9597 16381 1 0.16500 119244.000000
9598 14957 1 0.16500 119244.000000
9598 15060 1 0.16500 119244.000000
9599 14957 1 0.16500 119244.000000
9599 16500 1 0.16500 119244.000000
9600 14958 1 0.16500 119244.000000
9600 16226 1 0.16500 119244.000000
9601 15210 1 0.16500 119244.000000
9601 18797 1 0.16500 119244.000000
9602 15679 1 0.16500 119244.000000
9602 18797 1 0.16500 119244.000000
9603 14959 1 0.16500 119244.000000
9603 15349 1 0.16500 119244.000000
9604 14960 1 0.16500 119244.000000
9604 16449 1 0.16500 119244.000000
9605 14960 1 0.16500 119244.000000
9605 15112 1 0.16500 119244.000000
9606 14961 1 0.16500 119244.000000
9606 16200 1 0.16500 119244.000000
9607 14962 1 0.16500 119244.000000
9607 15996 1 0.16500 119244.000000
9608 14962 1 0.16500 119244.000000
9608 16283 1 0.16500 119244.000000
9609 14963 1 0.16500 119244.000000
9609 16553 1 0.16500 119244.000000
9610 16553 1 0.16500 119244.000000
9610 16575 1 0.16500 119244.000000
9611 16456 1 0.16500 119244.000000
9611 16553 1 0.16500 119244.000000
9612 14964 1 0.16500 119244.000000
9612 16640 1 0.16500 119244.000000
9613 14964 1 0.16500 119244.000000
9613 16025 1 0.16500 119244.000000
9614 14965 1 0.16500 119244.000000
9614 15694 1 0.16500 119244.000000
9615 14965 1 0.16500 119244.000000
9615 16054 1 0.16500 119244.000000
9616 14967 1 0.16500 119244.000000
9616 16037 1 0.16500 119244.000000
9617 14967 1 0.16500 119244.000000
9617 16873 1 0.16500 119244.000000
9618 14969 1 0.16500 119244.000000
9618 16230 1 0.16500 119244.000000
9619 14970 1 0.16500 119244.000000
9619 15717 1 0.16500 119244.000000
9620 14971 1 0.16500 119244.000000
9620 16907 1 0.16500 119244.000000
9621 12977 1 0.16500 119244.000000
9621 15391 1 0.16500 119244.000000
9622 15686 1 0.16500 119244.000000
9622 19145 1 0.16500 119244.000000
9623 14975 1 0.16500 119244.000000
9623 16607 1 0.16500 119244.000000
9624 14975 1 0.16500 119244.000000
9624 16590 1 0.16500 119244.000000
9625 14975 1 0.16500 119244.000000
9625 16404 1 0.16500 119244.000000
9626 14977 1 0.16500 119244.000000
9626 16644 1 0.16500 119244.000000
9627 14977 1 0.16500 119244.000000
9627 15789 1 0.16500 119244.000000
9628 14977 1 0.16500 119244.000000
9628 15823 1 0.16500 119244.000000
9629 14977 1 0.16500 119244.000000
9629 15065 1 0.16500 119244.000000
9630 14978 1 0.16500 119244.000000
9630 16552 1 0.16500 119244.000000
9631 14978 1 0.16500 119244.000000
9631 15304 1 0.16500 119244.000000
9632 14979 1 0.16500 119244.000000
9632 16096 1 0.16500 119244.000000
9633 15908 1 0.16500 119244.000000
9633 16096 1 0.16500 119244.000000
9634 14979 1 0.16500 119244.000000
9634 16943 1 0.16500 119244.000000
9635 14980 1 0.16500 119244.000000
9635 15384 1 0.16500 119244.000000
9636 14980 1 0.16500 119244.000000
9636 15460 1 0.16500 119244.000000
9637 14981 1 0.16500 119244.000000
9637 16082 1 0.16500 119244.000000
9638 14982 1 0.16500 119244.000000
9638 16858 1 0.16500 119244.000000
9639 14982 1 0.16500 119244.000000
9639 16945 1 0.16500 119244.000000
9640 14983 1 0.16500 119244.000000
9640 15567 1 0.16500 119244.000000
9641 14984 1 0.16500 119244.000000
9641 15303 1 0.16500 119244.000000
9642 14985 1 0.16500 119244.000000
9642 15709 1 0.16500 119244.000000
9643 14985 1 0.16500 119244.000000
9643 15358 1 0.16500 119244.000000
9644 16753 1 0.16500 119244.000000
9644 17507 1 0.16500 119244.000000
9645 17507 1 0.16500 119244.000000
9645 19016 1 0.16500 119244.000000
9646 14986 1 0.16500 119244.000000
9646 16429 1 0.16500 119244.000000
9647 14986 1 0.16500 119244.000000
9647 16259 1 0.16500 119244.000000
9648 14987 1 0.16500 119244.000000
9648 15479 1 0.16500 119244.000000
9649 14989 1 0.16500 119244.000000
9649 16165 1 0.16500 119244.000000
9650 14989 1 0.16500 119244.000000
9650 16431 1 0.16500 119244.000000
9651 14989 1 0.16500 119244.000000
9651 16625 1 0.16500 119244.000000
9652 14990 1 0.16500 119244.000000
9652 18935 1 0.16500 119244.000000
9653 14991 1 0.16500 119244.000000
9653 15649 1 0.16500 119244.000000
9654 14994 1 0.16500 119244.000000
9654 16310 1 0.16500 119244.000000
9655 15943 1 0.16500 119244.000000
9655 16147 1 0.16500 119244.000000
9656 14995 1 0.16500 119244.000000
9656 16147 1 0.16500 119244.000000
9657 14996 1 0.16500 119244.000000
9657 15704 1 0.16500 119244.000000
9658 14997 1 0.16500 119244.000000
9658 15971 1 0.16500 119244.000000
9659 14997 1 0.16500 119244.000000
9659 15630 1 0.16500 119244.000000
9660 14997 1 0.16500 119244.000000
9660 16634 1 0.16500 119244.000000
9661 14998 1 0.16500 119244.000000
9661 16270 1 0.16500 119244.000000
9662 14998 1 0.16500 119244.000000
9662 15439 1 0.16500 119244.000000
9663 14998 1 0.16500 119244.000000
9663 15086 1 0.16500 119244.000000
9664 14999 1 0.16500 119244.000000
9664 16475 1 0.16500 119244.000000
9665 15000 1 0.16500 119244.000000
9665 15095 1 0.16500 119244.000000
9666 15000 1 0.16500 119244.000000
9666 15398 1 0.16500 119244.000000
9667 15001 1 0.16500 119244.000000
9667 16394 1 0.16500 119244.000000
9668 15001 1 0.16500 119244.000000
9668 19031 1 0.16500 119244.000000
9669 15001 1 0.16500 119244.000000
9669 15161 1 0.16500 119244.000000
9670 15001 1 0.16500 119244.000000
9670 16050 1 0.16500 119244.000000
9671 15002 1 0.16500 119244.000000
9671 15212 1 0.16500 119244.000000
9672 15003 1 0.16500 119244.000000
9672 18023 1 0.16500 119244.000000
9673 15004 1 0.16500 119244.000000
9673 16812 1 0.16500 119244.000000
9674 15005 1 0.16500 119244.000000
9674 15308 1 0.16500 119244.000000
9675 15006 1 0.16500 119244.000000
9675 16414 1 0.16500 119244.000000
9676 15007 1 0.16500 119244.000000
9676 15152 1 0.16500 119244.000000
9677 15008 1 0.16500 119244.000000
9677 15852 1 0.16500 119244.000000
9678 15008 1 0.16500 119244.000000
9678 15528 1 0.16500 119244.000000
9679 15008 1 0.16500 119244.000000
9679 15787 1 0.16500 119244.000000
9680 15009 1 0.16500 119244.000000
9680 16845 1 0.16500 119244.000000
9681 15009 1 0.16500 119244.000000
9681 15413 1 0.16500 119244.000000
9682 15009 1 0.16500 119244.000000
9682 15553 1 0.16500 119244.000000
9683 16905 1 0.16500 119244.000000
9683 18803 1 0.16500 119244.000000
9684 15010 1 0.16500 119244.000000
9684 15418 1 0.16500 119244.000000
9685 15011 1 0.16500 119244.000000
9685 16131 1 0.16500 119244.000000
9686 15011 1 0.16500 119244.000000
9686 15865 1 0.16500 119244.000000
9687 16140 1 0.16500 119244.000000
9687 16938 1 0.16500 119244.000000
9688 15012 1 0.16500 119244.000000
9688 16938 1 0.16500 119244.000000
9689 15013 1 0.16500 119244.000000
9689 16615 1 0.16500 119244.000000
9690 18806 1 0.16500 119244.000000
9690 18983 1 0.16500 119244.000000
9691 15014 1 0.16500 119244.000000
9691 17245 1 0.16500 119244.000000
9692 15015 1 0.16500 119244.000000
9692 16565 1 0.16500 119244.000000
9693 15016 1 0.16500 119244.000000
9693 16924 1 0.16500 119244.000000
9694 15017 1 0.16500 119244.000000
9694 15241 1 0.16500 119244.000000
9695 15017 1 0.16500 119244.000000
9695 15869 1 0.16500 119244.000000
9696 15018 1 0.16500 119244.000000
9696 16903 1 0.16500 119244.000000
9697 15018 1 0.16500 119244.000000
9697 16032 1 0.16500 119244.000000
9698 15019 1 0.16500 119244.000000
9698 15439 1 0.16500 119244.000000
9699 15020 1 0.16500 119244.000000
9699 15963 1 0.16500 119244.000000
9700 15020 1 0.16500 119244.000000
9700 16625 1 0.16500 119244.000000
9701 15020 1 0.16500 119244.000000
9701 16510 1 0.16500 119244.000000
9702 15021 1 0.16500 119244.000000
9702 15039 1 0.16500 119244.000000
9703 15021 1 0.16500 119244.000000
9703 15748 1 0.16500 119244.000000
9704 15021 1 0.16500 119244.000000
9704 16366 1 0.16500 119244.000000
9705 15022 1 0.16500 119244.000000
9705 16405 1 0.16500 119244.000000
9706 15022 1 0.16500 119244.000000
9706 16279 1 0.16500 119244.000000
9707 15195 1 0.16500 119244.000000
9707 16405 1 0.16500 119244.000000
9708 15023 1 0.16500 119244.000000
9708 16299 1 0.16500 119244.000000
9709 11881 1 0.16500 119244.000000
9709 15024 1 0.16500 119244.000000
9710 15025 1 0.16500 119244.000000
9710 16092 1 0.16500 119244.000000
9711 15025 1 0.16500 119244.000000
9711 16034 1 0.16500 119244.000000
9712 15026 1 0.16500 119244.000000
9712 15438 1 0.16500 119244.000000
9713 15026 1 0.16500 119244.000000
9713 15609 1 0.16500 119244.000000
9714 15027 1 0.16500 119244.000000
9714 16332 1 0.16500 119244.000000
9715 15027 1 0.16500 119244.000000
9715 16057 1 0.16500 119244.000000
9716 15028 1 0.16500 119244.000000
9716 16987 1 0.16500 119244.000000
9717 15028 1 0.16500 119244.000000
9717 15284 1 0.16500 119244.000000
9718 15029 1 0.16500 119244.000000
9718 15035 1 0.16500 119244.000000
9719 15030 1 0.16500 119244.000000
9719 16187 1 0.16500 119244.000000
9720 15030 1 0.16500 119244.000000
9720 15605 1 0.16500 119244.000000
9721 15030 1 0.16500 119244.000000
9721 15225 1 0.16500 119244.000000
9722 15032 1 0.16500 119244.000000
9722 15560 1 0.16500 119244.000000
9723 15032 1 0.16500 119244.000000
9723 16338 1 0.16500 119244.000000
9724 15034 1 0.16500 119244.000000
9724 16200 1 0.16500 119244.000000
9725 15035 1 0.16500 119244.000000
9725 15299 1 0.16500 119244.000000
9726 15036 1 0.16500 119244.000000
9726 16420 1 0.16500 119244.000000
9727 12043 1 0.16500 119244.000000
9727 17639 1 0.16500 119244.000000
9728 15037 1 0.16500 119244.000000
9728 16092 1 0.16500 119244.000000
9729 15683 1 0.16500 119244.000000
9729 15990 1 0.16500 119244.000000
9730 15038 1 0.16500 119244.000000
9730 15990 1 0.16500 119244.000000
9731 15040 1 0.16500 119244.000000
9731 16061 1 0.16500 119244.000000
9732 15041 1 0.16500 119244.000000
9732 15877 1 0.16500 119244.000000
9733 15041 1 0.16500 119244.000000
9733 16459 1 0.16500 119244.000000
9734 15041 1 0.16500 119244.000000
9734 16136 1 0.16500 119244.000000
9735 15041 1 0.16500 119244.000000
9735 16830 1 0.16500 119244.000000
9736 15042 1 0.16500 119244.000000
9736 15333 1 0.16500 119244.000000
9737 15042 1 0.16500 119244.000000
9737 15814 1 0.16500 119244.000000
9738 15042 1 0.16500 119244.000000
9738 15862 1 0.16500 119244.000000
9739 15043 1 0.16500 119244.000000
9739 15994 1 0.16500 119244.000000
9740 13194 1 0.16500 119244.000000
9740 16239 1 0.16500 119244.000000
9741 15045 1 0.16500 119244.000000
9741 15921 1 0.16500 119244.000000
9742 15046 1 0.16500 119244.000000
9742 15722 1 0.16500 119244.000000
9743 15046 1 0.16500 119244.000000
9743 16245 1 0.16500 119244.000000
9744 15047 1 0.16500 119244.000000
9744 16305 1 0.16500 119244.000000
9745 15047 1 0.16500 119244.000000
9745 16550 1 0.16500 119244.000000
9746 15048 1 0.16500 119244.000000
9746 15970 1 0.16500 119244.000000
9747 15048 1 0.16500 119244.000000
9747 16159 1 0.16500 119244.000000
9748 15049 1 0.16500 119244.000000
9748 16918 1 0.16500 119244.000000
9749 15050 1 0.16500 119244.000000
9749 16925 1 0.16500 119244.000000
9750 15050 1 0.16500 119244.000000
9750 15166 1 0.16500 119244.000000
9751 15051 1 0.16500 119244.000000
9751 15787 1 0.16500 119244.000000
9752 15051 1 0.16500 119244.000000
9752 16007 1 0.16500 119244.000000
9753 15051 1 0.16500 119244.000000
9753 15752 1 0.16500 119244.000000
9754 15052 1 0.16500 119244.000000
9754 15448 1 0.16500 119244.000000
9755 15053 1 0.16500 119244.000000
9755 15069 1 0.16500 119244.000000
9756 15053 1 0.16500 119244.000000
9756 16503 1 0.16500 119244.000000
9757 15057 1 0.16500 119244.000000
9757 15499 1 0.16500 119244.000000
9758 15057 1 0.16500 119244.000000
9758 15362 1 0.16500 119244.000000
9759 15183 1 0.16500 119244.000000
9759 15831 1 0.16500 119244.000000
9760 15059 1 0.16500 119244.000000
9760 15183 1 0.16500 119244.000000
9761 15060 1 0.16500 119244.000000
9761 15083 1 0.16500 119244.000000
9762 15061 1 0.16500 119244.000000
9762 16808 1 0.16500 119244.000000
9763 15061 1 0.16500 119244.000000
9763 15672 1 0.16500 119244.000000
9764 15090 1 0.16500 119244.000000
9764 19150 1 0.16500 119244.000000
9765 15788 1 0.16500 119244.000000
9765 19150 1 0.16500 119244.000000
9766 15063 1 0.16500 119244.000000
9766 18923 1 0.16500 119244.000000
9767 15064 1 0.16500 119244.000000
9767 15555 1 0.16500 119244.000000
9768 15064 1 0.16500 119244.000000
9768 15697 1 0.16500 119244.000000
9769 15065 1 0.16500 119244.000000
9769 15146 1 0.16500 119244.000000
9770 15065 1 0.16500 119244.000000
9770 15919 1 0.16500 119244.000000
9771 15066 1 0.16500 119244.000000
9771 16957 1 0.16500 119244.000000
9772 15066 1 0.16500 119244.000000
9772 16224 1 0.16500 119244.000000
9773 15068 1 0.16500 119244.000000
9773 15851 1 0.16500 119244.000000
9774 15069 1 0.16500 119244.000000
9774 16336 1 0.16500 119244.000000
9775 15070 1 0.16500 119244.000000
9775 16210 1 0.16500 119244.000000
9776 15071 1 0.16500 119244.000000
9776 16909 1 0.16500 119244.000000
9777 14814 1 0.16500 119244.000000
9777 15592 1 0.16500 119244.000000
9778 15072 1 0.16500 119244.000000
9778 16387 1 0.16500 119244.000000
9779 15072 1 0.16500 119244.000000
9779 15890 1 0.16500 119244.000000
9780 15073 1 0.16500 119244.000000
9780 16637 1 0.16500 119244.000000
9781 15074 1 0.16500 119244.000000
9781 16452 1 0.16500 119244.000000
9782 15074 1 0.16500 119244.000000
9782 16789 1 0.16500 119244.000000
9783 15075 1 0.16500 119244.000000
9783 16797 1 0.16500 119244.000000
9784 15075 1 0.16500 119244.000000
9784 15227 1 0.16500 119244.000000
9785 15075 1 0.16500 119244.000000
9785 15944 1 0.16500 119244.000000
9786 15076 1 0.16500 119244.000000
9786 16417 1 0.16500 119244.000000
9787 15078 1 0.16500 119244.000000
9787 15145 1 0.16500 119244.000000
9788 13474 1 0.16500 119244.000000
9788 15078 1 0.16500 119244.000000
9789 15079 1 0.16500 119244.000000
9789 16217 1 0.16500 119244.000000
9790 15080 1 0.16500 119244.000000
9790 16647 1 0.16500 119244.000000
9791 15080 1 0.16500 119244.000000
9791 15827 1 0.16500 119244.000000
9792 15080 1 0.16500 119244.000000
9792 18842 1 0.16500 119244.000000
9793 15083 1 0.16500 119244.000000
9793 17009 1 0.16500 119244.000000
9794 15084 1 0.16500 119244.000000
9794 16442 1 0.16500 119244.000000
9795 15084 1 0.16500 119244.000000
9795 16091 1 0.16500 119244.000000
9796 15085 1 0.16500 119244.000000
9796 15441 1 0.16500 119244.000000
9797 15085 1 0.16500 119244.000000
9797 17119 1 0.16500 119244.000000
9798 15087 1 0.16500 119244.000000
9798 15657 1 0.16500 119244.000000
9799 15087 1 0.16500 119244.000000
9799 15922 1 0.16500 119244.000000
9800 15089 1 0.16500 119244.000000
9800 15386 1 0.16500 119244.000000
9801 15089 1 0.16500 119244.000000
9801 15902 1 0.16500 119244.000000
9802 15090 1 0.16500 119244.000000
9802 15496 1 0.16500 119244.000000
9803 15090 1 0.16500 119244.000000
9803 15663 1 0.16500 119244.000000
9804 15092 1 0.16500 119244.000000
9804 16039 1 0.16500 119244.000000
9805 15094 1 0.16500 119244.000000
9805 15245 1 0.16500 119244.000000
9806 15095 1 0.16500 119244.000000
9806 16985 1 0.16500 119244.000000
9807 15096 1 0.16500 119244.000000
9807 16944 1 0.16500 119244.000000
9808 15097 1 0.16500 119244.000000
9808 16712 1 0.16500 119244.000000
9809 15098 1 0.16500 119244.000000
9809 15182 1 0.16500 119244.000000
9810 15098 1 0.16500 119244.000000
9810 15854 1 0.16500 119244.000000
9811 15099 1 0.16500 119244.000000
9811 15140 1 0.16500 119244.000000
9812 15099 1 0.16500 119244.000000
9812 16920 1 0.16500 119244.000000
9813 15100 1 0.16500 119244.000000
9813 15108 1 0.16500 119244.000000
9814 15100 1 0.16500 119244.000000
9814 16839 1 0.16500 119244.000000
9815 15100 1 0.16500 119244.000000
9815 16100 1 0.16500 119244.000000
9816 15101 1 0.16500 119244.000000
9816 15235 1 0.16500 119244.000000
9817 13791 1 0.16500 119244.000000
9817 15102 1 0.16500 119244.000000
9818 15102 1 0.16500 119244.000000
9818 16595 1 0.16500 119244.000000
9819 15103 1 0.16500 119244.000000
9819 16217 1 0.16500 119244.000000
9820 15103 1 0.16500 119244.000000
9820 16386 1 0.16500 119244.000000
9821 15105 1 0.16500 119244.000000
9821 15514 1 0.16500 119244.000000
9822 15106 1 0.16500 119244.000000
9822 15258 1 0.16500 119244.000000
9823 15106 1 0.16500 119244.000000
9823 17483 1 0.16500 119244.000000
9824 15417 1 0.16500 119244.000000
9824 18821 1 0.16500 119244.000000
9825 15107 1 0.16500 119244.000000
9825 16660 1 0.16500 119244.000000
9826 15108 1 0.16500 119244.000000
9826 16624 1 0.16500 119244.000000
9827 15109 1 0.16500 119244.000000
9827 18995 1 0.16500 119244.000000
9828 15109 1 0.16500 119244.000000
9828 15679 1 0.16500 119244.000000
9829 15110 1 0.16500 119244.000000
9829 16263 1 0.16500 119244.000000
9830 15110 1 0.16500 119244.000000
9830 15497 1 0.16500 119244.000000
9831 15111 1 0.16500 119244.000000
9831 16695 1 0.16500 119244.000000
9832 15111 1 0.16500 119244.000000
9832 16290 1 0.16500 119244.000000
9833 15111 1 0.16500 119244.000000
9833 16823 1 0.16500 119244.000000
9834 15112 1 0.16500 119244.000000
9834 16056 1 0.16500 119244.000000
9835 15113 1 0.16500 119244.000000
9835 16672 1 0.16500 119244.000000
9836 15114 1 0.16500 119244.000000
9836 15289 1 0.16500 119244.000000
9837 14088 1 0.16500 119244.000000
9837 15114 1 0.16500 119244.000000
9838 15114 1 0.16500 119244.000000
9838 15670 1 0.16500 119244.000000
9839 13218 1 0.16500 119244.000000
9839 15116 1 0.16500 119244.000000
9840 15116 1 0.16500 119244.000000
9840 15772 1 0.16500 119244.000000
9841 15117 1 0.16500 119244.000000
9841 15503 1 0.16500 119244.000000
9842 15117 1 0.16500 119244.000000
9842 15205 1 0.16500 119244.000000
9843 15119 1 0.16500 119244.000000
9843 15301 1 0.16500 119244.000000
9844 15119 1 0.16500 119244.000000
9844 19073 1 0.16500 119244.000000
9845 15121 1 0.16500 119244.000000
9845 16805 1 0.16500 119244.000000
9846 11790 1 0.16500 119244.000000
9846 15121 1 0.16500 119244.000000
9847 11609 1 0.16500 119244.000000
9847 15121 1 0.16500 119244.000000
9848 15122 1 0.16500 119244.000000
9848 15431 1 0.16500 119244.000000
9849 15123 1 0.16500 119244.000000
9849 15961 1 0.16500 119244.000000
9850 15123 1 0.16500 119244.000000
9850 16886 1 0.16500 119244.000000
9851 15124 1 0.16500 119244.000000
9851 16278 1 0.16500 119244.000000
9852 16185 1 0.16500 119244.000000
9852 18143 1 0.16500 119244.000000
9853 16911 1 0.16500 119244.000000
9853 18143 1 0.16500 119244.000000
9854 15126 1 0.16500 119244.000000
9854 16973 1 0.16500 119244.000000
9855 15128 1 0.16500 119244.000000
9855 16355 1 0.16500 119244.000000
9856 15128 1 0.16500 119244.000000
9856 15243 1 0.16500 119244.000000
9857 15129 1 0.16500 119244.000000
9857 16659 1 0.16500 119244.000000
9858 15130 1 0.16500 119244.000000
9858 15181 1 0.16500 119244.000000
9859 15130 1 0.16500 119244.000000
9859 17855 1 0.16500 119244.000000
9860 15131 1 0.16500 119244.000000
9860 16059 1 0.16500 119244.000000
9861 15131 1 0.16500 119244.000000
9861 15861 1 0.16500 119244.000000
9862 15132 1 0.16500 119244.000000
9862 16592 1 0.16500 119244.000000
9863 15132 1 0.16500 119244.000000
9863 16596 1 0.16500 119244.000000
9864 15133 1 0.16500 119244.000000
9864 15312 1 0.16500 119244.000000
9865 15134 1 0.16500 119244.000000
9865 15377 1 0.16500 119244.000000
9866 15134 1 0.16500 119244.000000
9866 16119 1 0.16500 119244.000000
9867 15135 1 0.16500 119244.000000
9867 15847 1 0.16500 119244.000000
9868 15135 1 0.16500 119244.000000
9868 16863 1 0.16500 119244.000000
9869 15135 1 0.16500 119244.000000
9869 15971 1 0.16500 119244.000000
9870 15136 1 0.16500 119244.000000
9870 15340 1 0.16500 119244.000000
9871 15137 1 0.16500 119244.000000
9871 16382 1 0.16500 119244.000000
9872 15137 1 0.16500 119244.000000
9872 16555 1 0.16500 119244.000000
9873 15138 1 0.16500 119244.000000
9873 15763 1 0.16500 119244.000000
9874 15138 1 0.16500 119244.000000
9874 15310 1 0.16500 119244.000000
9875 15139 1 0.16500 119244.000000
9875 16866 1 0.16500 119244.000000
9876 15139 1 0.16500 119244.000000
9876 16153 1 0.16500 119244.000000
9877 15140 1 0.16500 119244.000000
9877 19190 1 0.16500 119244.000000
9878 15140 1 0.16500 119244.000000
9878 15875 1 0.16500 119244.000000
9879 15141 1 0.16500 119244.000000
9879 15903 1 0.16500 119244.000000
9880 15143 1 0.16500 119244.000000
9880 16893 1 0.16500 119244.000000
9881 15143 1 0.16500 119244.000000
9881 15920 1 0.16500 119244.000000
9882 15144 1 0.16500 119244.000000
9882 15950 1 0.16500 119244.000000
9883 15144 1 0.16500 119244.000000
9883 15849 1 0.16500 119244.000000
9884 15145 1 0.16500 119244.000000
9884 15307 1 0.16500 119244.000000
9885 15148 1 0.16500 119244.000000
9885 16974 1 0.16500 119244.000000
9886 15152 1 0.16500 119244.000000
9886 16971 1 0.16500 119244.000000
9887 13260 1 0.16500 119244.000000
9887 15742 1 0.16500 119244.000000
9888 15154 1 0.16500 119244.000000
9888 16522 1 0.16500 119244.000000
9889 13260 1 0.16500 119244.000000
9889 15154 1 0.16500 119244.000000
9890 15155 1 0.16500 119244.000000
9890 16615 1 0.16500 119244.000000
9891 15155 1 0.16500 119244.000000
9891 16772 1 0.16500 119244.000000
9892 13041 1 0.16500 119244.000000
9892 15155 1 0.16500 119244.000000
9893 15156 1 0.16500 119244.000000
9893 15430 1 0.16500 119244.000000
9894 15156 1 0.16500 119244.000000
9894 16382 1 0.16500 119244.000000
9895 15157 1 0.16500 119244.000000
9895 16713 1 0.16500 119244.000000
9896 15158 1 0.16500 119244.000000
9896 15566 1 0.16500 119244.000000
9897 15159 1 0.16500 119244.000000
9897 16972 1 0.16500 119244.000000
9898 15159 1 0.16500 119244.000000
9898 15683 1 0.16500 119244.000000
9899 15160 1 0.16500 119244.000000
9899 18986 1 0.16500 119244.000000
9900 15162 1 0.16500 119244.000000
9900 15780 1 0.16500 119244.000000
9901 15162 1 0.16500 119244.000000
9901 16271 1 0.16500 119244.000000
9902 15162 1 0.16500 119244.000000
9902 15190 1 0.16500 119244.000000
9903 15163 1 0.16500 119244.000000
9903 16748 1 0.16500 119244.000000
9904 15163 1 0.16500 119244.000000
9904 18872 1 0.16500 119244.000000
9905 15163 1 0.16500 119244.000000
9905 16182 1 0.16500 119244.000000
9906 15164 1 0.16500 119244.000000
9906 15605 1 0.16500 119244.000000
9907 15164 1 0.16500 119244.000000
9907 16585 1 0.16500 119244.000000
9908 15165 1 0.16500 119244.000000
9908 15665 1 0.16500 119244.000000
9909 15165 1 0.16500 119244.000000
9909 15796 1 0.16500 119244.000000
9910 15166 1 0.16500 119244.000000
9910 15482 1 0.16500 119244.000000
9911 15168 1 0.16500 119244.000000
9911 16190 1 0.16500 119244.000000
9912 15169 1 0.16500 119244.000000
9912 16782 1 0.16500 119244.000000
9913 15170 1 0.16500 119244.000000
9913 16433 1 0.16500 119244.000000
9914 15173 1 0.16500 119244.000000
9914 16078 1 0.16500 119244.000000
9915 15173 1 0.16500 119244.000000
9915 15380 1 0.16500 119244.000000
9916 15174 1 0.16500 119244.000000
9916 15369 1 0.16500 119244.000000
9917 15175 1 0.16500 119244.000000
9917 16622 1 0.16500 119244.000000
9918 15175 1 0.16500 119244.000000
9918 15410 1 0.16500 119244.000000
9919 15176 1 0.16500 119244.000000
9919 15746 1 0.16500 119244.000000
9920 15176 1 0.16500 119244.000000
9920 16394 1 0.16500 119244.000000
9921 15177 1 0.16500 119244.000000
9921 16396 1 0.16500 119244.000000
9922 14491 1 0.16500 119244.000000
9922 15178 1 0.16500 119244.000000
9923 13076 1 0.16500 119244.000000
9923 16975 1 0.16500 119244.000000
9924 15179 1 0.16500 119244.000000
9924 16876 1 0.16500 119244.000000
9925 15179 1 0.16500 119244.000000
9925 15427 1 0.16500 119244.000000
9926 15180 1 0.16500 119244.000000
9926 15875 1 0.16500 119244.000000
9927 15181 1 0.16500 119244.000000
9927 18977 1 0.16500 119244.000000
9928 15182 1 0.16500 119244.000000
9928 16533 1 0.16500 119244.000000
9929 15186 1 0.16500 119244.000000
9929 15848 1 0.16500 119244.000000
9930 15187 1 0.16500 119244.000000
9930 16452 1 0.16500 119244.000000
9931 15188 1 0.16500 119244.000000
9931 16649 1 0.16500 119244.000000
9932 15188 1 0.16500 119244.000000
9932 15893 1 0.16500 119244.000000
9933 15189 1 0.16500 119244.000000
9933 16521 1 0.16500 119244.000000
9934 15190 1 0.16500 119244.000000
9934 15522 1 0.16500 119244.000000
9935 15191 1 0.16500 119244.000000
9935 15243 1 0.16500 119244.000000
9936 15192 1 0.16500 119244.000000
9936 16019 1 0.16500 119244.000000
9937 15192 1 0.16500 119244.000000
9937 15913 1 0.16500 119244.000000
9938 13788 1 0.16500 119244.000000
9938 15193 1 0.16500 119244.000000
9939 12571 1 0.16500 119244.000000
9939 15194 1 0.16500 119244.000000
9940 14423 1 0.16500 119244.000000
9940 15525 1 0.16500 119244.000000
9941 15195 1 0.16500 119244.000000
9941 16569 1 0.16500 119244.000000
9942 15195 1 0.16500 119244.000000
9942 15286 1 0.16500 119244.000000
9943 15197 1 0.16500 119244.000000
9943 15517 1 0.16500 119244.000000
9944 15198 1 0.16500 119244.000000
9944 16029 1 0.16500 119244.000000
9945 15199 1 0.16500 119244.000000
9945 16400 1 0.16500 119244.000000
9946 15199 1 0.16500 119244.000000
9946 15658 1 0.16500 119244.000000
9947 15200 1 0.16500 119244.000000
9947 16255 1 0.16500 119244.000000
9948 15200 1 0.16500 119244.000000
9948 15688 1 0.16500 119244.000000
9949 15201 1 0.16500 119244.000000
9949 16014 1 0.16500 119244.000000
9950 15201 1 0.16500 119244.000000
9950 18992 1 0.16500 119244.000000
9951 15202 1 0.16500 119244.000000
9951 16126 1 0.16500 119244.000000
9952 15202 1 0.16500 119244.000000
9952 16027 1 0.16500 119244.000000
9953 15202 1 0.16500 119244.000000
9953 16013 1 0.16500 119244.000000
9954 15202 1 0.16500 119244.000000
9954 16117 1 0.16500 119244.000000
9955 11761 1 0.16500 119244.000000
9955 15853 1 0.16500 119244.000000
9956 15205 1 0.16500 119244.000000
9956 15293 1 0.16500 119244.000000
9957 15206 1 0.16500 119244.000000
9957 16231 1 0.16500 119244.000000
9958 15207 1 0.16500 119244.000000
9958 16195 1 0.16500 119244.000000
9959 15208 1 0.16500 119244.000000
9959 16658 1 0.16500 119244.000000
9960 15208 1 0.16500 119244.000000
9960 16752 1 0.16500 119244.000000
9961 15209 1 0.16500 119244.000000
9961 16079 1 0.16500 119244.000000
9962 16639 1 0.16500 119244.000000
9962 18830 1 0.16500 119244.000000
9963 15258 1 0.16500 119244.000000
9963 18830 1 0.16500 119244.000000
9964 15210 1 0.16500 119244.000000
9964 15975 1 0.16500 119244.000000
9965 15211 1 0.16500 119244.000000
9965 15229 1 0.16500 119244.000000
9966 15211 1 0.16500 119244.000000
9966 16718 1 0.16500 119244.000000
9967 15212 1 0.16500 119244.000000
9967 15444 1 0.16500 119244.000000
9968 15213 1 0.16500 119244.000000
9968 15529 1 0.16500 119244.000000
9969 14963 1 0.16500 119244.000000
9969 15213 1 0.16500 119244.000000
9970 15214 1 0.16500 119244.000000
9970 15783 1 0.16500 119244.000000
9971 15216 1 0.16500 119244.000000
9971 16992 1 0.16500 119244.000000
9972 15216 1 0.16500 119244.000000
9972 15526 1 0.16500 119244.000000
9973 15217 1 0.16500 119244.000000
9973 16068 1 0.16500 119244.000000
9974 14033 1 0.16500 119244.000000
9974 15218 1 0.16500 119244.000000
9975 15218 1 0.16500 119244.000000
9975 15567 1 0.16500 119244.000000
9976 15219 1 0.16500 119244.000000
9976 16308 1 0.16500 119244.000000
9977 15220 1 0.16500 119244.000000
9977 16153 1 0.16500 119244.000000
9978 11863 1 0.16500 119244.000000
9978 16739 1 0.16500 119244.000000
9979 13952 1 0.16500 119244.000000
9979 15222 1 0.16500 119244.000000
9980 15222 1 0.16500 119244.000000
9980 15402 1 0.16500 119244.000000
9981 13512 1 0.16500 119244.000000
9981 15331 1 0.16500 119244.000000
9982 15224 1 0.16500 119244.000000
9982 16648 1 0.16500 119244.000000
9983 15225 1 0.16500 119244.000000
9983 15703 1 0.16500 119244.000000
9984 15226 1 0.16500 119244.000000
9984 16070 1 0.16500 119244.000000
9985 15226 1 0.16500 119244.000000
9985 16282 1 0.16500 119244.000000
9986 15227 1 0.16500 119244.000000
9986 16947 1 0.16500 119244.000000
9987 15230 1 0.16500 119244.000000
9987 16012 1 0.16500 119244.000000
9988 15231 1 0.16500 119244.000000
9988 15717 1 0.16500 119244.000000
9989 15231 1 0.16500 119244.000000
9989 16243 1 0.16500 119244.000000
9990 16109 1 0.16500 119244.000000
9990 18836 1 0.16500 119244.000000
9991 15232 1 0.16500 119244.000000
9991 18917 1 0.16500 119244.000000
9992 15232 1 0.16500 119244.000000
9992 16149 1 0.16500 119244.000000
9993 17807 1 0.16500 119244.000000
9993 18938 1 0.16500 119244.000000
9994 15826 1 0.16500 119244.000000
9994 16197 1 0.16500 119244.000000
9995 16197 1 0.16500 119244.000000
9995 17807 1 0.16500 119244.000000
9996 15233 1 0.16500 119244.000000
9996 16409 1 0.16500 119244.000000
9997 15236 1 0.16500 119244.000000
9997 15931 1 0.16500 119244.000000
9998 15236 1 0.16500 119244.000000
9998 16316 1 0.16500 119244.000000
9999 12984 1 0.16500 119244.000000
9999 15237 1 0.16500 119244.000000
10000 15237 1 0.16500 119244.000000
10000 15328 1 0.16500 119244.000000
10001 15237 1 0.16500 119244.000000
10001 16238 1 0.16500 119244.000000
10002 15239 1 0.16500 119244.000000
10002 15864 1 0.16500 119244.000000
10003 15239 1 0.16500 119244.000000
10003 15983 1 0.16500 119244.000000
10004 15239 1 0.16500 119244.000000
10004 19058 1 0.16500 119244.000000
10005 15240 1 0.16500 119244.000000
10005 16624 1 0.16500 119244.000000
10006 15240 1 0.16500 119244.000000
10006 15693 1 0.16500 119244.000000
10007 15241 1 0.16500 119244.000000
10007 16881 1 0.16500 119244.000000
10008 15242 1 0.16500 119244.000000
10008 15807 1 0.16500 119244.000000
10009 15243 1 0.16500 119244.000000
10009 15750 1 0.16500 119244.000000
10010 15244 1 0.16500 119244.000000
10010 15337 1 0.16500 119244.000000
10011 15244 1 0.16500 119244.000000
10011 16902 1 0.16500 119244.000000
10012 15246 1 0.16500 119244.000000
10012 18857 1 0.16500 119244.000000
10013 15247 1 0.16500 119244.000000
10013 16309 1 0.16500 119244.000000
10014 15247 1 0.16500 119244.000000
10014 15845 1 0.16500 119244.000000
10015 15248 1 0.16500 119244.000000
10015 15579 1 0.16500 119244.000000
10016 15249 1 0.16500 119244.000000
10016 16418 1 0.16500 119244.000000
10017 15249 1 0.16500 119244.000000
10017 16631 1 0.16500 119244.000000
10018 15250 1 0.16500 119244.000000
10018 16400 1 0.16500 119244.000000
10019 15250 1 0.16500 119244.000000
10019 15873 1 0.16500 119244.000000
10020 15250 1 0.16500 119244.000000
10020 16344 1 0.16500 119244.000000
10021 15251 1 0.16500 119244.000000
10021 15350 1 0.16500 119244.000000
10022 13427 1 0.16500 119244.000000
10022 15252 1 0.16500 119244.000000
10023 15252 1 0.16500 119244.000000
10023 16739 1 0.16500 119244.000000
10024 13427 1 0.16500 119244.000000
10024 16901 1 0.16500 119244.000000
10025 15253 1 0.16500 119244.000000
10025 16260 1 0.16500 119244.000000
10026 15254 1 0.16500 119244.000000
10026 16652 1 0.16500 119244.000000
10027 15255 1 0.16500 119244.000000
10027 15569 1 0.16500 119244.000000
10028 14286 1 0.16500 119244.000000
10028 15255 1 0.16500 119244.000000
10029 15257 1 0.16500 119244.000000
10029 15878 1 0.16500 119244.000000
10030 16583 1 0.16500 119244.000000
10030 18839 1 0.16500 119244.000000
10031 15259 1 0.16500 119244.000000
10031 15482 1 0.16500 119244.000000
10032 13640 1 0.16500 119244.000000
10032 15729 1 0.16500 119244.000000
10033 15260 1 0.16500 119244.000000
10033 18911 1 0.16500 119244.000000
10034 15264 1 0.16500 119244.000000
10034 18893 1 0.16500 119244.000000
10035 15264 1 0.16500 119244.000000
10035 15843 1 0.16500 119244.000000
10036 15264 1 0.16500 119244.000000
10036 16992 1 0.16500 119244.000000
10037 15265 1 0.16500 119244.000000
10037 16991 1 0.16500 119244.000000
10038 12710 1 0.16500 119244.000000
10038 15265 1 0.16500 119244.000000
10039 15266 1 0.16500 119244.000000
10039 16849 1 0.16500 119244.000000
10040 15267 1 0.16500 119244.000000
10040 15463 1 0.16500 119244.000000
10041 15268 1 0.16500 119244.000000
10041 16581 1 0.16500 119244.000000
10042 15269 1 0.16500 119244.000000
10042 16257 1 0.16500 119244.000000
10043 15269 1 0.16500 119244.000000
10043 16741 1 0.16500 119244.000000
10044 15271 1 0.16500 119244.000000
10044 16789 1 0.16500 119244.000000
10045 15271 1 0.16500 119244.000000
10045 16284 1 0.16500 119244.000000
10046 15272 1 0.16500 119244.000000
10046 19013 1 0.16500 119244.000000
10047 15272 1 0.16500 119244.000000
10047 16616 1 0.16500 119244.000000
10048 15273 1 0.16500 119244.000000
10048 15473 1 0.16500 119244.000000
10049 15274 1 0.16500 119244.000000
10049 19004 1 0.16500 119244.000000
10050 15274 1 0.16500 119244.000000
10050 15966 1 0.16500 119244.000000
10051 15713 1 0.16500 119244.000000
10051 18842 1 0.16500 119244.000000
10052 13319 1 0.16500 119244.000000
10052 16920 1 0.16500 119244.000000
10053 15276 1 0.16500 119244.000000
10053 17315 1 0.16500 119244.000000
10054 15277 1 0.16500 119244.000000
10054 15453 1 0.16500 119244.000000
10055 13299 1 0.16500 119244.000000
10055 15391 1 0.16500 119244.000000
10056 15279 1 0.16500 119244.000000
10056 16931 1 0.16500 119244.000000
10057 15280 1 0.16500 119244.000000
10057 16650 1 0.16500 119244.000000
10058 15280 1 0.16500 119244.000000
10058 16297 1 0.16500 119244.000000
10059 15282 1 0.16500 119244.000000
10059 16998 1 0.16500 119244.000000
10060 15282 1 0.16500 119244.000000
10060 16171 1 0.16500 119244.000000
10061 15282 1 0.16500 119244.000000
10061 16487 1 0.16500 119244.000000
10062 15858 1 0.16500 119244.000000
10062 16834 1 0.16500 119244.000000
10063 14167 1 0.16500 119244.000000
10063 19180 1 0.16500 119244.000000
10064 15285 1 0.16500 119244.000000
10064 16504 1 0.16500 119244.000000
10065 15287 1 0.16500 119244.000000
10065 16776 1 0.16500 119244.000000
10066 15287 1 0.16500 119244.000000
10066 16130 1 0.16500 119244.000000
10067 15288 1 0.16500 119244.000000
10067 16401 1 0.16500 119244.000000
10068 15292 1 0.16500 119244.000000
10068 15782 1 0.16500 119244.000000
10069 15292 1 0.16500 119244.000000
10069 18353 1 0.16500 119244.000000
10070 15293 1 0.16500 119244.000000
10070 16529 1 0.16500 119244.000000
10071 15294 1 0.16500 119244.000000
10071 15382 1 0.16500 119244.000000
10072 15295 1 0.16500 119244.000000
10072 15651 1 0.16500 119244.000000
10073 15295 1 0.16500 119244.000000
10073 16578 1 0.16500 119244.000000
10074 15296 1 0.16500 119244.000000
10074 16318 1 0.16500 119244.000000
10075 13195 1 0.16500 119244.000000
10075 16724 1 0.16500 119244.000000
10076 15297 1 0.16500 119244.000000
10076 15813 1 0.16500 119244.000000
10077 15298 1 0.16500 119244.000000
10077 16738 1 0.16500 119244.000000
10078 15298 1 0.16500 119244.000000
10078 16795 1 0.16500 119244.000000
10079 15298 1 0.16500 119244.000000
10079 16829 1 0.16500 119244.000000
10080 16155 1 0.16500 119244.000000
10080 18587 1 0.16500 119244.000000
10081 15300 1 0.16500 119244.000000
10081 15851 1 0.16500 119244.000000
10082 14812 1 0.16500 119244.000000
10082 15984 1 0.16500 119244.000000
10083 16944 1 0.16500 119244.000000
10083 19160 1 0.16500 119244.000000
10084 13072 1 0.16500 119244.000000
10084 16296 1 0.16500 119244.000000
10085 16528 1 0.16500 119244.000000
10085 18845 1 0.16500 119244.000000
10086 18845 1 0.16500 119244.000000
10086 18881 1 0.16500 119244.000000
10087 15304 1 0.16500 119244.000000
10087 16838 1 0.16500 119244.000000
10088 15305 1 0.16500 119244.000000
10088 15448 1 0.16500 119244.000000
10089 15306 1 0.16500 119244.000000
10089 16184 1 0.16500 119244.000000
10090 15307 1 0.16500 119244.000000
10090 15561 1 0.16500 119244.000000
10091 15309 1 0.16500 119244.000000
10091 16467 1 0.16500 119244.000000
10092 11840 1 0.16500 119244.000000
10092 15309 1 0.16500 119244.000000
10093 15310 1 0.16500 119244.000000
10093 16897 1 0.16500 119244.000000
10094 15310 1 0.16500 119244.000000
10094 15351 1 0.16500 119244.000000
10095 15311 1 0.16500 119244.000000
10095 16589 1 0.16500 119244.000000
10096 15311 1 0.16500 119244.000000
10096 16618 1 0.16500 119244.000000
10097 15312 1 0.16500 119244.000000
10097 15541 1 0.16500 119244.000000
10098 15317 1 0.16500 119244.000000
10098 16726 1 0.16500 119244.000000
10099 15317 1 0.16500 119244.000000
10099 16024 1 0.16500 119244.000000
10100 15317 1 0.16500 119244.000000
10100 16072 1 0.16500 119244.000000
10101 15318 1 0.16500 119244.000000
10101 16904 1 0.16500 119244.000000
10102 15319 1 0.16500 119244.000000
10102 16859 1 0.16500 119244.000000
10103 15319 1 0.16500 119244.000000
10103 16817 1 0.16500 119244.000000
10104 15539 1 0.16500 119244.000000
10104 18848 1 0.16500 119244.000000
10105 12915 1 0.16500 119244.000000
10105 16060 1 0.16500 119244.000000
10106 15322 1 0.16500 119244.000000
10106 16884 1 0.16500 119244.000000
10107 15323 1 0.16500 119244.000000
10107 16856 1 0.16500 119244.000000
10108 15324 1 0.16500 119244.000000
10108 15995 1 0.16500 119244.000000
10109 15324 1 0.16500 119244.000000
10109 16400 1 0.16500 119244.000000
10110 15325 1 0.16500 119244.000000
10110 15345 1 0.16500 119244.000000
10111 15325 1 0.16500 119244.000000
10111 15969 1 0.16500 119244.000000
10112 15326 1 0.16500 119244.000000
10112 15435 1 0.16500 119244.000000
10113 15326 1 0.16500 119244.000000
10113 16332 1 0.16500 119244.000000
10114 15327 1 0.16500 119244.000000
10114 15347 1 0.16500 119244.000000
10115 15328 1 0.16500 119244.000000
10115 16892 1 0.16500 119244.000000
10116 15328 1 0.16500 119244.000000
10116 15385 1 0.16500 119244.000000
10117 15329 1 0.16500 119244.000000
10117 16736 1 0.16500 119244.000000
10118 15329 1 0.16500 119244.000000
10118 15346 1 0.16500 119244.000000
10119 14259 1 0.16500 119244.000000
10119 16549 1 0.16500 119244.000000
10120 15331 1 0.16500 119244.000000
10120 15378 1 0.16500 119244.000000
10121 15818 1 0.16500 119244.000000
10121 18851 1 0.16500 119244.000000
10122 15333 1 0.16500 119244.000000
10122 15942 1 0.16500 119244.000000
10123 15334 1 0.16500 119244.000000
10123 15882 1 0.16500 119244.000000
10124 15336 1 0.16500 119244.000000
10124 19034 1 0.16500 119244.000000
10125 15337 1 0.16500 119244.000000
10125 15600 1 0.16500 119244.000000
10126 15337 1 0.16500 119244.000000
10126 15946 1 0.16500 119244.000000
10127 15338 1 0.16500 119244.000000
10127 16810 1 0.16500 119244.000000
10128 15339 1 0.16500 119244.000000
10128 16340 1 0.16500 119244.000000
10129 15341 1 0.16500 119244.000000
10129 15385 1 0.16500 119244.000000
10130 15341 1 0.16500 119244.000000
10130 16338 1 0.16500 119244.000000
10131 15342 1 0.16500 119244.000000
10131 15821 1 0.16500 119244.000000
10132 15343 1 0.16500 119244.000000
10132 15947 1 0.16500 119244.000000
10133 15343 1 0.16500 119244.000000
10133 15492 1 0.16500 119244.000000
10134 14393 1 0.16500 119244.000000
10134 15343 1 0.16500 119244.000000
10135 15343 1 0.16500 119244.000000
10135 15511 1 0.16500 119244.000000
10136 15344 1 0.16500 119244.000000
10136 16441 1 0.16500 119244.000000
10137 15345 1 0.16500 119244.000000
10137 15478 1 0.16500 119244.000000
10138 15346 1 0.16500 119244.000000
10138 16223 1 0.16500 119244.000000
10139 15348 1 0.16500 119244.000000
10139 15813 1 0.16500 119244.000000
10140 15349 1 0.16500 119244.000000
10140 18932 1 0.16500 119244.000000
10141 15352 1 0.16500 119244.000000
10141 16316 1 0.16500 119244.000000
10142 15353 1 0.16500 119244.000000
10142 15817 1 0.16500 119244.000000
10143 15354 1 0.16500 119244.000000
10143 16493 1 0.16500 119244.000000
10144 15355 1 0.16500 119244.000000
10144 16481 1 0.16500 119244.000000
10145 15356 1 0.16500 119244.000000
10145 16139 1 0.16500 119244.000000
10146 15356 1 0.16500 119244.000000
10146 17891 1 0.16500 119244.000000
10147 15356 1 0.16500 119244.000000
10147 15810 1 0.16500 119244.000000
10148 15359 1 0.16500 119244.000000
10148 19082 1 0.16500 119244.000000
10149 15359 1 0.16500 119244.000000
10149 15663 1 0.16500 119244.000000
10150 15680 1 0.16500 119244.000000
10150 16231 1 0.16500 119244.000000
10151 15360 1 0.16500 119244.000000
10151 16231 1 0.16500 119244.000000
10152 15361 1 0.16500 119244.000000
10152 16964 1 0.16500 119244.000000
10153 15363 1 0.16500 119244.000000
10153 15585 1 0.16500 119244.000000
10154 15363 1 0.16500 119244.000000
10154 15971 1 0.16500 119244.000000
10155 15364 1 0.16500 119244.000000
10155 15872 1 0.16500 119244.000000
10156 12942 1 0.16500 119244.000000
10156 16871 1 0.16500 119244.000000
10157 15365 1 0.16500 119244.000000
10157 16987 1 0.16500 119244.000000
10158 15366 1 0.16500 119244.000000
10158 16748 1 0.16500 119244.000000
10159 15367 1 0.16500 119244.000000
10159 18881 1 0.16500 119244.000000
10160 15368 1 0.16500 119244.000000
10160 16585 1 0.16500 119244.000000
10161 15370 1 0.16500 119244.000000
10161 16070 1 0.16500 119244.000000
10162 15370 1 0.16500 119244.000000
10162 15520 1 0.16500 119244.000000
10163 15371 1 0.16500 119244.000000
10163 16449 1 0.16500 119244.000000
10164 15371 1 0.16500 119244.000000
10164 15548 1 0.16500 119244.000000
10165 16484 1 0.16500 119244.000000
10165 18857 1 0.16500 119244.000000
10166 15373 1 0.16500 119244.000000
10166 15689 1 0.16500 119244.000000
10167 15374 1 0.16500 119244.000000
10167 15596 1 0.16500 119244.000000
10168 15375 1 0.16500 119244.000000
10168 16978 1 0.16500 119244.000000
10169 15375 1 0.16500 119244.000000
10169 16446 1 0.16500 119244.000000
10170 15377 1 0.16500 119244.000000
10170 16655 1 0.16500 119244.000000
10171 15378 1 0.16500 119244.000000
10171 15713 1 0.16500 119244.000000
10172 15379 1 0.16500 119244.000000
10172 16756 1 0.16500 119244.000000
10173 15379 1 0.16500 119244.000000
10173 15759 1 0.16500 119244.000000
10174 15380 1 0.16500 119244.000000
10174 16983 1 0.16500 119244.000000
10175 15381 1 0.16500 119244.000000
10175 15889 1 0.16500 119244.000000
10176 15381 1 0.16500 119244.000000
10176 15484 1 0.16500 119244.000000
10177 15382 1 0.16500 119244.000000
10177 16478 1 0.16500 119244.000000
10178 15383 1 0.16500 119244.000000
10178 16126 1 0.16500 119244.000000
10179 15383 1 0.16500 119244.000000
10179 15889 1 0.16500 119244.000000
10180 15383 1 0.16500 119244.000000
10180 16979 1 0.16500 119244.000000
10181 15385 1 0.16500 119244.000000
10181 15560 1 0.16500 119244.000000
10182 15385 1 0.16500 119244.000000
10182 16488 1 0.16500 119244.000000
10183 15386 1 0.16500 119244.000000
10183 16978 1 0.16500 119244.000000
10184 15386 1 0.16500 119244.000000
10184 16170 1 0.16500 119244.000000
10185 15387 1 0.16500 119244.000000
10185 16508 1 0.16500 119244.000000
10186 15388 1 0.16500 119244.000000
10186 15882 1 0.16500 119244.000000
10187 15389 1 0.16500 119244.000000
10187 16435 1 0.16500 119244.000000
10188 15389 1 0.16500 119244.000000
10188 15808 1 0.16500 119244.000000
10189 15391 1 0.16500 119244.000000
10189 16056 1 0.16500 119244.000000
10190 15392 1 0.16500 119244.000000
10190 16561 1 0.16500 119244.000000
10191 15392 1 0.16500 119244.000000
10191 16664 1 0.16500 119244.000000
10192 15393 1 0.16500 119244.000000
10192 16120 1 0.16500 119244.000000
10193 13779 1 0.16500 119244.000000
10193 15393 1 0.16500 119244.000000
10194 15394 1 0.16500 119244.000000
10194 16612 1 0.16500 119244.000000
10195 16612 1 0.16500 119244.000000
10195 18359 1 0.16500 119244.000000
10196 15395 1 0.16500 119244.000000
10196 16995 1 0.16500 119244.000000
10197 15395 1 0.16500 119244.000000
10197 15416 1 0.16500 119244.000000
10198 15396 1 0.16500 119244.000000
10198 16674 1 0.16500 119244.000000
10199 15397 1 0.16500 119244.000000
10199 16502 1 0.16500 119244.000000
10200 15398 1 0.16500 119244.000000
10200 16061 1 0.16500 119244.000000
10201 15399 1 0.16500 119244.000000
10201 15550 1 0.16500 119244.000000
10202 15399 1 0.16500 119244.000000
10202 17010 1 0.16500 119244.000000
10203 15400 1 0.16500 119244.000000
10203 15565 1 0.16500 119244.000000
10204 15401 1 0.16500 119244.000000
10204 16414 1 0.16500 119244.000000
10205 15402 1 0.16500 119244.000000
10205 16346 1 0.16500 119244.000000
10206 12184 1 0.16500 119244.000000
10206 15404 1 0.16500 119244.000000
10207 15404 1 0.16500 119244.000000
10207 15680 1 0.16500 119244.000000
10208 15404 1 0.16500 119244.000000
10208 16464 1 0.16500 119244.000000
10209 15405 1 0.16500 119244.000000
10209 16148 1 0.16500 119244.000000
10210 15405 1 0.16500 119244.000000
10210 16529 1 0.16500 119244.000000
10211 15406 1 0.16500 119244.000000
10211 16221 1 0.16500 119244.000000
10212 15406 1 0.16500 119244.000000
10212 16156 1 0.16500 119244.000000
10213 16155 1 0.16500 119244.000000
10213 18860 1 0.16500 119244.000000
10214 15407 1 0.16500 119244.000000
10214 15575 1 0.16500 119244.000000
10215 15407 1 0.16500 119244.000000
10215 16873 1 0.16500 119244.000000
10216 15408 1 0.16500 119244.000000
10216 16630 1 0.16500 119244.000000
10217 15409 1 0.16500 119244.000000
10217 16297 1 0.16500 119244.000000
10218 15410 1 0.16500 119244.000000
10218 15936 1 0.16500 119244.000000
10219 15410 1 0.16500 119244.000000
10219 16307 1 0.16500 119244.000000
10220 15411 1 0.16500 119244.000000
10220 15652 1 0.16500 119244.000000
10221 15411 1 0.16500 119244.000000
10221 15568 1 0.16500 119244.000000
10222 15411 1 0.16500 119244.000000
10222 17579 1 0.16500 119244.000000
10223 15412 1 0.16500 119244.000000
10223 16328 1 0.16500 119244.000000
10224 15413 1 0.16500 119244.000000
10224 16019 1 0.16500 119244.000000
10225 15414 1 0.16500 119244.000000
10225 16781 1 0.16500 119244.000000
10226 15414 1 0.16500 119244.000000
10226 16990 1 0.16500 119244.000000
10227 15414 1 0.16500 119244.000000
10227 16560 1 0.16500 119244.000000
10228 15415 1 0.16500 119244.000000
10228 16635 1 0.16500 119244.000000
10229 15416 1 0.16500 119244.000000
10229 17012 1 0.16500 119244.000000
10230 16540 1 0.16500 119244.000000
10230 18863 1 0.16500 119244.000000
10231 15417 1 0.16500 119244.000000
10231 16073 1 0.16500 119244.000000
10232 15418 1 0.16500 119244.000000
10232 15586 1 0.16500 119244.000000
10233 15418 1 0.16500 119244.000000
10233 15745 1 0.16500 119244.000000
10234 15419 1 0.16500 119244.000000
10234 16894 1 0.16500 119244.000000
10235 15419 1 0.16500 119244.000000
10235 16703 1 0.16500 119244.000000
10236 15420 1 0.16500 119244.000000
10236 16499 1 0.16500 119244.000000
10237 15420 1 0.16500 119244.000000
10237 16029 1 0.16500 119244.000000
10238 13476 1 0.16500 119244.000000
10238 18866 1 0.16500 119244.000000
10239 11705 1 0.16500 119244.000000
10239 18866 1 0.16500 119244.000000
10240 15422 1 0.16500 119244.000000
10240 16183 1 0.16500 119244.000000
10241 15422 1 0.16500 119244.000000
10241 16163 1 0.16500 119244.000000
10242 15423 1 0.16500 119244.000000
10242 16317 1 0.16500 119244.000000
10243 15423 1 0.16500 119244.000000
10243 15734 1 0.16500 119244.000000
10244 15424 1 0.16500 119244.000000
10244 17013 1 0.16500 119244.000000
10245 15426 1 0.16500 119244.000000
10245 16895 1 0.16500 119244.000000
10246 15427 1 0.16500 119244.000000
10246 15894 1 0.16500 119244.000000
10247 15428 1 0.16500 119244.000000
10247 15951 1 0.16500 119244.000000
10248 13881 1 0.16500 119244.000000
10248 15429 1 0.16500 119244.000000
10249 15429 1 0.16500 119244.000000
10249 16677 1 0.16500 119244.000000
10250 15430 1 0.16500 119244.000000
10250 15581 1 0.16500 119244.000000
10251 15431 1 0.16500 119244.000000
10251 15794 1 0.16500 119244.000000
10252 15431 1 0.16500 119244.000000
10252 15734 1 0.16500 119244.000000
10253 15433 1 0.16500 119244.000000
10253 15504 1 0.16500 119244.000000
10254 15433 1 0.16500 119244.000000
10254 15564 1 0.16500 119244.000000
10255 15435 1 0.16500 119244.000000
10255 16965 1 0.16500 119244.000000
10256 15436 1 0.16500 119244.000000
10256 16993 1 0.16500 119244.000000
10257 15436 1 0.16500 119244.000000
10257 15795 1 0.16500 119244.000000
10258 15438 1 0.16500 119244.000000
10258 16977 1 0.16500 119244.000000
10259 15026 1 0.16500 119244.000000
10259 16066 1 0.16500 119244.000000
10260 15440 1 0.16500 119244.000000
10260 16456 1 0.16500 119244.000000
10261 15440 1 0.16500 119244.000000
10261 16822 1 0.16500 119244.000000
10262 15441 1 0.16500 119244.000000
10262 15761 1 0.16500 119244.000000
10263 15442 1 0.16500 119244.000000
10263 15571 1 0.16500 119244.000000
10264 15442 1 0.16500 119244.000000
10264 16751 1 0.16500 119244.000000
10265 15523 1 0.16500 119244.000000
10265 18869 1 0.16500 119244.000000
10266 15126 1 0.16500 119244.000000
10266 15443 1 0.16500 119244.000000
10267 15443 1 0.16500 119244.000000
10267 16119 1 0.16500 119244.000000
10268 15444 1 0.16500 119244.000000
10268 16087 1 0.16500 119244.000000
10269 15444 1 0.16500 119244.000000
10269 16243 1 0.16500 119244.000000
10270 15446 1 0.16500 119244.000000
10270 15539 1 0.16500 119244.000000
10271 15446 1 0.16500 119244.000000
10271 15588 1 0.16500 119244.000000
10272 14276 1 0.16500 119244.000000
10272 16901 1 0.16500 119244.000000
10273 15447 1 0.16500 119244.000000
10273 16539 1 0.16500 119244.000000
10274 15450 1 0.16500 119244.000000
10274 16976 1 0.16500 119244.000000
10275 11598 1 0.16500 119244.000000
10275 16426 1 0.16500 119244.000000
10276 15451 1 0.16500 119244.000000
10276 15834 1 0.16500 119244.000000
10277 15453 1 0.16500 119244.000000
10277 16266 1 0.16500 119244.000000
10278 15453 1 0.16500 119244.000000
10278 15600 1 0.16500 119244.000000
10279 15455 1 0.16500 119244.000000
10279 16604 1 0.16500 119244.000000
10280 15455 1 0.16500 119244.000000
10280 16988 1 0.16500 119244.000000
10281 15456 1 0.16500 119244.000000
10281 15500 1 0.16500 119244.000000
10282 15458 1 0.16500 119244.000000
10282 16225 1 0.16500 119244.000000
10283 15458 1 0.16500 119244.000000
10283 15505 1 0.16500 119244.000000
10284 15459 1 0.16500 119244.000000
10284 16768 1 0.16500 119244.000000
10285 12805 1 0.16500 119244.000000
10285 16655 1 0.16500 119244.000000
10286 15461 1 0.16500 119244.000000
10286 16121 1 0.16500 119244.000000
10287 15463 1 0.16500 119244.000000
10287 16889 1 0.16500 119244.000000
10288 15464 1 0.16500 119244.000000
10288 16692 1 0.16500 119244.000000
10289 15466 1 0.16500 119244.000000
10289 15681 1 0.16500 119244.000000
10290 12107 1 0.16500 119244.000000
10290 13231 1 0.16500 119244.000000
10291 15467 1 0.16500 119244.000000
10291 15601 1 0.16500 119244.000000
10292 15470 1 0.16500 119244.000000
10292 17008 1 0.16500 119244.000000
10293 15471 1 0.16500 119244.000000
10293 15553 1 0.16500 119244.000000
10294 15471 1 0.16500 119244.000000
10294 16649 1 0.16500 119244.000000
10295 15472 1 0.16500 119244.000000
10295 15738 1 0.16500 119244.000000
10296 14300 1 0.16500 119244.000000
10296 15473 1 0.16500 119244.000000
10297 15478 1 0.16500 119244.000000
10297 17015 1 0.16500 119244.000000
10298 15478 1 0.16500 119244.000000
10298 16988 1 0.16500 119244.000000
10299 15481 1 0.16500 119244.000000
10299 16801 1 0.16500 119244.000000
10300 15485 1 0.16500 119244.000000
10300 16138 1 0.16500 119244.000000
10301 15485 1 0.16500 119244.000000
10301 16454 1 0.16500 119244.000000
10302 15936 1 0.16500 119244.000000
10302 16138 1 0.16500 119244.000000
10303 15486 1 0.16500 119244.000000
10303 16528 1 0.16500 119244.000000
10304 15487 1 0.16500 119244.000000
10304 15725 1 0.16500 119244.000000
10305 15488 1 0.16500 119244.000000
10305 16471 1 0.16500 119244.000000
10306 15664 1 0.16500 119244.000000
10306 16549 1 0.16500 119244.000000
10307 15489 1 0.16500 119244.000000
10307 15664 1 0.16500 119244.000000
10308 15491 1 0.16500 119244.000000
10308 16506 1 0.16500 119244.000000
10309 15492 1 0.16500 119244.000000
10309 16988 1 0.16500 119244.000000
10310 15492 1 0.16500 119244.000000
10310 16604 1 0.16500 119244.000000
10311 15493 1 0.16500 119244.000000
10311 15595 1 0.16500 119244.000000
10312 15493 1 0.16500 119244.000000
10312 15778 1 0.16500 119244.000000
10313 15494 1 0.16500 119244.000000
10313 16524 1 0.16500 119244.000000
10314 15760 1 0.16500 119244.000000
10314 17343 1 0.16500 119244.000000
10315 14603 1 0.16500 119244.000000
10315 15495 1 0.16500 119244.000000
10316 15495 1 0.16500 119244.000000
10316 15762 1 0.16500 119244.000000
10317 15496 1 0.16500 119244.000000
10317 16951 1 0.16500 119244.000000
10318 15498 1 0.16500 119244.000000
10318 16472 1 0.16500 119244.000000
10319 15498 1 0.16500 119244.000000
10319 16458 1 0.16500 119244.000000
10320 15498 1 0.16500 119244.000000
10320 16289 1 0.16500 119244.000000
10321 15499 1 0.16500 119244.000000
10321 16189 1 0.16500 119244.000000
10322 15499 1 0.16500 119244.000000
10322 15937 1 0.16500 119244.000000
10323 15500 1 0.16500 119244.000000
10323 15800 1 0.16500 119244.000000
10324 15503 1 0.16500 119244.000000
10324 16059 1 0.16500 119244.000000
10325 15504 1 0.16500 119244.000000
10325 15929 1 0.16500 119244.000000
10326 15504 1 0.16500 119244.000000
10326 15983 1 0.16500 119244.000000
10327 15505 1 0.16500 119244.000000
10327 16011 1 0.16500 119244.000000
10328 15506 1 0.16500 119244.000000
10328 15848 1 0.16500 119244.000000
10329 15507 1 0.16500 119244.000000
10329 16629 1 0.16500 119244.000000
10330 15508 1 0.16500 119244.000000
10330 16684 1 0.16500 119244.000000
10331 15509 1 0.16500 119244.000000
10331 15690 1 0.16500 119244.000000
10332 12490 1 0.16500 119244.000000
10332 15509 1 0.16500 119244.000000
10333 15512 1 0.16500 119244.000000
10333 16375 1 0.16500 119244.000000
10334 15513 1 0.16500 119244.000000
10334 16261 1 0.16500 119244.000000
10335 15513 1 0.16500 119244.000000
10335 15566 1 0.16500 119244.000000
10336 15515 1 0.16500 119244.000000
10336 15861 1 0.16500 119244.000000
10337 15516 1 0.16500 119244.000000
10337 16281 1 0.16500 119244.000000
10338 15516 1 0.16500 119244.000000
10338 16451 1 0.16500 119244.000000
10339 16108 1 0.16500 119244.000000
10339 16568 1 0.16500 119244.000000
10340 15518 1 0.16500 119244.000000
10340 16108 1 0.16500 119244.000000
10341 15519 1 0.16500 119244.000000
10341 15942 1 0.16500 119244.000000
10342 15520 1 0.16500 119244.000000
10342 15819 1 0.16500 119244.000000
10343 15520 1 0.16500 119244.000000
10343 16527 1 0.16500 119244.000000
10344 15521 1 0.16500 119244.000000
10344 17016 1 0.16500 119244.000000
10345 15521 1 0.16500 119244.000000
10345 15603 1 0.16500 119244.000000
10346 15522 1 0.16500 119244.000000
10346 16462 1 0.16500 119244.000000
10347 15523 1 0.16500 119244.000000
10347 16934 1 0.16500 119244.000000
10348 15524 1 0.16500 119244.000000
10348 16308 1 0.16500 119244.000000
10349 15525 1 0.16500 119244.000000
10349 16153 1 0.16500 119244.000000
10350 15526 1 0.16500 119244.000000
10350 16994 1 0.16500 119244.000000
10351 15529 1 0.16500 119244.000000
10351 16822 1 0.16500 119244.000000
10352 15529 1 0.16500 119244.000000
10352 15903 1 0.16500 119244.000000
10353 15529 1 0.16500 119244.000000
10353 16900 1 0.16500 119244.000000
10354 15530 1 0.16500 119244.000000
10354 16571 1 0.16500 119244.000000
10355 15531 1 0.16500 119244.000000
10355 16617 1 0.16500 119244.000000
10356 16896 1 0.16500 119244.000000
10356 18548 1 0.16500 119244.000000
10357 16556 1 0.16500 119244.000000
10357 18881 1 0.16500 119244.000000
10358 15534 1 0.16500 119244.000000
10358 15593 1 0.16500 119244.000000
10359 15534 1 0.16500 119244.000000
10359 16837 1 0.16500 119244.000000
10360 15536 1 0.16500 119244.000000
10360 17006 1 0.16500 119244.000000
10361 15536 1 0.16500 119244.000000
10361 15828 1 0.16500 119244.000000
10362 15536 1 0.16500 119244.000000
10362 15985 1 0.16500 119244.000000
10363 15537 1 0.16500 119244.000000
10363 16799 1 0.16500 119244.000000
10364 15537 1 0.16500 119244.000000
10364 16459 1 0.16500 119244.000000
10365 15537 1 0.16500 119244.000000
10365 16337 1 0.16500 119244.000000
10366 15538 1 0.16500 119244.000000
10366 16670 1 0.16500 119244.000000
10367 15538 1 0.16500 119244.000000
10367 16353 1 0.16500 119244.000000
10368 15540 1 0.16500 119244.000000
10368 16912 1 0.16500 119244.000000
10369 15540 1 0.16500 119244.000000
10369 15896 1 0.16500 119244.000000
10370 14143 1 0.16500 119244.000000
10370 15541 1 0.16500 119244.000000
10371 15541 1 0.16500 119244.000000
10371 16883 1 0.16500 119244.000000
10372 15542 1 0.16500 119244.000000
10372 16455 1 0.16500 119244.000000
10373 15542 1 0.16500 119244.000000
10373 15711 1 0.16500 119244.000000
10374 15542 1 0.16500 119244.000000
10374 16935 1 0.16500 119244.000000
10375 15542 1 0.16500 119244.000000
10375 16909 1 0.16500 119244.000000
10376 15545 1 0.16500 119244.000000
10376 16247 1 0.16500 119244.000000
10377 15546 1 0.16500 119244.000000
10377 16832 1 0.16500 119244.000000
10378 15547 1 0.16500 119244.000000
10378 16546 1 0.16500 119244.000000
10379 15547 1 0.16500 119244.000000
10379 16581 1 0.16500 119244.000000
10380 15547 1 0.16500 119244.000000
10380 15739 1 0.16500 119244.000000
10381 15548 1 0.16500 119244.000000
10381 16157 1 0.16500 119244.000000
10382 15548 1 0.16500 119244.000000
10382 15796 1 0.16500 119244.000000
10383 15549 1 0.16500 119244.000000
10383 15639 1 0.16500 119244.000000
10384 15550 1 0.16500 119244.000000
10384 15884 1 0.16500 119244.000000
10385 15551 1 0.16500 119244.000000
10385 16629 1 0.16500 119244.000000
10386 15551 1 0.16500 119244.000000
10386 16835 1 0.16500 119244.000000
10387 15552 1 0.16500 119244.000000
10387 16515 1 0.16500 119244.000000
10388 15552 1 0.16500 119244.000000
10388 16337 1 0.16500 119244.000000
10389 15558 1 0.16500 119244.000000
10389 16548 1 0.16500 119244.000000
10390 15558 1 0.16500 119244.000000
10390 16178 1 0.16500 119244.000000
10391 15562 1 0.16500 119244.000000
10391 16979 1 0.16500 119244.000000
10392 15563 1 0.16500 119244.000000
10392 16100 1 0.16500 119244.000000
10393 15563 1 0.16500 119244.000000
10393 16664 1 0.16500 119244.000000
10394 15563 1 0.16500 119244.000000
10394 16755 1 0.16500 119244.000000
10395 15565 1 0.16500 119244.000000
10395 16362 1 0.16500 119244.000000
10396 15569 1 0.16500 119244.000000
10396 15948 1 0.16500 119244.000000
10397 14227 1 0.16500 119244.000000
10397 18884 1 0.16500 119244.000000
10398 15570 1 0.16500 119244.000000
10398 15705 1 0.16500 119244.000000
10399 15572 1 0.16500 119244.000000
10399 16030 1 0.16500 119244.000000
10400 15573 1 0.16500 119244.000000
10400 16050 1 0.16500 119244.000000
10401 13772 1 0.16500 119244.000000
10401 16564 1 0.16500 119244.000000
10402 15575 1 0.16500 119244.000000
10402 17012 1 0.16500 119244.000000
10403 15576 1 0.16500 119244.000000
10403 16206 1 0.16500 119244.000000
10404 15576 1 0.16500 119244.000000
10404 16064 1 0.16500 119244.000000
10405 15577 1 0.16500 119244.000000
10405 16114 1 0.16500 119244.000000
10406 14328 1 0.16500 119244.000000
10406 15577 1 0.16500 119244.000000
10407 14325 1 0.16500 119244.000000
10407 15657 1 0.16500 119244.000000
10408 15579 1 0.16500 119244.000000
10408 15590 1 0.16500 119244.000000
10409 15580 1 0.16500 119244.000000
10409 18914 1 0.16500 119244.000000
10410 15581 1 0.16500 119244.000000
10410 15585 1 0.16500 119244.000000
10411 15582 1 0.16500 119244.000000
10411 16600 1 0.16500 119244.000000
10412 15583 1 0.16500 119244.000000
10412 15938 1 0.16500 119244.000000
10413 15584 1 0.16500 119244.000000
10413 16748 1 0.16500 119244.000000
10414 13928 1 0.16500 119244.000000
10414 15584 1 0.16500 119244.000000
10415 15585 1 0.16500 119244.000000
10415 16663 1 0.16500 119244.000000
10416 15587 1 0.16500 119244.000000
10416 16194 1 0.16500 119244.000000
10417 15587 1 0.16500 119244.000000
10417 15867 1 0.16500 119244.000000
10418 15588 1 0.16500 119244.000000
10418 15897 1 0.16500 119244.000000
10419 15590 1 0.16500 119244.000000
10419 16818 1 0.16500 119244.000000
10420 15590 1 0.16500 119244.000000
10420 16801 1 0.16500 119244.000000
10421 15591 1 0.16500 119244.000000
10421 15612 1 0.16500 119244.000000
10422 11798 1 0.16500 119244.000000
10422 16547 1 0.16500 119244.000000
10423 15595 1 0.16500 119244.000000
10423 15909 1 0.16500 119244.000000
10424 15597 1 0.16500 119244.000000
10424 16656 1 0.16500 119244.000000
10425 15598 1 0.16500 119244.000000
10425 16083 1 0.16500 119244.000000
10426 15599 1 0.16500 119244.000000
10426 16256 1 0.16500 119244.000000
10427 15601 1 0.16500 119244.000000
10427 16404 1 0.16500 119244.000000
10428 15602 1 0.16500 119244.000000
10428 15676 1 0.16500 119244.000000
10429 15602 1 0.16500 119244.000000
10429 16592 1 0.16500 119244.000000
10430 15603 1 0.16500 119244.000000
10430 15802 1 0.16500 119244.000000
10431 15603 1 0.16500 119244.000000
10431 15885 1 0.16500 119244.000000
10432 15604 1 0.16500 119244.000000
10432 15816 1 0.16500 119244.000000
10433 15609 1 0.16500 119244.000000
10433 16167 1 0.16500 119244.000000
10434 15611 1 0.16500 119244.000000
10434 16395 1 0.16500 119244.000000
10435 16435 1 0.16500 119244.000000
10435 18887 1 0.16500 119244.000000
10436 16852 1 0.16500 119244.000000
10436 18887 1 0.16500 119244.000000
10437 15616 1 0.16500 119244.000000
10437 16161 1 0.16500 119244.000000
10438 15616 1 0.16500 119244.000000
10438 15637 1 0.16500 119244.000000
10439 15616 1 0.16500 119244.000000
10439 16213 1 0.16500 119244.000000
10440 15616 1 0.16500 119244.000000
10440 15993 1 0.16500 119244.000000
10441 16062 1 0.16500 119244.000000
10441 18890 1 0.16500 119244.000000
10442 16469 1 0.16500 119244.000000
10442 18890 1 0.16500 119244.000000
10443 15617 1 0.16500 119244.000000
10443 16274 1 0.16500 119244.000000
10444 15618 1 0.16500 119244.000000
10444 16375 1 0.16500 119244.000000
10445 15618 1 0.16500 119244.000000
10445 16671 1 0.16500 119244.000000
10446 15619 1 0.16500 119244.000000
10446 16868 1 0.16500 119244.000000
10447 15620 1 0.16500 119244.000000
10447 15707 1 0.16500 119244.000000
10448 15621 1 0.16500 119244.000000
10448 16057 1 0.16500 119244.000000
10449 15622 1 0.16500 119244.000000
10449 16967 1 0.16500 119244.000000
10450 15622 1 0.16500 119244.000000
10450 18938 1 0.16500 119244.000000
10451 15623 1 0.16500 119244.000000
10451 15685 1 0.16500 119244.000000
10452 15623 1 0.16500 119244.000000
10452 16495 1 0.16500 119244.000000
10453 15623 1 0.16500 119244.000000
10453 16251 1 0.16500 119244.000000
10454 15625 1 0.16500 119244.000000
10454 16880 1 0.16500 119244.000000
10455 15625 1 0.16500 119244.000000
10455 16891 1 0.16500 119244.000000
10456 15627 1 0.16500 119244.000000
10456 16297 1 0.16500 119244.000000
10457 15628 1 0.16500 119244.000000
10457 18998 1 0.16500 119244.000000
10458 15629 1 0.16500 119244.000000
10458 16468 1 0.16500 119244.000000
10459 14632 1 0.16500 119244.000000
10459 16164 1 0.16500 119244.000000
10460 15630 1 0.16500 119244.000000
10460 16385 1 0.16500 119244.000000
10461 15631 1 0.16500 119244.000000
10461 16033 1 0.16500 119244.000000
10462 15631 1 0.16500 119244.000000
10462 16481 1 0.16500 119244.000000
10463 16483 1 0.16500 119244.000000
10463 18893 1 0.16500 119244.000000
10464 15633 1 0.16500 119244.000000
10464 16179 1 0.16500 119244.000000
10465 15635 1 0.16500 119244.000000
10465 16952 1 0.16500 119244.000000
10466 15636 1 0.16500 119244.000000
10466 16437 1 0.16500 119244.000000
10467 15023 1 0.16500 119244.000000
10467 15636 1 0.16500 119244.000000
10468 12535 1 0.16500 119244.000000
10468 15637 1 0.16500 119244.000000
10469 15638 1 0.16500 119244.000000
10469 16402 1 0.16500 119244.000000
10470 15640 1 0.16500 119244.000000
10470 16125 1 0.16500 119244.000000
10471 13187 1 0.16500 119244.000000
10471 15641 1 0.16500 119244.000000
10472 15641 1 0.16500 119244.000000
10472 16065 1 0.16500 119244.000000
10473 15642 1 0.16500 119244.000000
10473 16512 1 0.16500 119244.000000
10474 15642 1 0.16500 119244.000000
10474 16016 1 0.16500 119244.000000
10475 15643 1 0.16500 119244.000000
10475 16306 1 0.16500 119244.000000
10476 15644 1 0.16500 119244.000000
10476 15866 1 0.16500 119244.000000
10477 15646 1 0.16500 119244.000000
10477 15847 1 0.16500 119244.000000
10478 15648 1 0.16500 119244.000000
10478 15775 1 0.16500 119244.000000
10479 15649 1 0.16500 119244.000000
10479 16078 1 0.16500 119244.000000
10480 13619 1 0.16500 119244.000000
10480 15653 1 0.16500 119244.000000
10481 15653 1 0.16500 119244.000000
10481 16626 1 0.16500 119244.000000
10482 15654 1 0.16500 119244.000000
10482 15714 1 0.16500 119244.000000
10483 15655 1 0.16500 119244.000000
10483 16474 1 0.16500 119244.000000
10484 15656 1 0.16500 119244.000000
10484 16430 1 0.16500 119244.000000
10485 15657 1 0.16500 119244.000000
10485 15822 1 0.16500 119244.000000
10486 15658 1 0.16500 119244.000000
10486 15738 1 0.16500 119244.000000
10487 15660 1 0.16500 119244.000000
10487 16259 1 0.16500 119244.000000
10488 15660 1 0.16500 119244.000000
10488 16252 1 0.16500 119244.000000
10489 14303 1 0.16500 119244.000000
10489 15661 1 0.16500 119244.000000
10490 15661 1 0.16500 119244.000000
10490 16470 1 0.16500 119244.000000
10491 15662 1 0.16500 119244.000000
10491 16099 1 0.16500 119244.000000
10492 12630 1 0.16500 119244.000000
10492 15663 1 0.16500 119244.000000
10493 15667 1 0.16500 119244.000000
10493 16275 1 0.16500 119244.000000
10494 15670 1 0.16500 119244.000000
10494 16351 1 0.16500 119244.000000
10495 15671 1 0.16500 119244.000000
10495 16505 1 0.16500 119244.000000
10496 12148 1 0.16500 119244.000000
10496 15672 1 0.16500 119244.000000
10497 15674 1 0.16500 119244.000000
10497 16918 1 0.16500 119244.000000
10498 15675 1 0.16500 119244.000000
10498 16474 1 0.16500 119244.000000
10499 15676 1 0.16500 119244.000000
10499 16082 1 0.16500 119244.000000
10500 15677 1 0.16500 119244.000000
10500 16121 1 0.16500 119244.000000
10501 15680 1 0.16500 119244.000000
10501 16565 1 0.16500 119244.000000
10502 15684 1 0.16500 119244.000000
10502 16667 1 0.16500 119244.000000
10503 15684 1 0.16500 119244.000000
10503 16885 1 0.16500 119244.000000
10504 15687 1 0.16500 119244.000000
10504 16268 1 0.16500 119244.000000
10505 15688 1 0.16500 119244.000000
10505 16572 1 0.16500 119244.000000
10506 15688 1 0.16500 119244.000000
10506 15752 1 0.16500 119244.000000
10507 15689 1 0.16500 119244.000000
10507 15937 1 0.16500 119244.000000
10508 15691 1 0.16500 119244.000000
10508 15774 1 0.16500 119244.000000
10509 15693 1 0.16500 119244.000000
10509 16846 1 0.16500 119244.000000
10510 15693 1 0.16500 119244.000000
10510 16839 1 0.16500 119244.000000
10511 15693 1 0.16500 119244.000000
10511 15892 1 0.16500 119244.000000
10512 15695 1 0.16500 119244.000000
10512 16742 1 0.16500 119244.000000
10513 13928 1 0.16500 119244.000000
10513 15698 1 0.16500 119244.000000
10514 14142 1 0.16500 119244.000000
10514 15698 1 0.16500 119244.000000
10515 15699 1 0.16500 119244.000000
10515 18908 1 0.16500 119244.000000
10516 15699 1 0.16500 119244.000000
10516 15727 1 0.16500 119244.000000
10517 15700 1 0.16500 119244.000000
10517 15989 1 0.16500 119244.000000
10518 12765 1 0.16500 119244.000000
10518 13560 1 0.16500 119244.000000
10519 15702 1 0.16500 119244.000000
10519 15796 1 0.16500 119244.000000
10520 15703 1 0.16500 119244.000000
10520 16478 1 0.16500 119244.000000
10521 14996 1 0.16500 119244.000000
10521 16051 1 0.16500 119244.000000
10522 15705 1 0.16500 119244.000000
10522 15849 1 0.16500 119244.000000
10523 15705 1 0.16500 119244.000000
10523 16437 1 0.16500 119244.000000
10524 15707 1 0.16500 119244.000000
10524 16579 1 0.16500 119244.000000
10525 15707 1 0.16500 119244.000000
10525 16767 1 0.16500 119244.000000
10526 15708 1 0.16500 119244.000000
10526 15805 1 0.16500 119244.000000
10527 15711 1 0.16500 119244.000000
10527 16304 1 0.16500 119244.000000
10528 15712 1 0.16500 119244.000000
10528 16602 1 0.16500 119244.000000
10529 15714 1 0.16500 119244.000000
10529 16537 1 0.16500 119244.000000
10530 15715 1 0.16500 119244.000000
10530 15773 1 0.16500 119244.000000
10531 12804 1 0.16500 119244.000000
10531 16382 1 0.16500 119244.000000
10532 12804 1 0.16500 119244.000000
10532 16236 1 0.16500 119244.000000
10533 15718 1 0.16500 119244.000000
10533 16687 1 0.16500 119244.000000
10534 15719 1 0.16500 119244.000000
10534 16160 1 0.16500 119244.000000
10535 15719 1 0.16500 119244.000000
10535 16421 1 0.16500 119244.000000
10536 15720 1 0.16500 119244.000000
10536 16369 1 0.16500 119244.000000
10537 15721 1 0.16500 119244.000000
10537 16837 1 0.16500 119244.000000
10538 15722 1 0.16500 119244.000000
10538 15841 1 0.16500 119244.000000
10539 15723 1 0.16500 119244.000000
10539 16157 1 0.16500 119244.000000
10540 15724 1 0.16500 119244.000000
10540 15843 1 0.16500 119244.000000
10541 15725 1 0.16500 119244.000000
10541 16063 1 0.16500 119244.000000
10542 15725 1 0.16500 119244.000000
10542 16765 1 0.16500 119244.000000
10543 15726 1 0.16500 119244.000000
10543 16436 1 0.16500 119244.000000
10544 15727 1 0.16500 119244.000000
10544 16583 1 0.16500 119244.000000
10545 15729 1 0.16500 119244.000000
10545 17315 1 0.16500 119244.000000
10546 15730 1 0.16500 119244.000000
10546 16080 1 0.16500 119244.000000
10547 15730 1 0.16500 119244.000000
10547 16040 1 0.16500 119244.000000
10548 15731 1 0.16500 119244.000000
10548 16885 1 0.16500 119244.000000
10549 15732 1 0.16500 119244.000000
10549 16033 1 0.16500 119244.000000
10550 15733 1 0.16500 119244.000000
10550 16770 1 0.16500 119244.000000
10551 15733 1 0.16500 119244.000000
10551 18968 1 0.16500 119244.000000
10552 15733 1 0.16500 119244.000000
10552 15829 1 0.16500 119244.000000
10553 15735 1 0.16500 119244.000000
10553 16543 1 0.16500 119244.000000
10554 15736 1 0.16500 119244.000000
10554 16949 1 0.16500 119244.000000
10555 15736 1 0.16500 119244.000000
10555 19076 1 0.16500 119244.000000
10556 15737 1 0.16500 119244.000000
10556 16775 1 0.16500 119244.000000
10557 15737 1 0.16500 119244.000000
10557 16727 1 0.16500 119244.000000
10558 15737 1 0.16500 119244.000000
10558 15749 1 0.16500 119244.000000
10559 15739 1 0.16500 119244.000000
10559 16947 1 0.16500 119244.000000
10560 15740 1 0.16500 119244.000000
10560 18191 1 0.16500 119244.000000
10561 15740 1 0.16500 119244.000000
10561 16577 1 0.16500 119244.000000
10562 15741 1 0.16500 119244.000000
10562 16685 1 0.16500 119244.000000
10563 15741 1 0.16500 119244.000000
10563 16429 1 0.16500 119244.000000
10564 15741 1 0.16500 119244.000000
10564 16117 1 0.16500 119244.000000
10565 15742 1 0.16500 119244.000000
10565 16324 1 0.16500 119244.000000
10566 15743 1 0.16500 119244.000000
10566 15779 1 0.16500 119244.000000
10567 15744 1 0.16500 119244.000000
10567 17663 1 0.16500 119244.000000
10568 15745 1 0.16500 119244.000000
10568 16635 1 0.16500 119244.000000
10569 15746 1 0.16500 119244.000000
10569 19031 1 0.16500 119244.000000
10570 15746 1 0.16500 119244.000000
10570 16250 1 0.16500 119244.000000
10571 15748 1 0.16500 119244.000000
10571 15913 1 0.16500 119244.000000
10572 16687 1 0.16500 119244.000000
10572 18902 1 0.16500 119244.000000
10573 15751 1 0.16500 119244.000000
10573 16995 1 0.16500 119244.000000
10574 15752 1 0.16500 119244.000000
10574 16667 1 0.16500 119244.000000
10575 15753 1 0.16500 119244.000000
10575 16177 1 0.16500 119244.000000
10576 13041 1 0.16500 119244.000000
10576 15753 1 0.16500 119244.000000
10577 15753 1 0.16500 119244.000000
10577 16720 1 0.16500 119244.000000
10578 15755 1 0.16500 119244.000000
10578 16019 1 0.16500 119244.000000
10579 15757 1 0.16500 119244.000000
10579 16865 1 0.16500 119244.000000
10580 15757 1 0.16500 119244.000000
10580 16694 1 0.16500 119244.000000
10581 15758 1 0.16500 119244.000000
10581 16228 1 0.16500 119244.000000
10582 15758 1 0.16500 119244.000000
10582 16778 1 0.16500 119244.000000
10583 15760 1 0.16500 119244.000000
10583 16667 1 0.16500 119244.000000
10584 15761 1 0.16500 119244.000000
10584 16012 1 0.16500 119244.000000
10585 15761 1 0.16500 119244.000000
10585 15793 1 0.16500 119244.000000
10586 15762 1 0.16500 119244.000000
10586 15846 1 0.16500 119244.000000
10587 16681 1 0.16500 119244.000000
10587 18905 1 0.16500 119244.000000
10588 15763 1 0.16500 119244.000000
10588 16087 1 0.16500 119244.000000
10589 15766 1 0.16500 119244.000000
10589 16691 1 0.16500 119244.000000
10590 15768 1 0.16500 119244.000000
10590 16940 1 0.16500 119244.000000
10591 15791 1 0.16500 119244.000000
10591 18908 1 0.16500 119244.000000
10592 15770 1 0.16500 119244.000000
10592 16347 1 0.16500 119244.000000
10593 15770 1 0.16500 119244.000000
10593 16911 1 0.16500 119244.000000
10594 15771 1 0.16500 119244.000000
10594 16548 1 0.16500 119244.000000
10595 15772 1 0.16500 119244.000000
10595 16627 1 0.16500 119244.000000
10596 15773 1 0.16500 119244.000000
10596 16884 1 0.16500 119244.000000
10597 15774 1 0.16500 119244.000000
10597 16226 1 0.16500 119244.000000
10598 15775 1 0.16500 119244.000000
10598 15953 1 0.16500 119244.000000
10599 15776 1 0.16500 119244.000000
10599 16407 1 0.16500 119244.000000
10600 15777 1 0.16500 119244.000000
10600 16938 1 0.16500 119244.000000
10601 15777 1 0.16500 119244.000000
10601 16841 1 0.16500 119244.000000
10602 15781 1 0.16500 119244.000000
10602 16923 1 0.16500 119244.000000
10603 15782 1 0.16500 119244.000000
10603 16697 1 0.16500 119244.000000
10604 15782 1 0.16500 119244.000000
10604 15839 1 0.16500 119244.000000
10605 15783 1 0.16500 119244.000000
10605 16047 1 0.16500 119244.000000
10606 15784 1 0.16500 119244.000000
10606 16910 1 0.16500 119244.000000
10607 15785 1 0.16500 119244.000000
10607 16469 1 0.16500 119244.000000
10608 15790 1 0.16500 119244.000000
10608 16588 1 0.16500 119244.000000
10609 15790 1 0.16500 119244.000000
10609 16754 1 0.16500 119244.000000
10610 15791 1 0.16500 119244.000000
10610 16762 1 0.16500 119244.000000
10611 15791 1 0.16500 119244.000000
10611 19010 1 0.16500 119244.000000
10612 15793 1 0.16500 119244.000000
10612 16399 1 0.16500 119244.000000
10613 15793 1 0.16500 119244.000000
10613 16527 1 0.16500 119244.000000
10614 15795 1 0.16500 119244.000000
10614 16936 1 0.16500 119244.000000
10615 15797 1 0.16500 119244.000000
10615 16708 1 0.16500 119244.000000
10616 15800 1 0.16500 119244.000000
10616 15965 1 0.16500 119244.000000
10617 15801 1 0.16500 119244.000000
10617 16215 1 0.16500 119244.000000
10618 15801 1 0.16500 119244.000000
10618 15968 1 0.16500 119244.000000
10619 15802 1 0.16500 119244.000000
10619 16531 1 0.16500 119244.000000
10620 15806 1 0.16500 119244.000000
10620 16657 1 0.16500 119244.000000
10621 15806 1 0.16500 119244.000000
10621 15982 1 0.16500 119244.000000
10622 15807 1 0.16500 119244.000000
10622 16384 1 0.16500 119244.000000
10623 15808 1 0.16500 119244.000000
10623 16735 1 0.16500 119244.000000
10624 15808 1 0.16500 119244.000000
10624 16827 1 0.16500 119244.000000
10625 13656 1 0.16500 119244.000000
10625 16049 1 0.16500 119244.000000
10626 15809 1 0.16500 119244.000000
10626 16966 1 0.16500 119244.000000
10627 15810 1 0.16500 119244.000000
10627 15819 1 0.16500 119244.000000
10628 13009 1 0.16500 119244.000000
10628 16736 1 0.16500 119244.000000
10629 15811 1 0.16500 119244.000000
10629 16246 1 0.16500 119244.000000
10630 15811 1 0.16500 119244.000000
10630 16562 1 0.16500 119244.000000
10631 15812 1 0.16500 119244.000000
10631 16322 1 0.16500 119244.000000
10632 15816 1 0.16500 119244.000000
10632 19079 1 0.16500 119244.000000
10633 15817 1 0.16500 119244.000000
10633 15954 1 0.16500 119244.000000
10634 15819 1 0.16500 119244.000000
10634 15962 1 0.16500 119244.000000
10635 15821 1 0.16500 119244.000000
10635 16396 1 0.16500 119244.000000
10636 15821 1 0.16500 119244.000000
10636 16273 1 0.16500 119244.000000
10637 15823 1 0.16500 119244.000000
10637 16700 1 0.16500 119244.000000
10638 14337 1 0.16500 119244.000000
10638 15824 1 0.16500 119244.000000
10639 15825 1 0.16500 119244.000000
10639 16832 1 0.16500 119244.000000
10640 15825 1 0.16500 119244.000000
10640 16314 1 0.16500 119244.000000
10641 15825 1 0.16500 119244.000000
10641 16379 1 0.16500 119244.000000
10642 15825 1 0.16500 119244.000000
10642 16575 1 0.16500 119244.000000
10643 15826 1 0.16500 119244.000000
10643 16381 1 0.16500 119244.000000
10644 15827 1 0.16500 119244.000000
10644 16182 1 0.16500 119244.000000
10645 15830 1 0.16500 119244.000000
10645 16539 1 0.16500 119244.000000
10646 15830 1 0.16500 119244.000000
10646 16688 1 0.16500 119244.000000
10647 15808 1 0.16500 119244.000000
10647 15831 1 0.16500 119244.000000
10648 15832 1 0.16500 119244.000000
10648 15852 1 0.16500 119244.000000
10649 15834 1 0.16500 119244.000000
10649 18350 1 0.16500 119244.000000
10650 15835 1 0.16500 119244.000000
10650 16716 1 0.16500 119244.000000
10651 15837 1 0.16500 119244.000000
10651 16796 1 0.16500 119244.000000
10652 15837 1 0.16500 119244.000000
10652 15926 1 0.16500 119244.000000
10653 15838 1 0.16500 119244.000000
10653 16639 1 0.16500 119244.000000
10654 15839 1 0.16500 119244.000000
10654 15940 1 0.16500 119244.000000
10655 15840 1 0.16500 119244.000000
10655 16475 1 0.16500 119244.000000
10656 15840 1 0.16500 119244.000000
10656 16398 1 0.16500 119244.000000
10657 15840 1 0.16500 119244.000000
10657 16259 1 0.16500 119244.000000
10658 15841 1 0.16500 119244.000000
10658 16128 1 0.16500 119244.000000
10659 15844 1 0.16500 119244.000000
10659 15900 1 0.16500 119244.000000
10660 15845 1 0.16500 119244.000000
10660 16541 1 0.16500 119244.000000
10661 15547 1 0.16500 119244.000000
10661 15845 1 0.16500 119244.000000
10662 15846 1 0.16500 119244.000000
10662 16384 1 0.16500 119244.000000
10663 15847 1 0.16500 119244.000000
10663 16385 1 0.16500 119244.000000
10664 15848 1 0.16500 119244.000000
10664 15921 1 0.16500 119244.000000
10665 15849 1 0.16500 119244.000000
10665 15981 1 0.16500 119244.000000
10666 15851 1 0.16500 119244.000000
10666 15967 1 0.16500 119244.000000
10667 15853 1 0.16500 119244.000000
10667 16064 1 0.16500 119244.000000
10668 15855 1 0.16500 119244.000000
10668 15869 1 0.16500 119244.000000
10669 15857 1 0.16500 119244.000000
10669 16368 1 0.16500 119244.000000
10670 15857 1 0.16500 119244.000000
10670 16838 1 0.16500 119244.000000
10671 15857 1 0.16500 119244.000000
10671 16363 1 0.16500 119244.000000
10672 15284 1 0.16500 119244.000000
10672 15858 1 0.16500 119244.000000
10673 15863 1 0.16500 119244.000000
10673 16203 1 0.16500 119244.000000
10674 15864 1 0.16500 119244.000000
10674 16053 1 0.16500 119244.000000
10675 15865 1 0.16500 119244.000000
10675 15951 1 0.16500 119244.000000
10676 12271 1 0.16500 119244.000000
10676 16356 1 0.16500 119244.000000
10677 14450 1 0.16500 119244.000000
10677 15867 1 0.16500 119244.000000
10678 15868 1 0.16500 119244.000000
10678 16330 1 0.16500 119244.000000
10679 15868 1 0.16500 119244.000000
10679 16498 1 0.16500 119244.000000
10680 15017 1 0.16500 119244.000000
10680 16829 1 0.16500 119244.000000
10681 13041 1 0.16500 119244.000000
10681 16276 1 0.16500 119244.000000
10682 15872 1 0.16500 119244.000000
10682 16582 1 0.16500 119244.000000
10683 15873 1 0.16500 119244.000000
10683 16286 1 0.16500 119244.000000
10684 15874 1 0.16500 119244.000000
10684 16744 1 0.16500 119244.000000
10685 15877 1 0.16500 119244.000000
10685 16502 1 0.16500 119244.000000
10686 15877 1 0.16500 119244.000000
10686 16313 1 0.16500 119244.000000
10687 15878 1 0.16500 119244.000000
10687 16235 1 0.16500 119244.000000
10688 15879 1 0.16500 119244.000000
10688 16970 1 0.16500 119244.000000
10689 15879 1 0.16500 119244.000000
10689 16956 1 0.16500 119244.000000
10690 15879 1 0.16500 119244.000000
10690 15999 1 0.16500 119244.000000
10691 15880 1 0.16500 119244.000000
10691 16637 1 0.16500 119244.000000
10692 15881 1 0.16500 119244.000000
10692 16371 1 0.16500 119244.000000
10693 15881 1 0.16500 119244.000000
10693 16485 1 0.16500 119244.000000
10694 16354 1 0.16500 119244.000000
10694 18914 1 0.16500 119244.000000
10695 15883 1 0.16500 119244.000000
10695 16928 1 0.16500 119244.000000
10696 15884 1 0.16500 119244.000000
10696 16640 1 0.16500 119244.000000
10697 15888 1 0.16500 119244.000000
10697 16450 1 0.16500 119244.000000
10698 15381 1 0.16500 119244.000000
10698 16164 1 0.16500 119244.000000
10699 15891 1 0.16500 119244.000000
10699 16842 1 0.16500 119244.000000
10700 15891 1 0.16500 119244.000000
10700 16571 1 0.16500 119244.000000
10701 16110 1 0.16500 119244.000000
10701 18920 1 0.16500 119244.000000
10702 15894 1 0.16500 119244.000000
10702 16533 1 0.16500 119244.000000
10703 15900 1 0.16500 119244.000000
10703 16912 1 0.16500 119244.000000
10704 13757 1 0.16500 119244.000000
10704 15902 1 0.16500 119244.000000
10705 15904 1 0.16500 119244.000000
10705 18989 1 0.16500 119244.000000
10706 15905 1 0.16500 119244.000000
10706 16765 1 0.16500 119244.000000
10707 15907 1 0.16500 119244.000000
10707 16760 1 0.16500 119244.000000
10708 15907 1 0.16500 119244.000000
10708 16122 1 0.16500 119244.000000
10709 15908 1 0.16500 119244.000000
10709 16850 1 0.16500 119244.000000
10710 15910 1 0.16500 119244.000000
10710 16115 1 0.16500 119244.000000
10711 15910 1 0.16500 119244.000000
10711 19067 1 0.16500 119244.000000
10712 15912 1 0.16500 119244.000000
10712 16248 1 0.16500 119244.000000
10713 15912 1 0.16500 119244.000000
10713 16941 1 0.16500 119244.000000
10714 15914 1 0.16500 119244.000000
10714 16224 1 0.16500 119244.000000
10715 15914 1 0.16500 119244.000000
10715 16285 1 0.16500 119244.000000
10716 15916 1 0.16500 119244.000000
10716 16716 1 0.16500 119244.000000
10717 15917 1 0.16500 119244.000000
10717 16593 1 0.16500 119244.000000
10718 15918 1 0.16500 119244.000000
10718 16176 1 0.16500 119244.000000
10719 15920 1 0.16500 119244.000000
10719 16659 1 0.16500 119244.000000
10720 15921 1 0.16500 119244.000000
10720 16081 1 0.16500 119244.000000
10721 15922 1 0.16500 119244.000000
10721 16524 1 0.16500 119244.000000
10722 15928 1 0.16500 119244.000000
10722 16563 1 0.16500 119244.000000
10723 15928 1 0.16500 119244.000000
10723 15982 1 0.16500 119244.000000
10724 15932 1 0.16500 119244.000000
10724 16375 1 0.16500 119244.000000
10725 15932 1 0.16500 119244.000000
10725 16063 1 0.16500 119244.000000
10726 15934 1 0.16500 119244.000000
10726 16651 1 0.16500 119244.000000
10727 14369 1 0.16500 119244.000000
10727 16390 1 0.16500 119244.000000
10728 15935 1 0.16500 119244.000000
10728 16507 1 0.16500 119244.000000
10729 15938 1 0.16500 119244.000000
10729 16333 1 0.16500 119244.000000
10730 15940 1 0.16500 119244.000000
10730 16457 1 0.16500 119244.000000
10731 15941 1 0.16500 119244.000000
10731 16116 1 0.16500 119244.000000
10732 15942 1 0.16500 119244.000000
10732 16263 1 0.16500 119244.000000
10733 15943 1 0.16500 119244.000000
10733 16868 1 0.16500 119244.000000
10734 15943 1 0.16500 119244.000000
10734 16815 1 0.16500 119244.000000
10735 15944 1 0.16500 119244.000000
10735 16408 1 0.16500 119244.000000
10736 15945 1 0.16500 119244.000000
10736 16348 1 0.16500 119244.000000
10737 14790 1 0.16500 119244.000000
10737 16266 1 0.16500 119244.000000
10738 15946 1 0.16500 119244.000000
10738 16388 1 0.16500 119244.000000
10739 15947 1 0.16500 119244.000000
10739 16448 1 0.16500 119244.000000
10740 15950 1 0.16500 119244.000000
10740 16022 1 0.16500 119244.000000
10741 15636 1 0.16500 119244.000000
10741 15951 1 0.16500 119244.000000
10742 15952 1 0.16500 119244.000000
10742 16910 1 0.16500 119244.000000
10743 15952 1 0.16500 119244.000000
10743 16953 1 0.16500 119244.000000
10744 16335 1 0.16500 119244.000000
10744 18926 1 0.16500 119244.000000
10745 15954 1 0.16500 119244.000000
10745 16533 1 0.16500 119244.000000
10746 15954 1 0.16500 119244.000000
10746 16524 1 0.16500 119244.000000
10747 17795 1 0.16500 119244.000000
10747 17903 1 0.16500 119244.000000
10748 15955 1 0.16500 119244.000000
10748 16988 1 0.16500 119244.000000
10749 15956 1 0.16500 119244.000000
10749 16164 1 0.16500 119244.000000
10750 15957 1 0.16500 119244.000000
10750 15979 1 0.16500 119244.000000
10751 15960 1 0.16500 119244.000000
10751 16480 1 0.16500 119244.000000
10752 15963 1 0.16500 119244.000000
10752 16017 1 0.16500 119244.000000
10753 15964 1 0.16500 119244.000000
10753 16156 1 0.16500 119244.000000
10754 15964 1 0.16500 119244.000000
10754 16709 1 0.16500 119244.000000
10755 14689 1 0.16500 119244.000000
10755 15970 1 0.16500 119244.000000
10756 15972 1 0.16500 119244.000000
10756 16453 1 0.16500 119244.000000
10757 15972 1 0.16500 119244.000000
10757 16945 1 0.16500 119244.000000
10758 15974 1 0.16500 119244.000000
10758 16431 1 0.16500 119244.000000
10759 15975 1 0.16500 119244.000000
10759 16242 1 0.16500 119244.000000
10760 15978 1 0.16500 119244.000000
10760 16547 1 0.16500 119244.000000
10761 15979 1 0.16500 119244.000000
10761 16520 1 0.16500 119244.000000
10762 15980 1 0.16500 119244.000000
10762 16679 1 0.16500 119244.000000
10763 15982 1 0.16500 119244.000000
10763 16346 1 0.16500 119244.000000
10764 15987 1 0.16500 119244.000000
10764 19043 1 0.16500 119244.000000
10765 15987 1 0.16500 119244.000000
10765 16003 1 0.16500 119244.000000
10766 15987 1 0.16500 119244.000000
10766 16672 1 0.16500 119244.000000
10767 15988 1 0.16500 119244.000000
10767 15990 1 0.16500 119244.000000
10768 15989 1 0.16500 119244.000000
10768 16159 1 0.16500 119244.000000
10769 15990 1 0.16500 119244.000000
10769 16349 1 0.16500 119244.000000
10770 15992 1 0.16500 119244.000000
10770 16475 1 0.16500 119244.000000
10771 15994 1 0.16500 119244.000000
10771 16158 1 0.16500 119244.000000
10772 15995 1 0.16500 119244.000000
10772 16188 1 0.16500 119244.000000
10773 15996 1 0.16500 119244.000000
10773 16114 1 0.16500 119244.000000
10774 15997 1 0.16500 119244.000000
10774 16162 1 0.16500 119244.000000
10775 15998 1 0.16500 119244.000000
10775 16374 1 0.16500 119244.000000
10776 15999 1 0.16500 119244.000000
10776 16803 1 0.16500 119244.000000
10777 15999 1 0.16500 119244.000000
10777 16519 1 0.16500 119244.000000
10778 16001 1 0.16500 119244.000000
10778 16537 1 0.16500 119244.000000
10779 16002 1 0.16500 119244.000000
10779 16206 1 0.16500 119244.000000
10780 16002 1 0.16500 119244.000000
10780 16362 1 0.16500 119244.000000
10781 16007 1 0.16500 119244.000000
10781 16926 1 0.16500 119244.000000
10782 16011 1 0.16500 119244.000000
10782 16020 1 0.16500 119244.000000
10783 16011 1 0.16500 119244.000000
10783 16026 1 0.16500 119244.000000
10784 16014 1 0.16500 119244.000000
10784 19064 1 0.16500 119244.000000
10785 16017 1 0.16500 119244.000000
10785 16097 1 0.16500 119244.000000
10786 16017 1 0.16500 119244.000000
10786 17469 1 0.16500 119244.000000
10787 16020 1 0.16500 119244.000000
10787 16102 1 0.16500 119244.000000
10788 16024 1 0.16500 119244.000000
10788 16780 1 0.16500 119244.000000
10789 16026 1 0.16500 119244.000000
10789 16889 1 0.16500 119244.000000
10790 18941 1 0.16500 119244.000000
10790 19046 1 0.16500 119244.000000
10791 16027 1 0.16500 119244.000000
10791 16692 1 0.16500 119244.000000
10792 16028 1 0.16500 119244.000000
10792 16881 1 0.16500 119244.000000
10793 14170 1 0.16500 119244.000000
10793 16028 1 0.16500 119244.000000
10794 16029 1 0.16500 119244.000000
10794 16532 1 0.16500 119244.000000
10795 16678 1 0.16500 119244.000000
10795 18944 1 0.16500 119244.000000
10796 16030 1 0.16500 119244.000000
10796 16846 1 0.16500 119244.000000
10797 16032 1 0.16500 119244.000000
10797 16229 1 0.16500 119244.000000
10798 16032 1 0.16500 119244.000000
10798 16589 1 0.16500 119244.000000
10799 16034 1 0.16500 119244.000000
10799 16536 1 0.16500 119244.000000
10800 16037 1 0.16500 119244.000000
10800 17012 1 0.16500 119244.000000
10801 16037 1 0.16500 119244.000000
10801 16269 1 0.16500 119244.000000
10802 16039 1 0.16500 119244.000000
10802 18959 1 0.16500 119244.000000
10803 16043 1 0.16500 119244.000000
10803 16570 1 0.16500 119244.000000
10804 16974 1 0.16500 119244.000000
10804 18947 1 0.16500 119244.000000
10805 16044 1 0.16500 119244.000000
10805 16933 1 0.16500 119244.000000
10806 16046 1 0.16500 119244.000000
10806 16334 1 0.16500 119244.000000
10807 16049 1 0.16500 119244.000000
10807 16610 1 0.16500 119244.000000
10808 16050 1 0.16500 119244.000000
10808 16826 1 0.16500 119244.000000
10809 16051 1 0.16500 119244.000000
10809 16844 1 0.16500 119244.000000
10810 16051 1 0.16500 119244.000000
10810 16512 1 0.16500 119244.000000
10811 16055 1 0.16500 119244.000000
10811 16300 1 0.16500 119244.000000
10812 16057 1 0.16500 119244.000000
10812 16873 1 0.16500 119244.000000
10813 16060 1 0.16500 119244.000000
10813 18956 1 0.16500 119244.000000
10814 16062 1 0.16500 119244.000000
10814 16239 1 0.16500 119244.000000
10815 16066 1 0.16500 119244.000000
10815 16167 1 0.16500 119244.000000
10816 16067 1 0.16500 119244.000000
10816 16391 1 0.16500 119244.000000
10817 16069 1 0.16500 119244.000000
10817 16939 1 0.16500 119244.000000
10818 16069 1 0.16500 119244.000000
10818 16679 1 0.16500 119244.000000
10819 14979 1 0.16500 119244.000000
10819 16071 1 0.16500 119244.000000
10820 16073 1 0.16500 119244.000000
10820 16404 1 0.16500 119244.000000
10821 17189 1 0.16500 119244.000000
10821 18953 1 0.16500 119244.000000
10822 15597 1 0.16500 119244.000000
10822 18953 1 0.16500 119244.000000
10823 16077 1 0.16500 119244.000000
10823 16661 1 0.16500 119244.000000
10824 16077 1 0.16500 119244.000000
10824 16335 1 0.16500 119244.000000
10825 16078 1 0.16500 119244.000000
10825 16318 1 0.16500 119244.000000
10826 16079 1 0.16500 119244.000000
10826 16526 1 0.16500 119244.000000
10827 16877 1 0.16500 119244.000000
10827 18956 1 0.16500 119244.000000
10828 16166 1 0.16500 119244.000000
10828 18959 1 0.16500 119244.000000
10829 16090 1 0.16500 119244.000000
10829 17203 1 0.16500 119244.000000
10830 16093 1 0.16500 119244.000000
10830 16959 1 0.16500 119244.000000
10831 16096 1 0.16500 119244.000000
10831 16481 1 0.16500 119244.000000
10832 16097 1 0.16500 119244.000000
10832 16222 1 0.16500 119244.000000
10833 16099 1 0.16500 119244.000000
10833 16750 1 0.16500 119244.000000
10834 16101 1 0.16500 119244.000000
10834 16264 1 0.16500 119244.000000
10835 11981 1 0.16500 119244.000000
10835 16101 1 0.16500 119244.000000
10836 16103 1 0.16500 119244.000000
10836 18887 1 0.16500 119244.000000
10837 16103 1 0.16500 119244.000000
10837 16948 1 0.16500 119244.000000
10838 16104 1 0.16500 119244.000000
10838 16387 1 0.16500 119244.000000
10839 13779 1 0.16500 119244.000000
10839 16120 1 0.16500 119244.000000
10840 16106 1 0.16500 119244.000000
10840 16609 1 0.16500 119244.000000
10841 16106 1 0.16500 119244.000000
10841 16425 1 0.16500 119244.000000
10842 16107 1 0.16500 119244.000000
10842 16324 1 0.16500 119244.000000
10843 13187 1 0.16500 119244.000000
10843 16107 1 0.16500 119244.000000
10844 16111 1 0.16500 119244.000000
10844 16760 1 0.16500 119244.000000
10845 16112 1 0.16500 119244.000000
10845 16706 1 0.16500 119244.000000
10846 16112 1 0.16500 119244.000000
10846 16633 1 0.16500 119244.000000
10847 16113 1 0.16500 119244.000000
10847 16862 1 0.16500 119244.000000
10848 16115 1 0.16500 119244.000000
10848 16869 1 0.16500 119244.000000
10849 16118 1 0.16500 119244.000000
10849 16928 1 0.16500 119244.000000
10850 16124 1 0.16500 119244.000000
10850 16840 1 0.16500 119244.000000
10851 16124 1 0.16500 119244.000000
10851 16657 1 0.16500 119244.000000
10852 16128 1 0.16500 119244.000000
10852 17245 1 0.16500 119244.000000
10853 16130 1 0.16500 119244.000000
10853 16956 1 0.16500 119244.000000
10854 16131 1 0.16500 119244.000000
10854 16201 1 0.16500 119244.000000
10855 16132 1 0.16500 119244.000000
10855 16205 1 0.16500 119244.000000
10856 16135 1 0.16500 119244.000000
10856 16482 1 0.16500 119244.000000
10857 16135 1 0.16500 119244.000000
10857 16306 1 0.16500 119244.000000
10858 16600 1 0.16500 119244.000000
10858 18971 1 0.16500 119244.000000
10859 16137 1 0.16500 119244.000000
10859 16140 1 0.16500 119244.000000
10860 16138 1 0.16500 119244.000000
10860 16307 1 0.16500 119244.000000
10861 16138 1 0.16500 119244.000000
10861 16597 1 0.16500 119244.000000
10862 14406 1 0.16500 119244.000000
10862 16141 1 0.16500 119244.000000
10863 16144 1 0.16500 119244.000000
10863 16276 1 0.16500 119244.000000
10864 13829 1 0.16500 119244.000000
10864 16152 1 0.16500 119244.000000
10865 16148 1 0.16500 119244.000000
10865 16199 1 0.16500 119244.000000
10866 16149 1 0.16500 119244.000000
10866 16365 1 0.16500 119244.000000
10867 16152 1 0.16500 119244.000000
10867 16214 1 0.16500 119244.000000
10868 16197 1 0.16500 119244.000000
10868 17077 1 0.16500 119244.000000
10869 16984 1 0.16500 119244.000000
10869 17077 1 0.16500 119244.000000
10870 16153 1 0.16500 119244.000000
10870 16198 1 0.16500 119244.000000
10871 16160 1 0.16500 119244.000000
10871 16467 1 0.16500 119244.000000
10872 13940 1 0.16500 119244.000000
10872 16801 1 0.16500 119244.000000
10873 16161 1 0.16500 119244.000000
10873 16953 1 0.16500 119244.000000
10874 16161 1 0.16500 119244.000000
10874 16361 1 0.16500 119244.000000
10875 16162 1 0.16500 119244.000000
10875 16283 1 0.16500 119244.000000
10876 16163 1 0.16500 119244.000000
10876 16235 1 0.16500 119244.000000
10877 15956 1 0.16500 119244.000000
10877 16690 1 0.16500 119244.000000
10878 16169 1 0.16500 119244.000000
10878 16280 1 0.16500 119244.000000
10879 16169 1 0.16500 119244.000000
10879 16495 1 0.16500 119244.000000
10880 16170 1 0.16500 119244.000000
10880 16935 1 0.16500 119244.000000
10881 16171 1 0.16500 119244.000000
10881 16986 1 0.16500 119244.000000
10882 16174 1 0.16500 119244.000000
10882 16181 1 0.16500 119244.000000
10883 16175 1 0.16500 119244.000000
10883 16490 1 0.16500 119244.000000
10884 14415 1 0.16500 119244.000000
10884 16220 1 0.16500 119244.000000
10885 16175 1 0.16500 119244.000000
10885 16515 1 0.16500 119244.000000
10886 16176 1 0.16500 119244.000000
10886 16985 1 0.16500 119244.000000
10887 14896 1 0.16500 119244.000000
10887 16865 1 0.16500 119244.000000
10888 16182 1 0.16500 119244.000000
10888 16916 1 0.16500 119244.000000
10889 16183 1 0.16500 119244.000000
10889 16218 1 0.16500 119244.000000
10890 16184 1 0.16500 119244.000000
10890 16492 1 0.16500 119244.000000
10891 16779 1 0.16500 119244.000000
10891 18983 1 0.16500 119244.000000
10892 16187 1 0.16500 119244.000000
10892 16755 1 0.16500 119244.000000
10893 16187 1 0.16500 119244.000000
10893 16478 1 0.16500 119244.000000
10894 16187 1 0.16500 119244.000000
10894 16937 1 0.16500 119244.000000
10895 16188 1 0.16500 119244.000000
10895 16597 1 0.16500 119244.000000
10896 16192 1 0.16500 119244.000000
10896 16990 1 0.16500 119244.000000
10897 16196 1 0.16500 119244.000000
10897 16859 1 0.16500 119244.000000
10898 16198 1 0.16500 119244.000000
10898 16665 1 0.16500 119244.000000
10899 16198 1 0.16500 119244.000000
10899 16879 1 0.16500 119244.000000
10900 16199 1 0.16500 119244.000000
10900 16309 1 0.16500 119244.000000
10901 16131 1 0.16500 119244.000000
10901 16689 1 0.16500 119244.000000
10902 11968 1 0.16500 119244.000000
10902 19031 1 0.16500 119244.000000
10903 16205 1 0.16500 119244.000000
10903 16234 1 0.16500 119244.000000
10904 16207 1 0.16500 119244.000000
10904 16608 1 0.16500 119244.000000
10905 16207 1 0.16500 119244.000000
10905 16439 1 0.16500 119244.000000
10906 16208 1 0.16500 119244.000000
10906 19028 1 0.16500 119244.000000
10907 16209 1 0.16500 119244.000000
10907 16835 1 0.16500 119244.000000
10908 16210 1 0.16500 119244.000000
10908 16251 1 0.16500 119244.000000
10909 16212 1 0.16500 119244.000000
10909 16872 1 0.16500 119244.000000
10910 16212 1 0.16500 119244.000000
10910 16757 1 0.16500 119244.000000
10911 16213 1 0.16500 119244.000000
10911 18992 1 0.16500 119244.000000
10912 16214 1 0.16500 119244.000000
10912 16967 1 0.16500 119244.000000
10913 12342 1 0.16500 119244.000000
10913 16632 1 0.16500 119244.000000
10914 16218 1 0.16500 119244.000000
10914 16797 1 0.16500 119244.000000
10915 16221 1 0.16500 119244.000000
10915 16460 1 0.16500 119244.000000
10916 16222 1 0.16500 119244.000000
10916 16510 1 0.16500 119244.000000
10917 12128 1 0.16500 119244.000000
10917 16223 1 0.16500 119244.000000
10918 16226 1 0.16500 119244.000000
10918 16614 1 0.16500 119244.000000
10919 16233 1 0.16500 119244.000000
10919 16350 1 0.16500 119244.000000
10920 14711 1 0.16500 119244.000000
10920 16632 1 0.16500 119244.000000
10921 16237 1 0.16500 119244.000000
10921 16855 1 0.16500 119244.000000
10922 16237 1 0.16500 119244.000000
10922 16710 1 0.16500 119244.000000
10923 18989 1 0.16500 119244.000000
10923 19019 1 0.16500 119244.000000
10924 16243 1 0.16500 119244.000000
10924 16520 1 0.16500 119244.000000
10925 16247 1 0.16500 119244.000000
10925 16432 1 0.16500 119244.000000
10926 16250 1 0.16500 119244.000000
10926 16422 1 0.16500 119244.000000
10927 16251 1 0.16500 119244.000000
10927 16444 1 0.16500 119244.000000
10928 16253 1 0.16500 119244.000000
10928 16422 1 0.16500 119244.000000
10929 16253 1 0.16500 119244.000000
10929 16821 1 0.16500 119244.000000
10930 16254 1 0.16500 119244.000000
10930 16448 1 0.16500 119244.000000
10931 16261 1 0.16500 119244.000000
10931 16908 1 0.16500 119244.000000
10932 16265 1 0.16500 119244.000000
10932 16766 1 0.16500 119244.000000
10933 16268 1 0.16500 119244.000000
10933 16586 1 0.16500 119244.000000
10934 16271 1 0.16500 119244.000000
10934 17000 1 0.16500 119244.000000
10935 16276 1 0.16500 119244.000000
10935 16615 1 0.16500 119244.000000
10936 16285 1 0.16500 119244.000000
10936 16455 1 0.16500 119244.000000
10937 16287 1 0.16500 119244.000000
10937 16651 1 0.16500 119244.000000
10938 16288 1 0.16500 119244.000000
10938 16870 1 0.16500 119244.000000
10939 16292 1 0.16500 119244.000000
10939 16989 1 0.16500 119244.000000
10940 16293 1 0.16500 119244.000000
10940 17975 1 0.16500 119244.000000
10941 16294 1 0.16500 119244.000000
10941 16658 1 0.16500 119244.000000
10942 16759 1 0.16500 119244.000000
10942 18998 1 0.16500 119244.000000
10943 16298 1 0.16500 119244.000000
10943 16588 1 0.16500 119244.000000
10944 14233 1 0.16500 119244.000000
10944 16298 1 0.16500 119244.000000
10945 16300 1 0.16500 119244.000000
10945 16899 1 0.16500 119244.000000
10946 16301 1 0.16500 119244.000000
10946 16511 1 0.16500 119244.000000
10947 16302 1 0.16500 119244.000000
10947 17002 1 0.16500 119244.000000
10948 16303 1 0.16500 119244.000000
10948 16588 1 0.16500 119244.000000
10949 16325 1 0.16500 119244.000000
10949 19004 1 0.16500 119244.000000
10950 16434 1 0.16500 119244.000000
10950 19004 1 0.16500 119244.000000
10951 16307 1 0.16500 119244.000000
10951 16377 1 0.16500 119244.000000
10952 16307 1 0.16500 119244.000000
10952 16450 1 0.16500 119244.000000
10953 16308 1 0.16500 119244.000000
10953 16923 1 0.16500 119244.000000
10954 16311 1 0.16500 119244.000000
10954 16741 1 0.16500 119244.000000
10955 16312 1 0.16500 119244.000000
10955 16430 1 0.16500 119244.000000
10956 16315 1 0.16500 119244.000000
10956 16364 1 0.16500 119244.000000
10957 17203 1 0.16500 119244.000000
10957 18035 1 0.16500 119244.000000
10958 16323 1 0.16500 119244.000000
10958 16509 1 0.16500 119244.000000
10959 16326 1 0.16500 119244.000000
10959 16934 1 0.16500 119244.000000
10960 16326 1 0.16500 119244.000000
10960 16821 1 0.16500 119244.000000
10961 16326 1 0.16500 119244.000000
10961 16990 1 0.16500 119244.000000
10962 16327 1 0.16500 119244.000000
10962 16423 1 0.16500 119244.000000
10963 16329 1 0.16500 119244.000000
10963 16520 1 0.16500 119244.000000
10964 16330 1 0.16500 119244.000000
10964 16352 1 0.16500 119244.000000
10965 16330 1 0.16500 119244.000000
10965 16824 1 0.16500 119244.000000
10966 16331 1 0.16500 119244.000000
10966 16460 1 0.16500 119244.000000
10967 16333 1 0.16500 119244.000000
10967 16711 1 0.16500 119244.000000
10968 16334 1 0.16500 119244.000000
10968 16595 1 0.16500 119244.000000
10969 16335 1 0.16500 119244.000000
10969 16433 1 0.16500 119244.000000
10970 16336 1 0.16500 119244.000000
10970 16392 1 0.16500 119244.000000
10971 16337 1 0.16500 119244.000000
10971 16502 1 0.16500 119244.000000
10972 16338 1 0.16500 119244.000000
10972 16783 1 0.16500 119244.000000
10973 16341 1 0.16500 119244.000000
10973 16828 1 0.16500 119244.000000
10974 12047 1 0.16500 119244.000000
10974 16724 1 0.16500 119244.000000
10975 16344 1 0.16500 119244.000000
10975 16597 1 0.16500 119244.000000
10976 16347 1 0.16500 119244.000000
10976 16578 1 0.16500 119244.000000
10977 16350 1 0.16500 119244.000000
10977 16406 1 0.16500 119244.000000
10978 16350 1 0.16500 119244.000000
10978 16846 1 0.16500 119244.000000
10979 16351 1 0.16500 119244.000000
10979 16679 1 0.16500 119244.000000
10980 16445 1 0.16500 119244.000000
10980 16717 1 0.16500 119244.000000
10981 16352 1 0.16500 119244.000000
10981 16717 1 0.16500 119244.000000
10982 16353 1 0.16500 119244.000000
10982 16372 1 0.16500 119244.000000
10983 16357 1 0.16500 119244.000000
10983 16691 1 0.16500 119244.000000
10984 16357 1 0.16500 119244.000000
10984 16819 1 0.16500 119244.000000
10985 16357 1 0.16500 119244.000000
10985 16908 1 0.16500 119244.000000
10986 16358 1 0.16500 119244.000000
10986 16773 1 0.16500 119244.000000
10987 16362 1 0.16500 119244.000000
10987 16613 1 0.16500 119244.000000
10988 16363 1 0.16500 119244.000000
10988 16953 1 0.16500 119244.000000
10989 16364 1 0.16500 119244.000000
10989 16870 1 0.16500 119244.000000
10990 16370 1 0.16500 119244.000000
10990 16701 1 0.16500 119244.000000
10991 16373 1 0.16500 119244.000000
10991 16911 1 0.16500 119244.000000
10992 16385 1 0.16500 119244.000000
10992 16742 1 0.16500 119244.000000
10993 16388 1 0.16500 119244.000000
10993 16902 1 0.16500 119244.000000
10994 16390 1 0.16500 119244.000000
10994 16608 1 0.16500 119244.000000
10995 16397 1 0.16500 119244.000000
10995 19013 1 0.16500 119244.000000
10996 16401 1 0.16500 119244.000000
10996 17014 1 0.16500 119244.000000
10997 16402 1 0.16500 119244.000000
10997 16711 1 0.16500 119244.000000
10998 11940 1 0.16500 119244.000000
10998 16408 1 0.16500 119244.000000
10999 16410 1 0.16500 119244.000000
10999 16486 1 0.16500 119244.000000
11000 16410 1 0.16500 119244.000000
11000 16605 1 0.16500 119244.000000
11001 16411 1 0.16500 119244.000000
11001 16764 1 0.16500 119244.000000
11002 16411 1 0.16500 119244.000000
11002 16690 1 0.16500 119244.000000
11003 16413 1 0.16500 119244.000000
11003 19022 1 0.16500 119244.000000
11004 16413 1 0.16500 119244.000000
11004 16494 1 0.16500 119244.000000
11005 16421 1 0.16500 119244.000000
11005 16802 1 0.16500 119244.000000
11006 14494 1 0.16500 119244.000000
11006 16560 1 0.16500 119244.000000
11007 16428 1 0.16500 119244.000000
11007 16890 1 0.16500 119244.000000
11008 16428 1 0.16500 119244.000000
11008 16551 1 0.16500 119244.000000
11009 19010 1 0.16500 119244.000000
11009 19040 1 0.16500 119244.000000
11010 16437 1 0.16500 119244.000000
11010 16820 1 0.16500 119244.000000
11011 16440 1 0.16500 119244.000000
11011 16701 1 0.16500 119244.000000
11012 16443 1 0.16500 119244.000000
11012 16479 1 0.16500 119244.000000
11013 16444 1 0.16500 119244.000000
11013 16813 1 0.16500 119244.000000
11014 16445 1 0.16500 119244.000000
11014 16636 1 0.16500 119244.000000
11015 16446 1 0.16500 119244.000000
11015 16995 1 0.16500 119244.000000
11016 16447 1 0.16500 119244.000000
11016 16956 1 0.16500 119244.000000
11017 16254 1 0.16500 119244.000000
11017 16860 1 0.16500 119244.000000
11018 16449 1 0.16500 119244.000000
11018 16843 1 0.16500 119244.000000
11019 16449 1 0.16500 119244.000000
11019 16983 1 0.16500 119244.000000
11020 16457 1 0.16500 119244.000000
11020 16548 1 0.16500 119244.000000
11021 16548 1 0.16500 119244.000000
11021 16746 1 0.16500 119244.000000
11022 15394 1 0.16500 119244.000000
11022 16458 1 0.16500 119244.000000
11023 16459 1 0.16500 119244.000000
11023 16547 1 0.16500 119244.000000
11024 16465 1 0.16500 119244.000000
11024 16946 1 0.16500 119244.000000
11025 16465 1 0.16500 119244.000000
11025 16641 1 0.16500 119244.000000
11026 16466 1 0.16500 119244.000000
11026 16773 1 0.16500 119244.000000
11027 16470 1 0.16500 119244.000000
11027 16760 1 0.16500 119244.000000
11028 16472 1 0.16500 119244.000000
11028 16602 1 0.16500 119244.000000
11029 16473 1 0.16500 119244.000000
11029 16793 1 0.16500 119244.000000
11030 16473 1 0.16500 119244.000000
11030 16768 1 0.16500 119244.000000
11031 16474 1 0.16500 119244.000000
11031 16862 1 0.16500 119244.000000
11032 17579 1 0.16500 119244.000000
11032 19016 1 0.16500 119244.000000
11033 16479 1 0.16500 119244.000000
11033 16998 1 0.16500 119244.000000
11034 16489 1 0.16500 119244.000000
11034 16704 1 0.16500 119244.000000
11035 16495 1 0.16500 119244.000000
11035 16614 1 0.16500 119244.000000
11036 16497 1 0.16500 119244.000000
11036 17004 1 0.16500 119244.000000
11037 16499 1 0.16500 119244.000000
11037 16559 1 0.16500 119244.000000
11038 16501 1 0.16500 119244.000000
11038 16558 1 0.16500 119244.000000
11039 16509 1 0.16500 119244.000000
11039 16945 1 0.16500 119244.000000
11040 13369 1 0.16500 119244.000000
11040 16517 1 0.16500 119244.000000
11041 16521 1 0.16500 119244.000000
11041 16718 1 0.16500 119244.000000
11042 16521 1 0.16500 119244.000000
11042 16753 1 0.16500 119244.000000
11043 16525 1 0.16500 119244.000000
11043 16951 1 0.16500 119244.000000
11044 19025 1 0.16500 119244.000000
11044 19067 1 0.16500 119244.000000
11045 16528 1 0.16500 119244.000000
11045 16641 1 0.16500 119244.000000
11046 16531 1 0.16500 119244.000000
11046 16752 1 0.16500 119244.000000
11047 16531 1 0.16500 119244.000000
11047 16941 1 0.16500 119244.000000
11048 16533 1 0.16500 119244.000000
11048 16876 1 0.16500 119244.000000
11049 16534 1 0.16500 119244.000000
11049 16777 1 0.16500 119244.000000
11050 16536 1 0.16500 119244.000000
11050 16587 1 0.16500 119244.000000
11051 16543 1 0.16500 119244.000000
11051 16661 1 0.16500 119244.000000
11052 16549 1 0.16500 119244.000000
11052 19040 1 0.16500 119244.000000
11053 16550 1 0.16500 119244.000000
11053 16829 1 0.16500 119244.000000
11054 14963 1 0.16500 119244.000000
11054 16832 1 0.16500 119244.000000
11055 14963 1 0.16500 119244.000000
11055 16814 1 0.16500 119244.000000
11056 16554 1 0.16500 119244.000000
11056 16926 1 0.16500 119244.000000
11057 16562 1 0.16500 119244.000000
11057 16683 1 0.16500 119244.000000
11058 16564 1 0.16500 119244.000000
11058 16936 1 0.16500 119244.000000
11059 16566 1 0.16500 119244.000000
11059 16976 1 0.16500 119244.000000
11060 16567 1 0.16500 119244.000000
11060 16772 1 0.16500 119244.000000
11061 16567 1 0.16500 119244.000000
11061 16666 1 0.16500 119244.000000
11062 12319 1 0.16500 119244.000000
11062 19034 1 0.16500 119244.000000
11063 16569 1 0.16500 119244.000000
11063 16780 1 0.16500 119244.000000
11064 16574 1 0.16500 119244.000000
11064 16920 1 0.16500 119244.000000
11065 16576 1 0.16500 119244.000000
11065 16841 1 0.16500 119244.000000
11066 16578 1 0.16500 119244.000000
11066 16870 1 0.16500 119244.000000
11067 12931 1 0.16500 119244.000000
11067 16765 1 0.16500 119244.000000
11068 16581 1 0.16500 119244.000000
11068 16971 1 0.16500 119244.000000
11069 16583 1 0.16500 119244.000000
11069 16785 1 0.16500 119244.000000
11070 16584 1 0.16500 119244.000000
11070 16798 1 0.16500 119244.000000
11071 16585 1 0.16500 119244.000000
11071 16620 1 0.16500 119244.000000
11072 16440 1 0.16500 119244.000000
11072 16586 1 0.16500 119244.000000
11073 16586 1 0.16500 119244.000000
11073 16738 1 0.16500 119244.000000
11074 16591 1 0.16500 119244.000000
11074 16730 1 0.16500 119244.000000
11075 16600 1 0.16500 119244.000000
11075 19037 1 0.16500 119244.000000
11076 16598 1 0.16500 119244.000000
11076 16815 1 0.16500 119244.000000
11077 16606 1 0.16500 119244.000000
11077 16625 1 0.16500 119244.000000
11078 12230 1 0.16500 119244.000000
11078 16616 1 0.16500 119244.000000
11079 16620 1 0.16500 119244.000000
11079 16886 1 0.16500 119244.000000
11080 16620 1 0.16500 119244.000000
11080 16628 1 0.16500 119244.000000
11081 16623 1 0.16500 119244.000000
11081 16672 1 0.16500 119244.000000
11082 16627 1 0.16500 119244.000000
11082 16844 1 0.16500 119244.000000
11083 16634 1 0.16500 119244.000000
11083 16742 1 0.16500 119244.000000
11084 16643 1 0.16500 119244.000000
11084 16887 1 0.16500 119244.000000
11085 16646 1 0.16500 119244.000000
11085 16905 1 0.16500 119244.000000
11086 16650 1 0.16500 119244.000000
11086 16694 1 0.16500 119244.000000
11087 16652 1 0.16500 119244.000000
11087 16825 1 0.16500 119244.000000
11088 16657 1 0.16500 119244.000000
11088 16982 1 0.16500 119244.000000
11089 16659 1 0.16500 119244.000000
11089 16906 1 0.16500 119244.000000
11090 12951 1 0.16500 119244.000000
11090 16659 1 0.16500 119244.000000
11091 16660 1 0.16500 119244.000000
11091 16918 1 0.16500 119244.000000
11092 16766 1 0.16500 119244.000000
11092 17147 1 0.16500 119244.000000
11093 16668 1 0.16500 119244.000000
11093 16786 1 0.16500 119244.000000
11094 16685 1 0.16500 119244.000000
11094 16930 1 0.16500 119244.000000
11095 16693 1 0.16500 119244.000000
11095 16865 1 0.16500 119244.000000
11096 16699 1 0.16500 119244.000000
11096 16880 1 0.16500 119244.000000
11097 16865 1 0.16500 119244.000000
11097 19185 1 0.16500 119244.000000
11098 16713 1 0.16500 119244.000000
11098 16746 1 0.16500 119244.000000
11099 16725 1 0.16500 119244.000000
11099 16998 1 0.16500 119244.000000
11100 16726 1 0.16500 119244.000000
11100 16869 1 0.16500 119244.000000
11101 16728 1 0.16500 119244.000000
11101 16917 1 0.16500 119244.000000
11102 16728 1 0.16500 119244.000000
11102 16795 1 0.16500 119244.000000
11103 16729 1 0.16500 119244.000000
11103 16761 1 0.16500 119244.000000
11104 16730 1 0.16500 119244.000000
11104 16749 1 0.16500 119244.000000
11105 16732 1 0.16500 119244.000000
11105 16984 1 0.16500 119244.000000
11106 16733 1 0.16500 119244.000000
11106 16771 1 0.16500 119244.000000
11107 16735 1 0.16500 119244.000000
11107 16744 1 0.16500 119244.000000
11108 16743 1 0.16500 119244.000000
11108 16941 1 0.16500 119244.000000
11109 16751 1 0.16500 119244.000000
11109 16810 1 0.16500 119244.000000
11110 16753 1 0.16500 119244.000000
11110 16788 1 0.16500 119244.000000
11111 16760 1 0.16500 119244.000000
11111 16950 1 0.16500 119244.000000
11112 16765 1 0.16500 119244.000000
11112 16973 1 0.16500 119244.000000
11113 16766 1 0.16500 119244.000000
11113 16868 1 0.16500 119244.000000
11114 16767 1 0.16500 119244.000000
11114 16864 1 0.16500 119244.000000
11115 16776 1 0.16500 119244.000000
11115 16832 1 0.16500 119244.000000
11116 16777 1 0.16500 119244.000000
11116 16955 1 0.16500 119244.000000
11117 16782 1 0.16500 119244.000000
11117 16960 1 0.16500 119244.000000
11118 16787 1 0.16500 119244.000000
11118 16978 1 0.16500 119244.000000
11119 16792 1 0.16500 119244.000000
11119 17013 1 0.16500 119244.000000
11120 16795 1 0.16500 119244.000000
11120 16904 1 0.16500 119244.000000
11121 16798 1 0.16500 119244.000000
11121 16929 1 0.16500 119244.000000
11122 16814 1 0.16500 119244.000000
11122 16900 1 0.16500 119244.000000
11123 16817 1 0.16500 119244.000000
11123 16882 1 0.16500 119244.000000
11124 16831 1 0.16500 119244.000000
11124 16917 1 0.16500 119244.000000
11125 16910 1 0.16500 119244.000000
11125 18119 1 0.16500 119244.000000
11126 16852 1 0.16500 119244.000000
11126 16897 1 0.16500 119244.000000
11127 16856 1 0.16500 119244.000000
11127 16874 1 0.16500 119244.000000
11128 16858 1 0.16500 119244.000000
11128 16954 1 0.16500 119244.000000
11129 16860 1 0.16500 119244.000000
11129 16894 1 0.16500 119244.000000
11130 16867 1 0.16500 119244.000000
11130 16887 1 0.16500 119244.000000
11131 16877 1 0.16500 119244.000000
11131 16991 1 0.16500 119244.000000
11132 16889 1 0.16500 119244.000000
11132 16991 1 0.16500 119244.000000
11133 16909 1 0.16500 119244.000000
11133 16969 1 0.16500 119244.000000
11134 16920 1 0.16500 119244.000000
11134 17000 1 0.16500 119244.000000
11135 16922 1 0.16500 119244.000000
11135 16983 1 0.16500 119244.000000
11136 16952 1 0.16500 119244.000000
11136 17010 1 0.16500 119244.000000
11137 16957 1 0.16500 119244.000000
11137 16981 1 0.16500 119244.000000
11138 12118 1 0.16500 119244.000000
11138 15246 1 0.16500 119244.000000
11139 14166 1 0.16500 119244.000000
11139 18650 1 0.16500 119244.000000
11140 12340 1 0.16500 119244.000000
11140 17651 1 0.16500 119244.000000
11141 12948 1 0.16500 119244.000000
11141 16121 1 0.16500 119244.000000
11142 11782 1 0.16500 119244.000000
11142 12785 1 0.16500 119244.000000
11143 13713 1 0.16500 119244.000000
11143 16599 1 0.16500 119244.000000
11144 12113 1 0.16500 119244.000000
11144 13689 1 0.16500 119244.000000
11145 14893 1 0.16500 119244.000000
11145 18374 1 0.16500 119244.000000
11146 14106 1 0.16500 119244.000000
11146 14961 1 0.16500 119244.000000
11147 15262 1 0.16500 119244.000000
11147 15613 1 0.16500 119244.000000
11148 16453 1 0.16500 119244.000000
11148 18602 1 0.16500 119244.000000
11149 12509 1 0.16500 119244.000000
11149 14817 1 0.16500 119244.000000
11150 12013 1 0.16500 119244.000000
11150 14597 1 0.16500 119244.000000
11151 14891 1 0.16500 119244.000000
11151 18944 1 0.16500 119244.000000
11152 16741 1 0.16500 119244.000000
11152 18605 1 0.16500 119244.000000
11153 12099 1 0.16500 119244.000000
11153 18884 1 0.16500 119244.000000
11154 14910 1 0.16500 119244.000000
11154 15107 1 0.16500 119244.000000
11155 12868 1 0.16500 119244.000000
11155 13495 1 0.16500 119244.000000
11156 13200 1 0.16500 119244.000000
11156 15906 1 0.16500 119244.000000
11157 14341 1 0.16500 119244.000000
11157 16680 1 0.16500 119244.000000
11158 12244 1 0.16500 119244.000000
11158 18218 1 0.16500 119244.000000
11159 11907 1 0.16500 119244.000000
11159 13081 1 0.16500 119244.000000
11160 13884 1 0.16500 119244.000000
11160 16239 1 0.16500 119244.000000
11161 13770 1 0.16500 119244.000000
11161 18746 1 0.16500 119244.000000
11162 13978 1 0.16500 119244.000000
11162 16293 1 0.16500 119244.000000
11163 12343 1 0.16500 119244.000000
11163 12872 1 0.16500 119244.000000
11164 12143 1 0.16500 119244.000000
11164 15033 1 0.16500 119244.000000
11165 13859 1 0.16500 119244.000000
11165 14931 1 0.16500 119244.000000
11166 13421 1 0.16500 119244.000000
11166 14991 1 0.16500 119244.000000
11167 15185 1 0.16500 119244.000000
11167 16109 1 0.16500 119244.000000
11168 12055 1 0.16500 119244.000000
11168 13324 1 0.16500 119244.000000
11169 12600 1 0.16500 119244.000000
11169 18791 1 0.16500 119244.000000
11170 11542 1 0.16500 119244.000000
11170 18179 1 0.16500 119244.000000
11171 13570 1 0.16500 119244.000000
11171 16981 1 0.16500 119244.000000
11172 14799 1 0.16500 119244.000000
11172 18596 1 0.16500 119244.000000
11173 16245 1 0.16500 119244.000000
11173 16383 1 0.16500 119244.000000
11174 14030 1 0.16500 119244.000000
11174 14922 1 0.16500 119244.000000
11175 13266 1 0.16500 119244.000000
11175 13309 1 0.16500 119244.000000
11176 11795 1 0.16500 119244.000000
11176 18653 1 0.16500 119244.000000
11177 15631 1 0.16500 119244.000000
11177 15732 1 0.16500 119244.000000
11178 14935 1 0.16500 119244.000000
11178 15167 1 0.16500 119244.000000
11179 12299 1 0.16500 119244.000000
11179 18287 1 0.16500 119244.000000
11180 15451 1 0.16500 119244.000000
11180 16342 1 0.16500 119244.000000
11181 12189 1 0.16500 119244.000000
11181 12309 1 0.16500 119244.000000
11182 16129 1 0.16500 119244.000000
11182 16542 1 0.16500 119244.000000
11183 11677 1 0.16500 119244.000000
11183 18278 1 0.16500 119244.000000
11184 12265 1 0.16500 119244.000000
11184 12328 1 0.16500 119244.000000
11185 12886 1 0.16500 119244.000000
11185 16542 1 0.16500 119244.000000
11186 16227 1 0.16500 119244.000000
11186 16697 1 0.16500 119244.000000
11187 16583 1 0.16500 119244.000000
11187 17939 1 0.16500 119244.000000
11188 11719 1 0.16500 119244.000000
11188 17855 1 0.16500 119244.000000
11189 12429 1 0.16500 119244.000000
11189 18233 1 0.16500 119244.000000
11190 12870 1 0.16500 119244.000000
11190 14573 1 0.16500 119244.000000
11191 12839 1 0.16500 119244.000000
11191 15283 1 0.16500 119244.000000
11192 12819 1 0.16500 119244.000000
11192 14740 1 0.16500 119244.000000
11193 14556 1 0.16500 119244.000000
11193 18362 1 0.16500 119244.000000
11194 15358 1 0.16500 119244.000000
11194 15709 1 0.16500 119244.000000
11195 13092 1 0.16500 119244.000000
11195 15062 1 0.16500 119244.000000
11196 12657 1 0.16500 119244.000000
11196 13473 1 0.16500 119244.000000
11197 15251 1 0.16500 119244.000000
11197 15728 1 0.16500 119244.000000
11198 13321 1 0.16500 119244.000000
11198 18281 1 0.16500 119244.000000
11199 13301 1 0.16500 119244.000000
11199 15778 1 0.16500 119244.000000
11200 11928 1 0.16500 119244.000000
11200 13627 1 0.16500 119244.000000
11201 11634 1 0.16500 119244.000000
11201 13706 1 0.16500 119244.000000
11202 13098 1 0.16500 119244.000000
11202 18023 1 0.16500 119244.000000
11203 16503 1 0.16500 119244.000000
11203 18269 1 0.16500 119244.000000
11204 14924 1 0.16500 119244.000000
11204 15086 1 0.16500 119244.000000
11205 16932 1 0.16500 119244.000000
11205 17999 1 0.16500 119244.000000
11206 14015 1 0.16500 119244.000000
11206 15091 1 0.16500 119244.000000
11207 13640 1 0.16500 119244.000000
11207 15686 1 0.16500 119244.000000
11208 14738 1 0.16500 119244.000000
11208 15744 1 0.16500 119244.000000
11209 14213 1 0.16500 119244.000000
11209 18380 1 0.16500 119244.000000
11210 15107 1 0.16500 119244.000000
11210 18341 1 0.16500 119244.000000
11211 12212 1 0.16500 119244.000000
11211 15451 1 0.16500 119244.000000
11212 15584 1 0.16500 119244.000000
11212 17543 1 0.16500 119244.000000
11213 15663 1 0.16500 119244.000000
11213 15788 1 0.16500 119244.000000
11214 11683 1 0.16500 119244.000000
11214 13047 1 0.16500 119244.000000
11215 11928 1 0.16500 119244.000000
11215 15507 1 0.16500 119244.000000
11216 12899 1 0.16500 119244.000000
11216 15662 1 0.16500 119244.000000
11217 13645 1 0.16500 119244.000000
11217 15747 1 0.16500 119244.000000
11218 15664 1 0.16500 119244.000000
11218 16185 1 0.16500 119244.000000
11219 15349 1 0.16500 119244.000000
11219 18755 1 0.16500 119244.000000
11220 14180 1 0.16500 119244.000000
11220 16826 1 0.16500 119244.000000
11221 14426 1 0.16500 119244.000000
11221 18395 1 0.16500 119244.000000
11222 12179 1 0.16500 119244.000000
11222 13620 1 0.16500 119244.000000
11223 13408 1 0.16500 119244.000000
11223 13495 1 0.16500 119244.000000
11224 12375 1 0.16500 119244.000000
11224 15833 1 0.16500 119244.000000
11225 14867 1 0.16500 119244.000000
11225 16777 1 0.16500 119244.000000
11226 12013 1 0.16500 119244.000000
11226 18854 1 0.16500 119244.000000
11227 12876 1 0.16500 119244.000000
11227 13767 1 0.16500 119244.000000
11228 12396 1 0.16500 119244.000000
11228 15945 1 0.16500 119244.000000
11229 13222 1 0.16500 119244.000000
11229 19025 1 0.16500 119244.000000
11230 13107 1 0.16500 119244.000000
11230 18779 1 0.16500 119244.000000
11231 14544 1 0.16500 119244.000000
11231 16031 1 0.16500 119244.000000
11232 13130 1 0.16500 119244.000000
11232 18656 1 0.16500 119244.000000
11233 12210 1 0.16500 119244.000000
11233 18932 1 0.16500 119244.000000
11234 12020 1 0.16500 119244.000000
11234 18698 1 0.16500 119244.000000
11235 12875 1 0.16500 119244.000000
11235 18794 1 0.16500 119244.000000
11236 12723 1 0.16500 119244.000000
11236 13548 1 0.16500 119244.000000
11237 12414 1 0.16500 119244.000000
11237 14519 1 0.16500 119244.000000
11238 13297 1 0.16500 119244.000000
11238 14642 1 0.16500 119244.000000
11239 15416 1 0.16500 119244.000000
11239 16645 1 0.16500 119244.000000
11240 12515 1 0.16500 119244.000000
11240 15666 1 0.16500 119244.000000
11241 16788 1 0.16500 119244.000000
11241 17507 1 0.16500 119244.000000
11242 16645 1 0.16500 119244.000000
11242 18479 1 0.16500 119244.000000
11243 11560 1 0.16500 119244.000000
11243 16216 1 0.16500 119244.000000
11244 14518 1 0.16500 119244.000000
11244 19052 1 0.16500 119244.000000
11245 15354 1 0.16500 119244.000000
11245 16023 1 0.16500 119244.000000
11246 15276 1 0.16500 119244.000000
11246 18719 1 0.16500 119244.000000
11247 14554 1 0.16500 119244.000000
11247 18482 1 0.16500 119244.000000
11248 12212 1 0.16500 119244.000000
11248 14493 1 0.16500 119244.000000
11249 15568 1 0.16500 119244.000000
11249 17579 1 0.16500 119244.000000
11250 12063 1 0.16500 119244.000000
11250 18725 1 0.16500 119244.000000
11251 15507 1 0.16500 119244.000000
11251 18353 1 0.16500 119244.000000
11252 11645 1 0.16500 119244.000000
11252 16968 1 0.16500 119244.000000
11253 14265 1 0.16500 119244.000000
11253 18962 1 0.16500 119244.000000
11254 16425 1 0.16500 119244.000000
11254 18965 1 0.16500 119244.000000
11255 13999 1 0.16500 119244.000000
11255 18647 1 0.16500 119244.000000
11256 12441 1 0.16500 119244.000000
11256 14550 1 0.16500 119244.000000
11257 14846 1 0.16500 119244.000000
11257 15473 1 0.16500 119244.000000
11258 14987 1 0.16500 119244.000000
11258 18812 1 0.16500 119244.000000
11259 14580 1 0.16500 119244.000000
11259 15069 1 0.16500 119244.000000
11260 13044 1 0.16500 119244.000000
11260 16397 1 0.16500 119244.000000
11261 13489 1 0.16500 119244.000000
11261 15125 1 0.16500 119244.000000
11262 15539 1 0.16500 119244.000000
11262 15673 1 0.16500 119244.000000
11263 11905 1 0.16500 119244.000000
11263 13884 1 0.16500 119244.000000
11264 13117 1 0.16500 119244.000000
11264 13309 1 0.16500 119244.000000
11265 13737 1 0.16500 119244.000000
11265 16216 1 0.16500 119244.000000
11266 15283 1 0.16500 119244.000000
11266 15508 1 0.16500 119244.000000
11267 12213 1 0.16500 119244.000000
11267 18365 1 0.16500 119244.000000
11268 11614 1 0.16500 119244.000000
11268 13824 1 0.16500 119244.000000
11269 12990 1 0.16500 119244.000000
11269 14335 1 0.16500 119244.000000
11270 16143 1 0.16500 119244.000000
11270 18428 1 0.16500 119244.000000
11271 13721 1 0.16500 119244.000000
11271 18512 1 0.16500 119244.000000
11272 14671 1 0.16500 119244.000000
11272 17555 1 0.16500 119244.000000
11273 12491 1 0.16500 119244.000000
11273 18608 1 0.16500 119244.000000
11274 13379 1 0.16500 119244.000000
11274 13569 1 0.16500 119244.000000
11275 14341 1 0.16500 119244.000000
11275 17987 1 0.16500 119244.000000
11276 14680 1 0.16500 119244.000000
11276 18920 1 0.16500 119244.000000
11277 12428 1 0.16500 119244.000000
11277 18644 1 0.16500 119244.000000
11278 14493 1 0.16500 119244.000000
11278 16325 1 0.16500 119244.000000
11279 13126 1 0.16500 119244.000000
11279 16484 1 0.16500 119244.000000
11280 12814 1 0.16500 119244.000000
11280 18314 1 0.16500 119244.000000
11281 12138 1 0.16500 119244.000000
11281 17819 1 0.16500 119244.000000
11282 15993 1 0.16500 119244.000000
11282 16161 1 0.16500 119244.000000
11283 13072 1 0.16500 119244.000000
11283 17615 1 0.16500 119244.000000
11284 12697 1 0.16500 119244.000000
11284 13064 1 0.16500 119244.000000
11285 14743 1 0.16500 119244.000000
11285 15187 1 0.16500 119244.000000
11286 15432 1 0.16500 119244.000000
11286 16778 1 0.16500 119244.000000
11287 13250 1 0.16500 119244.000000
11287 15189 1 0.16500 119244.000000
11288 14470 1 0.16500 119244.000000
11288 18047 1 0.16500 119244.000000
11289 13394 1 0.16500 119244.000000
11289 18242 1 0.16500 119244.000000
11290 16330 1 0.16500 119244.000000
11290 19064 1 0.16500 119244.000000
11291 15799 1 0.16500 119244.000000
11291 19055 1 0.16500 119244.000000
11292 11606 1 0.16500 119244.000000
11292 17963 1 0.16500 119244.000000
11293 13421 1 0.16500 119244.000000
11293 18677 1 0.16500 119244.000000
11294 12514 1 0.16500 119244.000000
11294 14357 1 0.16500 119244.000000
11295 15181 1 0.16500 119244.000000
11295 18425 1 0.16500 119244.000000
11296 11582 1 0.16500 119244.000000
11296 16803 1 0.16500 119244.000000
11297 13737 1 0.16500 119244.000000
11297 14699 1 0.16500 119244.000000
11298 13363 1 0.16500 119244.000000
11298 15264 1 0.16500 119244.000000
11299 11707 1 0.16500 119244.000000
11299 15924 1 0.16500 119244.000000
11300 15732 1 0.16500 119244.000000
11300 19070 1 0.16500 119244.000000
11301 11582 1 0.16500 119244.000000
11301 18305 1 0.16500 119244.000000
11302 13063 1 0.16500 119244.000000
11302 14754 1 0.16500 119244.000000
11303 14514 1 0.16500 119244.000000
11303 18740 1 0.16500 119244.000000
11304 14106 1 0.16500 119244.000000
11304 17759 1 0.16500 119244.000000
11305 13044 1 0.16500 119244.000000
11305 19034 1 0.16500 119244.000000
11306 15686 1 0.16500 119244.000000
11306 16167 1 0.16500 119244.000000
11307 16167 1 0.16500 119244.000000
11307 18320 1 0.16500 119244.000000
11308 13048 1 0.16500 119244.000000
11308 16031 1 0.16500 119244.000000
11309 16291 1 0.16500 119244.000000
11309 18035 1 0.16500 119244.000000
11310 14012 1 0.16500 119244.000000
11310 16770 1 0.16500 119244.000000
11311 14357 1 0.16500 119244.000000
11311 16740 1 0.16500 119244.000000
11312 13185 1 0.16500 119244.000000
11312 14600 1 0.16500 119244.000000
11313 14745 1 0.16500 119244.000000
11313 18749 1 0.16500 119244.000000
11314 12727 1 0.16500 119244.000000
11314 14232 1 0.16500 119244.000000
11315 12870 1 0.16500 119244.000000
11315 18836 1 0.16500 119244.000000
11316 11571 1 0.16500 119244.000000
11316 14384 1 0.16500 119244.000000
11317 15062 1 0.16500 119244.000000
11317 17735 1 0.16500 119244.000000
11318 12343 1 0.16500 119244.000000
11318 18659 1 0.16500 119244.000000
11319 14864 1 0.16500 119244.000000
11319 17747 1 0.16500 119244.000000
11320 15081 1 0.16500 119244.000000
11320 16293 1 0.16500 119244.000000
11321 13220 1 0.16500 119244.000000
11321 14699 1 0.16500 119244.000000
11322 15014 1 0.16500 119244.000000
11322 18335 1 0.16500 119244.000000
11323 13517 1 0.16500 119244.000000
11323 16155 1 0.16500 119244.000000
11324 16227 1 0.16500 119244.000000
11324 18620 1 0.16500 119244.000000
11325 15454 1 0.16500 119244.000000
11325 18167 1 0.16500 119244.000000
11326 13277 1 0.16500 119244.000000
11326 18986 1 0.16500 119244.000000
11327 12911 1 0.16500 119244.000000
11327 17831 1 0.16500 119244.000000
11328 13428 1 0.16500 119244.000000
11328 18662 1 0.16500 119244.000000
11329 14384 1 0.16500 119244.000000
11329 16617 1 0.16500 119244.000000
11330 13363 1 0.16500 119244.000000
11330 17927 1 0.16500 119244.000000
11331 14212 1 0.16500 119244.000000
11331 18917 1 0.16500 119244.000000
11332 14738 1 0.16500 119244.000000
11332 18488 1 0.16500 119244.000000
11333 13279 1 0.16500 119244.000000
11333 16483 1 0.16500 119244.000000
11334 14350 1 0.16500 119244.000000
11334 16617 1 0.16500 119244.000000
11335 15166 1 0.16500 119244.000000
11335 18455 1 0.16500 119244.000000
11336 11651 1 0.16500 119244.000000
11336 15803 1 0.16500 119244.000000
11337 12755 1 0.16500 119244.000000
11337 13689 1 0.16500 119244.000000
11338 12985 1 0.16500 119244.000000
11338 16724 1 0.16500 119244.000000
11339 13814 1 0.16500 119244.000000
11339 14624 1 0.16500 119244.000000
11340 14391 1 0.16500 119244.000000
11340 17663 1 0.16500 119244.000000
11341 11976 1 0.16500 119244.000000
11341 13824 1 0.16500 119244.000000
11342 14994 1 0.16500 119244.000000
11342 15479 1 0.16500 119244.000000
11343 15106 1 0.16500 119244.000000
11343 18638 1 0.16500 119244.000000
11344 12136 1 0.16500 119244.000000
11344 15489 1 0.16500 119244.000000
11345 12886 1 0.16500 119244.000000
11345 13677 1 0.16500 119244.000000
11346 16269 1 0.16500 119244.000000
11346 18386 1 0.16500 119244.000000
11347 12755 1 0.16500 119244.000000
11347 18473 1 0.16500 119244.000000
11348 14740 1 0.16500 119244.000000
11348 18527 1 0.16500 119244.000000
11349 12602 1 0.16500 119244.000000
11349 13376 1 0.16500 119244.000000
11350 12179 1 0.16500 119244.000000
11350 17495 1 0.16500 119244.000000
11351 13502 1 0.16500 119244.000000
11351 18833 1 0.16500 119244.000000
11352 15976 1 0.16500 119244.000000
11352 17591 1 0.16500 119244.000000
11353 14890 1 0.16500 119244.000000
11353 15974 1 0.16500 119244.000000
11354 12265 1 0.16500 119244.000000
11354 18764 1 0.16500 119244.000000
11355 14314 1 0.16500 119244.000000
11355 18323 1 0.16500 119244.000000
11356 13517 1 0.16500 119244.000000
11356 16086 1 0.16500 119244.000000
11357 12094 1 0.16500 119244.000000
11357 16793 1 0.16500 119244.000000
11358 15201 1 0.16500 119244.000000
11358 18524 1 0.16500 119244.000000
11359 16740 1 0.16500 119244.000000
11359 18911 1 0.16500 119244.000000
11360 12452 1 0.16500 119244.000000
11360 18446 1 0.16500 119244.000000
11361 12135 1 0.16500 119244.000000
11361 14227 1 0.16500 119244.000000
11362 11894 1 0.16500 119244.000000
11362 18443 1 0.16500 119244.000000
11363 11603 1 0.16500 119244.000000
11363 11648 1 0.16500 119244.000000
11364 12509 1 0.16500 119244.000000
11364 17699 1 0.16500 119244.000000
11365 16383 1 0.16500 119244.000000
11365 18539 1 0.16500 119244.000000
11366 11959 1 0.16500 119244.000000
11366 15320 1 0.16500 119244.000000
11367 12628 1 0.16500 119244.000000
11367 18263 1 0.16500 119244.000000
11368 11959 1 0.16500 119244.000000
11368 13727 1 0.16500 119244.000000
11369 13250 1 0.16500 119244.000000
11369 14512 1 0.16500 119244.000000
11370 12143 1 0.16500 119244.000000
11370 16681 1 0.16500 119244.000000
11371 13836 1 0.16500 119244.000000
11371 14587 1 0.16500 119244.000000
11372 15184 1 0.16500 119244.000000
11372 16152 1 0.16500 119244.000000
11373 12769 1 0.16500 119244.000000
11373 13969 1 0.16500 119244.000000
11374 14646 1 0.16500 119244.000000
11374 16826 1 0.16500 119244.000000
11375 15229 1 0.16500 119244.000000
11375 18422 1 0.16500 119244.000000
11376 12602 1 0.16500 119244.000000
11376 18221 1 0.16500 119244.000000
11377 11627 1 0.16500 119244.000000
11377 13901 1 0.16500 119244.000000
11378 12929 1 0.16500 119244.000000
11378 12985 1 0.16500 119244.000000
11379 15221 1 0.16500 119244.000000
11379 18521 1 0.16500 119244.000000
11380 15354 1 0.16500 119244.000000
11380 18914 1 0.16500 119244.000000
11381 12217 1 0.16500 119244.000000
11381 12877 1 0.16500 119244.000000
11382 11738 1 0.16500 119244.000000
11382 13117 1 0.16500 119244.000000
11383 13064 1 0.16500 119244.000000
11383 19019 1 0.16500 119244.000000
11384 13377 1 0.16500 119244.000000
11384 18494 1 0.16500 119244.000000
11385 13081 1 0.16500 119244.000000
11385 14190 1 0.16500 119244.000000
11386 15184 1 0.16500 119244.000000
11386 15984 1 0.16500 119244.000000
11387 12893 1 0.16500 119244.000000
11387 16347 1 0.16500 119244.000000
11388 16616 1 0.16500 119244.000000
11388 18572 1 0.16500 119244.000000
11389 15077 1 0.16500 119244.000000
11389 18710 1 0.16500 119244.000000
11390 15003 1 0.16500 119244.000000
11390 17567 1 0.16500 119244.000000
11391 15767 1 0.16500 119244.000000
11391 17675 1 0.16500 119244.000000
11392 15358 1 0.16500 119244.000000
11392 15836 1 0.16500 119244.000000
11393 15397 1 0.16500 119244.000000
11393 16313 1 0.16500 119244.000000
11394 12632 1 0.16500 119244.000000
11394 13048 1 0.16500 119244.000000
11395 14221 1 0.16500 119244.000000
11395 15300 1 0.16500 119244.000000
11396 11651 1 0.16500 119244.000000
11396 15666 1 0.16500 119244.000000
11397 12396 1 0.16500 119244.000000
11397 15376 1 0.16500 119244.000000
11398 12367 1 0.16500 119244.000000
11398 16794 1 0.16500 119244.000000
11399 12893 1 0.16500 119244.000000
11399 15770 1 0.16500 119244.000000
11400 11850 1 0.16500 119244.000000
11400 13071 1 0.16500 119244.000000
11401 15067 1 0.16500 119244.000000
11401 15211 1 0.16500 119244.000000
11402 11968 1 0.16500 119244.000000
11402 16250 1 0.16500 119244.000000
11403 14015 1 0.16500 119244.000000
11403 15643 1 0.16500 119244.000000
11404 15877 1 0.16500 119244.000000
11404 16136 1 0.16500 119244.000000
11405 15004 1 0.16500 119244.000000
11405 16681 1 0.16500 119244.000000
11406 15390 1 0.16500 119244.000000
11406 15904 1 0.16500 119244.000000
11407 14068 1 0.16500 119244.000000
11407 16009 1 0.16500 119244.000000
11408 15528 1 0.16500 119244.000000
11408 15787 1 0.16500 119244.000000
11409 16899 1 0.16500 119244.000000
11409 16981 1 0.16500 119244.000000
11410 16883 1 0.16500 119244.000000
11410 16944 1 0.16500 119244.000000
11411 15901 1 0.16500 119244.000000
11411 16621 1 0.16500 119244.000000
11412 14512 1 0.16500 119244.000000
11412 14548 1 0.16500 119244.000000
11413 14148 1 0.16500 119244.000000
11413 14232 1 0.16500 119244.000000
11414 12876 1 0.16500 119244.000000
11414 14646 1 0.16500 119244.000000
11415 11953 1 0.16500 119244.000000
11415 13112 1 0.16500 119244.000000
11416 13177 1 0.16500 119244.000000
11416 15906 1 0.16500 119244.000000
11417 12189 1 0.16500 119244.000000
11417 13671 1 0.16500 119244.000000
11418 13933 1 0.16500 119244.000000
11418 16018 1 0.16500 119244.000000
11419 13121 1 0.16500 119244.000000
11419 15097 1 0.16500 119244.000000
11420 13191 1 0.16500 119244.000000
11420 13473 1 0.16500 119244.000000
11421 15142 1 0.16500 119244.000000
11421 16106 1 0.16500 119244.000000
11422 14620 1 0.16500 119244.000000
11422 16770 1 0.16500 119244.000000
11423 14249 1 0.16500 119244.000000
11423 15972 1 0.16500 119244.000000
11424 14331 1 0.16500 119244.000000
11424 16707 1 0.16500 119244.000000
11425 15387 1 0.16500 119244.000000
11425 16951 1 0.16500 119244.000000
11426 13836 1 0.16500 119244.000000
11426 14931 1 0.16500 119244.000000
11427 13559 1 0.16500 119244.000000
11427 16838 1 0.16500 119244.000000
11428 11797 1 0.16500 119244.000000
11428 16719 1 0.16500 119244.000000
11429 16483 1 0.16500 119244.000000
11429 16510 1 0.16500 119244.000000
11430 13049 1 0.16500 119244.000000
11430 14080 1 0.16500 119244.000000
11431 13150 1 0.16500 119244.000000
11431 14142 1 0.16500 119244.000000
11432 13334 1 0.16500 119244.000000
11432 15081 1 0.16500 119244.000000
11433 11986 1 0.16500 119244.000000
11433 13185 1 0.16500 119244.000000
11434 14330 1 0.16500 119244.000000
11434 16252 1 0.16500 119244.000000
11435 13814 1 0.16500 119244.000000
11435 15868 1 0.16500 119244.000000
11436 12022 1 0.16500 119244.000000
11436 13010 1 0.16500 119244.000000
11437 11888 1 0.16500 119244.000000
11437 14527 1 0.16500 119244.000000
11438 14525 1 0.16500 119244.000000
11438 16992 1 0.16500 119244.000000
11439 14138 1 0.16500 119244.000000
11439 16636 1 0.16500 119244.000000
11440 15993 1 0.16500 119244.000000
11440 16213 1 0.16500 119244.000000
11441 12058 1 0.16500 119244.000000
11441 13489 1 0.16500 119244.000000
11442 13875 1 0.16500 119244.000000
11442 15740 1 0.16500 119244.000000
11443 13219 1 0.16500 119244.000000
11443 16365 1 0.16500 119244.000000
11444 12098 1 0.16500 119244.000000
11444 14795 1 0.16500 119244.000000
11445 11683 1 0.16500 119244.000000
11445 12386 1 0.16500 119244.000000
11446 12317 1 0.16500 119244.000000
11446 12714 1 0.16500 119244.000000
11447 13281 1 0.16500 119244.000000
11447 15163 1 0.16500 119244.000000
11448 16325 1 0.16500 119244.000000
11448 16434 1 0.16500 119244.000000
11449 15292 1 0.16500 119244.000000
11449 16209 1 0.16500 119244.000000
11450 11665 1 0.16500 119244.000000
11450 14867 1 0.16500 119244.000000
11451 15359 1 0.16500 119244.000000
11451 15788 1 0.16500 119244.000000
11452 15613 1 0.16500 119244.000000
11452 16242 1 0.16500 119244.000000
11453 11648 1 0.16500 119244.000000
11453 14402 1 0.16500 119244.000000
11454 11875 1 0.16500 119244.000000
11454 16484 1 0.16500 119244.000000
11455 15952 1 0.16500 119244.000000
11455 16363 1 0.16500 119244.000000
11456 13653 1 0.16500 119244.000000
11456 15924 1 0.16500 119244.000000
11457 14608 1 0.16500 119244.000000
11457 14924 1 0.16500 119244.000000
11458 13683 1 0.16500 119244.000000
11458 14743 1 0.16500 119244.000000
11459 16185 1 0.16500 119244.000000
11459 16373 1 0.16500 119244.000000
11460 14227 1 0.16500 119244.000000
11460 16369 1 0.16500 119244.000000
11461 11705 1 0.16500 119244.000000
11461 12915 1 0.16500 119244.000000
11462 16133 1 0.16500 119244.000000
11462 16748 1 0.16500 119244.000000
11463 11634 1 0.16500 119244.000000
11463 15813 1 0.16500 119244.000000
11464 15149 1 0.16500 119244.000000
11464 15352 1 0.16500 119244.000000
11465 12172 1 0.16500 119244.000000
11465 15679 1 0.16500 119244.000000
11466 13677 1 0.16500 119244.000000
11466 14519 1 0.16500 119244.000000
11467 13901 1 0.16500 119244.000000
11467 16619 1 0.16500 119244.000000
11468 12079 1 0.16500 119244.000000
11468 15876 1 0.16500 119244.000000
11469 11645 1 0.16500 119244.000000
11469 13713 1 0.16500 119244.000000
11470 12470 1 0.16500 119244.000000
11470 16039 1 0.16500 119244.000000
11471 13340 1 0.16500 119244.000000
11471 13867 1 0.16500 119244.000000
11472 14896 1 0.16500 119244.000000
11472 16611 1 0.16500 119244.000000
11473 12933 1 0.16500 119244.000000
11473 16896 1 0.16500 119244.000000
11474 13270 1 0.16500 119244.000000
11474 15510 1 0.16500 119244.000000
11475 12375 1 0.16500 119244.000000
11475 15647 1 0.16500 119244.000000
11476 15508 1 0.16500 119244.000000
11476 15673 1 0.16500 119244.000000
11477 13272 1 0.16500 119244.000000
11477 14580 1 0.16500 119244.000000
11478 12995 1 0.16500 119244.000000
11478 16083 1 0.16500 119244.000000
11479 11956 1 0.16500 119244.000000
11479 13452 1 0.16500 119244.000000
11480 13520 1 0.16500 119244.000000
11480 16191 1 0.16500 119244.000000
11481 12655 1 0.16500 119244.000000
11481 14550 1 0.16500 119244.000000
11482 13241 1 0.16500 119244.000000
11482 14846 1 0.16500 119244.000000
11483 13633 1 0.16500 119244.000000
11483 15272 1 0.16500 119244.000000
11484 15432 1 0.16500 119244.000000
11484 15758 1 0.16500 119244.000000
11485 15185 1 0.16500 119244.000000
11485 15984 1 0.16500 119244.000000
11486 12877 1 0.16500 119244.000000
11486 16004 1 0.16500 119244.000000
11487 11958 1 0.16500 119244.000000
11487 13727 1 0.16500 119244.000000
11488 14350 1 0.16500 119244.000000
11488 15697 1 0.16500 119244.000000
11489 13866 1 0.16500 119244.000000
11489 15095 1 0.16500 119244.000000
11490 11984 1 0.16500 119244.000000
11490 13811 1 0.16500 119244.000000
11491 12783 1 0.16500 119244.000000
11491 13220 1 0.16500 119244.000000
11492 14190 1 0.16500 119244.000000
11492 14410 1 0.16500 119244.000000
11493 13017 1 0.16500 119244.000000
11493 15479 1 0.16500 119244.000000
11494 13312 1 0.16500 119244.000000
11494 14601 1 0.16500 119244.000000
11495 12187 1 0.16500 119244.000000
11495 15747 1 0.16500 119244.000000
11496 13364 1 0.16500 119244.000000
11496 14697 1 0.16500 119244.000000
11497 12929 1 0.16500 119244.000000
11497 14905 1 0.16500 119244.000000
11498 12903 1 0.16500 119244.000000
11498 13934 1 0.16500 119244.000000
11499 11544 1 0.16500 119244.000000
11499 12785 1 0.16500 119244.000000
11500 12899 1 0.16500 119244.000000
11500 15691 1 0.16500 119244.000000
11501 12990 1 0.16500 119244.000000
11501 14968 1 0.16500 119244.000000
11502 11666 1 0.16500 119244.000000
11502 14890 1 0.16500 119244.000000
11503 11736 1 0.16500 119244.000000
11503 12118 1 0.16500 119244.000000
11504 13422 1 0.16500 119244.000000
11504 13437 1 0.16500 119244.000000
11505 13476 1 0.16500 119244.000000
11505 14119 1 0.16500 119244.000000
11506 12948 1 0.16500 119244.000000
11506 16053 1 0.16500 119244.000000
11507 15809 1 0.16500 119244.000000
11507 16415 1 0.16500 119244.000000
11508 12329 1 0.16500 119244.000000
11508 15698 1 0.16500 119244.000000
11509 11596 1 0.16500 119244.000000
11509 14478 1 0.16500 119244.000000
11510 15785 1 0.16500 119244.000000
11510 16062 1 0.16500 119244.000000
11511 12062 1 0.16500 119244.000000
11511 12723 1 0.16500 119244.000000
11512 12016 1 0.16500 119244.000000
11512 12430 1 0.16500 119244.000000
11513 11738 1 0.16500 119244.000000
11513 13736 1 0.16500 119244.000000
11514 13301 1 0.16500 119244.000000
11514 16149 1 0.16500 119244.000000
11515 13587 1 0.16500 119244.000000
11515 16428 1 0.16500 119244.000000
11516 12977 1 0.16500 119244.000000
11516 14922 1 0.16500 119244.000000
11517 13425 1 0.16500 119244.000000
11517 16211 1 0.16500 119244.000000
11518 14754 1 0.16500 119244.000000
11518 15489 1 0.16500 119244.000000
11519 15336 1 0.16500 119244.000000
11519 16629 1 0.16500 119244.000000
11520 12803 1 0.16500 119244.000000
11520 14008 1 0.16500 119244.000000
11521 11863 1 0.16500 119244.000000
11521 15606 1 0.16500 119244.000000
11522 11976 1 0.16500 119244.000000
11522 14524 1 0.16500 119244.000000
11523 12231 1 0.16500 119244.000000
11523 14935 1 0.16500 119244.000000
11524 12769 1 0.16500 119244.000000
11524 13292 1 0.16500 119244.000000
11525 12808 1 0.16500 119244.000000
11525 16672 1 0.16500 119244.000000
11526 12055 1 0.16500 119244.000000
11526 15728 1 0.16500 119244.000000
11527 12850 1 0.16500 119244.000000
11527 16305 1 0.16500 119244.000000
11528 12778 1 0.16500 119244.000000
11528 13402 1 0.16500 119244.000000
11529 12064 1 0.16500 119244.000000
11529 16086 1 0.16500 119244.000000
11530 11905 1 0.16500 119244.000000
11530 14734 1 0.16500 119244.000000
11531 13318 1 0.16500 119244.000000
11531 13350 1 0.16500 119244.000000
11532 13132 1 0.16500 119244.000000
11532 13750 1 0.16500 119244.000000
11533 13408 1 0.16500 119244.000000
11533 13419 1 0.16500 119244.000000
11534 12173 1 0.16500 119244.000000
11534 15355 1 0.16500 119244.000000
11535 13178 1 0.16500 119244.000000
11535 13949 1 0.16500 119244.000000
11536 12913 1 0.16500 119244.000000
11536 13297 1 0.16500 119244.000000
11537 13379 1 0.16500 119244.000000
11537 16966 1 0.16500 119244.000000
11538 12094 1 0.16500 119244.000000
11538 13090 1 0.16500 119244.000000
11539 14526 1 0.16500 119244.000000
11539 15465 1 0.16500 119244.000000
17018 17019 1 0.10860 301825.392000
17019 17020 1 0.13986 296436.400000
17019 17028 1 0.13986 296436.400000
17020 17021 1 0.18850 35430.112000
17020 17022 1 0.13986 296436.400000
17021 17030 1 0.16500 119244.000000
17022 17023 1 0.10860 301825.392000
17022 17024 1 0.13986 296436.400000
17024 17025 1 0.10860 301825.392000
17024 17026 1 0.13986 296436.400000
17026 17027 1 0.10860 301825.392000
17026 17028 1 0.13986 296436.400000
17028 17029 1 0.10860 301825.392000
17030 17031 1 0.09450 207108.000000
17032 17033 1 0.10860 301825.392000
17033 17034 1 0.13986 296436.400000
17033 17042 1 0.13986 296436.400000
17034 17035 1 0.18850 35430.112000
17034 17036 1 0.13986 296436.400000
17035 17044 1 0.16500 119244.000000
17036 17037 1 0.10860 301825.392000
17036 17038 1 0.13986 296436.400000
17038 17039 1 0.10860 301825.392000
17038 17040 1 0.13986 296436.400000
17040 17041 1 0.10860 301825.392000
17040 17042 1 0.13986 296436.400000
17042 17043 1 0.10860 301825.392000
17044 17045 1 0.09450 207108.000000
17046 17047 1 0.10860 301825.392000
17047 17048 1 0.13986 296436.400000
17047 17056 1 0.13986 296436.400000
17048 17049 1 0.18850 35430.112000
17048 17050 1 0.13986 296436.400000
17049 17058 1 0.16500 119244.000000
17050 17051 1 0.10860 301825.392000
17050 17052 1 0.13986 296436.400000
17052 17053 1 0.10860 301825.392000
17052 17054 1 0.13986 296436.400000
17054 17055 1 0.10860 301825.392000
17054 17056 1 0.13986 296436.400000
17056 17057 1 0.10860 301825.392000
17058 17059 1 0.09450 207108.000000
17060 17061 1 0.10860 301825.392000
17061 17062 1 0.13986 296436.400000
17061 17070 1 0.13986 296436.400000
17062 17063 1 0.18850 35430.112000
17062 17064 1 0.13986 296436.400000
17063 17072 1 0.16500 119244.000000
17064 17065 1 0.10860 301825.392000
17064 17066 1 0.13986 296436.400000
17066 17067 1 0.10860 301825.392000
17066 17068 1 0.13986 296436.400000
17068 17069 1 0.10860 301825.392000
17068 17070 1 0.13986 296436.400000
17070 17071 1 0.10860 301825.392000
17072 17073 1 0.09450 207108.000000
17074 17075 1 0.10860 301825.392000
17075 17076 1 0.13986 296436.400000
17075 17084 1 0.13986 296436.400000
17076 17077 1 0.18850 35430.112000
17076 17078 1 0.13986 296436.400000
17077 17086 1 0.16500 119244.000000
17078 17079 1 0.10860 301825.392000
17078 17080 1 0.13986 296436.400000
17080 17081 1 0.10860 301825.392000
17080 17082 1 0.13986 296436.400000
17082 17083 1 0.10860 301825.392000
17082 17084 1 0.13986 296436.400000
17084 17085 1 0.10860 301825.392000
17086 17087 1 0.09450 207108.000000
17088 17089 1 0.10860 301825.392000
17089 17090 1 0.13986 296436.400000
17089 17098 1 0.13986 296436.400000
17090 17091 1 0.18850 35430.112000
17090 17092 1 0.13986 296436.400000
17091 17100 1 0.16500 119244.000000
17092 17093 1 0.10860 301825.392000
17092 17094 1 0.13986 296436.400000
17094 17095 1 0.10860 301825.392000
17094 17096 1 0.13986 296436.400000
17096 17097 1 0.10860 301825.392000
17096 17098 1 0.13986 296436.400000
17098 17099 1 0.10860 301825.392000
17100 17101 1 0.09450 207108.000000
17102 17103 1 0.10860 301825.392000
17103 17104 1 0.13986 296436.400000
17103 17112 1 0.13986 296436.400000
17104 17105 1 0.18850 35430.112000
17104 17106 1 0.13986 296436.400000
17105 17114 1 0.16500 119244.000000
17106 17107 1 0.10860 301825.392000
17106 17108 1 0.13986 296436.400000
17108 17109 1 0.10860 301825.392000
17108 17110 1 0.13986 296436.400000
17110 17111 1 0.10860 301825.392000
17110 17112 1 0.13986 296436.400000
17112 17113 1 0.10860 301825.392000
17114 17115 1 0.09450 207108.000000
17116 17117 1 0.10860 301825.392000
17117 17118 1 0.13986 296436.400000
17117 17126 1 0.13986 296436.400000
17118 17119 1 0.18850 35430.112000
17118 17120 1 0.13986 296436.400000
17119 17128 1 0.16500 119244.000000
17120 17121 1 0.10860 301825.392000
17120 17122 1 0.13986 296436.400000
17122 17123 1 0.10860 301825.392000
17122 17124 1 0.13986 296436.400000
17124 17125 1 0.10860 301825.392000
17124 17126 1 0.13986 296436.400000
17126 17127 1 0.10860 301825.392000
17128 17129 1 0.09450 207108.000000
17130 17131 1 0.10860 301825.392000
17131 17132 1 0.13986 296436.400000
17131 17140 1 0.13986 296436.400000
17132 17133 1 0.18850 35430.112000
17132 17134 1 0.13986 296436.400000
17133 17142 1 0.16500 119244.000000
17134 17135 1 0.10860 301825.392000
17134 17136 1 0.13986 296436.400000
17136 17137 1 0.10860 301825.392000
17136 17138 1 0.13986 296436.400000
17138 17139 1 0.10860 301825.392000
17138 17140 1 0.13986 296436.400000
17140 17141 1 0.10860 301825.392000
17142 17143 1 0.09450 207108.000000
17144 17145 1 0.10860 301825.392000
17145 17146 1 0.13986 296436.400000
17145 17154 1 0.13986 296436.400000
17146 17147 1 0.18850 35430.112000
17146 17148 1 0.13986 296436.400000
17147 17156 1 0.16500 119244.000000
17148 17149 1 0.10860 301825.392000
17148 17150 1 0.13986 296436.400000
17150 17151 1 0.10860 301825.392000
17150 17152 1 0.13986 296436.400000
17152 17153 1 0.10860 301825.392000
17152 17154 1 0.13986 296436.400000
17154 17155 1 0.10860 301825.392000
17156 17157 1 0.09450 207108.000000
17158 17159 1 0.10860 301825.392000
17159 17160 1 0.13986 296436.400000
17159 17168 1 0.13986 296436.400000
17160 17161 1 0.18850 35430.112000
17160 17162 1 0.13986 296436.400000
17161 17170 1 0.16500 119244.000000
17162 17163 1 0.10860 301825.392000
17162 17164 1 0.13986 296436.400000
17164 17165 1 0.10860 301825.392000
17164 17166 1 0.13986 296436.400000
17166 17167 1 0.10860 301825.392000
17166 17168 1 0.13986 296436.400000
17168 17169 1 0.10860 301825.392000
17170 17171 1 0.09450 207108.000000
17172 17173 1 0.10860 301825.392000
17173 17174 1 0.13986 296436.400000
17173 17182 1 0.13986 296436.400000
17174 17175 1 0.18850 35430.112000
17174 17176 1 0.13986 296436.400000
17175 17184 1 0.16500 119244.000000
17176 17177 1 0.10860 301825.392000
17176 17178 1 0.13986 296436.400000
17178 17179 1 0.10860 301825.392000
17178 17180 1 0.13986 296436.400000
17180 17181 1 0.10860 301825.392000
17180 17182 1 0.13986 296436.400000
17182 17183 1 0.10860 301825.392000
17184 17185 1 0.09450 207108.000000
17186 17187 1 0.10860 301825.392000
17187 17188 1 0.13986 296436.400000
17187 17196 1 0.13986 296436.400000
17188 17189 1 0.18850 35430.112000
17188 17190 1 0.13986 296436.400000
17189 17198 1 0.16500 119244.000000
17190 17191 1 0.10860 301825.392000
17190 17192 1 0.13986 296436.400000
17192 17193 1 0.10860 301825.392000
17192 17194 1 0.13986 296436.400000
17194 17195 1 0.10860 301825.392000
17194 17196 1 0.13986 296436.400000
17196 17197 1 0.10860 301825.392000
17198 17199 1 0.09450 207108.000000
17200 17201 1 0.10860 301825.392000
17201 17202 1 0.13986 296436.400000
17201 17210 1 0.13986 296436.400000
17202 17203 1 0.18850 35430.112000
17202 17204 1 0.13986 296436.400000
17203 17212 1 0.16500 119244.000000
17204 17205 1 0.10860 301825.392000
17204 17206 1 0.13986 296436.400000
17206 17207 1 0.10860 301825.392000
17206 17208 1 0.13986 296436.400000
17208 17209 1 0.10860 301825.392000
17208 17210 1 0.13986 296436.400000
17210 17211 1 0.10860 301825.392000
17212 17213 1 0.09450 207108.000000
17214 17215 1 0.10860 301825.392000
17215 17216 1 0.13986 296436.400000
17215 17224 1 0.13986 296436.400000
17216 17217 1 0.18850 35430.112000
17216 17218 1 0.13986 296436.400000
17217 17226 1 0.16500 119244.000000
17218 17219 1 0.10860 301825.392000
17218 17220 1 0.13986 296436.400000
17220 17221 1 0.10860 301825.392000
17220 17222 1 0.13986 296436.400000
17222 17223 1 0.10860 301825.392000
17222 17224 1 0.13986 296436.400000
17224 17225 1 0.10860 301825.392000
17226 17227 1 0.09450 207108.000000
17228 17229 1 0.10860 301825.392000
17229 17230 1 0.13986 296436.400000
17229 17238 1 0.13986 296436.400000
17230 17231 1 0.18850 35430.112000
17230 17232 1 0.13986 296436.400000
17231 17240 1 0.16500 119244.000000
17232 17233 1 0.10860 301825.392000
17232 17234 1 0.13986 296436.400000
17234 17235 1 0.10860 301825.392000
17234 17236 1 0.13986 296436.400000
17236 17237 1 0.10860 301825.392000
17236 17238 1 0.13986 296436.400000
17238 17239 1 0.10860 301825.392000
17240 17241 1 0.09450 207108.000000
17242 17243 1 0.10860 301825.392000
17243 17244 1 0.13986 296436.400000
17243 17252 1 0.13986 296436.400000
17244 17245 1 0.18850 35430.112000
17244 17246 1 0.13986 296436.400000
17245 17254 1 0.16500 119244.000000
17246 17247 1 0.10860 301825.392000
17246 17248 1 0.13986 296436.400000
17248 17249 1 0.10860 301825.392000
17248 17250 1 0.13986 296436.400000
17250 17251 1 0.10860 301825.392000
17250 17252 1 0.13986 296436.400000
17252 17253 1 0.10860 301825.392000
17254 17255 1 0.09450 207108.000000
17256 17257 1 0.10860 301825.392000
17257 17258 1 0.13986 296436.400000
17257 17266 1 0.13986 296436.400000
17258 17259 1 0.18850 35430.112000
17258 17260 1 0.13986 296436.400000
17259 17268 1 0.16500 119244.000000
17260 17261 1 0.10860 301825.392000
17260 17262 1 0.13986 296436.400000
17262 17263 1 0.10860 301825.392000
17262 17264 1 0.13986 296436.400000
17264 17265 1 0.10860 301825.392000
17264 17266 1 0.13986 296436.400000
17266 17267 1 0.10860 301825.392000
17268 17269 1 0.09450 207108.000000
17270 17271 1 0.10860 301825.392000
17271 17272 1 0.13986 296436.400000
17271 17280 1 0.13986 296436.400000
17272 17273 1 0.18850 35430.112000
17272 17274 1 0.13986 296436.400000
17273 17282 1 0.16500 119244.000000
17274 17275 1 0.10860 301825.392000
17274 17276 1 0.13986 296436.400000
17276 17277 1 0.10860 301825.392000
17276 17278 1 0.13986 296436.400000
17278 17279 1 0.10860 301825.392000
17278 17280 1 0.13986 296436.400000
17280 17281 1 0.10860 301825.392000
17282 17283 1 0.09450 207108.000000
17284 17285 1 0.10860 301825.392000
17285 17286 1 0.13986 296436.400000
17285 17294 1 0.13986 296436.400000
17286 17287 1 0.18850 35430.112000
17286 17288 1 0.13986 296436.400000
17287 17296 1 0.16500 119244.000000
17288 17289 1 0.10860 301825.392000
17288 17290 1 0.13986 296436.400000
17290 17291 1 0.10860 301825.392000
17290 17292 1 0.13986 296436.400000
17292 17293 1 0.10860 301825.392000
17292 17294 1 0.13986 296436.400000
17294 17295 1 0.10860 301825.392000
17296 17297 1 0.09450 207108.000000
17298 17299 1 0.10860 301825.392000
17299 17300 1 0.13986 296436.400000
17299 17308 1 0.13986 296436.400000
17300 17301 1 0.18850 35430.112000
17300 17302 1 0.13986 296436.400000
17301 17310 1 0.16500 119244.000000
17302 17303 1 0.10860 301825.392000
17302 17304 1 0.13986 296436.400000
17304 17305 1 0.10860 301825.392000
17304 17306 1 0.13986 296436.400000
17306 17307 1 0.10860 301825.392000
17306 17308 1 0.13986 296436.400000
17308 17309 1 0.10860 301825.392000
17310 17311 1 0.09450 207108.000000
17312 17313 1 0.10860 301825.392000
17313 17314 1 0.13986 296436.400000
17313 17322 1 0.13986 296436.400000
17314 17315 1 0.18850 35430.112000
17314 17316 1 0.13986 296436.400000
17315 17324 1 0.16500 119244.000000
17316 17317 1 0.10860 301825.392000
17316 17318 1 0.13986 296436.400000
17318 17319 1 0.10860 301825.392000
17318 17320 1 0.13986 296436.400000
17320 17321 1 0.10860 301825.392000
17320 17322 1 0.13986 296436.400000
17322 17323 1 0.10860 301825.392000
17324 17325 1 0.09450 207108.000000
17326 17327 1 0.10860 301825.392000
17327 17328 1 0.13986 296436.400000
17327 17336 1 0.13986 296436.400000
17328 17329 1 0.18850 35430.112000
17328 17330 1 0.13986 296436.400000
17329 17338 1 0.16500 119244.000000
17330 17331 1 0.10860 301825.392000
17330 17332 1 0.13986 296436.400000
17332 17333 1 0.10860 301825.392000
17332 17334 1 0.13986 296436.400000
17334 17335 1 0.10860 301825.392000
17334 17336 1 0.13986 296436.400000
17336 17337 1 0.10860 301825.392000
17338 17339 1 0.09450 207108.000000
17340 17341 1 0.10860 301825.392000
17341 17342 1 0.13986 296436.400000
17341 17350 1 0.13986 296436.400000
17342 17343 1 0.18850 35430.112000
17342 17344 1 0.13986 296436.400000
17343 17352 1 0.16500 119244.000000
17344 17345 1 0.10860 301825.392000
17344 17346 1 0.13986 296436.400000
17346 17347 1 0.10860 301825.392000
17346 17348 1 0.13986 296436.400000
17348 17349 1 0.10860 301825.392000
17348 17350 1 0.13986 296436.400000
17350 17351 1 0.10860 301825.392000
17352 17353 1 0.09450 207108.000000
17354 17355 1 0.10860 301825.392000
17355 17356 1 0.13986 296436.400000
17355 17364 1 0.13986 296436.400000
17356 17357 1 0.18850 35430.112000
17356 17358 1 0.13986 296436.400000
17357 17366 1 0.16500 119244.000000
17358 17359 1 0.10860 301825.392000
17358 17360 1 0.13986 296436.400000
17360 17361 1 0.10860 301825.392000
17360 17362 1 0.13986 296436.400000
17362 17363 1 0.10860 301825.392000
17362 17364 1 0.13986 296436.400000
17364 17365 1 0.10860 301825.392000
17366 17367 1 0.09450 207108.000000
17368 17369 1 0.10860 301825.392000
17369 17370 1 0.13986 296436.400000
17369 17378 1 0.13986 296436.400000
17370 17371 1 0.18850 35430.112000
17370 17372 1 0.13986 296436.400000
17371 17380 1 0.16500 119244.000000
17372 17373 1 0.10860 301825.392000
17372 17374 1 0.13986 296436.400000
17374 17375 1 0.10860 301825.392000
17374 17376 1 0.13986 296436.400000
17376 17377 1 0.10860 301825.392000
17376 17378 1 0.13986 296436.400000
17378 17379 1 0.10860 301825.392000
17380 17381 1 0.09450 207108.000000
17382 17383 1 0.10860 301825.392000
17383 17384 1 0.13986 296436.400000
17383 17392 1 0.13986 296436.400000
17384 17385 1 0.18850 35430.112000
17384 17386 1 0.13986 296436.400000
17385 17394 1 0.16500 119244.000000
17386 17387 1 0.10860 301825.392000
17386 17388 1 0.13986 296436.400000
17388 17389 1 0.10860 301825.392000
17388 17390 1 0.13986 296436.400000
17390 17391 1 0.10860 301825.392000
17390 17392 1 0.13986 296436.400000
17392 17393 1 0.10860 301825.392000
17394 17395 1 0.09450 207108.000000
17396 17397 1 0.10860 301825.392000
17397 17398 1 0.13986 296436.400000
17397 17406 1 0.13986 296436.400000
17398 17399 1 0.18850 35430.112000
17398 17400 1 0.13986 296436.400000
17399 17408 1 0.16500 119244.000000
17400 17401 1 0.10860 301825.392000
17400 17402 1 0.13986 296436.400000
17402 17403 1 0.10860 301825.392000
17402 17404 1 0.13986 296436.400000
17404 17405 1 0.10860 301825.392000
17404 17406 1 0.13986 296436.400000
17406 17407 1 0.10860 301825.392000
17408 17409 1 0.09450 207108.000000
17410 17411 1 0.10860 301825.392000
17411 17412 1 0.13986 296436.400000
17411 17420 1 0.13986 296436.400000
17412 17413 1 0.18850 35430.112000
17412 17414 1 0.13986 296436.400000
17413 17422 1 0.16500 119244.000000
17414 17415 1 0.10860 301825.392000
17414 17416 1 0.13986 296436.400000
17416 17417 1 0.10860 301825.392000
17416 17418 1 0.13986 296436.400000
17418 17419 1 0.10860 301825.392000
17418 17420 1 0.13986 296436.400000
17420 17421 1 0.10860 301825.392000
17422 17423 1 0.09450 207108.000000
17424 17425 1 0.10860 301825.392000
17425 17426 1 0.13986 296436.400000
17425 17434 1 0.13986 296436.400000
17426 17427 1 0.18850 35430.112000
17426 17428 1 0.13986 296436.400000
17427 17436 1 0.16500 119244.000000
17428 17429 1 0.10860 301825.392000
17428 17430 1 0.13986 296436.400000
17430 17431 1 0.10860 301825.392000
17430 17432 1 0.13986 296436.400000
17432 17433 1 0.10860 301825.392000
17432 17434 1 0.13986 296436.400000
17434 17435 1 0.10860 301825.392000
17436 17437 1 0.09450 207108.000000
17438 17439 1 0.10860 301825.392000
17439 17440 1 0.13986 296436.400000
17439 17448 1 0.13986 296436.400000
17440 17441 1 0.18850 35430.112000
17440 17442 1 0.13986 296436.400000
17441 17450 1 0.16500 119244.000000
17442 17443 1 0.10860 301825.392000
17442 17444 1 0.13986 296436.400000
17444 17445 1 0.10860 301825.392000
17444 17446 1 0.13986 296436.400000
17446 17447 1 0.10860 301825.392000
17446 17448 1 0.13986 296436.400000
17448 17449 1 0.10860 301825.392000
17450 17451 1 0.09450 207108.000000
17452 17453 1 0.10860 301825.392000
17453 17454 1 0.13986 296436.400000
17453 17462 1 0.13986 296436.400000
17454 17455 1 0.18850 35430.112000
17454 17456 1 0.13986 296436.400000
17455 17464 1 0.16500 119244.000000
17456 17457 1 0.10860 301825.392000
17456 17458 1 0.13986 296436.400000
17458 17459 1 0.10860 301825.392000
17458 17460 1 0.13986 296436.400000
17460 17461 1 0.10860 301825.392000
17460 17462 1 0.13986 296436.400000
17462 17463 1 0.10860 301825.392000
17464 17465 1 0.09450 207108.000000
17466 17467 1 0.10860 301825.392000
17467 17468 1 0.13986 296436.400000
17467 17476 1 0.13986 296436.400000
17468 17469 1 0.18850 35430.112000
17468 17470 1 0.13986 296436.400000
17469 17478 1 0.16500 119244.000000
17470 17471 1 0.10860 301825.392000
17470 17472 1 0.13986 296436.400000
17472 17473 1 0.10860 301825.392000
17472 17474 1 0.13986 296436.400000
17474 17475 1 0.10860 301825.392000
17474 17476 1 0.13986 296436.400000
17476 17477 1 0.10860 301825.392000
17478 17479 1 0.09450 207108.000000
17480 17481 1 0.10860 301825.392000
17481 17482 1 0.13986 296436.400000
17481 17490 1 0.13986 296436.400000
17482 17483 1 0.18850 35430.112000
17482 17484 1 0.13986 296436.400000
17484 17485 1 0.10860 301825.392000
17484 17486 1 0.13986 296436.400000
17486 17487 1 0.10860 301825.392000
17486 17488 1 0.13986 296436.400000
17488 17489 1 0.10860 301825.392000
17488 17490 1 0.13986 296436.400000
17490 17491 1 0.10860 301825.392000
17492 17493 1 0.10860 301825.392000
17493 17494 1 0.13986 296436.400000
17493 17502 1 0.13986 296436.400000
17494 17495 1 0.18850 35430.112000
17494 17496 1 0.13986 296436.400000
17496 17497 1 0.10860 301825.392000
17496 17498 1 0.13986 296436.400000
17498 17499 1 0.10860 301825.392000
17498 17500 1 0.13986 296436.400000
17500 17501 1 0.10860 301825.392000
17500 17502 1 0.13986 296436.400000
17502 17503 1 0.10860 301825.392000
17504 17505 1 0.10860 301825.392000
17505 17506 1 0.13986 296436.400000
17505 17514 1 0.13986 296436.400000
17506 17507 1 0.18850 35430.112000
17506 17508 1 0.13986 296436.400000
17508 17509 1 0.10860 301825.392000
17508 17510 1 0.13986 296436.400000
17510 17511 1 0.10860 301825.392000
17510 17512 1 0.13986 296436.400000
17512 17513 1 0.10860 301825.392000
17512 17514 1 0.13986 296436.400000
17514 17515 1 0.10860 301825.392000
17516 17517 1 0.10860 301825.392000
17517 17518 1 0.13986 296436.400000
17517 17526 1 0.13986 296436.400000
17518 17519 1 0.18850 35430.112000
17518 17520 1 0.13986 296436.400000
17520 17521 1 0.10860 301825.392000
17520 17522 1 0.13986 296436.400000
17522 17523 1 0.10860 301825.392000
17522 17524 1 0.13986 296436.400000
17524 17525 1 0.10860 301825.392000
17524 17526 1 0.13986 296436.400000
17526 17527 1 0.10860 301825.392000
17528 17529 1 0.10860 301825.392000
17529 17530 1 0.13986 296436.400000
17529 17538 1 0.13986 296436.400000
17530 17531 1 0.18850 35430.112000
17530 17532 1 0.13986 296436.400000
17532 17533 1 0.10860 301825.392000
17532 17534 1 0.13986 296436.400000
17534 17535 1 0.10860 301825.392000
17534 17536 1 0.13986 296436.400000
17536 17537 1 0.10860 301825.392000
17536 17538 1 0.13986 296436.400000
17538 17539 1 0.10860 301825.392000
17540 17541 1 0.10860 301825.392000
17541 17542 1 0.13986 296436.400000
17541 17550 1 0.13986 296436.400000
17542 17543 1 0.18850 35430.112000
17542 17544 1 0.13986 296436.400000
17544 17545 1 0.10860 301825.392000
17544 17546 1 0.13986 296436.400000
17546 17547 1 0.10860 301825.392000
17546 17548 1 0.13986 296436.400000
17548 17549 1 0.10860 301825.392000
17548 17550 1 0.13986 296436.400000
17550 17551 1 0.10860 301825.392000
17552 17553 1 0.10860 301825.392000
17553 17554 1 0.13986 296436.400000
17553 17562 1 0.13986 296436.400000
17554 17555 1 0.18850 35430.112000
17554 17556 1 0.13986 296436.400000
17556 17557 1 0.10860 301825.392000
17556 17558 1 0.13986 296436.400000
17558 17559 1 0.10860 301825.392000
17558 17560 1 0.13986 296436.400000
17560 17561 1 0.10860 301825.392000
17560 17562 1 0.13986 296436.400000
17562 17563 1 0.10860 301825.392000
17564 17565 1 0.10860 301825.392000
17565 17566 1 0.13986 296436.400000
17565 17574 1 0.13986 296436.400000
17566 17567 1 0.18850 35430.112000
17566 17568 1 0.13986 296436.400000
17568 17569 1 0.10860 301825.392000
17568 17570 1 0.13986 296436.400000
17570 17571 1 0.10860 301825.392000
17570 17572 1 0.13986 296436.400000
17572 17573 1 0.10860 301825.392000
17572 17574 1 0.13986 296436.400000
17574 17575 1 0.10860 301825.392000
17576 17577 1 0.10860 301825.392000
17577 17578 1 0.13986 296436.400000
17577 17586 1 0.13986 296436.400000
17578 17579 1 0.18850 35430.112000
17578 17580 1 0.13986 296436.400000
17580 17581 1 0.10860 301825.392000
17580 17582 1 0.13986 296436.400000
17582 17583 1 0.10860 301825.392000
17582 17584 1 0.13986 296436.400000
17584 17585 1 0.10860 301825.392000
17584 17586 1 0.13986 296436.400000
17586 17587 1 0.10860 301825.392000
17588 17589 1 0.10860 301825.392000
17589 17590 1 0.13986 296436.400000
17589 17598 1 0.13986 296436.400000
17590 17591 1 0.18850 35430.112000
17590 17592 1 0.13986 296436.400000
17592 17593 1 0.10860 301825.392000
17592 17594 1 0.13986 296436.400000
17594 17595 1 0.10860 301825.392000
17594 17596 1 0.13986 296436.400000
17596 17597 1 0.10860 301825.392000
17596 17598 1 0.13986 296436.400000
17598 17599 1 0.10860 301825.392000
17600 17601 1 0.10860 301825.392000
17601 17602 1 0.13986 296436.400000
17601 17610 1 0.13986 296436.400000
17602 17603 1 0.18850 35430.112000
17602 17604 1 0.13986 296436.400000
17604 17605 1 0.10860 301825.392000
17604 17606 1 0.13986 296436.400000
17606 17607 1 0.10860 301825.392000
17606 17608 1 0.13986 296436.400000
17608 17609 1 0.10860 301825.392000
17608 17610 1 0.13986 296436.400000
17610 17611 1 0.10860 301825.392000
17612 17613 1 0.10860 301825.392000
17613 17614 1 0.13986 296436.400000
17613 17622 1 0.13986 296436.400000
17614 17615 1 0.18850 35430.112000
17614 17616 1 0.13986 296436.400000
17616 17617 1 0.10860 301825.392000
17616 17618 1 0.13986 296436.400000
17618 17619 1 0.10860 301825.392000
17618 17620 1 0.13986 296436.400000
17620 17621 1 0.10860 301825.392000
17620 17622 1 0.13986 296436.400000
17622 17623 1 0.10860 301825.392000
17624 17625 1 0.10860 301825.392000
17625 17626 1 0.13986 296436.400000
17625 17634 1 0.13986 296436.400000
17626 17627 1 0.18850 35430.112000
17626 17628 1 0.13986 296436.400000
17628 17629 1 0.10860 301825.392000
17628 17630 1 0.13986 296436.400000
17630 17631 1 0.10860 301825.392000
17630 17632 1 0.13986 296436.400000
17632 17633 1 0.10860 301825.392000
17632 17634 1 0.13986 296436.400000
17634 17635 1 0.10860 301825.392000
17636 17637 1 0.10860 301825.392000
17637 17638 1 0.13986 296436.400000
17637 17646 1 0.13986 296436.400000
17638 17639 1 0.18850 35430.112000
17638 17640 1 0.13986 296436.400000
17640 17641 1 0.10860 301825.392000
17640 17642 1 0.13986 296436.400000
17642 17643 1 0.10860 301825.392000
17642 17644 1 0.13986 296436.400000
17644 17645 1 0.10860 301825.392000
17644 17646 1 0.13986 296436.400000
17646 17647 1 0.10860 301825.392000
17648 17649 1 0.10860 301825.392000
17649 17650 1 0.13986 296436.400000
17649 17658 1 0.13986 296436.400000
17650 17651 1 0.18850 35430.112000
17650 17652 1 0.13986 296436.400000
17652 17653 1 0.10860 301825.392000
17652 17654 1 0.13986 296436.400000
17654 17655 1 0.10860 301825.392000
17654 17656 1 0.13986 296436.400000
17656 17657 1 0.10860 301825.392000
17656 17658 1 0.13986 296436.400000
17658 17659 1 0.10860 301825.392000
17660 17661 1 0.10860 301825.392000
17661 17662 1 0.13986 296436.400000
17661 17670 1 0.13986 296436.400000
17662 17663 1 0.18850 35430.112000
17662 17664 1 0.13986 296436.400000
17664 17665 1 0.10860 301825.392000
17664 17666 1 0.13986 296436.400000
17666 17667 1 0.10860 301825.392000
17666 17668 1 0.13986 296436.400000
17668 17669 1 0.10860 301825.392000
17668 17670 1 0.13986 296436.400000
17670 17671 1 0.10860 301825.392000
17672 17673 1 0.10860 301825.392000
17673 17674 1 0.13986 296436.400000
17673 17682 1 0.13986 296436.400000
17674 17675 1 0.18850 35430.112000
17674 17676 1 0.13986 296436.400000
17676 17677 1 0.10860 301825.392000
17676 17678 1 0.13986 296436.400000
17678 17679 1 0.10860 301825.392000
17678 17680 1 0.13986 296436.400000
17680 17681 1 0.10860 301825.392000
17680 17682 1 0.13986 296436.400000
17682 17683 1 0.10860 301825.392000
17684 17685 1 0.10860 301825.392000
17685 17686 1 0.13986 296436.400000
17685 17694 1 0.13986 296436.400000
17686 17687 1 0.18850 35430.112000
17686 17688 1 0.13986 296436.400000
17688 17689 1 0.10860 301825.392000
17688 17690 1 0.13986 296436.400000
17690 17691 1 0.10860 301825.392000
17690 17692 1 0.13986 296436.400000
17692 17693 1 0.10860 301825.392000
17692 17694 1 0.13986 296436.400000
17694 17695 1 0.10860 301825.392000
17696 17697 1 0.10860 301825.392000
17697 17698 1 0.13986 296436.400000
17697 17706 1 0.13986 296436.400000
17698 17699 1 0.18850 35430.112000
17698 17700 1 0.13986 296436.400000
17700 17701 1 0.10860 301825.392000
17700 17702 1 0.13986 296436.400000
17702 17703 1 0.10860 301825.392000
17702 17704 1 0.13986 296436.400000
17704 17705 1 0.10860 301825.392000
17704 17706 1 0.13986 296436.400000
17706 17707 1 0.10860 301825.392000
17708 17709 1 0.10860 301825.392000
17709 17710 1 0.13986 296436.400000
17709 17718 1 0.13986 296436.400000
17710 17711 1 0.18850 35430.112000
17710 17712 1 0.13986 296436.400000
17712 17713 1 0.10860 301825.392000
17712 17714 1 0.13986 296436.400000
17714 17715 1 0.10860 301825.392000
17714 17716 1 0.13986 296436.400000
17716 17717 1 0.10860 301825.392000
17716 17718 1 0.13986 296436.400000
17718 17719 1 0.10860 301825.392000
17720 17721 1 0.10860 301825.392000
17721 17722 1 0.13986 296436.400000
17721 17730 1 0.13986 296436.400000
17722 17723 1 0.18850 35430.112000
17722 17724 1 0.13986 296436.400000
17724 17725 1 0.10860 301825.392000
17724 17726 1 0.13986 296436.400000
17726 17727 1 0.10860 301825.392000
17726 17728 1 0.13986 296436.400000
17728 17729 1 0.10860 301825.392000
17728 17730 1 0.13986 296436.400000
17730 17731 1 0.10860 301825.392000
17732 17733 1 0.10860 301825.392000
17733 17734 1 0.13986 296436.400000
17733 17742 1 0.13986 296436.400000
17734 17735 1 0.18850 35430.112000
17734 17736 1 0.13986 296436.400000
17736 17737 1 0.10860 301825.392000
17736 17738 1 0.13986 296436.400000
17738 17739 1 0.10860 301825.392000
17738 17740 1 0.13986 296436.400000
17740 17741 1 0.10860 301825.392000
17740 17742 1 0.13986 296436.400000
17742 17743 1 0.10860 301825.392000
17744 17745 1 0.10860 301825.392000
17745 17746 1 0.13986 296436.400000
17745 17754 1 0.13986 296436.400000
17746 17747 1 0.18850 35430.112000
17746 17748 1 0.13986 296436.400000
17748 17749 1 0.10860 301825.392000
17748 17750 1 0.13986 296436.400000
17750 17751 1 0.10860 301825.392000
17750 17752 1 0.13986 296436.400000
17752 17753 1 0.10860 301825.392000
17752 17754 1 0.13986 296436.400000
17754 17755 1 0.10860 301825.392000
17756 17757 1 0.10860 301825.392000
17757 17758 1 0.13986 296436.400000
17757 17766 1 0.13986 296436.400000
17758 17759 1 0.18850 35430.112000
17758 17760 1 0.13986 296436.400000
17760 17761 1 0.10860 301825.392000
17760 17762 1 0.13986 296436.400000
17762 17763 1 0.10860 301825.392000
17762 17764 1 0.13986 296436.400000
17764 17765 1 0.10860 301825.392000
17764 17766 1 0.13986 296436.400000
17766 17767 1 0.10860 301825.392000
17768 17769 1 0.10860 301825.392000
17769 17770 1 0.13986 296436.400000
17769 17778 1 0.13986 296436.400000
17770 17771 1 0.18850 35430.112000
17770 17772 1 0.13986 296436.400000
17772 17773 1 0.10860 301825.392000
17772 17774 1 0.13986 296436.400000
17774 17775 1 0.10860 301825.392000
17774 17776 1 0.13986 296436.400000
17776 17777 1 0.10860 301825.392000
17776 17778 1 0.13986 296436.400000
17778 17779 1 0.10860 301825.392000
17780 17781 1 0.10860 301825.392000
17781 17782 1 0.13986 296436.400000
17781 17790 1 0.13986 296436.400000
17782 17783 1 0.18850 35430.112000
17782 17784 1 0.13986 296436.400000
17784 17785 1 0.10860 301825.392000
17784 17786 1 0.13986 296436.400000
17786 17787 1 0.10860 301825.392000
17786 17788 1 0.13986 296436.400000
17788 17789 1 0.10860 301825.392000
17788 17790 1 0.13986 296436.400000
17790 17791 1 0.10860 301825.392000
17792 17793 1 0.10860 301825.392000
17793 17794 1 0.13986 296436.400000
17793 17802 1 0.13986 296436.400000
17794 17795 1 0.18850 35430.112000
17794 17796 1 0.13986 296436.400000
17796 17797 1 0.10860 301825.392000
17796 17798 1 0.13986 296436.400000
17798 17799 1 0.10860 301825.392000
17798 17800 1 0.13986 296436.400000
17800 17801 1 0.10860 301825.392000
17800 17802 1 0.13986 296436.400000
17802 17803 1 0.10860 301825.392000
17804 17805 1 0.10860 301825.392000
17805 17806 1 0.13986 296436.400000
17805 17814 1 0.13986 296436.400000
17806 17807 1 0.18850 35430.112000
17806 17808 1 0.13986 296436.400000
17808 17809 1 0.10860 301825.392000
17808 17810 1 0.13986 296436.400000
17810 17811 1 0.10860 301825.392000
17810 17812 1 0.13986 296436.400000
17812 17813 1 0.10860 301825.392000
17812 17814 1 0.13986 296436.400000
17814 17815 1 0.10860 301825.392000
17816 17817 1 0.10860 301825.392000
17817 17818 1 0.13986 296436.400000
17817 17826 1 0.13986 296436.400000
17818 17819 1 0.18850 35430.112000
17818 17820 1 0.13986 296436.400000
17820 17821 1 0.10860 301825.392000
17820 17822 1 0.13986 296436.400000
17822 17823 1 0.10860 301825.392000
17822 17824 1 0.13986 296436.400000
17824 17825 1 0.10860 301825.392000
17824 17826 1 0.13986 296436.400000
17826 17827 1 0.10860 301825.392000
17828 17829 1 0.10860 301825.392000
17829 17830 1 0.13986 296436.400000
17829 17838 1 0.13986 296436.400000
17830 17831 1 0.18850 35430.112000
17830 17832 1 0.13986 296436.400000
17832 17833 1 0.10860 301825.392000
17832 17834 1 0.13986 296436.400000
17834 17835 1 0.10860 301825.392000
17834 17836 1 0.13986 296436.400000
17836 17837 1 0.10860 301825.392000
17836 17838 1 0.13986 296436.400000
17838 17839 1 0.10860 301825.392000
17840 17841 1 0.10860 301825.392000
17841 17842 1 0.13986 296436.400000
17841 17850 1 0.13986 296436.400000
17842 17843 1 0.18850 35430.112000
17842 17844 1 0.13986 296436.400000
17844 17845 1 0.10860 301825.392000
17844 17846 1 0.13986 296436.400000
17846 17847 1 0.10860 301825.392000
17846 17848 1 0.13986 296436.400000
17848 17849 1 0.10860 301825.392000
17848 17850 1 0.13986 296436.400000
17850 17851 1 0.10860 301825.392000
17852 17853 1 0.10860 301825.392000
17853 17854 1 0.13986 296436.400000
17853 17862 1 0.13986 296436.400000
17854 17855 1 0.18850 35430.112000
17854 17856 1 0.13986 296436.400000
17856 17857 1 0.10860 301825.392000
17856 17858 1 0.13986 296436.400000
17858 17859 1 0.10860 301825.392000
17858 17860 1 0.13986 296436.400000
17860 17861 1 0.10860 301825.392000
17860 17862 1 0.13986 296436.400000
17862 17863 1 0.10860 301825.392000
17864 17865 1 0.10860 301825.392000
17865 17866 1 0.13986 296436.400000
17865 17874 1 0.13986 296436.400000
17866 17867 1 0.18850 35430.112000
17866 17868 1 0.13986 296436.400000
17868 17869 1 0.10860 301825.392000
17868 17870 1 0.13986 296436.400000
17870 17871 1 0.10860 301825.392000
17870 17872 1 0.13986 296436.400000
17872 17873 1 0.10860 301825.392000
17872 17874 1 0.13986 296436.400000
17874 17875 1 0.10860 301825.392000
17876 17877 1 0.10860 301825.392000
17877 17878 1 0.13986 296436.400000
17877 17886 1 0.13986 296436.400000
17878 17879 1 0.18850 35430.112000
17878 17880 1 0.13986 296436.400000
17880 17881 1 0.10860 301825.392000
17880 17882 1 0.13986 296436.400000
17882 17883 1 0.10860 301825.392000
17882 17884 1 0.13986 296436.400000
17884 17885 1 0.10860 301825.392000
17884 17886 1 0.13986 296436.400000
17886 17887 1 0.10860 301825.392000
17888 17889 1 0.10860 301825.392000
17889 17890 1 0.13986 296436.400000
17889 17898 1 0.13986 296436.400000
17890 17891 1 0.18850 35430.112000
17890 17892 1 0.13986 296436.400000
17892 17893 1 0.10860 301825.392000
17892 17894 1 0.13986 296436.400000
17894 17895 1 0.10860 301825.392000
17894 17896 1 0.13986 296436.400000
17896 17897 1 0.10860 301825.392000
17896 17898 1 0.13986 296436.400000
17898 17899 1 0.10860 301825.392000
17900 17901 1 0.10860 301825.392000
17901 17902 1 0.13986 296436.400000
17901 17910 1 0.13986 296436.400000
17902 17903 1 0.18850 35430.112000
17902 17904 1 0.13986 296436.400000
17904 17905 1 0.10860 301825.392000
17904 17906 1 0.13986 296436.400000
17906 17907 1 0.10860 301825.392000
17906 17908 1 0.13986 296436.400000
17908 17909 1 0.10860 301825.392000
17908 17910 1 0.13986 296436.400000
17910 17911 1 0.10860 301825.392000
17912 17913 1 0.10860 301825.392000
17913 17914 1 0.13986 296436.400000
17913 17922 1 0.13986 296436.400000
17914 17915 1 0.18850 35430.112000
17914 17916 1 0.13986 296436.400000
17916 17917 1 0.10860 301825.392000
17916 17918 1 0.13986 296436.400000
17918 17919 1 0.10860 301825.392000
17918 17920 1 0.13986 296436.400000
17920 17921 1 0.10860 301825.392000
17920 17922 1 0.13986 296436.400000
17922 17923 1 0.10860 301825.392000
17924 17925 1 0.10860 301825.392000
17925 17926 1 0.13986 296436.400000
17925 17934 1 0.13986 296436.400000
17926 17927 1 0.18850 35430.112000
17926 17928 1 0.13986 296436.400000
17928 17929 1 0.10860 301825.392000
17928 17930 1 0.13986 296436.400000
17930 17931 1 0.10860 301825.392000
17930 17932 1 0.13986 296436.400000
17932 17933 1 0.10860 301825.392000
17932 17934 1 0.13986 296436.400000
17934 17935 1 0.10860 301825.392000
17936 17937 1 0.10860 301825.392000
17937 17938 1 0.13986 296436.400000
17937 17946 1 0.13986 296436.400000
17938 17939 1 0.18850 35430.112000
17938 17940 1 0.13986 296436.400000
17940 17941 1 0.10860 301825.392000
17940 17942 1 0.13986 296436.400000
17942 17943 1 0.10860 301825.392000
17942 17944 1 0.13986 296436.400000
17944 17945 1 0.10860 301825.392000
17944 17946 1 0.13986 296436.400000
17946 17947 1 0.10860 301825.392000
17948 17949 1 0.10860 301825.392000
17949 17950 1 0.13986 296436.400000
17949 17958 1 0.13986 296436.400000
17950 17951 1 0.18850 35430.112000
17950 17952 1 0.13986 296436.400000
17952 17953 1 0.10860 301825.392000
17952 17954 1 0.13986 296436.400000
17954 17955 1 0.10860 301825.392000
17954 17956 1 0.13986 296436.400000
17956 17957 1 0.10860 301825.392000
17956 17958 1 0.13986 296436.400000
17958 17959 1 0.10860 301825.392000
17960 17961 1 0.10860 301825.392000
17961 17962 1 0.13986 296436.400000
17961 17970 1 0.13986 296436.400000
17962 17963 1 0.18850 35430.112000
17962 17964 1 0.13986 296436.400000
17964 17965 1 0.10860 301825.392000
17964 17966 1 0.13986 296436.400000
17966 17967 1 0.10860 301825.392000
17966 17968 1 0.13986 296436.400000
17968 17969 1 0.10860 301825.392000
17968 17970 1 0.13986 296436.400000
17970 17971 1 0.10860 301825.392000
17972 17973 1 0.10860 301825.392000
17973 17974 1 0.13986 296436.400000
17973 17982 1 0.13986 296436.400000
17974 17975 1 0.18850 35430.112000
17974 17976 1 0.13986 296436.400000
17976 17977 1 0.10860 301825.392000
17976 17978 1 0.13986 296436.400000
17978 17979 1 0.10860 301825.392000
17978 17980 1 0.13986 296436.400000
17980 17981 1 0.10860 301825.392000
17980 17982 1 0.13986 296436.400000
17982 17983 1 0.10860 301825.392000
17984 17985 1 0.10860 301825.392000
17985 17986 1 0.13986 296436.400000
17985 17994 1 0.13986 296436.400000
17986 17987 1 0.18850 35430.112000
17986 17988 1 0.13986 296436.400000
17988 17989 1 0.10860 301825.392000
17988 17990 1 0.13986 296436.400000
17990 17991 1 0.10860 301825.392000
17990 17992 1 0.13986 296436.400000
17992 17993 1 0.10860 301825.392000
17992 17994 1 0.13986 296436.400000
17994 17995 1 0.10860 301825.392000
17996 17997 1 0.10860 301825.392000
17997 17998 1 0.13986 296436.400000
17997 18006 1 0.13986 296436.400000
17998 17999 1 0.18850 35430.112000
17998 18000 1 0.13986 296436.400000
18000 18001 1 0.10860 301825.392000
18000 18002 1 0.13986 296436.400000
18002 18003 1 0.10860 301825.392000
18002 18004 1 0.13986 296436.400000
18004 18005 1 0.10860 301825.392000
18004 18006 1 0.13986 296436.400000
18006 18007 1 0.10860 301825.392000
18008 18009 1 0.10860 301825.392000
18009 18010 1 0.13986 296436.400000
18009 18018 1 0.13986 296436.400000
18010 18011 1 0.18850 35430.112000
18010 18012 1 0.13986 296436.400000
18012 18013 1 0.10860 301825.392000
18012 18014 1 0.13986 296436.400000
18014 18015 1 0.10860 301825.392000
18014 18016 1 0.13986 296436.400000
18016 18017 1 0.10860 301825.392000
18016 18018 1 0.13986 296436.400000
18018 18019 1 0.10860 301825.392000
18020 18021 1 0.10860 301825.392000
18021 18022 1 0.13986 296436.400000
18021 18030 1 0.13986 296436.400000
18022 18023 1 0.18850 35430.112000
18022 18024 1 0.13986 296436.400000
18024 18025 1 0.10860 301825.392000
18024 18026 1 0.13986 296436.400000
18026 18027 1 0.10860 301825.392000
18026 18028 1 0.13986 296436.400000
18028 18029 1 0.10860 301825.392000
18028 18030 1 0.13986 296436.400000
18030 18031 1 0.10860 301825.392000
18032 18033 1 0.10860 301825.392000
18033 18034 1 0.13986 296436.400000
18033 18042 1 0.13986 296436.400000
18034 18035 1 0.18850 35430.112000
18034 18036 1 0.13986 296436.400000
18036 18037 1 0.10860 301825.392000
18036 18038 1 0.13986 296436.400000
18038 18039 1 0.10860 301825.392000
18038 18040 1 0.13986 296436.400000
18040 18041 1 0.10860 301825.392000
18040 18042 1 0.13986 296436.400000
18042 18043 1 0.10860 301825.392000
18044 18045 1 0.10860 301825.392000
18045 18046 1 0.13986 296436.400000
18045 18054 1 0.13986 296436.400000
18046 18047 1 0.18850 35430.112000
18046 18048 1 0.13986 296436.400000
18048 18049 1 0.10860 301825.392000
18048 18050 1 0.13986 296436.400000
18050 18051 1 0.10860 301825.392000
18050 18052 1 0.13986 296436.400000
18052 18053 1 0.10860 301825.392000
18052 18054 1 0.13986 296436.400000
18054 18055 1 0.10860 301825.392000
18056 18057 1 0.10860 301825.392000
18057 18058 1 0.13986 296436.400000
18057 18066 1 0.13986 296436.400000
18058 18059 1 0.18850 35430.112000
18058 18060 1 0.13986 296436.400000
18060 18061 1 0.10860 301825.392000
18060 18062 1 0.13986 296436.400000
18062 18063 1 0.10860 301825.392000
18062 18064 1 0.13986 296436.400000
18064 18065 1 0.10860 301825.392000
18064 18066 1 0.13986 296436.400000
18066 18067 1 0.10860 301825.392000
18068 18069 1 0.10860 301825.392000
18069 18070 1 0.13986 296436.400000
18069 18078 1 0.13986 296436.400000
18070 18071 1 0.18850 35430.112000
18070 18072 1 0.13986 296436.400000
18072 18073 1 0.10860 301825.392000
18072 18074 1 0.13986 296436.400000
18074 18075 1 0.10860 301825.392000
18074 18076 1 0.13986 296436.400000
18076 18077 1 0.10860 301825.392000
18076 18078 1 0.13986 296436.400000
18078 18079 1 0.10860 301825.392000
18080 18081 1 0.10860 301825.392000
18081 18082 1 0.13986 296436.400000
18081 18090 1 0.13986 296436.400000
18082 18083 1 0.18850 35430.112000
18082 18084 1 0.13986 296436.400000
18084 18085 1 0.10860 301825.392000
18084 18086 1 0.13986 296436.400000
18086 18087 1 0.10860 301825.392000
18086 18088 1 0.13986 296436.400000
18088 18089 1 0.10860 301825.392000
18088 18090 1 0.13986 296436.400000
18090 18091 1 0.10860 301825.392000
18092 18093 1 0.10860 301825.392000
18093 18094 1 0.13986 296436.400000
18093 18102 1 0.13986 296436.400000
18094 18095 1 0.18850 35430.112000
18094 18096 1 0.13986 296436.400000
18096 18097 1 0.10860 301825.392000
18096 18098 1 0.13986 296436.400000
18098 18099 1 0.10860 301825.392000
18098 18100 1 0.13986 296436.400000
18100 18101 1 0.10860 301825.392000
18100 18102 1 0.13986 296436.400000
18102 18103 1 0.10860 301825.392000
18104 18105 1 0.10860 301825.392000
18105 18106 1 0.13986 296436.400000
18105 18114 1 0.13986 296436.400000
18106 18107 1 0.18850 35430.112000
18106 18108 1 0.13986 296436.400000
18108 18109 1 0.10860 301825.392000
18108 18110 1 0.13986 296436.400000
18110 18111 1 0.10860 301825.392000
18110 18112 1 0.13986 296436.400000
18112 18113 1 0.10860 301825.392000
18112 18114 1 0.13986 296436.400000
18114 18115 1 0.10860 301825.392000
18116 18117 1 0.10860 301825.392000
18117 18118 1 0.13986 296436.400000
18117 18126 1 0.13986 296436.400000
18118 18119 1 0.18850 35430.112000
18118 18120 1 0.13986 296436.400000
18120 18121 1 0.10860 301825.392000
18120 18122 1 0.13986 296436.400000
18122 18123 1 0.10860 301825.392000
18122 18124 1 0.13986 296436.400000
18124 18125 1 0.10860 301825.392000
18124 18126 1 0.13986 296436.400000
18126 18127 1 0.10860 301825.392000
18128 18129 1 0.10860 301825.392000
18129 18130 1 0.13986 296436.400000
18129 18138 1 0.13986 296436.400000
18130 18131 1 0.18850 35430.112000
18130 18132 1 0.13986 296436.400000
18132 18133 1 0.10860 301825.392000
18132 18134 1 0.13986 296436.400000
18134 18135 1 0.10860 301825.392000
18134 18136 1 0.13986 296436.400000
18136 18137 1 0.10860 301825.392000
18136 18138 1 0.13986 296436.400000
18138 18139 1 0.10860 301825.392000
18140 18141 1 0.10860 301825.392000
18141 18142 1 0.13986 296436.400000
18141 18150 1 0.13986 296436.400000
18142 18143 1 0.18850 35430.112000
18142 18144 1 0.13986 296436.400000
18144 18145 1 0.10860 301825.392000
18144 18146 1 0.13986 296436.400000
18146 18147 1 0.10860 301825.392000
18146 18148 1 0.13986 296436.400000
18148 18149 1 0.10860 301825.392000
18148 18150 1 0.13986 296436.400000
18150 18151 1 0.10860 301825.392000
18152 18153 1 0.10860 301825.392000
18153 18154 1 0.13986 296436.400000
18153 18162 1 0.13986 296436.400000
18154 18155 1 0.18850 35430.112000
18154 18156 1 0.13986 296436.400000
18156 18157 1 0.10860 301825.392000
18156 18158 1 0.13986 296436.400000
18158 18159 1 0.10860 301825.392000
18158 18160 1 0.13986 296436.400000
18160 18161 1 0.10860 301825.392000
18160 18162 1 0.13986 296436.400000
18162 18163 1 0.10860 301825.392000
18164 18165 1 0.10860 301825.392000
18165 18166 1 0.13986 296436.400000
18165 18174 1 0.13986 296436.400000
18166 18167 1 0.18850 35430.112000
18166 18168 1 0.13986 296436.400000
18168 18169 1 0.10860 301825.392000
18168 18170 1 0.13986 296436.400000
18170 18171 1 0.10860 301825.392000
18170 18172 1 0.13986 296436.400000
18172 18173 1 0.10860 301825.392000
18172 18174 1 0.13986 296436.400000
18174 18175 1 0.10860 301825.392000
18176 18177 1 0.10860 301825.392000
18177 18178 1 0.13986 296436.400000
18177 18186 1 0.13986 296436.400000
18178 18179 1 0.18850 35430.112000
18178 18180 1 0.13986 296436.400000
18180 18181 1 0.10860 301825.392000
18180 18182 1 0.13986 296436.400000
18182 18183 1 0.10860 301825.392000
18182 18184 1 0.13986 296436.400000
18184 18185 1 0.10860 301825.392000
18184 18186 1 0.13986 296436.400000
18186 18187 1 0.10860 301825.392000
18188 18189 1 0.10860 301825.392000
18189 18190 1 0.13986 296436.400000
18189 18198 1 0.13986 296436.400000
18190 18191 1 0.18850 35430.112000
18190 18192 1 0.13986 296436.400000
18192 18193 1 0.10860 301825.392000
18192 18194 1 0.13986 296436.400000
18194 18195 1 0.10860 301825.392000
18194 18196 1 0.13986 296436.400000
18196 18197 1 0.10860 301825.392000
18196 18198 1 0.13986 296436.400000
18198 18199 1 0.10860 301825.392000
18200 18201 1 0.10860 301825.392000
18201 18202 1 0.13986 296436.400000
18201 18210 1 0.13986 296436.400000
18202 18203 1 0.18850 35430.112000
18202 18204 1 0.13986 296436.400000
18204 18205 1 0.10860 301825.392000
18204 18206 1 0.13986 296436.400000
18206 18207 1 0.10860 301825.392000
18206 18208 1 0.13986 296436.400000
18208 18209 1 0.10860 301825.392000
18208 18210 1 0.13986 296436.400000
18210 18211 1 0.10860 301825.392000
18212 18213 1 0.16500 119244.000000
18213 18214 1 0.09450 207108.000000
18215 18216 1 0.16500 119244.000000
18216 18217 1 0.09450 207108.000000
18218 18219 1 0.16500 119244.000000
18219 18220 1 0.09450 207108.000000
18221 18222 1 0.16500 119244.000000
18222 18223 1 0.09450 207108.000000
18224 18225 1 0.16500 119244.000000
18225 18226 1 0.09450 207108.000000
18227 18228 1 0.16500 119244.000000
18228 18229 1 0.09450 207108.000000
18230 18231 1 0.16500 119244.000000
18231 18232 1 0.09450 207108.000000
18233 18234 1 0.16500 119244.000000
18234 18235 1 0.09450 207108.000000
18236 18237 1 0.16500 119244.000000
18237 18238 1 0.09450 207108.000000
18239 18240 1 0.16500 119244.000000
18240 18241 1 0.09450 207108.000000
18242 18243 1 0.16500 119244.000000
18243 18244 1 0.09450 207108.000000
18245 18246 1 0.16500 119244.000000
18246 18247 1 0.09450 207108.000000
18248 18249 1 0.16500 119244.000000
18249 18250 1 0.09450 207108.000000
18251 18252 1 0.16500 119244.000000
18252 18253 1 0.09450 207108.000000
18254 18255 1 0.16500 119244.000000
18255 18256 1 0.09450 207108.000000
18257 18258 1 0.16500 119244.000000
18258 18259 1 0.09450 207108.000000
18260 18261 1 0.16500 119244.000000
18261 18262 1 0.09450 207108.000000
18263 18264 1 0.16500 119244.000000
18264 18265 1 0.09450 207108.000000
18266 18267 1 0.16500 119244.000000
18267 18268 1 0.09450 207108.000000
18269 18270 1 0.16500 119244.000000
18270 18271 1 0.09450 207108.000000
18272 18273 1 0.16500 119244.000000
18273 18274 1 0.09450 207108.000000
18275 18276 1 0.16500 119244.000000
18276 18277 1 0.09450 207108.000000
18278 18279 1 0.16500 119244.000000
18279 18280 1 0.09450 207108.000000
18281 18282 1 0.16500 119244.000000
18282 18283 1 0.09450 207108.000000
18284 18285 1 0.16500 119244.000000
18285 18286 1 0.09450 207108.000000
18287 18288 1 0.16500 119244.000000
18288 18289 1 0.09450 207108.000000
18290 18291 1 0.16500 119244.000000
18291 18292 1 0.09450 207108.000000
18293 18294 1 0.16500 119244.000000
18294 18295 1 0.09450 207108.000000
18296 18297 1 0.16500 119244.000000
18297 18298 1 0.09450 207108.000000
18299 18300 1 0.16500 119244.000000
18300 18301 1 0.09450 207108.000000
18302 18303 1 0.16500 119244.000000
18303 18304 1 0.09450 207108.000000
18305 18306 1 0.16500 119244.000000
18306 18307 1 0.09450 207108.000000
18308 18309 1 0.16500 119244.000000
18309 18310 1 0.09450 207108.000000
18311 18312 1 0.16500 119244.000000
18312 18313 1 0.09450 207108.000000
18314 18315 1 0.16500 119244.000000
18315 18316 1 0.09450 207108.000000
18317 18318 1 0.16500 119244.000000
18318 18319 1 0.09450 207108.000000
18320 18321 1 0.16500 119244.000000
18321 18322 1 0.09450 207108.000000
18323 18324 1 0.16500 119244.000000
18324 18325 1 0.09450 207108.000000
18326 18327 1 0.16500 119244.000000
18327 18328 1 0.09450 207108.000000
18329 18330 1 0.16500 119244.000000
18330 18331 1 0.09450 207108.000000
18332 18333 1 0.16500 119244.000000
18333 18334 1 0.09450 207108.000000
18335 18336 1 0.16500 119244.000000
18336 18337 1 0.09450 207108.000000
18338 18339 1 0.16500 119244.000000
18339 18340 1 0.09450 207108.000000
18341 18342 1 0.16500 119244.000000
18342 18343 1 0.09450 207108.000000
18344 18345 1 0.16500 119244.000000
18345 18346 1 0.09450 207108.000000
18347 18348 1 0.16500 119244.000000
18348 18349 1 0.09450 207108.000000
18350 18351 1 0.16500 119244.000000
18351 18352 1 0.09450 207108.000000
18353 18354 1 0.16500 119244.000000
18354 18355 1 0.09450 207108.000000
18356 18357 1 0.16500 119244.000000
18357 18358 1 0.09450 207108.000000
18359 18360 1 0.16500 119244.000000
18360 18361 1 0.09450 207108.000000
18362 18363 1 0.16500 119244.000000
18363 18364 1 0.09450 207108.000000
18365 18366 1 0.16500 119244.000000
18366 18367 1 0.09450 207108.000000
18368 18369 1 0.16500 119244.000000
18369 18370 1 0.09450 207108.000000
18371 18372 1 0.16500 119244.000000
18372 18373 1 0.09450 207108.000000
18374 18375 1 0.16500 119244.000000
18375 18376 1 0.09450 207108.000000
18377 18378 1 0.16500 119244.000000
18378 18379 1 0.09450 207108.000000
18380 18381 1 0.16500 119244.000000
18381 18382 1 0.09450 207108.000000
18383 18384 1 0.16500 119244.000000
18384 18385 1 0.09450 207108.000000
18386 18387 1 0.16500 119244.000000
18387 18388 1 0.09450 207108.000000
18389 18390 1 0.16500 119244.000000
18390 18391 1 0.09450 207108.000000
18392 18393 1 0.16500 119244.000000
18393 18394 1 0.09450 207108.000000
18395 18396 1 0.16500 119244.000000
18396 18397 1 0.09450 207108.000000
18398 18399 1 0.16500 119244.000000
18399 18400 1 0.09450 207108.000000
18401 18402 1 0.16500 119244.000000
18402 18403 1 0.09450 207108.000000
18404 18405 1 0.16500 119244.000000
18405 18406 1 0.09450 207108.000000
18407 18408 1 0.16500 119244.000000
18408 18409 1 0.09450 207108.000000
18410 18411 1 0.16500 119244.000000
18411 18412 1 0.09450 207108.000000
18413 18414 1 0.16500 119244.000000
18414 18415 1 0.09450 207108.000000
18416 18417 1 0.16500 119244.000000
18417 18418 1 0.09450 207108.000000
18419 18420 1 0.16500 119244.000000
18420 18421 1 0.09450 207108.000000
18422 18423 1 0.16500 119244.000000
18423 18424 1 0.09450 207108.000000
18425 18426 1 0.16500 119244.000000
18426 18427 1 0.09450 207108.000000
18428 18429 1 0.16500 119244.000000
18429 18430 1 0.09450 207108.000000
18431 18432 1 0.16500 119244.000000
18432 18433 1 0.09450 207108.000000
18434 18435 1 0.16500 119244.000000
18435 18436 1 0.09450 207108.000000
18437 18438 1 0.16500 119244.000000
18438 18439 1 0.09450 207108.000000
18440 18441 1 0.16500 119244.000000
18441 18442 1 0.09450 207108.000000
18443 18444 1 0.16500 119244.000000
18444 18445 1 0.09450 207108.000000
18446 18447 1 0.16500 119244.000000
18447 18448 1 0.09450 207108.000000
18449 18450 1 0.16500 119244.000000
18450 18451 1 0.09450 207108.000000
18452 18453 1 0.16500 119244.000000
18453 18454 1 0.09450 207108.000000
18455 18456 1 0.16500 119244.000000
18456 18457 1 0.09450 207108.000000
18458 18459 1 0.16500 119244.000000
18459 18460 1 0.09450 207108.000000
18461 18462 1 0.16500 119244.000000
18462 18463 1 0.09450 207108.000000
18464 18465 1 0.16500 119244.000000
18465 18466 1 0.09450 207108.000000
18467 18468 1 0.16500 119244.000000
18468 18469 1 0.09450 207108.000000
18470 18471 1 0.16500 119244.000000
18471 18472 1 0.09450 207108.000000
18473 18474 1 0.16500 119244.000000
18474 18475 1 0.09450 207108.000000
18476 18477 1 0.16500 119244.000000
18477 18478 1 0.09450 207108.000000
18479 18480 1 0.16500 119244.000000
18480 18481 1 0.09450 207108.000000
18482 18483 1 0.16500 119244.000000
18483 18484 1 0.09450 207108.000000
18485 18486 1 0.16500 119244.000000
18486 18487 1 0.09450 207108.000000
18488 18489 1 0.16500 119244.000000
18489 18490 1 0.09450 207108.000000
18491 18492 1 0.16500 119244.000000
18492 18493 1 0.09450 207108.000000
18494 18495 1 0.16500 119244.000000
18495 18496 1 0.09450 207108.000000
18497 18498 1 0.16500 119244.000000
18498 18499 1 0.09450 207108.000000
18500 18501 1 0.16500 119244.000000
18501 18502 1 0.09450 207108.000000
18503 18504 1 0.16500 119244.000000
18504 18505 1 0.09450 207108.000000
18506 18507 1 0.16500 119244.000000
18507 18508 1 0.09450 207108.000000
18509 18510 1 0.16500 119244.000000
18510 18511 1 0.09450 207108.000000
18512 18513 1 0.16500 119244.000000
18513 18514 1 0.09450 207108.000000
18515 18516 1 0.16500 119244.000000
18516 18517 1 0.09450 207108.000000
18518 18519 1 0.16500 119244.000000
18519 18520 1 0.09450 207108.000000
18521 18522 1 0.16500 119244.000000
18522 18523 1 0.09450 207108.000000
18524 18525 1 0.16500 119244.000000
18525 18526 1 0.09450 207108.000000
18527 18528 1 0.16500 119244.000000
18528 18529 1 0.09450 207108.000000
18530 18531 1 0.16500 119244.000000
18531 18532 1 0.09450 207108.000000
18533 18534 1 0.16500 119244.000000
18534 18535 1 0.09450 207108.000000
18536 18537 1 0.16500 119244.000000
18537 18538 1 0.09450 207108.000000
18539 18540 1 0.16500 119244.000000
18540 18541 1 0.09450 207108.000000
18542 18543 1 0.16500 119244.000000
18543 18544 1 0.09450 207108.000000
18545 18546 1 0.16500 119244.000000
18546 18547 1 0.09450 207108.000000
18548 18549 1 0.16500 119244.000000
18549 18550 1 0.09450 207108.000000
18551 18552 1 0.16500 119244.000000
18552 18553 1 0.09450 207108.000000
18554 18555 1 0.16500 119244.000000
18555 18556 1 0.09450 207108.000000
18557 18558 1 0.16500 119244.000000
18558 18559 1 0.09450 207108.000000
18560 18561 1 0.16500 119244.000000
18561 18562 1 0.09450 207108.000000
18563 18564 1 0.16500 119244.000000
18564 18565 1 0.09450 207108.000000
18566 18567 1 0.16500 119244.000000
18567 18568 1 0.09450 207108.000000
18569 18570 1 0.16500 119244.000000
18570 18571 1 0.09450 207108.000000
18572 18573 1 0.16500 119244.000000
18573 18574 1 0.09450 207108.000000
18575 18576 1 0.16500 119244.000000
18576 18577 1 0.09450 207108.000000
18578 18579 1 0.16500 119244.000000
18579 18580 1 0.09450 207108.000000
18581 18582 1 0.16500 119244.000000
18582 18583 1 0.09450 207108.000000
18584 18585 1 0.16500 119244.000000
18585 18586 1 0.09450 207108.000000
18587 18588 1 0.16500 119244.000000
18588 18589 1 0.09450 207108.000000
18590 18591 1 0.16500 119244.000000
18591 18592 1 0.09450 207108.000000
18593 18594 1 0.16500 119244.000000
18594 18595 1 0.09450 207108.000000
18596 18597 1 0.16500 119244.000000
18597 18598 1 0.09450 207108.000000
18599 18600 1 0.16500 119244.000000
18600 18601 1 0.09450 207108.000000
18602 18603 1 0.16500 119244.000000
18603 18604 1 0.09450 207108.000000
18605 18606 1 0.16500 119244.000000
18606 18607 1 0.09450 207108.000000
18608 18609 1 0.16500 119244.000000
18609 18610 1 0.09450 207108.000000
18611 18612 1 0.16500 119244.000000
18612 18613 1 0.09450 207108.000000
18614 18615 1 0.16500 119244.000000
18615 18616 1 0.09450 207108.000000
18617 18618 1 0.16500 119244.000000
18618 18619 1 0.09450 207108.000000
18620 18621 1 0.16500 119244.000000
18621 18622 1 0.09450 207108.000000
18623 18624 1 0.16500 119244.000000
18624 18625 1 0.09450 207108.000000
18626 18627 1 0.16500 119244.000000
18627 18628 1 0.09450 207108.000000
18629 18630 1 0.16500 119244.000000
18630 18631 1 0.09450 207108.000000
18632 18633 1 0.16500 119244.000000
18633 18634 1 0.09450 207108.000000
18635 18636 1 0.16500 119244.000000
18636 18637 1 0.09450 207108.000000
18638 18639 1 0.16500 119244.000000
18639 18640 1 0.09450 207108.000000
18641 18642 1 0.16500 119244.000000
18642 18643 1 0.09450 207108.000000
18644 18645 1 0.16500 119244.000000
18645 18646 1 0.09450 207108.000000
18647 18648 1 0.16500 119244.000000
18648 18649 1 0.09450 207108.000000
18650 18651 1 0.16500 119244.000000
18651 18652 1 0.09450 207108.000000
18653 18654 1 0.16500 119244.000000
18654 18655 1 0.09450 207108.000000
18656 18657 1 0.16500 119244.000000
18657 18658 1 0.09450 207108.000000
18659 18660 1 0.16500 119244.000000
18660 18661 1 0.09450 207108.000000
18662 18663 1 0.16500 119244.000000
18663 18664 1 0.09450 207108.000000
18665 18666 1 0.16500 119244.000000
18666 18667 1 0.09450 207108.000000
18668 18669 1 0.16500 119244.000000
18669 18670 1 0.09450 207108.000000
18671 18672 1 0.16500 119244.000000
18672 18673 1 0.09450 207108.000000
18674 18675 1 0.16500 119244.000000
18675 18676 1 0.09450 207108.000000
18677 18678 1 0.16500 119244.000000
18678 18679 1 0.09450 207108.000000
18680 18681 1 0.16500 119244.000000
18681 18682 1 0.09450 207108.000000
18683 18684 1 0.16500 119244.000000
18684 18685 1 0.09450 207108.000000
18686 18687 1 0.16500 119244.000000
18687 18688 1 0.09450 207108.000000
18689 18690 1 0.16500 119244.000000
18690 18691 1 0.09450 207108.000000
18692 18693 1 0.16500 119244.000000
18693 18694 1 0.09450 207108.000000
18695 18696 1 0.16500 119244.000000
18696 18697 1 0.09450 207108.000000
18698 18699 1 0.16500 119244.000000
18699 18700 1 0.09450 207108.000000
18701 18702 1 0.16500 119244.000000
18702 18703 1 0.09450 207108.000000
18704 18705 1 0.16500 119244.000000
18705 18706 1 0.09450 207108.000000
18707 18708 1 0.16500 119244.000000
18708 18709 1 0.09450 207108.000000
18710 18711 1 0.16500 119244.000000
18711 18712 1 0.09450 207108.000000
18713 18714 1 0.16500 119244.000000
18714 18715 1 0.09450 207108.000000
18716 18717 1 0.16500 119244.000000
18717 18718 1 0.09450 207108.000000
18719 18720 1 0.16500 119244.000000
18720 18721 1 0.09450 207108.000000
18722 18723 1 0.16500 119244.000000
18723 18724 1 0.09450 207108.000000
18725 18726 1 0.16500 119244.000000
18726 18727 1 0.09450 207108.000000
18728 18729 1 0.16500 119244.000000
18729 18730 1 0.09450 207108.000000
18731 18732 1 0.16500 119244.000000
18732 18733 1 0.09450 207108.000000
18734 18735 1 0.16500 119244.000000
18735 18736 1 0.09450 207108.000000
18737 18738 1 0.16500 119244.000000
18738 18739 1 0.09450 207108.000000
18740 18741 1 0.16500 119244.000000
18741 18742 1 0.09450 207108.000000
18743 18744 1 0.16500 119244.000000
18744 18745 1 0.09450 207108.000000
18746 18747 1 0.16500 119244.000000
18747 18748 1 0.09450 207108.000000
18749 18750 1 0.16500 119244.000000
18750 18751 1 0.09450 207108.000000
18752 18753 1 0.16500 119244.000000
18753 18754 1 0.09450 207108.000000
18755 18756 1 0.16500 119244.000000
18756 18757 1 0.09450 207108.000000
18758 18759 1 0.16500 119244.000000
18759 18760 1 0.09450 207108.000000
18761 18762 1 0.16500 119244.000000
18762 18763 1 0.09450 207108.000000
18764 18765 1 0.16500 119244.000000
18765 18766 1 0.09450 207108.000000
18767 18768 1 0.16500 119244.000000
18768 18769 1 0.09450 207108.000000
18770 18771 1 0.16500 119244.000000
18771 18772 1 0.09450 207108.000000
18773 18774 1 0.16500 119244.000000
18774 18775 1 0.09450 207108.000000
18776 18777 1 0.16500 119244.000000
18777 18778 1 0.09450 207108.000000
18779 18780 1 0.16500 119244.000000
18780 18781 1 0.09450 207108.000000
18782 18783 1 0.16500 119244.000000
18783 18784 1 0.09450 207108.000000
18785 18786 1 0.16500 119244.000000
18786 18787 1 0.09450 207108.000000
18788 18789 1 0.16500 119244.000000
18789 18790 1 0.09450 207108.000000
18791 18792 1 0.16500 119244.000000
18792 18793 1 0.09450 207108.000000
18794 18795 1 0.16500 119244.000000
18795 18796 1 0.09450 207108.000000
18797 18798 1 0.16500 119244.000000
18798 18799 1 0.09450 207108.000000
18800 18801 1 0.16500 119244.000000
18801 18802 1 0.09450 207108.000000
18803 18804 1 0.16500 119244.000000
18804 18805 1 0.09450 207108.000000
18806 18807 1 0.16500 119244.000000
18807 18808 1 0.09450 207108.000000
18809 18810 1 0.16500 119244.000000
18810 18811 1 0.09450 207108.000000
18812 18813 1 0.16500 119244.000000
18813 18814 1 0.09450 207108.000000
18815 18816 1 0.16500 119244.000000
18816 18817 1 0.09450 207108.000000
18818 18819 1 0.16500 119244.000000
18819 18820 1 0.09450 207108.000000
18821 18822 1 0.16500 119244.000000
18822 18823 1 0.09450 207108.000000
18824 18825 1 0.16500 119244.000000
18825 18826 1 0.09450 207108.000000
18827 18828 1 0.16500 119244.000000
18828 18829 1 0.09450 207108.000000
18830 18831 1 0.16500 119244.000000
18831 18832 1 0.09450 207108.000000
18833 18834 1 0.16500 119244.000000
18834 18835 1 0.09450 207108.000000
18836 18837 1 0.16500 119244.000000
18837 18838 1 0.09450 207108.000000
18839 18840 1 0.16500 119244.000000
18840 18841 1 0.09450 207108.000000
18842 18843 1 0.16500 119244.000000
18843 18844 1 0.09450 207108.000000
18845 18846 1 0.16500 119244.000000
18846 18847 1 0.09450 207108.000000
18848 18849 1 0.16500 119244.000000
18849 18850 1 0.09450 207108.000000
18851 18852 1 0.16500 119244.000000
18852 18853 1 0.09450 207108.000000
18854 18855 1 0.16500 119244.000000
18855 18856 1 0.09450 207108.000000
18857 18858 1 0.16500 119244.000000
18858 18859 1 0.09450 207108.000000
18860 18861 1 0.16500 119244.000000
18861 18862 1 0.09450 207108.000000
18863 18864 1 0.16500 119244.000000
18864 18865 1 0.09450 207108.000000
18866 18867 1 0.16500 119244.000000
18867 18868 1 0.09450 207108.000000
18869 18870 1 0.16500 119244.000000
18870 18871 1 0.09450 207108.000000
18872 18873 1 0.16500 119244.000000
18873 18874 1 0.09450 207108.000000
18875 18876 1 0.16500 119244.000000
18876 18877 1 0.09450 207108.000000
18878 18879 1 0.16500 119244.000000
18879 18880 1 0.09450 207108.000000
18881 18882 1 0.16500 119244.000000
18882 18883 1 0.09450 207108.000000
18884 18885 1 0.16500 119244.000000
18885 18886 1 0.09450 207108.000000
18887 18888 1 0.16500 119244.000000
18888 18889 1 0.09450 207108.000000
18890 18891 1 0.16500 119244.000000
18891 18892 1 0.09450 207108.000000
18893 18894 1 0.16500 119244.000000
18894 18895 1 0.09450 207108.000000
18896 18897 1 0.16500 119244.000000
18897 18898 1 0.09450 207108.000000
18899 18900 1 0.16500 119244.000000
18900 18901 1 0.09450 207108.000000
18902 18903 1 0.16500 119244.000000
18903 18904 1 0.09450 207108.000000
18905 18906 1 0.16500 119244.000000
18906 18907 1 0.09450 207108.000000
18908 18909 1 0.16500 119244.000000
18909 18910 1 0.09450 207108.000000
18911 18912 1 0.16500 119244.000000
18912 18913 1 0.09450 207108.000000
18914 18915 1 0.16500 119244.000000
18915 18916 1 0.09450 207108.000000
18917 18918 1 0.16500 119244.000000
18918 18919 1 0.09450 207108.000000
18920 18921 1 0.16500 119244.000000
18921 18922 1 0.09450 207108.000000
18923 18924 1 0.16500 119244.000000
18924 18925 1 0.09450 207108.000000
18926 18927 1 0.16500 119244.000000
18927 18928 1 0.09450 207108.000000
18929 18930 1 0.16500 119244.000000
18930 18931 1 0.09450 207108.000000
18932 18933 1 0.16500 119244.000000
18933 18934 1 0.09450 207108.000000
18935 18936 1 0.16500 119244.000000
18936 18937 1 0.09450 207108.000000
18938 18939 1 0.16500 119244.000000
18939 18940 1 0.09450 207108.000000
18941 18942 1 0.16500 119244.000000
18942 18943 1 0.09450 207108.000000
18944 18945 1 0.16500 119244.000000
18945 18946 1 0.09450 207108.000000
18947 18948 1 0.16500 119244.000000
18948 18949 1 0.09450 207108.000000
18950 18951 1 0.16500 119244.000000
18951 18952 1 0.09450 207108.000000
18953 18954 1 0.16500 119244.000000
18954 18955 1 0.09450 207108.000000
18956 18957 1 0.16500 119244.000000
18957 18958 1 0.09450 207108.000000
18959 18960 1 0.16500 119244.000000
18960 18961 1 0.09450 207108.000000
18962 18963 1 0.16500 119244.000000
18963 18964 1 0.09450 207108.000000
18965 18966 1 0.16500 119244.000000
18966 18967 1 0.09450 207108.000000
18968 18969 1 0.16500 119244.000000
18969 18970 1 0.09450 207108.000000
18971 18972 1 0.16500 119244.000000
18972 18973 1 0.09450 207108.000000
18974 18975 1 0.16500 119244.000000
18975 18976 1 0.09450 207108.000000
18977 18978 1 0.16500 119244.000000
18978 18979 1 0.09450 207108.000000
18980 18981 1 0.16500 119244.000000
18981 18982 1 0.09450 207108.000000
18983 18984 1 0.16500 119244.000000
18984 18985 1 0.09450 207108.000000
18986 18987 1 0.16500 119244.000000
18987 18988 1 0.09450 207108.000000
18989 18990 1 0.16500 119244.000000
18990 18991 1 0.09450 207108.000000
18992 18993 1 0.16500 119244.000000
18993 18994 1 0.09450 207108.000000
18995 18996 1 0.16500 119244.000000
18996 18997 1 0.09450 207108.000000
18998 18999 1 0.16500 119244.000000
18999 19000 1 0.09450 207108.000000
19001 19002 1 0.16500 119244.000000
19002 19003 1 0.09450 207108.000000
19004 19005 1 0.16500 119244.000000
19005 19006 1 0.09450 207108.000000
19007 19008 1 0.16500 119244.000000
19008 19009 1 0.09450 207108.000000
19010 19011 1 0.16500 119244.000000
19011 19012 1 0.09450 207108.000000
19013 19014 1 0.16500 119244.000000
19014 19015 1 0.09450 207108.000000
19016 19017 1 0.16500 119244.000000
19017 19018 1 0.09450 207108.000000
19019 19020 1 0.16500 119244.000000
19020 19021 1 0.09450 207108.000000
19022 19023 1 0.16500 119244.000000
19023 19024 1 0.09450 207108.000000
19025 19026 1 0.16500 119244.000000
19026 19027 1 0.09450 207108.000000
19028 19029 1 0.16500 119244.000000
19029 19030 1 0.09450 207108.000000
19031 19032 1 0.16500 119244.000000
19032 19033 1 0.09450 207108.000000
19034 19035 1 0.16500 119244.000000
19035 19036 1 0.09450 207108.000000
19037 19038 1 0.16500 119244.000000
19038 19039 1 0.09450 207108.000000
19040 19041 1 0.16500 119244.000000
19041 19042 1 0.09450 207108.000000
19043 19044 1 0.16500 119244.000000
19044 19045 1 0.09450 207108.000000
19046 19047 1 0.16500 119244.000000
19047 19048 1 0.09450 207108.000000
19049 19050 1 0.16500 119244.000000
19050 19051 1 0.09450 207108.000000
19052 19053 1 0.16500 119244.000000
19053 19054 1 0.09450 207108.000000
19055 19056 1 0.16500 119244.000000
19056 19057 1 0.09450 207108.000000
19058 19059 1 0.16500 119244.000000
19059 19060 1 0.09450 207108.000000
19061 19062 1 0.16500 119244.000000
19062 19063 1 0.09450 207108.000000
19064 19065 1 0.16500 119244.000000
19065 19066 1 0.09450 207108.000000
19067 19068 1 0.16500 119244.000000
19068 19069 1 0.09450 207108.000000
19070 19071 1 0.16500 119244.000000
19071 19072 1 0.09450 207108.000000
19073 19074 1 0.16500 119244.000000
19074 19075 1 0.09450 207108.000000
19076 19077 1 0.16500 119244.000000
19077 19078 1 0.09450 207108.000000
19079 19080 1 0.16500 119244.000000
19080 19081 1 0.09450 207108.000000
19082 19083 1 0.16500 119244.000000
19083 19084 1 0.09450 207108.000000
19085 19086 1 0.16500 119244.000000
19085 19088 1 0.16500 119244.000000
19086 19087 1 0.09450 207108.000000
19088 19089 1 0.09450 207108.000000
19090 19091 1 0.16500 119244.000000
19090 19093 1 0.16500 119244.000000
19091 19092 1 0.09450 207108.000000
19093 19094 1 0.09450 207108.000000
19095 19096 1 0.16500 119244.000000
19095 19098 1 0.16500 119244.000000
19096 19097 1 0.09450 207108.000000
19098 19099 1 0.09450 207108.000000
19100 19101 1 0.16500 119244.000000
19100 19103 1 0.16500 119244.000000
19101 19102 1 0.09450 207108.000000
19103 19104 1 0.09450 207108.000000
19105 19106 1 0.16500 119244.000000
19105 19108 1 0.16500 119244.000000
19106 19107 1 0.09450 207108.000000
19108 19109 1 0.09450 207108.000000
19110 19111 1 0.16500 119244.000000
19110 19113 1 0.16500 119244.000000
19111 19112 1 0.09450 207108.000000
19113 19114 1 0.09450 207108.000000
19115 19116 1 0.16500 119244.000000
19115 19118 1 0.16500 119244.000000
19116 19117 1 0.09450 207108.000000
19118 19119 1 0.09450 207108.000000
19120 19121 1 0.16500 119244.000000
19120 19123 1 0.16500 119244.000000
19121 19122 1 0.09450 207108.000000
19123 19124 1 0.09450 207108.000000
19125 19126 1 0.16500 119244.000000
19125 19128 1 0.16500 119244.000000
19126 19127 1 0.09450 207108.000000
19128 19129 1 0.09450 207108.000000
19130 19131 1 0.16500 119244.000000
19130 19133 1 0.16500 119244.000000
19131 19132 1 0.09450 207108.000000
19133 19134 1 0.09450 207108.000000
19135 19136 1 0.16500 119244.000000
19135 19138 1 0.16500 119244.000000
19136 19137 1 0.09450 207108.000000
19138 19139 1 0.09450 207108.000000
19140 19141 1 0.16500 119244.000000
19140 19143 1 0.16500 119244.000000
19141 19142 1 0.09450 207108.000000
19143 19144 1 0.09450 207108.000000
19145 19146 1 0.16500 119244.000000
19145 19148 1 0.16500 119244.000000
19146 19147 1 0.09450 207108.000000
19148 19149 1 0.09450 207108.000000
19150 19151 1 0.16500 119244.000000
19150 19153 1 0.16500 119244.000000
19151 19152 1 0.09450 207108.000000
19153 19154 1 0.09450 207108.000000
19155 19156 1 0.16500 119244.000000
19155 19158 1 0.16500 119244.000000
19156 19157 1 0.09450 207108.000000
19158 19159 1 0.09450 207108.000000
19160 19161 1 0.16500 119244.000000
19160 19163 1 0.16500 119244.000000
19161 19162 1 0.09450 207108.000000
19163 19164 1 0.09450 207108.000000
19165 19166 1 0.16500 119244.000000
19165 19168 1 0.16500 119244.000000
19166 19167 1 0.09450 207108.000000
19168 19169 1 0.09450 207108.000000
19170 19171 1 0.16500 119244.000000
19170 19173 1 0.16500 119244.000000
19171 19172 1 0.09450 207108.000000
19173 19174 1 0.09450 207108.000000
19175 19176 1 0.16500 119244.000000
19175 19178 1 0.16500 119244.000000
19176 19177 1 0.09450 207108.000000
19178 19179 1 0.09450 207108.000000
19180 19181 1 0.16500 119244.000000
19180 19183 1 0.16500 119244.000000
19181 19182 1 0.09450 207108.000000
19183 19184 1 0.09450 207108.000000
19185 19186 1 0.16500 119244.000000
19185 19188 1 0.16500 119244.000000
19186 19187 1 0.09450 207108.000000
19188 19189 1 0.09450 207108.000000
19190 19191 1 0.16500 119244.000000
19190 19193 1 0.16500 119244.000000
19191 19192 1 0.09450 207108.000000
19193 19194 1 0.09450 207108.000000

[ pairs ]
; ai aj funct params
17018 17021 1
17018 17022 1
17018 17026 1
17018 17029 1
17019 17023 1
17019 17024 1
17019 17027 1
17020 17025 1
17020 17026 1
17020 17029 1
17021 17023 1
17021 17024 1
17021 17028 1
17022 17027 1
17022 17028 1
17023 17025 1
17023 17026 1
17024 17029 1
17025 17027 1
17025 17028 1
17027 17029 1
17032 17035 1
17032 17036 1
17032 17040 1
17032 17043 1
17033 17037 1
17033 17038 1
17033 17041 1
17034 17039 1
17034 17040 1
17034 17043 1
17035 17037 1
17035 17038 1
17035 17042 1
17036 17041 1
17036 17042 1
17037 17039 1
17037 17040 1
17038 17043 1
17039 17041 1
17039 17042 1
17041 17043 1
17046 17049 1
17046 17050 1
17046 17054 1
17046 17057 1
17047 17051 1
17047 17052 1
17047 17055 1
17048 17053 1
17048 17054 1
17048 17057 1
17049 17051 1
17049 17052 1
17049 17056 1
17050 17055 1
17050 17056 1
17051 17053 1
17051 17054 1
17052 17057 1
17053 17055 1
17053 17056 1
17055 17057 1
17060 17063 1
17060 17064 1
17060 17068 1
17060 17071 1
17061 17065 1
17061 17066 1
17061 17069 1
17062 17067 1
17062 17068 1
17062 17071 1
17063 17065 1
17063 17066 1
17063 17070 1
17064 17069 1
17064 17070 1
17065 17067 1
17065 17068 1
17066 17071 1
17067 17069 1
17067 17070 1
17069 17071 1
17074 17077 1
17074 17078 1
17074 17082 1
17074 17085 1
17075 17079 1
17075 17080 1
17075 17083 1
17076 17081 1
17076 17082 1
17076 17085 1
17077 17079 1
17077 17080 1
17077 17084 1
17078 17083 1
17078 17084 1
17079 17081 1
17079 17082 1
17080 17085 1
17081 17083 1
17081 17084 1
17083 17085 1
17088 17091 1
17088 17092 1
17088 17096 1
17088 17099 1
17089 17093 1
17089 17094 1
17089 17097 1
17090 17095 1
17090 17096 1
17090 17099 1
17091 17093 1
17091 17094 1
17091 17098 1
17092 17097 1
17092 17098 1
17093 17095 1
17093 17096 1
17094 17099 1
17095 17097 1
17095 17098 1
17097 17099 1
17102 17105 1
17102 17106 1
17102 17110 1
17102 17113 1
17103 17107 1
17103 17108 1
17103 17111 1
17104 17109 1
17104 17110 1
17104 17113 1
17105 17107 1
17105 17108 1
17105 17112 1
17106 17111 1
17106 17112 1
17107 17109 1
17107 17110 1
17108 17113 1
17109 17111 1
17109 17112 1
17111 17113 1
17116 17119 1
17116 17120 1
17116 17124 1
17116 17127 1
17117 17121 1
17117 17122 1
17117 17125 1
17118 17123 1
17118 17124 1
17118 17127 1
17119 17121 1
17119 17122 1
17119 17126 1
17120 17125 1
17120 17126 1
17121 17123 1
17121 17124 1
17122 17127 1
17123 17125 1
17123 17126 1
17125 17127 1
17130 17133 1
17130 17134 1
17130 17138 1
17130 17141 1
17131 17135 1
17131 17136 1
17131 17139 1
17132 17137 1
17132 17138 1
17132 17141 1
17133 17135 1
17133 17136 1
17133 17140 1
17134 17139 1
17134 17140 1
17135 17137 1
17135 17138 1
17136 17141 1
17137 17139 1
17137 17140 1
17139 17141 1
17144 17147 1
17144 17148 1
17144 17152 1
17144 17155 1
17145 17149 1
17145 17150 1
17145 17153 1
17146 17151 1
17146 17152 1
17146 17155 1
17147 17149 1
17147 17150 1
17147 17154 1
17148 17153 1
17148 17154 1
17149 17151 1
17149 17152 1
17150 17155 1
17151 17153 1
17151 17154 1
17153 17155 1
17158 17161 1
17158 17162 1
17158 17166 1
17158 17169 1
17159 17163 1
17159 17164 1
17159 17167 1
17160 17165 1
17160 17166 1
17160 17169 1
17161 17163 1
17161 17164 1
17161 17168 1
17162 17167 1
17162 17168 1
17163 17165 1
17163 17166 1
17164 17169 1
17165 17167 1
17165 17168 1
17167 17169 1
17172 17175 1
17172 17176 1
17172 17180 1
17172 17183 1
17173 17177 1
17173 17178 1
17173 17181 1
17174 17179 1
17174 17180 1
17174 17183 1
17175 17177 1
17175 17178 1
17175 17182 1
17176 17181 1
17176 17182 1
17177 17179 1
17177 17180 1
17178 17183 1
17179 17181 1
17179 17182 1
17181 17183 1
17186 17189 1
17186 17190 1
17186 17194 1
17186 17197 1
17187 17191 1
17187 17192 1
17187 17195 1
17188 17193 1
17188 17194 1
17188 17197 1
17189 17191 1
17189 17192 1
17189 17196 1
17190 17195 1
17190 17196 1
17191 17193 1
17191 17194 1
17192 17197 1
17193 17195 1
17193 17196 1
17195 17197 1
17200 17203 1
17200 17204 1
17200 17208 1
17200 17211 1
17201 17205 1
17201 17206 1
17201 17209 1
17202 17207 1
17202 17208 1
17202 17211 1
17203 17205 1
17203 17206 1
17203 17210 1
17204 17209 1
17204 17210 1
17205 17207 1
17205 17208 1
17206 17211 1
17207 17209 1
17207 17210 1
17209 17211 1
17214 17217 1
17214 17218 1
17214 17222 1
17214 17225 1
17215 17219 1
17215 17220 1
17215 17223 1
17216 17221 1
17216 17222 1
17216 17225 1
17217 17219 1
17217 17220 1
17217 17224 1
17218 17223 1
17218 17224 1
17219 17221 1
17219 17222 1
17220 17225 1
17221 17223 1
17221 17224 1
17223 17225 1
17228 17231 1
17228 17232 1
17228 17236 1
17228 17239 1
17229 17233 1
17229 17234 1
17229 17237 1
17230 17235 1
17230 17236 1
17230 17239 1
17231 17233 1
17231 17234 1
17231 17238 1
17232 17237 1
17232 17238 1
17233 17235 1
17233 17236 1
17234 17239 1
17235 17237 1
17235 17238 1
17237 17239 1
17242 17245 1
17242 17246 1
17242 17250 1
17242 17253 1
17243 17247 1
17243 17248 1
17243 17251 1
17244 17249 1
17244 17250 1
17244 17253 1
17245 17247 1
17245 17248 1
17245 17252 1
17246 17251 1
17246 17252 1
17247 17249 1
17247 17250 1
17248 17253 1
17249 17251 1
17249 17252 1
17251 17253 1
17256 17259 1
17256 17260 1
17256 17264 1
17256 17267 1
17257 17261 1
17257 17262 1
17257 17265 1
17258 17263 1
17258 17264 1
17258 17267 1
17259 17261 1
17259 17262 1
17259 17266 1
17260 17265 1
17260 17266 1
17261 17263 1
17261 17264 1
17262 17267 1
17263 17265 1
17263 17266 1
17265 17267 1
17270 17273 1
17270 17274 1
17270 17278 1
17270 17281 1
17271 17275 1
17271 17276 1
17271 17279 1
17272 17277 1
17272 17278 1
17272 17281 1
17273 17275 1
17273 17276 1
17273 17280 1
17274 17279 1
17274 17280 1
17275 17277 1
17275 17278 1
17276 17281 1
17277 17279 1
17277 17280 1
17279 17281 1
17284 17287 1
17284 17288 1
17284 17292 1
17284 17295 1
17285 17289 1
17285 17290 1
17285 17293 1
17286 17291 1
17286 17292 1
17286 17295 1
17287 17289 1
17287 17290 1
17287 17294 1
17288 17293 1
17288 17294 1
17289 17291 1
17289 17292 1
17290 17295 1
17291 17293 1
17291 17294 1
17293 17295 1
17298 17301 1
17298 17302 1
17298 17306 1
17298 17309 1
17299 17303 1
17299 17304 1
17299 17307 1
17300 17305 1
17300 17306 1
17300 17309 1
17301 17303 1
17301 17304 1
17301 17308 1
17302 17307 1
17302 17308 1
17303 17305 1
17303 17306 1
17304 17309 1
17305 17307 1
17305 17308 1
17307 17309 1
17312 17315 1
17312 17316 1
17312 17320 1
17312 17323 1
17313 17317 1
17313 17318 1
17313 17321 1
17314 17319 1
17314 17320 1
17314 17323 1
17315 17317 1
17315 17318 1
17315 17322 1
17316 17321 1
17316 17322 1
17317 17319 1
17317 17320 1
17318 17323 1
17319 17321 1
17319 17322 1
17321 17323 1
17326 17329 1
17326 17330 1
17326 17334 1
17326 17337 1
17327 17331 1
17327 17332 1
17327 17335 1
17328 17333 1
17328 17334 1
17328 17337 1
17329 17331 1
17329 17332 1
17329 17336 1
17330 17335 1
17330 17336 1
17331 17333 1
17331 17334 1
17332 17337 1
17333 17335 1
17333 17336 1
17335 17337 1
17340 17343 1
17340 17344 1
17340 17348 1
17340 17351 1
17341 17345 1
17341 17346 1
17341 17349 1
17342 17347 1
17342 17348 1
17342 17351 1
17343 17345 1
17343 17346 1
17343 17350 1
17344 17349 1
17344 17350 1
17345 17347 1
17345 17348 1
17346 17351 1
17347 17349 1
17347 17350 1
17349 17351 1
17354 17357 1
17354 17358 1
17354 17362 1
17354 17365 1
17355 17359 1
17355 17360 1
17355 17363 1
17356 17361 1
17356 17362 1
17356 17365 1
17357 17359 1
17357 17360 1
17357 17364 1
17358 17363 1
17358 17364 1
17359 17361 1
17359 17362 1
17360 17365 1
17361 17363 1
17361 17364 1
17363 17365 1
17368 17371 1
17368 17372 1
17368 17376 1
17368 17379 1
17369 17373 1
17369 17374 1
17369 17377 1
17370 17375 1
17370 17376 1
17370 17379 1
17371 17373 1
17371 17374 1
17371 17378 1
17372 17377 1
17372 17378 1
17373 17375 1
17373 17376 1
17374 17379 1
17375 17377 1
17375 17378 1
17377 17379 1
17382 17385 1
17382 17386 1
17382 17390 1
17382 17393 1
17383 17387 1
17383 17388 1
17383 17391 1
17384 17389 1
17384 17390 1
17384 17393 1
17385 17387 1
17385 17388 1
17385 17392 1
17386 17391 1
17386 17392 1
17387 17389 1
17387 17390 1
17388 17393 1
17389 17391 1
17389 17392 1
17391 17393 1
17396 17399 1
17396 17400 1
17396 17404 1
17396 17407 1
17397 17401 1
17397 17402 1
17397 17405 1
17398 17403 1
17398 17404 1
17398 17407 1
17399 17401 1
17399 17402 1
17399 17406 1
17400 17405 1
17400 17406 1
17401 17403 1
17401 17404 1
17402 17407 1
17403 17405 1
17403 17406 1
17405 17407 1
17410 17413 1
17410 17414 1
17410 17418 1
17410 17421 1
17411 17415 1
17411 17416 1
17411 17419 1
17412 17417 1
17412 17418 1
17412 17421 1
17413 17415 1
17413 17416 1
17413 17420 1
17414 17419 1
17414 17420 1
17415 17417 1
17415 17418 1
17416 17421 1
17417 17419 1
17417 17420 1
17419 17421 1
17424 17427 1
17424 17428 1
17424 17432 1
17424 17435 1
17425 17429 1
17425 17430 1
17425 17433 1
17426 17431 1
17426 17432 1
17426 17435 1
17427 17429 1
17427 17430 1
17427 17434 1
17428 17433 1
17428 17434 1
17429 17431 1
17429 17432 1
17430 17435 1
17431 17433 1
17431 17434 1
17433 17435 1
17438 17441 1
17438 17442 1
17438 17446 1
17438 17449 1
17439 17443 1
17439 17444 1
17439 17447 1
17440 17445 1
17440 17446 1
17440 17449 1
17441 17443 1
17441 17444 1
17441 17448 1
17442 17447 1
17442 17448 1
17443 17445 1
17443 17446 1
17444 17449 1
17445 17447 1
17445 17448 1
17447 17449 1
17452 17455 1
17452 17456 1
17452 17460 1
17452 17463 1
17453 17457 1
17453 17458 1
17453 17461 1
17454 17459 1
17454 17460 1
17454 17463 1
17455 17457 1
17455 17458 1
17455 17462 1
17456 17461 1
17456 17462 1
17457 17459 1
17457 17460 1
17458 17463 1
17459 17461 1
17459 17462 1
17461 17463 1
17466 17469 1
17466 17470 1
17466 17474 1
17466 17477 1
17467 17471 1
17467 17472 1
17467 17475 1
17468 17473 1
17468 17474 1
17468 17477 1
17469 17471 1
17469 17472 1
17469 17476 1
17470 17475 1
17470 17476 1
17471 17473 1
17471 17474 1
17472 17477 1
17473 17475 1
17473 17476 1
17475 17477 1
17480 17483 1
17480 17484 1
17480 17488 1
17480 17491 1
17481 17485 1
17481 17486 1
17481 17489 1
17482 17487 1
17482 17488 1
17482 17491 1
17483 17485 1
17483 17486 1
17483 17490 1
17484 17489 1
17484 17490 1
17485 17487 1
17485 17488 1
17486 17491 1
17487 17489 1
17487 17490 1
17489 17491 1
17492 17495 1
17492 17496 1
17492 17500 1
17492 17503 1
17493 17497 1
17493 17498 1
17493 17501 1
17494 17499 1
17494 17500 1
17494 17503 1
17495 17497 1
17495 17498 1
17495 17502 1
17496 17501 1
17496 17502 1
17497 17499 1
17497 17500 1
17498 17503 1
17499 17501 1
17499 17502 1
17501 17503 1
17504 17507 1
17504 17508 1
17504 17512 1
17504 17515 1
17505 17509 1
17505 17510 1
17505 17513 1
17506 17511 1
17506 17512 1
17506 17515 1
17507 17509 1
17507 17510 1
17507 17514 1
17508 17513 1
17508 17514 1
17509 17511 1
17509 17512 1
17510 17515 1
17511 17513 1
17511 17514 1
17513 17515 1
17516 17519 1
17516 17520 1
17516 17524 1
17516 17527 1
17517 17521 1
17517 17522 1
17517 17525 1
17518 17523 1
17518 17524 1
17518 17527 1
17519 17521 1
17519 17522 1
17519 17526 1
17520 17525 1
17520 17526 1
17521 17523 1
17521 17524 1
17522 17527 1
17523 17525 1
17523 17526 1
17525 17527 1
17528 17531 1
17528 17532 1
17528 17536 1
17528 17539 1
17529 17533 1
17529 17534 1
17529 17537 1
17530 17535 1
17530 17536 1
17530 17539 1
17531 17533 1
17531 17534 1
17531 17538 1
17532 17537 1
17532 17538 1
17533 17535 1
17533 17536 1
17534 17539 1
17535 17537 1
17535 17538 1
17537 17539 1
17540 17543 1
17540 17544 1
17540 17548 1
17540 17551 1
17541 17545 1
17541 17546 1
17541 17549 1
17542 17547 1
17542 17548 1
17542 17551 1
17543 17545 1
17543 17546 1
17543 17550 1
17544 17549 1
17544 17550 1
17545 17547 1
17545 17548 1
17546 17551 1
17547 17549 1
17547 17550 1
17549 17551 1
17552 17555 1
17552 17556 1
17552 17560 1
17552 17563 1
17553 17557 1
17553 17558 1
17553 17561 1
17554 17559 1
17554 17560 1
17554 17563 1
17555 17557 1
17555 17558 1
17555 17562 1
17556 17561 1
17556 17562 1
17557 17559 1
17557 17560 1
17558 17563 1
17559 17561 1
17559 17562 1
17561 17563 1
17564 17567 1
17564 17568 1
17564 17572 1
17564 17575 1
17565 17569 1
17565 17570 1
17565 17573 1
17566 17571 1
17566 17572 1
17566 17575 1
17567 17569 1
17567 17570 1
17567 17574 1
17568 17573 1
17568 17574 1
17569 17571 1
17569 17572 1
17570 17575 1
17571 17573 1
17571 17574 1
17573 17575 1
17576 17579 1
17576 17580 1
17576 17584 1
17576 17587 1
17577 17581 1
17577 17582 1
17577 17585 1
17578 17583 1
17578 17584 1
17578 17587 1
17579 17581 1
17579 17582 1
17579 17586 1
17580 17585 1
17580 17586 1
17581 17583 1
17581 17584 1
17582 17587 1
17583 17585 1
17583 17586 1
17585 17587 1
17588 17591 1
17588 17592 1
17588 17596 1
17588 17599 1
17589 17593 1
17589 17594 1
17589 17597 1
17590 17595 1
17590 17596 1
17590 17599 1
17591 17593 1
17591 17594 1
17591 17598 1
17592 17597 1
17592 17598 1
17593 17595 1
17593 17596 1
17594 17599 1
17595 17597 1
17595 17598 1
17597 17599 1
17600 17603 1
17600 17604 1
17600 17608 1
17600 17611 1
17601 17605 1
17601 17606 1
17601 17609 1
17602 17607 1
17602 17608 1
17602 17611 1
17603 17605 1
17603 17606 1
17603 17610 1
17604 17609 1
17604 17610 1
17605 17607 1
17605 17608 1
17606 17611 1
17607 17609 1
17607 17610 1
17609 17611 1
17612 17615 1
17612 17616 1
17612 17620 1
17612 17623 1
17613 17617 1
17613 17618 1
17613 17621 1
17614 17619 1
17614 17620 1
17614 17623 1
17615 17617 1
17615 17618 1
17615 17622 1
17616 17621 1
17616 17622 1
17617 17619 1
17617 17620 1
17618 17623 1
17619 17621 1
17619 17622 1
17621 17623 1
17624 17627 1
17624 17628 1
17624 17632 1
17624 17635 1
17625 17629 1
17625 17630 1
17625 17633 1
17626 17631 1
17626 17632 1
17626 17635 1
17627 17629 1
17627 17630 1
17627 17634 1
17628 17633 1
17628 17634 1
17629 17631 1
17629 17632 1
17630 17635 1
17631 17633 1
17631 17634 1
17633 17635 1
17636 17639 1
17636 17640 1
17636 17644 1
17636 17647 1
17637 17641 1
17637 17642 1
17637 17645 1
17638 17643 1
17638 17644 1
17638 17647 1
17639 17641 1
17639 17642 1
17639 17646 1
17640 17645 1
17640 17646 1
17641 17643 1
17641 17644 1
17642 17647 1
17643 17645 1
17643 17646 1
17645 17647 1
17648 17651 1
17648 17652 1
17648 17656 1
17648 17659 1
17649 17653 1
17649 17654 1
17649 17657 1
17650 17655 1
17650 17656 1
17650 17659 1
17651 17653 1
17651 17654 1
17651 17658 1
17652 17657 1
17652 17658 1
17653 17655 1
17653 17656 1
17654 17659 1
17655 17657 1
17655 17658 1
17657 17659 1
17660 17663 1
17660 17664 1
17660 17668 1
17660 17671 1
17661 17665 1
17661 17666 1
17661 17669 1
17662 17667 1
17662 17668 1
17662 17671 1
17663 17665 1
17663 17666 1
17663 17670 1
17664 17669 1
17664 17670 1
17665 17667 1
17665 17668 1
17666 17671 1
17667 17669 1
17667 17670 1
17669 17671 1
17672 17675 1
17672 17676 1
17672 17680 1
17672 17683 1
17673 17677 1
17673 17678 1
17673 17681 1
17674 17679 1
17674 17680 1
17674 17683 1
17675 17677 1
17675 17678 1
17675 17682 1
17676 17681 1
17676 17682 1
17677 17679 1
17677 17680 1
17678 17683 1
17679 17681 1
17679 17682 1
17681 17683 1
17684 17687 1
17684 17688 1
17684 17692 1
17684 17695 1
17685 17689 1
17685 17690 1
17685 17693 1
17686 17691 1
17686 17692 1
17686 17695 1
17687 17689 1
17687 17690 1
17687 17694 1
17688 17693 1
17688 17694 1
17689 17691 1
17689 17692 1
17690 17695 1
17691 17693 1
17691 17694 1
17693 17695 1
17696 17699 1
17696 17700 1
17696 17704 1
17696 17707 1
17697 17701 1
17697 17702 1
17697 17705 1
17698 17703 1
17698 17704 1
17698 17707 1
17699 17701 1
17699 17702 1
17699 17706 1
17700 17705 1
17700 17706 1
17701 17703 1
17701 17704 1
17702 17707 1
17703 17705 1
17703 17706 1
17705 17707 1
17708 17711 1
17708 17712 1
17708 17716 1
17708 17719 1
17709 17713 1
17709 17714 1
17709 17717 1
17710 17715 1
17710 17716 1
17710 17719 1
17711 17713 1
17711 17714 1
17711 17718 1
17712 17717 1
17712 17718 1
17713 17715 1
17713 17716 1
17714 17719 1
17715 17717 1
17715 17718 1
17717 17719 1
17720 17723 1
17720 17724 1
17720 17728 1
17720 17731 1
17721 17725 1
17721 17726 1
17721 17729 1
17722 17727 1
17722 17728 1
17722 17731 1
17723 17725 1
17723 17726 1
17723 17730 1
17724 17729 1
17724 17730 1
17725 17727 1
17725 17728 1
17726 17731 1
17727 17729 1
17727 17730 1
17729 17731 1
17732 17735 1
17732 17736 1
17732 17740 1
17732 17743 1
17733 17737 1
17733 17738 1
17733 17741 1
17734 17739 1
17734 17740 1
17734 17743 1
17735 17737 1
17735 17738 1
17735 17742 1
17736 17741 1
17736 17742 1
17737 17739 1
17737 17740 1
17738 17743 1
17739 17741 1
17739 17742 1
17741 17743 1
17744 17747 1
17744 17748 1
17744 17752 1
17744 17755 1
17745 17749 1
17745 17750 1
17745 17753 1
17746 17751 1
17746 17752 1
17746 17755 1
17747 17749 1
17747 17750 1
17747 17754 1
17748 17753 1
17748 17754 1
17749 17751 1
17749 17752 1
17750 17755 1
17751 17753 1
17751 17754 1
17753 17755 1
17756 17759 1
17756 17760 1
17756 17764 1
17756 17767 1
17757 17761 1
17757 17762 1
17757 17765 1
17758 17763 1
17758 17764 1
17758 17767 1
17759 17761 1
17759 17762 1
17759 17766 1
17760 17765 1
17760 17766 1
17761 17763 1
17761 17764 1
17762 17767 1
17763 17765 1
17763 17766 1
17765 17767 1
17768 17771 1
17768 17772 1
17768 17776 1
17768 17779 1
17769 17773 1
17769 17774 1
17769 17777 1
17770 17775 1
17770 17776 1
17770 17779 1
17771 17773 1
17771 17774 1
17771 17778 1
17772 17777 1
17772 17778 1
17773 17775 1
17773 17776 1
17774 17779 1
17775 17777 1
17775 17778 1
17777 17779 1
17780 17783 1
17780 17784 1
17780 17788 1
17780 17791 1
17781 17785 1
17781 17786 1
17781 17789 1
17782 17787 1
17782 17788 1
17782 17791 1
17783 17785 1
17783 17786 1
17783 17790 1
17784 17789 1
17784 17790 1
17785 17787 1
17785 17788 1
17786 17791 1
17787 17789 1
17787 17790 1
17789 17791 1
17792 17795 1
17792 17796 1
17792 17800 1
17792 17803 1
17793 17797 1
17793 17798 1
17793 17801 1
17794 17799 1
17794 17800 1
17794 17803 1
17795 17797 1
17795 17798 1
17795 17802 1
17796 17801 1
17796 17802 1
17797 17799 1
17797 17800 1
17798 17803 1
17799 17801 1
17799 17802 1
17801 17803 1
17804 17807 1
17804 17808 1
17804 17812 1
17804 17815 1
17805 17809 1
17805 17810 1
17805 17813 1
17806 17811 1
17806 17812 1
17806 17815 1
17807 17809 1
17807 17810 1
17807 17814 1
17808 17813 1
17808 17814 1
17809 17811 1
17809 17812 1
17810 17815 1
17811 17813 1
17811 17814 1
17813 17815 1
17816 17819 1
17816 17820 1
17816 17824 1
17816 17827 1
17817 17821 1
17817 17822 1
17817 17825 1
17818 17823 1
17818 17824 1
17818 17827 1
17819 17821 1
17819 17822 1
17819 17826 1
17820 17825 1
17820 17826 1
17821 17823 1
17821 17824 1
17822 17827 1
17823 17825 1
17823 17826 1
17825 17827 1
17828 17831 1
17828 17832 1
17828 17836 1
17828 17839 1
17829 17833 1
17829 17834 1
17829 17837 1
17830 17835 1
17830 17836 1
17830 17839 1
17831 17833 1
17831 17834 1
17831 17838 1
17832 17837 1
17832 17838 1
17833 17835 1
17833 17836 1
17834 17839 1
17835 17837 1
17835 17838 1
17837 17839 1
17840 17843 1
17840 17844 1
17840 17848 1
17840 17851 1
17841 17845 1
17841 17846 1
17841 17849 1
17842 17847 1
17842 17848 1
17842 17851 1
17843 17845 1
17843 17846 1
17843 17850 1
17844 17849 1
17844 17850 1
17845 17847 1
17845 17848 1
17846 17851 1
17847 17849 1
17847 17850 1
17849 17851 1
17852 17855 1
17852 17856 1
17852 17860 1
17852 17863 1
17853 17857 1
17853 17858 1
17853 17861 1
17854 17859 1
17854 17860 1
17854 17863 1
17855 17857 1
17855 17858 1
17855 17862 1
17856 17861 1
17856 17862 1
17857 17859 1
17857 17860 1
17858 17863 1
17859 17861 1
17859 17862 1
17861 17863 1
17864 17867 1
17864 17868 1
17864 17872 1
17864 17875 1
17865 17869 1
17865 17870 1
17865 17873 1
17866 17871 1
17866 17872 1
17866 17875 1
17867 17869 1
17867 17870 1
17867 17874 1
17868 17873 1
17868 17874 1
17869 17871 1
17869 17872 1
17870 17875 1
17871 17873 1
17871 17874 1
17873 17875 1
17876 17879 1
17876 17880 1
17876 17884 1
17876 17887 1
17877 17881 1
17877 17882 1
17877 17885 1
17878 17883 1
17878 17884 1
17878 17887 1
17879 17881 1
17879 17882 1
17879 17886 1
17880 17885 1
17880 17886 1
17881 17883 1
17881 17884 1
17882 17887 1
17883 17885 1
17883 17886 1
17885 17887 1
17888 17891 1
17888 17892 1
17888 17896 1
17888 17899 1
17889 17893 1
17889 17894 1
17889 17897 1
17890 17895 1
17890 17896 1
17890 17899 1
17891 17893 1
17891 17894 1
17891 17898 1
17892 17897 1
17892 17898 1
17893 17895 1
17893 17896 1
17894 17899 1
17895 17897 1
17895 17898 1
17897 17899 1
17900 17903 1
17900 17904 1
17900 17908 1
17900 17911 1
17901 17905 1
17901 17906 1
17901 17909 1
17902 17907 1
17902 17908 1
17902 17911 1
17903 17905 1
17903 17906 1
17903 17910 1
17904 17909 1
17904 17910 1
17905 17907 1
17905 17908 1
17906 17911 1
17907 17909 1
17907 17910 1
17909 17911 1
17912 17915 1
17912 17916 1
17912 17920 1
17912 17923 1
17913 17917 1
17913 17918 1
17913 17921 1
17914 17919 1
17914 17920 1
17914 17923 1
17915 17917 1
17915 17918 1
17915 17922 1
17916 17921 1
17916 17922 1
17917 17919 1
17917 17920 1
17918 17923 1
17919 17921 1
17919 17922 1
17921 17923 1
17924 17927 1
17924 17928 1
17924 17932 1
17924 17935 1
17925 17929 1
17925 17930 1
17925 17933 1
17926 17931 1
17926 17932 1
17926 17935 1
17927 17929 1
17927 17930 1
17927 17934 1
17928 17933 1
17928 17934 1
17929 17931 1
17929 17932 1
17930 17935 1
17931 17933 1
17931 17934 1
17933 17935 1
17936 17939 1
17936 17940 1
17936 17944 1
17936 17947 1
17937 17941 1
17937 17942 1
17937 17945 1
17938 17943 1
17938 17944 1
17938 17947 1
17939 17941 1
17939 17942 1
17939 17946 1
17940 17945 1
17940 17946 1
17941 17943 1
17941 17944 1
17942 17947 1
17943 17945 1
17943 17946 1
17945 17947 1
17948 17951 1
17948 17952 1
17948 17956 1
17948 17959 1
17949 17953 1
17949 17954 1
17949 17957 1
17950 17955 1
17950 17956 1
17950 17959 1
17951 17953 1
17951 17954 1
17951 17958 1
17952 17957 1
17952 17958 1
17953 17955 1
17953 17956 1
17954 17959 1
17955 17957 1
17955 17958 1
17957 17959 1
17960 17963 1
17960 17964 1
17960 17968 1
17960 17971 1
17961 17965 1
17961 17966 1
17961 17969 1
17962 17967 1
17962 17968 1
17962 17971 1
17963 17965 1
17963 17966 1
17963 17970 1
17964 17969 1
17964 17970 1
17965 17967 1
17965 17968 1
17966 17971 1
17967 17969 1
17967 17970 1
17969 17971 1
17972 17975 1
17972 17976 1
17972 17980 1
17972 17983 1
17973 17977 1
17973 17978 1
17973 17981 1
17974 17979 1
17974 17980 1
17974 17983 1
17975 17977 1
17975 17978 1
17975 17982 1
17976 17981 1
17976 17982 1
17977 17979 1
17977 17980 1
17978 17983 1
17979 17981 1
17979 17982 1
17981 17983 1
17984 17987 1
17984 17988 1
17984 17992 1
17984 17995 1
17985 17989 1
17985 17990 1
17985 17993 1
17986 17991 1
17986 17992 1
17986 17995 1
17987 17989 1
17987 17990 1
17987 17994 1
17988 17993 1
17988 17994 1
17989 17991 1
17989 17992 1
17990 17995 1
17991 17993 1
17991 17994 1
17993 17995 1
17996 17999 1
17996 18000 1
17996 18004 1
17996 18007 1
17997 18001 1
17997 18002 1
17997 18005 1
17998 18003 1
17998 18004 1
17998 18007 1
17999 18001 1
17999 18002 1
17999 18006 1
18000 18005 1
18000 18006 1
18001 18003 1
18001 18004 1
18002 18007 1
18003 18005 1
18003 18006 1
18005 18007 1
18008 18011 1
18008 18012 1
18008 18016 1
18008 18019 1
18009 18013 1
18009 18014 1
18009 18017 1
18010 18015 1
18010 18016 1
18010 18019 1
18011 18013 1
18011 18014 1
18011 18018 1
18012 18017 1
18012 18018 1
18013 18015 1
18013 18016 1
18014 18019 1
18015 18017 1
18015 18018 1
18017 18019 1
18020 18023 1
18020 18024 1
18020 18028 1
18020 18031 1
18021 18025 1
18021 18026 1
18021 18029 1
18022 18027 1
18022 18028 1
18022 18031 1
18023 18025 1
18023 18026 1
18023 18030 1
18024 18029 1
18024 18030 1
18025 18027 1
18025 18028 1
18026 18031 1
18027 18029 1
18027 18030 1
18029 18031 1
18032 18035 1
18032 18036 1
18032 18040 1
18032 18043 1
18033 18037 1
18033 18038 1
18033 18041 1
18034 18039 1
18034 18040 1
18034 18043 1
18035 18037 1
18035 18038 1
18035 18042 1
18036 18041 1
18036 18042 1
18037 18039 1
18037 18040 1
18038 18043 1
18039 18041 1
18039 18042 1
18041 18043 1
18044 18047 1
18044 18048 1
18044 18052 1
18044 18055 1
18045 18049 1
18045 18050 1
18045 18053 1
18046 18051 1
18046 18052 1
18046 18055 1
18047 18049 1
18047 18050 1
18047 18054 1
18048 18053 1
18048 18054 1
18049 18051 1
18049 18052 1
18050 18055 1
18051 18053 1
18051 18054 1
18053 18055 1
18056 18059 1
18056 18060 1
18056 18064 1
18056 18067 1
18057 18061 1
18057 18062 1
18057 18065 1
18058 18063 1
18058 18064 1
18058 18067 1
18059 18061 1
18059 18062 1
18059 18066 1
18060 18065 1
18060 18066 1
18061 18063 1
18061 18064 1
18062 18067 1
18063 18065 1
18063 18066 1
18065 18067 1
18068 18071 1
18068 18072 1
18068 18076 1
18068 18079 1
18069 18073 1
18069 18074 1
18069 18077 1
18070 18075 1
18070 18076 1
18070 18079 1
18071 18073 1
18071 18074 1
18071 18078 1
18072 18077 1
18072 18078 1
18073 18075 1
18073 18076 1
18074 18079 1
18075 18077 1
18075 18078 1
18077 18079 1
18080 18083 1
18080 18084 1
18080 18088 1
18080 18091 1
18081 18085 1
18081 18086 1
18081 18089 1
18082 18087 1
18082 18088 1
18082 18091 1
18083 18085 1
18083 18086 1
18083 18090 1
18084 18089 1
18084 18090 1
18085 18087 1
18085 18088 1
18086 18091 1
18087 18089 1
18087 18090 1
18089 18091 1
18092 18095 1
18092 18096 1
18092 18100 1
18092 18103 1
18093 18097 1
18093 18098 1
18093 18101 1
18094 18099 1
18094 18100 1
18094 18103 1
18095 18097 1
18095 18098 1
18095 18102 1
18096 18101 1
18096 18102 1
18097 18099 1
18097 18100 1
18098 18103 1
18099 18101 1
18099 18102 1
18101 18103 1
18104 18107 1
18104 18108 1
18104 18112 1
18104 18115 1
18105 18109 1
18105 18110 1
18105 18113 1
18106 18111 1
18106 18112 1
18106 18115 1
18107 18109 1
18107 18110 1
18107 18114 1
18108 18113 1
18108 18114 1
18109 18111 1
18109 18112 1
18110 18115 1
18111 18113 1
18111 18114 1
18113 18115 1
18116 18119 1
18116 18120 1
18116 18124 1
18116 18127 1
18117 18121 1
18117 18122 1
18117 18125 1
18118 18123 1
18118 18124 1
18118 18127 1
18119 18121 1
18119 18122 1
18119 18126 1
18120 18125 1
18120 18126 1
18121 18123 1
18121 18124 1
18122 18127 1
18123 18125 1
18123 18126 1
18125 18127 1
18128 18131 1
18128 18132 1
18128 18136 1
18128 18139 1
18129 18133 1
18129 18134 1
18129 18137 1
18130 18135 1
18130 18136 1
18130 18139 1
18131 18133 1
18131 18134 1
18131 18138 1
18132 18137 1
18132 18138 1
18133 18135 1
18133 18136 1
18134 18139 1
18135 18137 1
18135 18138 1
18137 18139 1
18140 18143 1
18140 18144 1
18140 18148 1
18140 18151 1
18141 18145 1
18141 18146 1
18141 18149 1
18142 18147 1
18142 18148 1
18142 18151 1
18143 18145 1
18143 18146 1
18143 18150 1
18144 18149 1
18144 18150 1
18145 18147 1
18145 18148 1
18146 18151 1
18147 18149 1
18147 18150 1
18149 18151 1
18152 18155 1
18152 18156 1
18152 18160 1
18152 18163 1
18153 18157 1
18153 18158 1
18153 18161 1
18154 18159 1
18154 18160 1
18154 18163 1
18155 18157 1
18155 18158 1
18155 18162 1
18156 18161 1
18156 18162 1
18157 18159 1
18157 18160 1
18158 18163 1
18159 18161 1
18159 18162 1
18161 18163 1
18164 18167 1
18164 18168 1
18164 18172 1
18164 18175 1
18165 18169 1
18165 18170 1
18165 18173 1
18166 18171 1
18166 18172 1
18166 18175 1
18167 18169 1
18167 18170 1
18167 18174 1
18168 18173 1
18168 18174 1
18169 18171 1
18169 18172 1
18170 18175 1
18171 18173 1
18171 18174 1
18173 18175 1
18176 18179 1
18176 18180 1
18176 18184 1
18176 18187 1
18177 18181 1
18177 18182 1
18177 18185 1
18178 18183 1
18178 18184 1
18178 18187 1
18179 18181 1
18179 18182 1
18179 18186 1
18180 18185 1
18180 18186 1
18181 18183 1
18181 18184 1
18182 18187 1
18183 18185 1
18183 18186 1
18185 18187 1
18188 18191 1
18188 18192 1
18188 18196 1
18188 18199 1
18189 18193 1
18189 18194 1
18189 18197 1
18190 18195 1
18190 18196 1
18190 18199 1
18191 18193 1
18191 18194 1
18191 18198 1
18192 18197 1
18192 18198 1
18193 18195 1
18193 18196 1
18194 18199 1
18195 18197 1
18195 18198 1
18197 18199 1
18200 18203 1
18200 18204 1
18200 18208 1
18200 18211 1
18201 18205 1
18201 18206 1
18201 18209 1
18202 18207 1
18202 18208 1
18202 18211 1
18203 18205 1
18203 18206 1
18203 18210 1
18204 18209 1
18204 18210 1
18205 18207 1
18205 18208 1
18206 18211 1
18207 18209 1
18207 18210 1
18209 18211 1

[ angles ]
; ai aj ak funct params
11540 1 15223 1 149.00000 418.400000
11540 2 15948 1 149.00000 418.400000
11540 3 16145 1 149.00000 418.400000
11540 4 11886 1 149.00000 418.400000
11671 5 18212 1 149.00000 418.400000
18011 6 18212 1 149.00000 418.400000
11541 7 16064 1 149.00000 418.400000
11541 8 16927 1 149.00000 418.400000
11541 9 11942 1 149.00000 418.400000
11541 10 12635 1 149.00000 418.400000
11542 11 12452 1 149.00000 418.400000
11542 12 12786 1 149.00000 418.400000
11542 13 13852 1 149.00000 418.400000
11543 14 11576 1 149.00000 418.400000
11543 15 13780 1 149.00000 418.400000
11543 16 14054 1 149.00000 418.400000
11543 17 12719 1 149.00000 418.400000
12543 18 15510 1 149.00000 418.400000
11544 19 15697 1 149.00000 418.400000
11544 20 14434 1 149.00000 418.400000
11544 21 14350 1 149.00000 418.400000
11545 22 15495 1 149.00000 418.400000
11545 23 16502 1 149.00000 418.400000
11545 24 19125 1 149.00000 418.400000
11545 25 13028 1 149.00000 418.400000
11546 26 12447 1 149.00000 418.400000
11546 27 14097 1 149.00000 418.400000
11546 28 15329 1 149.00000 418.400000
11546 29 16798 1 149.00000 418.400000
13569 30 18215 1 149.00000 418.400000
15732 31 18215 1 149.00000 418.400000
14124 32 18215 1 149.00000 418.400000
11547 33 14469 1 149.00000 418.400000
11547 34 15860 1 149.00000 418.400000
11547 35 12962 1 149.00000 418.400000
11547 36 15513 1 149.00000 418.400000
11548 37 14419 1 149.00000 418.400000
11548 38 13738 1 149.00000 418.400000
11548 39 12882 1 149.00000 418.400000
11548 40 14304 1 149.00000 418.400000
11549 41 15487 1 149.00000 418.400000
11549 42 14814 1 149.00000 418.400000
11549 43 16195 1 149.00000 418.400000
11549 44 16580 1 149.00000 418.400000
11550 45 15609 1 149.00000 418.400000
11550 46 18719 1 149.00000 418.400000
11550 47 14498 1 149.00000 418.400000
11550 48 16016 1 149.00000 418.400000
11551 49 14800 1 149.00000 418.400000
11551 50 15152 1 149.00000 418.400000
11551 51 14208 1 149.00000 418.400000
11551 52 12384 1 149.00000 418.400000
11552 53 14280 1 149.00000 418.400000
11552 54 12857 1 149.00000 418.400000
11552 55 16128 1 149.00000 418.400000
11552 56 12460 1 149.00000 418.400000
11553 57 14308 1 149.00000 418.400000
11553 58 14132 1 149.00000 418.400000
11553 59 12002 1 149.00000 418.400000
11553 60 15676 1 149.00000 418.400000
11554 61 14550 1 149.00000 418.400000
11554 62 12639 1 149.00000 418.400000
11554 63 11579 1 149.00000 418.400000
11554 64 12362 1 149.00000 418.400000
11732 65 18155 1 149.00000 418.400000
16342 66 18155 1 149.00000 418.400000
16391 67 18155 1 149.00000 418.400000
16957 68 18218 1 149.00000 418.400000
15260 69 18218 1 149.00000 418.400000
11555 70 15556 1 149.00000 418.400000
11555 71 14083 1 149.00000 418.400000
11555 72 16704 1 149.00000 418.400000
11555 73 16272 1 149.00000 418.400000
11556 74 18767 1 149.00000 418.400000
11556 75 14601 1 149.00000 418.400000
11556 76 16118 1 149.00000 418.400000
11556 77 16984 1 149.00000 418.400000
11557 78 12641 1 149.00000 418.400000
11557 79 11955 1 149.00000 418.400000
11557 80 15439 1 149.00000 418.400000
11557 81 14971 1 149.00000 418.400000
11558 82 14053 1 149.00000 418.400000
11558 83 16987 1 149.00000 418.400000
11558 84 14990 1 149.00000 418.400000
11558 85 16834 1 149.00000 418.400000
13797 86 13826 1 149.00000 418.400000
11559 87 13403 1 149.00000 418.400000
11559 88 13826 1 149.00000 418.400000
11559 89 16122 1 149.00000 418.400000
11560 90 15799 1 149.00000 418.400000
11560 91 16234 1 149.00000 418.400000
11560 92 15803 1 149.00000 418.400000
11561 93 14016 1 149.00000 418.400000
11561 94 13757 1 149.00000 418.400000
11561 95 16545 1 149.00000 418.400000
11561 96 12833 1 149.00000 418.400000
11562 97 15842 1 149.00000 418.400000
11562 98 13188 1 149.00000 418.400000
11562 99 14123 1 149.00000 418.400000
11562 100 16409 1 149.00000 418.400000
11563 101 11816 1 149.00000 418.400000
11563 102 14222 1 149.00000 418.400000
11563 103 12607 1 149.00000 418.400000
11563 104 16554 1 149.00000 418.400000
11564 105 12289 1 149.00000 418.400000
11564 106 16935 1 149.00000 418.400000
11564 107 16304 1 149.00000 418.400000
11564 108 16557 1 149.00000 418.400000
11565 109 14958 1 149.00000 418.400000
11565 110 16477 1 149.00000 418.400000
11565 111 13768 1 149.00000 418.400000
11565 112 16169 1 149.00000 418.400000
11566 113 11945 1 149.00000 418.400000
11566 114 12736 1 149.00000 418.400000
11566 115 16464 1 149.00000 418.400000
11566 116 12006 1 149.00000 418.400000
11567 117 14618 1 149.00000 418.400000
11567 118 12003 1 149.00000 418.400000
11567 119 15426 1 149.00000 418.400000
11567 120 12806 1 149.00000 418.400000
16957 121 18221 1 149.00000 418.400000
16899 122 18221 1 149.00000 418.400000
11664 123 18224 1 149.00000 418.400000
16867 124 18224 1 149.00000 418.400000
18224 125 18374 1 149.00000 418.400000
11568 126 12011 1 149.00000 418.400000
11568 127 11570 1 149.00000 418.400000
11568 128 12018 1 149.00000 418.400000
11568 129 11906 1 149.00000 418.400000
11569 130 13053 1 149.00000 418.400000
11569 131 13984 1 149.00000 418.400000
11569 132 13899 1 149.00000 418.400000
11569 133 15899 1 149.00000 418.400000
11570 134 13443 1 149.00000 418.400000
11570 135 13743 1 149.00000 418.400000
11570 136 15544 1 149.00000 418.400000
11571 137 18248 1 149.00000 418.400000
11571 138 15531 1 149.00000 418.400000
11571 139 12405 1 149.00000 418.400000
11572 140 12812 1 149.00000 418.400000
11572 141 13945 1 149.00000 418.400000
11572 142 12138 1 149.00000 418.400000
11572 143 12037 1 149.00000 418.400000
11573 144 15527 1 149.00000 418.400000
11573 145 12886 1 149.00000 418.400000
11573 146 12414 1 149.00000 418.400000
11573 147 19105 1 149.00000 418.400000
14100 148 15335 1 149.00000 418.400000
11574 149 15126 1 149.00000 418.400000
11574 150 15335 1 149.00000 418.400000
11574 151 11828 1 149.00000 418.400000
11575 152 14883 1 149.00000 418.400000
11575 153 11966 1 149.00000 418.400000
11575 154 15006 1 149.00000 418.400000
11575 155 12024 1 149.00000 418.400000
11576 156 12303 1 149.00000 418.400000
11576 157 13686 1 149.00000 418.400000
11576 158 14309 1 149.00000 418.400000
13810 159 13935 1 149.00000 418.400000
11577 160 11857 1 149.00000 418.400000
11577 161 12897 1 149.00000 418.400000
11577 162 15484 1 149.00000 418.400000
11578 163 13440 1 149.00000 418.400000
11578 164 13672 1 149.00000 418.400000
11578 165 16488 1 149.00000 418.400000
11578 166 14951 1 149.00000 418.400000
11579 167 13946 1 149.00000 418.400000
11579 168 12655 1 149.00000 418.400000
11579 169 14380 1 149.00000 418.400000
11580 170 16557 1 149.00000 418.400000
11580 171 12263 1 149.00000 418.400000
11580 172 13663 1 149.00000 418.400000
11580 173 15914 1 149.00000 418.400000
11581 174 18593 1 149.00000 418.400000
11581 175 15390 1 149.00000 418.400000
11581 176 11714 1 149.00000 418.400000
11581 177 17007 1 149.00000 418.400000
11582 178 17371 1 149.00000 418.400000
11582 179 16519 1 149.00000 418.400000
11583 180 12920 1 149.00000 418.400000
11583 181 14080 1 149.00000 418.400000
11583 182 16392 1 149.00000 418.400000
11583 183 16459 1 149.00000 418.400000
11584 184 14749 1 149.00000 418.400000
11584 185 13524 1 149.00000 418.400000
11584 186 12820 1 149.00000 418.400000
11584 187 14025 1 149.00000 418.400000
11585 188 16034 1 149.00000 418.400000
11585 189 13922 1 149.00000 418.400000
11585 190 15696 1 149.00000 418.400000
11585 191 12272 1 149.00000 418.400000
14359 192 17939 1 149.00000 418.400000
11586 193 13209 1 149.00000 418.400000
11586 194 15012 1 149.00000 418.400000
11586 195 14835 1 149.00000 418.400000
11586 196 12667 1 149.00000 418.400000
11587 197 16735 1 149.00000 418.400000
11587 198 14234 1 149.00000 418.400000
11587 199 14522 1 149.00000 418.400000
11587 200 12586 1 149.00000 418.400000
11588 201 15583 1 149.00000 418.400000
11588 202 15366 1 149.00000 418.400000
11588 203 13532 1 149.00000 418.400000
12681 204 15366 1 149.00000 418.400000
14968 205 17441 1 149.00000 418.400000
11589 206 16266 1 149.00000 418.400000
11589 207 14968 1 149.00000 418.400000
11589 208 11939 1 149.00000 418.400000
11590 209 13203 1 149.00000 418.400000
11590 210 16913 1 149.00000 418.400000
11590 211 16074 1 149.00000 418.400000
11590 212 16726 1 149.00000 418.400000
13305 213 16898 1 149.00000 418.400000
11591 214 13305 1 149.00000 418.400000
11591 215 14483 1 149.00000 418.400000
11591 216 13466 1 149.00000 418.400000
11592 217 14498 1 149.00000 418.400000
11592 218 15838 1 149.00000 418.400000
11592 219 12481 1 149.00000 418.400000
11592 220 16021 1 149.00000 418.400000
18095 221 18227 1 149.00000 418.400000
13285 222 18227 1 149.00000 418.400000
16739 223 18227 1 149.00000 418.400000
11593 224 16891 1 149.00000 418.400000
11593 225 14094 1 149.00000 418.400000
11593 226 11943 1 149.00000 418.400000
11593 227 16764 1 149.00000 418.400000
11594 228 13662 1 149.00000 418.400000
11594 229 14282 1 149.00000 418.400000
11594 230 12200 1 149.00000 418.400000
11594 231 16418 1 149.00000 418.400000
18131 232 18230 1 149.00000 418.400000
16508 233 18230 1 149.00000 418.400000
15496 234 18230 1 149.00000 418.400000
14339 235 16637 1 149.00000 418.400000
14339 236 14810 1 149.00000 418.400000
11595 237 14339 1 149.00000 418.400000
13492 238 14339 1 149.00000 418.400000
11596 239 16018 1 149.00000 418.400000
11596 240 16176 1 149.00000 418.400000
11596 241 15358 1 149.00000 418.400000
16359 242 18083 1 149.00000 418.400000
13699 243 18083 1 149.00000 418.400000
15172 244 18083 1 149.00000 418.400000
17119 245 19046 1 149.00000 418.400000
11597 246 13088 1 149.00000 418.400000
11597 247 16850 1 149.00000 418.400000
11597 248 13140 1 149.00000 418.400000
11597 249 11674 1 149.00000 418.400000
11974 250 13878 1 149.00000 418.400000
11598 251 15450 1 149.00000 418.400000
11598 252 14517 1 149.00000 418.400000
11598 253 13878 1 149.00000 418.400000
12075 254 18233 1 149.00000 418.400000
12058 255 18233 1 149.00000 418.400000
11599 256 14272 1 149.00000 418.400000
11599 257 14064 1 149.00000 418.400000
11599 258 15105 1 149.00000 418.400000
11599 259 14338 1 149.00000 418.400000
11600 260 12173 1 149.00000 418.400000
11600 261 12291 1 149.00000 418.400000
11600 262 18983 1 149.00000 418.400000
11600 263 11614 1 149.00000 418.400000
11601 264 16351 1 149.00000 418.400000
11601 265 14751 1 149.00000 418.400000
11601 266 16959 1 149.00000 418.400000
11601 267 12478 1 149.00000 418.400000
11602 268 13043 1 149.00000 418.400000
11602 269 13182 1 149.00000 418.400000
11602 270 15958 1 149.00000 418.400000
11602 271 11641 1 149.00000 418.400000
11603 272 18995 1 149.00000 418.400000
11603 273 14374 1 149.00000 418.400000
11603 274 18464 1 149.00000 418.400000
11604 275 15057 1 149.00000 418.400000
11604 276 15963 1 149.00000 418.400000
11604 277 12361 1 149.00000 418.400000
11604 278 14749 1 149.00000 418.400000
11605 279 13682 1 149.00000 418.400000
11605 280 12185 1 149.00000 418.400000
11605 281 15642 1 149.00000 418.400000
11605 282 14202 1 149.00000 418.400000
11606 283 15170 1 149.00000 418.400000
11606 284 13308 1 149.00000 418.400000
11606 285 17927 1 149.00000 418.400000
11607 286 12497 1 149.00000 418.400000
11607 287 13298 1 149.00000 418.400000
11607 288 14836 1 149.00000 418.400000
11607 289 11616 1 149.00000 418.400000
11608 290 12066 1 149.00000 418.400000
11608 291 12425 1 149.00000 418.400000
11608 292 11694 1 149.00000 418.400000
12066 293 12984 1 149.00000 418.400000
11609 294 14908 1 149.00000 418.400000
11609 295 16374 1 149.00000 418.400000
11609 296 13755 1 149.00000 418.400000
13755 297 14093 1 149.00000 418.400000
11610 298 15738 1 149.00000 418.400000
11610 299 15873 1 149.00000 418.400000
11610 300 12287 1 149.00000 418.400000
11610 301 12270 1 149.00000 418.400000
11611 302 14742 1 149.00000 418.400000
11611 303 12346 1 149.00000 418.400000
11611 304 14551 1 149.00000 418.400000
11611 305 15959 1 149.00000 418.400000
11612 306 14738 1 149.00000 418.400000
11612 307 13323 1 149.00000 418.400000
11612 308 14875 1 149.00000 418.400000
11612 309 19022 1 149.00000 418.400000
11613 310 12768 1 149.00000 418.400000
11613 311 11878 1 149.00000 418.400000
11613 312 15653 1 149.00000 418.400000
11613 313 16922 1 149.00000 418.400000
11614 314 18806 1 149.00000 418.400000
11614 315 13069 1 149.00000 418.400000
11615 316 11843 1 149.00000 418.400000
11615 317 13009 1 149.00000 418.400000
11615 318 14466 1 149.00000 418.400000
11615 319 16139 1 149.00000 418.400000
12143 320 16281 1 149.00000 418.400000
11616 321 15639 1 149.00000 418.400000
11616 322 12272 1 149.00000 418.400000
11616 323 16587 1 149.00000 418.400000
11617 324 15400 1 149.00000 418.400000
11617 325 14497 1 149.00000 418.400000
11617 326 15789 1 149.00000 418.400000
11617 327 14179 1 149.00000 418.400000
11618 328 11957 1 149.00000 418.400000
11618 329 15022 1 149.00000 418.400000
11618 330 16934 1 149.00000 418.400000
11618 331 11786 1 149.00000 418.400000
11619 332 16043 1 149.00000 418.400000
11619 333 12423 1 149.00000 418.400000
11619 334 12305 1 149.00000 418.400000
11619 335 14204 1 149.00000 418.400000
13029 336 15812 1 149.00000 418.400000
15413 337 15812 1 149.00000 418.400000
11620 338 16845 1 149.00000 418.400000
11901 339 15812 1 149.00000 418.400000
11621 340 12887 1 149.00000 418.400000
11621 341 14184 1 149.00000 418.400000
11621 342 12986 1 149.00000 418.400000
11621 343 14872 1 149.00000 418.400000
11622 344 15075 1 149.00000 418.400000
11622 345 11949 1 149.00000 418.400000
11622 346 15422 1 149.00000 418.400000
11622 347 11682 1 149.00000 418.400000
13081 348 16191 1 149.00000 418.400000
14403 349 16191 1 149.00000 418.400000
16191 350 18236 1 149.00000 418.400000
14682 351 18236 1 149.00000 418.400000
11623 352 16292 1 149.00000 418.400000
11623 353 13944 1 149.00000 418.400000
11623 354 14755 1 149.00000 418.400000
11623 355 16729 1 149.00000 418.400000
11624 356 13017 1 149.00000 418.400000
11624 357 18941 1 149.00000 418.400000
11624 358 15441 1 149.00000 418.400000
11624 359 14268 1 149.00000 418.400000
11625 360 12973 1 149.00000 418.400000
11625 361 16268 1 149.00000 418.400000
11625 362 11733 1 149.00000 418.400000
11625 363 12709 1 149.00000 418.400000
11626 364 16854 1 149.00000 418.400000
11626 365 16609 1 149.00000 418.400000
11626 366 12934 1 149.00000 418.400000
11626 367 14668 1 149.00000 418.400000
14125 368 16648 1 149.00000 418.400000
11627 369 16648 1 149.00000 418.400000
12594 370 16648 1 149.00000 418.400000
13378 371 15149 1 149.00000 418.400000
11628 372 13378 1 149.00000 418.400000
13378 373 15878 1 149.00000 418.400000
11628 374 11976 1 149.00000 418.400000
11693 375 12036 1 149.00000 418.400000
12036 376 12961 1 149.00000 418.400000
11629 377 12135 1 149.00000 418.400000
11629 378 12036 1 149.00000 418.400000
11630 379 12867 1 149.00000 418.400000
11630 380 13898 1 149.00000 418.400000
11630 381 14438 1 149.00000 418.400000
11630 382 16846 1 149.00000 418.400000
11631 383 14008 1 149.00000 418.400000
11631 384 15688 1 149.00000 418.400000
11631 385 16230 1 149.00000 418.400000
11631 386 14724 1 149.00000 418.400000
11632 387 15817 1 149.00000 418.400000
11632 388 11701 1 149.00000 418.400000
11632 389 13192 1 149.00000 418.400000
11632 390 11852 1 149.00000 418.400000
11633 391 13630 1 149.00000 418.400000
11633 392 13359 1 149.00000 418.400000
11633 393 12068 1 149.00000 418.400000
11633 394 12794 1 149.00000 418.400000
11634 395 15107 1 149.00000 418.400000
11634 396 12028 1 149.00000 418.400000
11635 397 14513 1 149.00000 418.400000
11801 398 14706 1 149.00000 418.400000
11635 399 12809 1 149.00000 418.400000
11635 400 14706 1 149.00000 418.400000
11636 401 11711 1 149.00000 418.400000
11636 402 14425 1 149.00000 418.400000
11636 403 16938 1 149.00000 418.400000
11636 404 11744 1 149.00000 418.400000
11637 405 16019 1 149.00000 418.400000
11637 406 13284 1 149.00000 418.400000
13863 407 15634 1 149.00000 418.400000
11637 408 15634 1 149.00000 418.400000
11638 409 12654 1 149.00000 418.400000
11638 410 13227 1 149.00000 418.400000
11638 411 14445 1 149.00000 418.400000
11638 412 16669 1 149.00000 418.400000
11639 413 13370 1 149.00000 418.400000
11639 414 16958 1 149.00000 418.400000
11639 415 12795 1 149.00000 418.400000
11639 416 17329 1 149.00000 418.400000
18239 417 18947 1 149.00000 418.400000
13500 418 18239 1 149.00000 418.400000
16812 419 18239 1 149.00000 418.400000
11640 420 13465 1 149.00000 418.400000
11640 421 14348 1 149.00000 418.400000
11640 422 14246 1 149.00000 418.400000
11640 423 13411 1 149.00000 418.400000
11641 424 14572 1 149.00000 418.400000
11641 425 12962 1 149.00000 418.400000
11641 426 11674 1 149.00000 418.400000
11642 427 16229 1 149.00000 418.400000
11642 428 16825 1 149.00000 418.400000
11642 429 14473 1 149.00000 418.400000
11642 430 11749 1 149.00000 418.400000
11643 431 12947 1 149.00000 418.400000
11643 432 13025 1 149.00000 418.400000
11643 433 13702 1 149.00000 418.400000
11643 434 16117 1 149.00000 418.400000
12277 435 14643 1 149.00000 418.400000
11644 436 12277 1 149.00000 418.400000
11644 437 13345 1 149.00000 418.400000
11644 438 14224 1 149.00000 418.400000
11645 439 13731 1 149.00000 418.400000
11645 440 18359 1 149.00000 418.400000
11646 441 16086 1 149.00000 418.400000
11646 442 17999 1 149.00000 418.400000
11646 443 15587 1 149.00000 418.400000
11646 444 16125 1 149.00000 418.400000
11647 445 11698 1 149.00000 418.400000
11647 446 12945 1 149.00000 418.400000
11647 447 14334 1 149.00000 418.400000
11647 448 15061 1 149.00000 418.400000
11648 449 13361 1 149.00000 418.400000
11648 450 12113 1 149.00000 418.400000
11649 451 13768 1 149.00000 418.400000
11649 452 16280 1 149.00000 418.400000
11649 453 14641 1 149.00000 418.400000
11649 454 13045 1 149.00000 418.400000
11650 455 14725 1 149.00000 418.400000
11650 456 12074 1 149.00000 418.400000
11650 457 12590 1 149.00000 418.400000
11650 458 18401 1 149.00000 418.400000
11651 459 16750 1 149.00000 418.400000
11651 460 12899 1 149.00000 418.400000
11652 461 15889 1 149.00000 418.400000
11652 462 13613 1 149.00000 418.400000
11652 463 15186 1 149.00000 418.400000
11652 464 15900 1 149.00000 418.400000
11653 465 16881 1 149.00000 418.400000
11653 466 16666 1 149.00000 418.400000
11653 467 14170 1 149.00000 418.400000
11653 468 13235 1 149.00000 418.400000
11654 469 15355 1 149.00000 418.400000
11654 470 12291 1 149.00000 418.400000
11654 471 15931 1 149.00000 418.400000
11654 472 14736 1 149.00000 418.400000
13358 473 18242 1 149.00000 418.400000
15288 474 18242 1 149.00000 418.400000
11655 475 14159 1 149.00000 418.400000
11655 476 15104 1 149.00000 418.400000
11655 477 15207 1 149.00000 418.400000
11655 478 13591 1 149.00000 418.400000
11656 479 15875 1 149.00000 418.400000
14273 480 18419 1 149.00000 418.400000
15125 481 16727 1 149.00000 418.400000
11656 482 15125 1 149.00000 418.400000
11657 483 13166 1 149.00000 418.400000
11657 484 13085 1 149.00000 418.400000
11657 485 14880 1 149.00000 418.400000
11657 486 14449 1 149.00000 418.400000
11658 487 12167 1 149.00000 418.400000
11658 488 11767 1 149.00000 418.400000
11658 489 16575 1 149.00000 418.400000
11658 490 13485 1 149.00000 418.400000
11659 491 13473 1 149.00000 418.400000
11659 492 14281 1 149.00000 418.400000
11659 493 16958 1 149.00000 418.400000
11659 494 16208 1 149.00000 418.400000
13951 495 16545 1 149.00000 418.400000
11660 496 15964 1 149.00000 418.400000
11660 497 13951 1 149.00000 418.400000
11660 498 15756 1 149.00000 418.400000
13489 499 15180 1 149.00000 418.400000
11661 500 15191 1 149.00000 418.400000
11661 501 12051 1 149.00000 418.400000
11661 502 15490 1 149.00000 418.400000
11661 503 11670 1 149.00000 418.400000
11662 504 15565 1 149.00000 418.400000
11662 505 13478 1 149.00000 418.400000
11662 506 14970 1 149.00000 418.400000
11662 507 12635 1 149.00000 418.400000
11663 508 13745 1 149.00000 418.400000
11663 509 13887 1 149.00000 418.400000
11663 510 13664 1 149.00000 418.400000
11663 511 15915 1 149.00000 418.400000
11664 512 13517 1 149.00000 418.400000
11664 513 12444 1 149.00000 418.400000
11664 514 15747 1 149.00000 418.400000
11665 515 13418 1 149.00000 418.400000
11665 516 16372 1 149.00000 418.400000
11665 517 15150 1 149.00000 418.400000
11666 518 16305 1 149.00000 418.400000
11666 519 12850 1 149.00000 418.400000
11666 520 16831 1 149.00000 418.400000
11667 521 17723 1 149.00000 418.400000
11667 522 15700 1 149.00000 418.400000
17723 523 18476 1 149.00000 418.400000
11667 524 12448 1 149.00000 418.400000
11668 525 16714 1 149.00000 418.400000
11668 526 16931 1 149.00000 418.400000
11668 527 16773 1 149.00000 418.400000
11668 528 12087 1 149.00000 418.400000
11669 529 12780 1 149.00000 418.400000
11669 530 15929 1 149.00000 418.400000
11669 531 11835 1 149.00000 418.400000
11669 532 16076 1 149.00000 418.400000
11670 533 12351 1 149.00000 418.400000
11670 534 15750 1 149.00000 418.400000
11670 535 13216 1 149.00000 418.400000
11671 536 16173 1 149.00000 418.400000
11671 537 12597 1 149.00000 418.400000
11671 538 16274 1 149.00000 418.400000
11672 539 14256 1 149.00000 418.400000
11672 540 16073 1 149.00000 418.400000
11672 541 13821 1 149.00000 418.400000
11672 542 13093 1 149.00000 418.400000
12510 543 12820 1 149.00000 418.400000
12820 544 16690 1 149.00000 418.400000
11673 545 12820 1 149.00000 418.400000
11674 546 13110 1 149.00000 418.400000
11674 547 12676 1 149.00000 418.400000
11675 548 16443 1 149.00000 418.400000
11675 549 14604 1 149.00000 418.400000
11675 550 15949 1 149.00000 418.400000
11675 551 16232 1 149.00000 418.400000
11676 552 13486 1 149.00000 418.400000
11676 553 11823 1 149.00000 418.400000
11676 554 16144 1 149.00000 418.400000
11823 555 13280 1 149.00000 418.400000
16609 556 18245 1 149.00000 418.400000
13714 557 18245 1 149.00000 418.400000
14207 558 18245 1 149.00000 418.400000
11677 559 12716 1 149.00000 418.400000
11677 560 11975 1 149.00000 418.400000
11677 561 13018 1 149.00000 418.400000
11678 562 16914 1 149.00000 418.400000
11678 563 12599 1 149.00000 418.400000
11678 564 15398 1 149.00000 418.400000
11678 565 14351 1 149.00000 418.400000
11679 566 12310 1 149.00000 418.400000
11679 567 14347 1 149.00000 418.400000
11679 568 15320 1 149.00000 418.400000
11679 569 13460 1 149.00000 418.400000
11680 570 11807 1 149.00000 418.400000
11680 571 12747 1 149.00000 418.400000
11680 572 16783 1 149.00000 418.400000
11680 573 13659 1 149.00000 418.400000
11681 574 15070 1 149.00000 418.400000
11681 575 15794 1 149.00000 418.400000
11681 576 13546 1 149.00000 418.400000
11681 577 12624 1 149.00000 418.400000
14904 578 18248 1 149.00000 418.400000
17915 579 18248 1 149.00000 418.400000
11682 580 12304 1 149.00000 418.400000
11682 581 12146 1 149.00000 418.400000
11682 582 13874 1 149.00000 418.400000
11683 583 14973 1 149.00000 418.400000
11683 584 13580 1 149.00000 418.400000
11684 585 16461 1 149.00000 418.400000
11684 586 15797 1 149.00000 418.400000
11684 587 16850 1 149.00000 418.400000
11684 588 12445 1 149.00000 418.400000
11685 589 14915 1 149.00000 418.400000
11685 590 16703 1 149.00000 418.400000
11685 591 12569 1 149.00000 418.400000
11685 592 13344 1 149.00000 418.400000
11686 593 12385 1 149.00000 418.400000
11686 594 14934 1 149.00000 418.400000
11686 595 15981 1 149.00000 418.400000
11686 596 15108 1 149.00000 418.400000
11687 597 14708 1 149.00000 418.400000
11687 598 14699 1 149.00000 418.400000
11687 599 11737 1 149.00000 418.400000
11687 600 13481 1 149.00000 418.400000
17735 601 18251 1 149.00000 418.400000
15815 602 18251 1 149.00000 418.400000
15062 603 18251 1 149.00000 418.400000
11688 604 14761 1 149.00000 418.400000
11688 605 14996 1 149.00000 418.400000
11688 606 11689 1 149.00000 418.400000
11688 607 16501 1 149.00000 418.400000
11689 608 13033 1 149.00000 418.400000
11689 609 11813 1 149.00000 418.400000
11689 610 12928 1 149.00000 418.400000
11690 611 13877 1 149.00000 418.400000
11690 612 12502 1 149.00000 418.400000
11690 613 16097 1 149.00000 418.400000
11690 614 16993 1 149.00000 418.400000
11691 615 15253 1 149.00000 418.400000
11691 616 14726 1 149.00000 418.400000
11691 617 15592 1 149.00000 418.400000
11691 618 14453 1 149.00000 418.400000
15221 619 18254 1 149.00000 418.400000
15770 620 18254 1 149.00000 418.400000
14876 621 18254 1 149.00000 418.400000
11692 622 15898 1 149.00000 418.400000
11692 623 12837 1 149.00000 418.400000
11692 624 13642 1 149.00000 418.400000
11692 625 14067 1 149.00000 418.400000
11693 626 15480 1 149.00000 418.400000
11693 627 15800 1 149.00000 418.400000
11693 628 12215 1 149.00000 418.400000
11694 629 11701 1 149.00000 418.400000
11694 630 14075 1 149.00000 418.400000
11694 631 16042 1 149.00000 418.400000
11695 632 16120 1 149.00000 418.400000
11695 633 14260 1 149.00000 418.400000
11695 634 12616 1 149.00000 418.400000
11695 635 12283 1 149.00000 418.400000
11696 636 15766 1 149.00000 418.400000
11696 637 12349 1 149.00000 418.400000
11696 638 14572 1 149.00000 418.400000
11696 639 15513 1 149.00000 418.400000
11697 640 11993 1 149.00000 418.400000
11697 641 12512 1 149.00000 418.400000
11697 642 14364 1 149.00000 418.400000
11697 643 15488 1 149.00000 418.400000
11698 644 12501 1 149.00000 418.400000
11698 645 17009 1 149.00000 418.400000
11698 646 11964 1 149.00000 418.400000
11699 647 12956 1 149.00000 418.400000
11699 648 14916 1 149.00000 418.400000
11699 649 14427 1 149.00000 418.400000
11699 650 15954 1 149.00000 418.400000
11700 651 13869 1 149.00000 418.400000
11700 652 17495 1 149.00000 418.400000
11700 653 14451 1 149.00000 418.400000
11700 654 18497 1 149.00000 418.400000
11701 655 12315 1 149.00000 418.400000
11701 656 12103 1 149.00000 418.400000
11702 657 13990 1 149.00000 418.400000
11702 658 12713 1 149.00000 418.400000
11702 659 13554 1 149.00000 418.400000
12713 660 17000 1 149.00000 418.400000
11703 661 16451 1 149.00000 418.400000
11703 662 16921 1 149.00000 418.400000
14825 663 16921 1 149.00000 418.400000
11703 664 12742 1 149.00000 418.400000
11704 665 16137 1 149.00000 418.400000
14802 666 16137 1 149.00000 418.400000
11704 667 13480 1 149.00000 418.400000
11704 668 11866 1 149.00000 418.400000
11705 669 12511 1 149.00000 418.400000
11705 670 15321 1 149.00000 418.400000
11706 671 14386 1 149.00000 418.400000
11706 672 15351 1 149.00000 418.400000
12539 673 14386 1 149.00000 418.400000
11706 674 13025 1 149.00000 418.400000
11707 675 12738 1 149.00000 418.400000
11707 676 15643 1 149.00000 418.400000
11707 677 12042 1 149.00000 418.400000
11708 678 11750 1 149.00000 418.400000
11708 679 14176 1 149.00000 418.400000
11708 680 16784 1 149.00000 418.400000
11750 681 16180 1 149.00000 418.400000
11709 682 13088 1 149.00000 418.400000
14342 683 15958 1 149.00000 418.400000
11709 684 13955 1 149.00000 418.400000
11709 685 14342 1 149.00000 418.400000
11710 686 13433 1 149.00000 418.400000
11710 687 11851 1 149.00000 418.400000
11710 688 16168 1 149.00000 418.400000
11710 689 15388 1 149.00000 418.400000
11711 690 12205 1 149.00000 418.400000
11983 691 13209 1 149.00000 418.400000
11711 692 11983 1 149.00000 418.400000
11712 693 13945 1 149.00000 418.400000
11712 694 14229 1 149.00000 418.400000
11712 695 12236 1 149.00000 418.400000
11712 696 12138 1 149.00000 418.400000
11713 697 13956 1 149.00000 418.400000
11713 698 13744 1 149.00000 418.400000
11713 699 12273 1 149.00000 418.400000
11713 700 12982 1 149.00000 418.400000
11714 701 13174 1 149.00000 418.400000
11714 702 14590 1 149.00000 418.400000
11714 703 14851 1 149.00000 418.400000
11715 704 12700 1 149.00000 418.400000
11715 705 14360 1 149.00000 418.400000
11715 706 14437 1 149.00000 418.400000
11715 707 13675 1 149.00000 418.400000
11716 708 16425 1 149.00000 418.400000
11716 709 12934 1 149.00000 418.400000
11716 710 14995 1 149.00000 418.400000
11716 711 13606 1 149.00000 418.400000
11717 712 16986 1 149.00000 418.400000
11717 713 14852 1 149.00000 418.400000
11717 714 14969 1 149.00000 418.400000
14969 715 15424 1 149.00000 418.400000
13594 716 15815 1 149.00000 418.400000
11718 717 15815 1 149.00000 418.400000
11718 718 12632 1 149.00000 418.400000
11719 719 15457 1 149.00000 418.400000
11719 720 12483 1 149.00000 418.400000
11719 721 19037 1 149.00000 418.400000
14625 722 17091 1 149.00000 418.400000
11755 723 14287 1 149.00000 418.400000
14287 724 14625 1 149.00000 418.400000
11720 725 13957 1 149.00000 418.400000
11720 726 13834 1 149.00000 418.400000
11720 727 12597 1 149.00000 418.400000
11720 728 13183 1 149.00000 418.400000
11721 729 12471 1 149.00000 418.400000
11721 730 16401 1 149.00000 418.400000
11721 731 16635 1 149.00000 418.400000
11721 732 12902 1 149.00000 418.400000
11722 733 15950 1 149.00000 418.400000
11722 734 12266 1 149.00000 418.400000
11722 735 16664 1 149.00000 418.400000
11722 736 15108 1 149.00000 418.400000
11723 737 16041 1 149.00000 418.400000
11723 738 12587 1 149.00000 418.400000
11723 739 12582 1 149.00000 418.400000
11723 740 12720 1 149.00000 418.400000
11724 741 12079 1 149.00000 418.400000
11724 742 13121 1 149.00000 418.400000
11724 743 15115 1 149.00000 418.400000
11724 744 13811 1 149.00000 418.400000
11725 745 12493 1 149.00000 418.400000
11725 746 13854 1 149.00000 418.400000
11725 747 14422 1 149.00000 418.400000
11725 748 15209 1 149.00000 418.400000
11726 749 15759 1 149.00000 418.400000
11726 750 15076 1 149.00000 418.400000
11726 751 15622 1 149.00000 418.400000
11726 752 13790 1 149.00000 418.400000
11727 753 12815 1 149.00000 418.400000
11727 754 12796 1 149.00000 418.400000
11727 755 12496 1 149.00000 418.400000
11727 756 12235 1 149.00000 418.400000
11728 757 12735 1 149.00000 418.400000
11728 758 11822 1 149.00000 418.400000
11728 759 13147 1 149.00000 418.400000
11709 760 11728 1 149.00000 418.400000
11729 761 13291 1 149.00000 418.400000
11729 762 13252 1 149.00000 418.400000
11729 763 15322 1 149.00000 418.400000
11729 764 16124 1 149.00000 418.400000
11730 765 14168 1 149.00000 418.400000
11730 766 14800 1 149.00000 418.400000
11730 767 14271 1 149.00000 418.400000
11730 768 15007 1 149.00000 418.400000
11731 769 12236 1 149.00000 418.400000
11620 770 11731 1 149.00000 418.400000
11731 771 14408 1 149.00000 418.400000
11731 772 14983 1 149.00000 418.400000
11732 773 13823 1 149.00000 418.400000
11732 774 15621 1 149.00000 418.400000
11732 775 17021 1 149.00000 418.400000
11733 776 16370 1 149.00000 418.400000
11733 777 14083 1 149.00000 418.400000
14083 778 14707 1 149.00000 418.400000
11734 779 15728 1 149.00000 418.400000
11734 780 14092 1 149.00000 418.400000
11734 781 12671 1 149.00000 418.400000
11734 782 16798 1 149.00000 418.400000
18257 783 18815 1 149.00000 418.400000
12469 784 18257 1 149.00000 418.400000
16794 785 18257 1 149.00000 418.400000
11735 786 14685 1 149.00000 418.400000
11735 787 13482 1 149.00000 418.400000
11735 788 14557 1 149.00000 418.400000
11735 789 16430 1 149.00000 418.400000
11736 790 16733 1 149.00000 418.400000
11736 791 16540 1 149.00000 418.400000
11736 792 18929 1 149.00000 418.400000
14766 793 18893 1 149.00000 418.400000
11737 794 15768 1 149.00000 418.400000
11737 795 16334 1 149.00000 418.400000
11737 796 12783 1 149.00000 418.400000
12866 797 17951 1 149.00000 418.400000
14371 798 17951 1 149.00000 418.400000
14525 799 17951 1 149.00000 418.400000
11738 800 13265 1 149.00000 418.400000
11738 801 12430 1 149.00000 418.400000
11739 802 16065 1 149.00000 418.400000
11739 803 15588 1 149.00000 418.400000
11739 804 13031 1 149.00000 418.400000
11739 805 13911 1 149.00000 418.400000
11740 806 12072 1 149.00000 418.400000
11740 807 16580 1 149.00000 418.400000
11740 808 13436 1 149.00000 418.400000
12072 809 14299 1 149.00000 418.400000
15116 810 16193 1 149.00000 418.400000
11973 811 16193 1 149.00000 418.400000
16193 812 16631 1 149.00000 418.400000
11741 813 16193 1 149.00000 418.400000
11742 814 15803 1 149.00000 418.400000
11742 815 13559 1 149.00000 418.400000
11742 816 14156 1 149.00000 418.400000
11742 817 16750 1 149.00000 418.400000
11743 818 13420 1 149.00000 418.400000
11743 819 16526 1 149.00000 418.400000
11743 820 15156 1 149.00000 418.400000
11743 821 15557 1 149.00000 418.400000
11744 822 12527 1 149.00000 418.400000
11744 823 13774 1 149.00000 418.400000
11744 824 16841 1 149.00000 418.400000
11745 825 16807 1 149.00000 418.400000
16328 826 16807 1 149.00000 418.400000
11745 827 15760 1 149.00000 418.400000
11745 828 12253 1 149.00000 418.400000
11746 829 15401 1 149.00000 418.400000
11746 830 14528 1 149.00000 418.400000
11746 831 14791 1 149.00000 418.400000
11746 832 14412 1 149.00000 418.400000
11747 833 16590 1 149.00000 418.400000
11747 834 16541 1 149.00000 418.400000
11747 835 16073 1 149.00000 418.400000
11747 836 16309 1 149.00000 418.400000
12870 837 18260 1 149.00000 418.400000
13570 838 18260 1 149.00000 418.400000
16139 839 18260 1 149.00000 418.400000
18263 840 18413 1 149.00000 418.400000
11748 841 12894 1 149.00000 418.400000
11748 842 16637 1 149.00000 418.400000
11741 843 11748 1 149.00000 418.400000
11748 844 15029 1 149.00000 418.400000
14817 845 18323 1 149.00000 418.400000
11749 846 15018 1 149.00000 418.400000
11749 847 12214 1 149.00000 418.400000
11749 848 13022 1 149.00000 418.400000
11750 849 14589 1 149.00000 418.400000
11708 850 13371 1 149.00000 418.400000
11750 851 15690 1 149.00000 418.400000
11751 852 16396 1 149.00000 418.400000
11751 853 16009 1 149.00000 418.400000
11751 854 12080 1 149.00000 418.400000
11751 855 12507 1 149.00000 418.400000
11752 856 11804 1 149.00000 418.400000
11752 857 14768 1 149.00000 418.400000
11752 858 13059 1 149.00000 418.400000
11752 859 16207 1 149.00000 418.400000
11753 860 15145 1 149.00000 418.400000
11753 861 13027 1 149.00000 418.400000
11753 862 16720 1 149.00000 418.400000
11753 863 16772 1 149.00000 418.400000
11754 864 18545 1 149.00000 418.400000
11754 865 11784 1 149.00000 418.400000
11784 866 15460 1 149.00000 418.400000
11754 867 16899 1 149.00000 418.400000
11755 868 13770 1 149.00000 418.400000
11755 869 11799 1 149.00000 418.400000
11755 870 13488 1 149.00000 418.400000
11756 871 13059 1 149.00000 418.400000
11756 872 13909 1 149.00000 418.400000
11756 873 15619 1 149.00000 418.400000
11756 874 16089 1 149.00000 418.400000
11757 875 12233 1 149.00000 418.400000
11757 876 12314 1 149.00000 418.400000
11757 877 15903 1 149.00000 418.400000
11757 878 13373 1 149.00000 418.400000
11758 879 16441 1 149.00000 418.400000
11758 880 15678 1 149.00000 418.400000
11758 881 14845 1 149.00000 418.400000
11758 882 12611 1 149.00000 418.400000
11759 883 13715 1 149.00000 418.400000
11759 884 15765 1 149.00000 418.400000
11759 885 15597 1 149.00000 418.400000
11759 886 14796 1 149.00000 418.400000
14296 887 18266 1 149.00000 418.400000
14689 888 18266 1 149.00000 418.400000
18266 889 18476 1 149.00000 418.400000
11760 890 14866 1 149.00000 418.400000
11760 891 13873 1 149.00000 418.400000
11760 892 16564 1 149.00000 418.400000
11760 893 12774 1 149.00000 418.400000
11761 894 11846 1 149.00000 418.400000
12217 895 12633 1 149.00000 418.400000
11846 896 16023 1 149.00000 418.400000
12633 897 15203 1 149.00000 418.400000
11762 898 14332 1 149.00000 418.400000
11762 899 14017 1 149.00000 418.400000
11762 900 12372 1 149.00000 418.400000
11762 901 16416 1 149.00000 418.400000
12331 902 13094 1 149.00000 418.400000
12479 903 13094 1 149.00000 418.400000
11763 904 13094 1 149.00000 418.400000
13094 905 14993 1 149.00000 418.400000
12304 906 14722 1 149.00000 418.400000
11764 907 15845 1 149.00000 418.400000
11764 908 15682 1 149.00000 418.400000
11764 909 14722 1 149.00000 418.400000
11765 910 15801 1 149.00000 418.400000
11765 911 12269 1 149.00000 418.400000
11765 912 16605 1 149.00000 418.400000
11765 913 16499 1 149.00000 418.400000
11766 914 15975 1 149.00000 418.400000
11766 915 13534 1 149.00000 418.400000
11766 916 15694 1 149.00000 418.400000
11766 917 14949 1 149.00000 418.400000
11767 918 12347 1 149.00000 418.400000
11767 919 16456 1 149.00000 418.400000
11767 920 16814 1 149.00000 418.400000
11768 921 15675 1 149.00000 418.400000
11768 922 14244 1 149.00000 418.400000
11768 923 13198 1 149.00000 418.400000
11768 924 12034 1 149.00000 418.400000
11769 925 11778 1 149.00000 418.400000
11769 926 14122 1 149.00000 418.400000
11769 927 12097 1 149.00000 418.400000
11769 928 16674 1 149.00000 418.400000
11770 929 16122 1 149.00000 418.400000
11770 930 15421 1 149.00000 418.400000
11770 931 13979 1 149.00000 418.400000
11770 932 15842 1 149.00000 418.400000
11771 933 14017 1 149.00000 418.400000
11771 934 16745 1 149.00000 418.400000
11771 935 13583 1 149.00000 418.400000
11771 936 15110 1 149.00000 418.400000
11772 937 18935 1 149.00000 418.400000
11772 938 19022 1 149.00000 418.400000
11772 939 13356 1 149.00000 418.400000
11772 940 13048 1 149.00000 418.400000
11773 941 11830 1 149.00000 418.400000
11773 942 16206 1 149.00000 418.400000
11773 943 18710 1 149.00000 418.400000
11773 944 14928 1 149.00000 418.400000
11774 945 15856 1 149.00000 418.400000
11774 946 11944 1 149.00000 418.400000
11774 947 16851 1 149.00000 418.400000
11774 948 17008 1 149.00000 418.400000
11864 949 15096 1 149.00000 418.400000
11775 950 12533 1 149.00000 418.400000
11775 951 15096 1 149.00000 418.400000
11775 952 13920 1 149.00000 418.400000
11776 953 11793 1 149.00000 418.400000
11776 954 13762 1 149.00000 418.400000
11776 955 12883 1 149.00000 418.400000
11776 956 15694 1 149.00000 418.400000
11777 957 11842 1 149.00000 418.400000
11777 958 12553 1 149.00000 418.400000
11842 959 13695 1 149.00000 418.400000
12553 960 12912 1 149.00000 418.400000
11778 961 15888 1 149.00000 418.400000
11778 962 14921 1 149.00000 418.400000
11778 963 14811 1 149.00000 418.400000
16525 964 18269 1 149.00000 418.400000
13507 965 18269 1 149.00000 418.400000
11779 966 13059 1 149.00000 418.400000
11779 967 14443 1 149.00000 418.400000
11779 968 14953 1 149.00000 418.400000
11779 969 16714 1 149.00000 418.400000
11780 970 16183 1 149.00000 418.400000
11780 971 12071 1 149.00000 418.400000
11780 972 12425 1 149.00000 418.400000
11780 973 11979 1 149.00000 418.400000
11781 974 14992 1 149.00000 418.400000
11781 975 14335 1 149.00000 418.400000
11781 976 16300 1 149.00000 418.400000
11781 977 14980 1 149.00000 418.400000
11782 978 16719 1 149.00000 418.400000
11782 979 15624 1 149.00000 418.400000
11782 980 13219 1 149.00000 418.400000
11783 981 15219 1 149.00000 418.400000
12254 982 15219 1 149.00000 418.400000
11783 983 12412 1 149.00000 418.400000
11783 984 11900 1 149.00000 418.400000
12091 985 16325 1 149.00000 418.400000
11754 986 12602 1 149.00000 418.400000
11784 987 13000 1 149.00000 418.400000
11784 988 16055 1 149.00000 418.400000
11785 989 16802 1 149.00000 418.400000
11785 990 16996 1 149.00000 418.400000
11785 991 15647 1 149.00000 418.400000
11785 992 11822 1 149.00000 418.400000
11786 993 13596 1 149.00000 418.400000
11786 994 16821 1 149.00000 418.400000
11786 995 11957 1 149.00000 418.400000
11787 996 16934 1 149.00000 418.400000
11787 997 16781 1 149.00000 418.400000
11787 998 16438 1 149.00000 418.400000
11787 999 12739 1 149.00000 418.400000
11788 1000 13454 1 149.00000 418.400000
11788 1001 16872 1 149.00000 418.400000
11788 1002 16536 1 149.00000 418.400000
11788 1003 15696 1 149.00000 418.400000
11789 1004 12538 1 149.00000 418.400000
11789 1005 12233 1 149.00000 418.400000
11789 1006 15204 1 149.00000 418.400000
11789 1007 14500 1 149.00000 418.400000
11790 1008 11821 1 149.00000 418.400000
11790 1009 15633 1 149.00000 418.400000
15281 1010 15644 1 149.00000 418.400000
11790 1011 15281 1 149.00000 418.400000
11791 1012 14921 1 149.00000 418.400000
11791 1013 16030 1 149.00000 418.400000
11791 1014 16674 1 149.00000 418.400000
11791 1015 12762 1 149.00000 418.400000
11792 1016 12082 1 149.00000 418.400000
11792 1017 16306 1 149.00000 418.400000
11792 1018 14292 1 149.00000 418.400000
11792 1019 12623 1 149.00000 418.400000
11793 1020 13452 1 149.00000 418.400000
11793 1021 15679 1 149.00000 418.400000
11793 1022 12172 1 149.00000 418.400000
11794 1023 16088 1 149.00000 418.400000
11794 1024 16507 1 149.00000 418.400000
11794 1025 13431 1 149.00000 418.400000
11794 1026 16669 1 149.00000 418.400000
11795 1027 12284 1 149.00000 418.400000
11795 1028 12388 1 149.00000 418.400000
11795 1029 15846 1 149.00000 418.400000
11763 1030 11796 1 149.00000 418.400000
11796 1031 16199 1 149.00000 418.400000
11796 1032 14975 1 149.00000 418.400000
11796 1033 15701 1 149.00000 418.400000
11797 1034 19140 1 149.00000 418.400000
11797 1035 14434 1 149.00000 418.400000
15594 1036 18299 1 149.00000 418.400000
15594 1037 16136 1 149.00000 418.400000
13327 1038 15594 1 149.00000 418.400000
11798 1039 15594 1 149.00000 418.400000
11799 1040 18905 1 149.00000 418.400000
11799 1041 15516 1 149.00000 418.400000
11799 1042 18272 1 149.00000 418.400000
15033 1043 18272 1 149.00000 418.400000
12143 1044 18272 1 149.00000 418.400000
11800 1045 15612 1 149.00000 418.400000
11800 1046 16180 1 149.00000 418.400000
11800 1047 11869 1 149.00000 418.400000
11800 1048 15690 1 149.00000 418.400000
11801 1049 15456 1 149.00000 418.400000
11801 1050 16043 1 149.00000 418.400000
11801 1051 14944 1 149.00000 418.400000
11802 1052 11940 1 149.00000 418.400000
11802 1053 15944 1 149.00000 418.400000
11802 1054 15626 1 149.00000 418.400000
11802 1055 12763 1 149.00000 418.400000
11803 1056 11995 1 149.00000 418.400000
11803 1057 16315 1 149.00000 418.400000
11803 1058 14683 1 149.00000 418.400000
11803 1059 15674 1 149.00000 418.400000
11804 1060 16095 1 149.00000 418.400000
11804 1061 15820 1 149.00000 418.400000
13111 1062 16095 1 149.00000 418.400000
13485 1063 13712 1 149.00000 418.400000
11805 1064 13485 1 149.00000 418.400000
13485 1065 15133 1 149.00000 418.400000
11806 1066 13995 1 149.00000 418.400000
11806 1067 14882 1 149.00000 418.400000
11806 1068 14912 1 149.00000 418.400000
11806 1069 12554 1 149.00000 418.400000
11807 1070 16283 1 149.00000 418.400000
11807 1071 16892 1 149.00000 418.400000
11807 1072 15341 1 149.00000 418.400000
11808 1073 18299 1 149.00000 418.400000
11808 1074 17004 1 149.00000 418.400000
11808 1075 15568 1 149.00000 418.400000
11808 1076 15067 1 149.00000 418.400000
11809 1077 13841 1 149.00000 418.400000
11809 1078 14137 1 149.00000 418.400000
11809 1079 16857 1 149.00000 418.400000
11809 1080 15552 1 149.00000 418.400000
11810 1081 16125 1 149.00000 418.400000
11810 1082 12841 1 149.00000 418.400000
11810 1083 16932 1 149.00000 418.400000
11810 1084 14780 1 149.00000 418.400000
11811 1085 13658 1 149.00000 418.400000
11811 1086 12663 1 149.00000 418.400000
11811 1087 14346 1 149.00000 418.400000
11811 1088 13300 1 149.00000 418.400000
11812 1089 14387 1 149.00000 418.400000
11812 1090 15054 1 149.00000 418.400000
11812 1091 13362 1 149.00000 418.400000
11812 1092 16585 1 149.00000 418.400000
11813 1093 13337 1 149.00000 418.400000
11813 1094 14504 1 149.00000 418.400000
11813 1095 16651 1 149.00000 418.400000
11814 1096 14529 1 149.00000 418.400000
11814 1097 13467 1 149.00000 418.400000
11814 1098 14591 1 149.00000 418.400000
11814 1099 12928 1 149.00000 418.400000
11815 1100 13314 1 149.00000 418.400000
11815 1101 13354 1 149.00000 418.400000
11815 1102 15455 1 149.00000 418.400000
11815 1103 16856 1 149.00000 418.400000
11816 1104 16340 1 149.00000 418.400000
11816 1105 15207 1 149.00000 418.400000
11816 1106 16969 1 149.00000 418.400000
11817 1107 12347 1 149.00000 418.400000
12347 1108 16790 1 149.00000 418.400000
12347 1109 13536 1 149.00000 418.400000
18275 1110 18632 1 149.00000 418.400000
13676 1111 18275 1 149.00000 418.400000
16619 1112 18275 1 149.00000 418.400000
11818 1113 16758 1 149.00000 418.400000
14789 1114 16758 1 149.00000 418.400000
11818 1115 15680 1 149.00000 418.400000
11818 1116 11937 1 149.00000 418.400000
11819 1117 14031 1 149.00000 418.400000
11819 1118 12514 1 149.00000 418.400000
11819 1119 15962 1 149.00000 418.400000
11819 1120 19046 1 149.00000 418.400000
11820 1121 13365 1 149.00000 418.400000
11820 1122 16066 1 149.00000 418.400000
11820 1123 17759 1 149.00000 418.400000
11820 1124 15543 1 149.00000 418.400000
11821 1125 16356 1 149.00000 418.400000
11821 1126 15859 1 149.00000 418.400000
11821 1127 16634 1 149.00000 418.400000
11822 1128 12149 1 149.00000 418.400000
11822 1129 13080 1 149.00000 418.400000
11823 1130 15850 1 149.00000 418.400000
11676 1131 15429 1 149.00000 418.400000
11823 1132 15477 1 149.00000 418.400000
11824 1133 14176 1 149.00000 418.400000
11824 1134 12551 1 149.00000 418.400000
11824 1135 14225 1 149.00000 418.400000
11824 1136 14134 1 149.00000 418.400000
16192 1137 18713 1 149.00000 418.400000
11825 1138 15704 1 149.00000 418.400000
11825 1139 12955 1 149.00000 418.400000
11825 1140 15772 1 149.00000 418.400000
11825 1141 11999 1 149.00000 418.400000
11826 1142 12294 1 149.00000 418.400000
11826 1143 11840 1 149.00000 418.400000
11826 1144 13466 1 149.00000 418.400000
11826 1145 13730 1 149.00000 418.400000
11827 1146 16806 1 149.00000 418.400000
11827 1147 13060 1 149.00000 418.400000
11827 1148 18554 1 149.00000 418.400000
11827 1149 16264 1 149.00000 418.400000
11828 1150 13812 1 149.00000 418.400000
13812 1151 14295 1 149.00000 418.400000
11828 1152 12551 1 149.00000 418.400000
11829 1153 16917 1 149.00000 418.400000
11829 1154 13272 1 149.00000 418.400000
11829 1155 15047 1 149.00000 418.400000
11829 1156 15298 1 149.00000 418.400000
11830 1157 16493 1 149.00000 418.400000
11830 1158 12133 1 149.00000 418.400000
11830 1159 15171 1 149.00000 418.400000
13287 1160 16001 1 149.00000 418.400000
11831 1161 12235 1 149.00000 418.400000
11831 1162 13287 1 149.00000 418.400000
13287 1163 13632 1 149.00000 418.400000
11832 1164 14560 1 149.00000 418.400000
11832 1165 16700 1 149.00000 418.400000
11832 1166 13843 1 149.00000 418.400000
11832 1167 14219 1 149.00000 418.400000
11833 1168 16812 1 149.00000 418.400000
11833 1169 15370 1 149.00000 418.400000
11833 1170 18416 1 149.00000 418.400000
11833 1171 13750 1 149.00000 418.400000
11834 1172 14178 1 149.00000 418.400000
11834 1173 15225 1 149.00000 418.400000
11834 1174 13030 1 149.00000 418.400000
11834 1175 14387 1 149.00000 418.400000
11835 1176 16275 1 149.00000 418.400000
11835 1177 14630 1 149.00000 418.400000
11835 1178 16290 1 149.00000 418.400000
16412 1179 18278 1 149.00000 418.400000
17747 1180 18278 1 149.00000 418.400000
11836 1181 15530 1 149.00000 418.400000
11836 1182 14631 1 149.00000 418.400000
11836 1183 16406 1 149.00000 418.400000
11836 1184 15769 1 149.00000 418.400000
11837 1185 14052 1 149.00000 418.400000
11837 1186 12282 1 149.00000 418.400000
11837 1187 11948 1 149.00000 418.400000
11837 1188 16783 1 149.00000 418.400000
11838 1189 13257 1 149.00000 418.400000
11838 1190 16691 1 149.00000 418.400000
11838 1191 14850 1 149.00000 418.400000
13257 1192 14659 1 149.00000 418.400000
11839 1193 14244 1 149.00000 418.400000
11839 1194 14071 1 149.00000 418.400000
11839 1195 12089 1 149.00000 418.400000
11839 1196 13036 1 149.00000 418.400000
11591 1197 11840 1 149.00000 418.400000
11840 1198 16477 1 149.00000 418.400000
13813 1199 15118 1 149.00000 418.400000
11841 1200 14585 1 149.00000 418.400000
11841 1201 13813 1 149.00000 418.400000
11841 1202 15148 1 149.00000 418.400000
11777 1203 12748 1 149.00000 418.400000
11842 1204 13006 1 149.00000 418.400000
11842 1205 12988 1 149.00000 418.400000
12295 1206 19085 1 149.00000 418.400000
18047 1207 19085 1 149.00000 418.400000
11843 1208 15329 1 149.00000 418.400000
11843 1209 14092 1 149.00000 418.400000
11843 1210 13763 1 149.00000 418.400000
11844 1211 14224 1 149.00000 418.400000
11608 1212 11844 1 149.00000 418.400000
11844 1213 15656 1 149.00000 418.400000
11844 1214 12664 1 149.00000 418.400000
11845 1215 16660 1 149.00000 418.400000
11845 1216 18341 1 149.00000 418.400000
11845 1217 15099 1 149.00000 418.400000
11845 1218 11896 1 149.00000 418.400000
11846 1219 14748 1 149.00000 418.400000
11761 1220 15992 1 149.00000 418.400000
11846 1221 16354 1 149.00000 418.400000
18203 1222 18959 1 149.00000 418.400000
12688 1223 18203 1 149.00000 418.400000
18203 1224 19049 1 149.00000 418.400000
11847 1225 11870 1 149.00000 418.400000
11847 1226 15477 1 149.00000 418.400000
11847 1227 16673 1 149.00000 418.400000
11847 1228 13280 1 149.00000 418.400000
11848 1229 14104 1 149.00000 418.400000
11848 1230 16641 1 149.00000 418.400000
11848 1231 19052 1 149.00000 418.400000
11848 1232 13366 1 149.00000 418.400000
11849 1233 15154 1 149.00000 418.400000
11849 1234 15641 1 149.00000 418.400000
11849 1235 13456 1 149.00000 418.400000
11849 1236 15045 1 149.00000 418.400000
11850 1237 18809 1 149.00000 418.400000
11850 1238 16008 1 149.00000 418.400000
11850 1239 13895 1 149.00000 418.400000
11851 1240 14864 1 149.00000 418.400000
11851 1241 13758 1 149.00000 418.400000
11851 1242 13019 1 149.00000 418.400000
11852 1243 15427 1 149.00000 418.400000
11852 1244 16042 1 149.00000 418.400000
11852 1245 16430 1 149.00000 418.400000
11853 1246 14162 1 149.00000 418.400000
11853 1247 12019 1 149.00000 418.400000
11853 1248 15586 1 149.00000 418.400000
11853 1249 14378 1 149.00000 418.400000
11854 1250 15985 1 149.00000 418.400000
11854 1251 13123 1 149.00000 418.400000
11854 1252 12658 1 149.00000 418.400000
11854 1253 14559 1 149.00000 418.400000
11855 1254 14505 1 149.00000 418.400000
11855 1255 14302 1 149.00000 418.400000
11855 1256 11908 1 149.00000 418.400000
11855 1257 16598 1 149.00000 418.400000
13011 1258 18308 1 149.00000 418.400000
11856 1259 18944 1 149.00000 418.400000
11856 1260 16611 1 149.00000 418.400000
11856 1261 13446 1 149.00000 418.400000
11856 1262 16893 1 149.00000 418.400000
11857 1263 16949 1 149.00000 418.400000
11857 1264 15900 1 149.00000 418.400000
11857 1265 12546 1 149.00000 418.400000
11858 1266 13890 1 149.00000 418.400000
11858 1267 15724 1 149.00000 418.400000
11858 1268 14011 1 149.00000 418.400000
11858 1269 14525 1 149.00000 418.400000
11859 1270 14833 1 149.00000 418.400000
11859 1271 17007 1 149.00000 418.400000
11859 1272 14197 1 149.00000 418.400000
11859 1273 12626 1 149.00000 418.400000
11860 1274 16720 1 149.00000 418.400000
11860 1275 13387 1 149.00000 418.400000
11860 1276 14027 1 149.00000 418.400000
11860 1277 13385 1 149.00000 418.400000
11861 1278 12658 1 149.00000 418.400000
11861 1279 12360 1 149.00000 418.400000
11861 1280 14459 1 149.00000 418.400000
11861 1281 15988 1 149.00000 418.400000
11862 1282 15129 1 149.00000 418.400000
11862 1283 15268 1 149.00000 418.400000
12450 1284 16842 1 149.00000 418.400000
11862 1285 16842 1 149.00000 418.400000
11863 1286 15220 1 149.00000 418.400000
15220 1287 16879 1 149.00000 418.400000
11863 1288 13010 1 149.00000 418.400000
11864 1289 13588 1 149.00000 418.400000
11864 1290 15161 1 149.00000 418.400000
11864 1291 18623 1 149.00000 418.400000
11865 1292 16013 1 149.00000 418.400000
11865 1293 16429 1 149.00000 418.400000
11865 1294 16270 1 149.00000 418.400000
11865 1295 16847 1 149.00000 418.400000
11866 1296 15902 1 149.00000 418.400000
11866 1297 15403 1 149.00000 418.400000
11866 1298 12221 1 149.00000 418.400000
11867 1299 11987 1 149.00000 418.400000
11867 1300 16391 1 149.00000 418.400000
11867 1301 12413 1 149.00000 418.400000
11867 1302 12909 1 149.00000 418.400000
11868 1303 15515 1 149.00000 418.400000
14585 1304 16451 1 149.00000 418.400000
11868 1305 14585 1 149.00000 418.400000
11868 1306 16343 1 149.00000 418.400000
11869 1307 14971 1 149.00000 418.400000
11869 1308 11927 1 149.00000 418.400000
11869 1309 13021 1 149.00000 418.400000
11870 1310 16497 1 149.00000 418.400000
11870 1311 14715 1 149.00000 418.400000
11798 1312 11870 1 149.00000 418.400000
11871 1313 12222 1 149.00000 418.400000
11871 1314 16758 1 149.00000 418.400000
11871 1315 13615 1 149.00000 418.400000
11871 1316 12355 1 149.00000 418.400000
11872 1317 13039 1 149.00000 418.400000
11872 1318 14884 1 149.00000 418.400000
11872 1319 16673 1 149.00000 418.400000
11872 1320 14715 1 149.00000 418.400000
11873 1321 14833 1 149.00000 418.400000
11873 1322 14851 1 149.00000 418.400000
11873 1323 16491 1 149.00000 418.400000
11873 1324 12190 1 149.00000 418.400000
11874 1325 12210 1 149.00000 418.400000
11874 1326 15060 1 149.00000 418.400000
11874 1327 18932 1 149.00000 418.400000
11874 1328 14612 1 149.00000 418.400000
11875 1329 13126 1 149.00000 418.400000
13126 1330 15246 1 149.00000 418.400000
11875 1331 12650 1 149.00000 418.400000
11876 1332 15823 1 149.00000 418.400000
11876 1333 15526 1 149.00000 418.400000
11876 1334 14664 1 149.00000 418.400000
11876 1335 14011 1 149.00000 418.400000
11877 1336 14315 1 149.00000 418.400000
11877 1337 15896 1 149.00000 418.400000
11877 1338 12743 1 149.00000 418.400000
11877 1339 14546 1 149.00000 418.400000
11878 1340 16202 1 149.00000 418.400000
11878 1341 13906 1 149.00000 418.400000
11878 1342 16491 1 149.00000 418.400000
12056 1343 18281 1 149.00000 418.400000
11967 1344 18281 1 149.00000 418.400000
11879 1345 12617 1 149.00000 418.400000
11879 1346 12087 1 149.00000 418.400000
11879 1347 14598 1 149.00000 418.400000
11879 1348 16722 1 149.00000 418.400000
13791 1349 16068 1 149.00000 418.400000
13791 1350 15755 1 149.00000 418.400000
11880 1351 13791 1 149.00000 418.400000
15634 1352 15755 1 149.00000 418.400000
11881 1353 14398 1 149.00000 418.400000
15475 1354 15574 1 149.00000 418.400000
11881 1355 16699 1 149.00000 418.400000
11881 1356 15475 1 149.00000 418.400000
12399 1357 16277 1 149.00000 418.400000
11882 1358 15754 1 149.00000 418.400000
12399 1359 14758 1 149.00000 418.400000
11882 1360 12399 1 149.00000 418.400000
11883 1361 16745 1 149.00000 418.400000
11883 1362 16263 1 149.00000 418.400000
11883 1363 14065 1 149.00000 418.400000
11883 1364 12033 1 149.00000 418.400000
11884 1365 14313 1 149.00000 418.400000
11884 1366 12364 1 149.00000 418.400000
11884 1367 15330 1 149.00000 418.400000
11884 1368 13942 1 149.00000 418.400000
11885 1369 13340 1 149.00000 418.400000
11885 1370 15086 1 149.00000 418.400000
11885 1371 14372 1 149.00000 418.400000
11885 1372 12062 1 149.00000 418.400000
11886 1373 12332 1 149.00000 418.400000
11886 1374 13911 1 149.00000 418.400000
11886 1375 15668 1 149.00000 418.400000
11887 1376 13053 1 149.00000 418.400000
11887 1377 16001 1 149.00000 418.400000
11887 1378 14660 1 149.00000 418.400000
11887 1379 12654 1 149.00000 418.400000
11888 1380 14940 1 149.00000 418.400000
11888 1381 12135 1 149.00000 418.400000
11888 1382 18920 1 149.00000 418.400000
11889 1383 15326 1 149.00000 418.400000
11889 1384 16638 1 149.00000 418.400000
11889 1385 15966 1 149.00000 418.400000
11889 1386 15084 1 149.00000 418.400000
13107 1387 18284 1 149.00000 418.400000
14990 1388 18284 1 149.00000 418.400000
16146 1389 18284 1 149.00000 418.400000
11890 1390 15459 1 149.00000 418.400000
11890 1391 13614 1 149.00000 418.400000
11890 1392 13504 1 149.00000 418.400000
11890 1393 12816 1 149.00000 418.400000
11891 1394 15573 1 149.00000 418.400000
11891 1395 13881 1 149.00000 418.400000
11891 1396 12533 1 149.00000 418.400000
11891 1397 15161 1 149.00000 418.400000
11892 1398 14430 1 149.00000 418.400000
11892 1399 13176 1 149.00000 418.400000
11892 1400 14776 1 149.00000 418.400000
11892 1401 13931 1 149.00000 418.400000
11893 1402 15345 1 149.00000 418.400000
14332 1403 16448 1 149.00000 418.400000
11893 1404 13913 1 149.00000 418.400000
11893 1405 14332 1 149.00000 418.400000
11894 1406 12437 1 149.00000 418.400000
11894 1407 16629 1 149.00000 418.400000
11894 1408 15776 1 149.00000 418.400000
12416 1409 15428 1 149.00000 418.400000
11895 1410 15428 1 149.00000 418.400000
11895 1411 16084 1 149.00000 418.400000
11895 1412 15570 1 149.00000 418.400000
14957 1413 18287 1 149.00000 418.400000
18287 1414 19110 1 149.00000 418.400000
11896 1415 16751 1 149.00000 418.400000
11896 1416 12028 1 149.00000 418.400000
11896 1417 15049 1 149.00000 418.400000
11897 1418 15710 1 149.00000 418.400000
11897 1419 16319 1 149.00000 418.400000
11897 1420 13432 1 149.00000 418.400000
11897 1421 13453 1 149.00000 418.400000
11898 1422 13916 1 149.00000 418.400000
11898 1423 12606 1 149.00000 418.400000
11898 1424 12880 1 149.00000 418.400000
11898 1425 15899 1 149.00000 418.400000
11899 1426 13138 1 149.00000 418.400000
11899 1427 13128 1 149.00000 418.400000
11899 1428 16972 1 149.00000 418.400000
11899 1429 14862 1 149.00000 418.400000
11900 1430 15497 1 149.00000 418.400000
11900 1431 14393 1 149.00000 418.400000
11900 1432 15511 1 149.00000 418.400000
11901 1433 13494 1 149.00000 418.400000
11901 1434 12229 1 149.00000 418.400000
11901 1435 15632 1 149.00000 418.400000
11902 1436 16248 1 149.00000 418.400000
11902 1437 13977 1 149.00000 418.400000
11902 1438 16038 1 149.00000 418.400000
11902 1439 12462 1 149.00000 418.400000
11903 1440 14176 1 149.00000 418.400000
11903 1441 15331 1 149.00000 418.400000
11903 1442 16711 1 149.00000 418.400000
16270 1443 17231 1 149.00000 418.400000
16397 1444 17231 1 149.00000 418.400000
11904 1445 14665 1 149.00000 418.400000
11904 1446 16746 1 149.00000 418.400000
11904 1447 17011 1 149.00000 418.400000
11904 1448 13149 1 149.00000 418.400000
11905 1449 16848 1 149.00000 418.400000
11905 1450 19115 1 149.00000 418.400000
11906 1451 12896 1 149.00000 418.400000
11906 1452 16259 1 149.00000 418.400000
11906 1453 14873 1 149.00000 418.400000
11907 1454 14753 1 149.00000 418.400000
11907 1455 18620 1 149.00000 418.400000
11907 1456 15896 1 149.00000 418.400000
11908 1457 14057 1 149.00000 418.400000
11908 1458 16815 1 149.00000 418.400000
11908 1459 16722 1 149.00000 418.400000
12707 1460 15571 1 149.00000 418.400000
11909 1461 15297 1 149.00000 418.400000
11909 1462 16255 1 149.00000 418.400000
14174 1463 15442 1 149.00000 418.400000
11910 1464 14960 1 149.00000 418.400000
11910 1465 14574 1 149.00000 418.400000
11910 1466 14614 1 149.00000 418.400000
11910 1467 15445 1 149.00000 418.400000
12310 1468 16493 1 149.00000 418.400000
12660 1469 14461 1 149.00000 418.400000
12310 1470 18167 1 149.00000 418.400000
12660 1471 18167 1 149.00000 418.400000
11911 1472 12462 1 149.00000 418.400000
11911 1473 13615 1 149.00000 418.400000
11911 1474 12838 1 149.00000 418.400000
11911 1475 13383 1 149.00000 418.400000
13859 1476 19090 1 149.00000 418.400000
14720 1477 19090 1 149.00000 418.400000
11912 1478 15348 1 149.00000 418.400000
11912 1479 16292 1 149.00000 418.400000
11912 1480 15607 1 149.00000 418.400000
11912 1481 17963 1 149.00000 418.400000
11913 1482 14508 1 149.00000 418.400000
11913 1483 15850 1 149.00000 418.400000
11913 1484 12356 1 149.00000 418.400000
11913 1485 16279 1 149.00000 418.400000
11914 1486 14460 1 149.00000 418.400000
11914 1487 15827 1 149.00000 418.400000
11914 1488 16402 1 149.00000 418.400000
11914 1489 15335 1 149.00000 418.400000
11915 1490 13787 1 149.00000 418.400000
11915 1491 14101 1 149.00000 418.400000
11915 1492 12404 1 149.00000 418.400000
11915 1493 15204 1 149.00000 418.400000
11916 1494 12279 1 149.00000 418.400000
11916 1495 13677 1 149.00000 418.400000
11916 1496 13184 1 149.00000 418.400000
11916 1497 13014 1 149.00000 418.400000
11917 1498 16171 1 149.00000 418.400000
12506 1499 13941 1 149.00000 418.400000
11917 1500 12506 1 149.00000 418.400000
11917 1501 12123 1 149.00000 418.400000
11918 1502 12433 1 149.00000 418.400000
11918 1503 13111 1 149.00000 418.400000
11918 1504 15279 1 149.00000 418.400000
11918 1505 14675 1 149.00000 418.400000
11919 1506 14415 1 149.00000 418.400000
11919 1507 13988 1 149.00000 418.400000
11919 1508 15287 1 149.00000 418.400000
11919 1509 16515 1 149.00000 418.400000
11920 1510 14031 1 149.00000 418.400000
11920 1511 14802 1 149.00000 418.400000
11920 1512 15819 1 149.00000 418.400000
11920 1513 15761 1 149.00000 418.400000
11921 1514 13142 1 149.00000 418.400000
11921 1515 15498 1 149.00000 418.400000
11921 1516 15141 1 149.00000 418.400000
11921 1517 15120 1 149.00000 418.400000
11922 1518 14578 1 149.00000 418.400000
11922 1519 14641 1 149.00000 418.400000
11922 1520 12257 1 149.00000 418.400000
11922 1521 16495 1 149.00000 418.400000
11923 1522 14705 1 149.00000 418.400000
11923 1523 14914 1 149.00000 418.400000
11923 1524 14134 1 149.00000 418.400000
11923 1525 15745 1 149.00000 418.400000
11924 1526 18524 1 149.00000 418.400000
11924 1527 14912 1 149.00000 418.400000
11924 1528 16361 1 149.00000 418.400000
11924 1529 14096 1 149.00000 418.400000
11925 1530 15882 1 149.00000 418.400000
11925 1531 16642 1 149.00000 418.400000
11925 1532 14783 1 149.00000 418.400000
11925 1533 14202 1 149.00000 418.400000
11926 1534 14993 1 149.00000 418.400000
11926 1535 15235 1 149.00000 418.400000
11926 1536 15285 1 149.00000 418.400000
11926 1537 15802 1 149.00000 418.400000
11927 1538 16784 1 149.00000 418.400000
11927 1539 13176 1 149.00000 418.400000
11927 1540 14879 1 149.00000 418.400000
11928 1541 13769 1 149.00000 418.400000
11928 1542 14943 1 149.00000 418.400000
11929 1543 16840 1 149.00000 418.400000
11929 1544 12709 1 149.00000 418.400000
11929 1545 14367 1 149.00000 418.400000
11929 1546 13982 1 149.00000 418.400000
11930 1547 12611 1 149.00000 418.400000
11930 1548 12144 1 149.00000 418.400000
11930 1549 15449 1 149.00000 418.400000
11930 1550 13958 1 149.00000 418.400000
11931 1551 15369 1 149.00000 418.400000
11931 1552 14021 1 149.00000 418.400000
11931 1553 15742 1 149.00000 418.400000
11931 1554 15045 1 149.00000 418.400000
11932 1555 12512 1 149.00000 418.400000
11932 1556 14283 1 149.00000 418.400000
11932 1557 14897 1 149.00000 418.400000
11932 1558 15118 1 149.00000 418.400000
11933 1559 15533 1 149.00000 418.400000
11933 1560 15423 1 149.00000 418.400000
11933 1561 15895 1 149.00000 418.400000
11933 1562 16725 1 149.00000 418.400000
11934 1563 14624 1 149.00000 418.400000
11934 1564 14310 1 149.00000 418.400000
11934 1565 12474 1 149.00000 418.400000
11934 1566 12098 1 149.00000 418.400000
11935 1567 12000 1 149.00000 418.400000
12614 1568 16535 1 149.00000 418.400000
11935 1569 12614 1 149.00000 418.400000
11935 1570 13993 1 149.00000 418.400000
11936 1571 12461 1 149.00000 418.400000
11936 1572 16345 1 149.00000 418.400000
11936 1573 16112 1 149.00000 418.400000
11936 1574 12438 1 149.00000 418.400000
11937 1575 16278 1 149.00000 418.400000
12178 1576 16278 1 149.00000 418.400000
11937 1577 16598 1 149.00000 418.400000
11937 1578 15015 1 149.00000 418.400000
11938 1579 13817 1 149.00000 418.400000
11938 1580 15146 1 149.00000 418.400000
11938 1581 13243 1 149.00000 418.400000
11938 1582 14844 1 149.00000 418.400000
11939 1583 12329 1 149.00000 418.400000
11939 1584 13290 1 149.00000 418.400000
11939 1585 13893 1 149.00000 418.400000
11940 1586 12663 1 149.00000 418.400000
11940 1587 16906 1 149.00000 418.400000
12576 1588 16906 1 149.00000 418.400000
11941 1589 16028 1 149.00000 418.400000
11941 1590 14006 1 149.00000 418.400000
11941 1591 15869 1 149.00000 418.400000
11941 1592 15978 1 149.00000 418.400000
11942 1593 16206 1 149.00000 418.400000
11942 1594 13478 1 149.00000 418.400000
11942 1595 15290 1 149.00000 418.400000
11943 1596 16811 1 149.00000 418.400000
11673 1597 11943 1 149.00000 418.400000
11943 1598 15795 1 149.00000 418.400000
11944 1599 14397 1 149.00000 418.400000
11944 1600 14135 1 149.00000 418.400000
11944 1601 11991 1 149.00000 418.400000
11945 1602 12394 1 149.00000 418.400000
11945 1603 13535 1 149.00000 418.400000
11945 1604 14055 1 149.00000 418.400000
11946 1605 13457 1 149.00000 418.400000
11946 1606 14503 1 149.00000 418.400000
11946 1607 14798 1 149.00000 418.400000
11946 1608 12581 1 149.00000 418.400000
11947 1609 13992 1 149.00000 418.400000
11947 1610 14529 1 149.00000 418.400000
11947 1611 13131 1 149.00000 418.400000
13992 1612 16075 1 149.00000 418.400000
11948 1613 13056 1 149.00000 418.400000
11948 1614 16480 1 149.00000 418.400000
11948 1615 16568 1 149.00000 418.400000
11949 1616 12855 1 149.00000 418.400000
11949 1617 13069 1 149.00000 418.400000
11949 1618 14154 1 149.00000 418.400000
11964 1619 13990 1 149.00000 418.400000
11950 1620 13990 1 149.00000 418.400000
11950 1621 14662 1 149.00000 418.400000
11950 1622 15061 1 149.00000 418.400000
18290 1623 19016 1 149.00000 418.400000
13271 1624 18290 1 149.00000 418.400000
12095 1625 18290 1 149.00000 418.400000
11951 1626 14241 1 149.00000 418.400000
11951 1627 12566 1 149.00000 418.400000
11951 1628 13982 1 149.00000 418.400000
11951 1629 14999 1 149.00000 418.400000
11952 1630 16196 1 149.00000 418.400000
11952 1631 16683 1 149.00000 418.400000
11952 1632 16285 1 149.00000 418.400000
13575 1633 16683 1 149.00000 418.400000
11953 1634 18872 1 149.00000 418.400000
11953 1635 15698 1 149.00000 418.400000
11953 1636 13893 1 149.00000 418.400000
11954 1637 16403 1 149.00000 418.400000
11954 1638 15279 1 149.00000 418.400000
11954 1639 14427 1 149.00000 418.400000
11954 1640 15578 1 149.00000 418.400000
11955 1641 13815 1 149.00000 418.400000
11955 1642 12941 1 149.00000 418.400000
11955 1643 18515 1 149.00000 418.400000
11956 1644 19028 1 149.00000 418.400000
11956 1645 16009 1 149.00000 418.400000
11956 1646 14965 1 149.00000 418.400000
11817 1647 14692 1 149.00000 418.400000
12494 1648 13588 1 149.00000 418.400000
11817 1649 12494 1 149.00000 418.400000
13475 1650 19095 1 149.00000 418.400000
16785 1651 19095 1 149.00000 418.400000
11958 1652 11959 1 149.00000 418.400000
11958 1653 12975 1 149.00000 418.400000
11958 1654 12120 1 149.00000 418.400000
11959 1655 13460 1 149.00000 418.400000
11960 1656 16823 1 149.00000 418.400000
11960 1657 13685 1 149.00000 418.400000
11960 1658 14868 1 149.00000 418.400000
11960 1659 12577 1 149.00000 418.400000
11961 1660 12954 1 149.00000 418.400000
11961 1661 17004 1 149.00000 418.400000
11961 1662 15928 1 149.00000 418.400000
11961 1663 14026 1 149.00000 418.400000
11962 1664 13477 1 149.00000 418.400000
11962 1665 12862 1 149.00000 418.400000
11962 1666 13030 1 149.00000 418.400000
11962 1667 16011 1 149.00000 418.400000
11963 1668 15611 1 149.00000 418.400000
11963 1669 15973 1 149.00000 418.400000
11963 1670 16979 1 149.00000 418.400000
11963 1671 12415 1 149.00000 418.400000
11964 1672 13910 1 149.00000 418.400000
11964 1673 14088 1 149.00000 418.400000
11965 1674 16178 1 149.00000 418.400000
11965 1675 14343 1 149.00000 418.400000
11965 1676 15281 1 149.00000 418.400000
11965 1677 13108 1 149.00000 418.400000
11966 1678 15994 1 149.00000 418.400000
11966 1679 12860 1 149.00000 418.400000
11966 1680 14791 1 149.00000 418.400000
11967 1681 15046 1 149.00000 418.400000
11967 1682 14760 1 149.00000 418.400000
11967 1683 13727 1 149.00000 418.400000
17301 1684 18623 1 149.00000 418.400000
11968 1685 18551 1 149.00000 418.400000
14268 1686 17399 1 149.00000 418.400000
14268 1687 18293 1 149.00000 418.400000
13661 1688 18293 1 149.00000 418.400000
18296 1689 18410 1 149.00000 418.400000
15197 1690 18296 1 149.00000 418.400000
15367 1691 18296 1 149.00000 418.400000
11969 1692 14153 1 149.00000 418.400000
11969 1693 13579 1 149.00000 418.400000
11969 1694 16046 1 149.00000 418.400000
11969 1695 14566 1 149.00000 418.400000
12648 1696 16686 1 149.00000 418.400000
11970 1697 12648 1 149.00000 418.400000
11970 1698 12111 1 149.00000 418.400000
11970 1699 18428 1 149.00000 418.400000
11971 1700 16421 1 149.00000 418.400000
11971 1701 18716 1 149.00000 418.400000
11971 1702 13897 1 149.00000 418.400000
11971 1703 13177 1 149.00000 418.400000
11972 1704 15433 1 149.00000 418.400000
11972 1705 13248 1 149.00000 418.400000
11972 1706 16804 1 149.00000 418.400000
11972 1707 14943 1 149.00000 418.400000
11973 1708 12636 1 149.00000 418.400000
11973 1709 15445 1 149.00000 418.400000
11973 1710 15371 1 149.00000 418.400000
11974 1711 15691 1 149.00000 418.400000
15450 1712 15691 1 149.00000 418.400000
11974 1713 16099 1 149.00000 418.400000
11974 1714 14978 1 149.00000 418.400000
11975 1715 18896 1 149.00000 418.400000
11975 1716 13464 1 149.00000 418.400000
11975 1717 18605 1 149.00000 418.400000
11976 1718 13351 1 149.00000 418.400000
11977 1719 14993 1 149.00000 418.400000
13084 1720 16590 1 149.00000 418.400000
13084 1721 16504 1 149.00000 418.400000
11977 1722 13084 1 149.00000 418.400000
11978 1723 13650 1 149.00000 418.400000
11978 1724 15947 1 149.00000 418.400000
11978 1725 15955 1 149.00000 418.400000
11978 1726 16796 1 149.00000 418.400000
16291 1727 18299 1 149.00000 418.400000
11979 1728 16420 1 149.00000 418.400000
11979 1729 14576 1 149.00000 418.400000
11979 1730 12349 1 149.00000 418.400000
11980 1731 15388 1 149.00000 418.400000
11980 1732 16351 1 149.00000 418.400000
11980 1733 13544 1 149.00000 418.400000
11980 1734 13432 1 149.00000 418.400000
15153 1735 18302 1 149.00000 418.400000
15901 1736 18302 1 149.00000 418.400000
14300 1737 18302 1 149.00000 418.400000
11981 1738 16201 1 149.00000 418.400000
11981 1739 16982 1 149.00000 418.400000
14568 1740 16201 1 149.00000 418.400000
12603 1741 16982 1 149.00000 418.400000
18305 1742 18698 1 149.00000 418.400000
11982 1743 12486 1 149.00000 418.400000
11982 1744 12520 1 149.00000 418.400000
11982 1745 15002 1 149.00000 418.400000
11982 1746 15933 1 149.00000 418.400000
11983 1747 13201 1 149.00000 418.400000
11983 1748 15780 1 149.00000 418.400000
11711 1749 15364 1 149.00000 418.400000
16667 1750 17175 1 149.00000 418.400000
11984 1751 19043 1 149.00000 418.400000
11984 1752 14275 1 149.00000 418.400000
11984 1753 14543 1 149.00000 418.400000
11985 1754 16127 1 149.00000 418.400000
11985 1755 15664 1 149.00000 418.400000
11985 1756 18818 1 149.00000 418.400000
11985 1757 13391 1 149.00000 418.400000
11986 1758 16607 1 149.00000 418.400000
11986 1759 14543 1 149.00000 418.400000
11986 1760 16143 1 149.00000 418.400000
11987 1761 13239 1 149.00000 418.400000
11987 1762 15932 1 149.00000 418.400000
11987 1763 12288 1 149.00000 418.400000
11988 1764 12415 1 149.00000 418.400000
11988 1765 14048 1 149.00000 418.400000
11988 1766 12516 1 149.00000 418.400000
11988 1767 12582 1 149.00000 418.400000
11989 1768 14511 1 149.00000 418.400000
11989 1769 13043 1 149.00000 418.400000
11989 1770 12980 1 149.00000 418.400000
11989 1771 14397 1 149.00000 418.400000
11990 1772 18740 1 149.00000 418.400000
11990 1773 12627 1 149.00000 418.400000
11990 1774 14514 1 149.00000 418.400000
11990 1775 14682 1 149.00000 418.400000
17002 1776 18308 1 149.00000 418.400000
12922 1777 18308 1 149.00000 418.400000
11991 1778 14854 1 149.00000 418.400000
11991 1779 13100 1 149.00000 418.400000
11991 1780 16721 1 149.00000 418.400000
11992 1781 19007 1 149.00000 418.400000
11992 1782 13006 1 149.00000 418.400000
11992 1783 14144 1 149.00000 418.400000
11992 1784 16419 1 149.00000 418.400000
11993 1785 14306 1 149.00000 418.400000
11993 1786 15403 1 149.00000 418.400000
11993 1787 15230 1 149.00000 418.400000
11994 1788 15296 1 149.00000 418.400000
11994 1789 14820 1 149.00000 418.400000
11994 1790 15052 1 149.00000 418.400000
11994 1791 13099 1 149.00000 418.400000
11995 1792 13038 1 149.00000 418.400000
11995 1793 13148 1 149.00000 418.400000
11995 1794 14279 1 149.00000 418.400000
11996 1795 13854 1 149.00000 418.400000
11996 1796 15233 1 149.00000 418.400000
11996 1797 16633 1 149.00000 418.400000
11996 1798 14428 1 149.00000 418.400000
11997 1799 14345 1 149.00000 418.400000
11997 1800 13527 1 149.00000 418.400000
11997 1801 12822 1 149.00000 418.400000
11997 1802 12526 1 149.00000 418.400000
11998 1803 12281 1 149.00000 418.400000
11998 1804 14851 1 149.00000 418.400000
11998 1805 17007 1 149.00000 418.400000
11998 1806 14954 1 149.00000 418.400000
15373 1807 17455 1 149.00000 418.400000
13518 1808 17455 1 149.00000 418.400000
11999 1809 12665 1 149.00000 418.400000
11999 1810 12302 1 149.00000 418.400000
11999 1811 13726 1 149.00000 418.400000
12000 1812 13950 1 149.00000 418.400000
12000 1813 12070 1 149.00000 418.400000
12000 1814 14442 1 149.00000 418.400000
12001 1815 12855 1 149.00000 418.400000
12001 1816 13160 1 149.00000 418.400000
12001 1817 14539 1 149.00000 418.400000
12001 1818 16779 1 149.00000 418.400000
12002 1819 12261 1 149.00000 418.400000
12002 1820 13267 1 149.00000 418.400000
12002 1821 15884 1 149.00000 418.400000
12003 1822 13668 1 149.00000 418.400000
12003 1823 15094 1 149.00000 418.400000
12003 1824 17011 1 149.00000 418.400000
12004 1825 15723 1 149.00000 418.400000
12004 1826 16311 1 149.00000 418.400000
12004 1827 14272 1 149.00000 418.400000
12004 1828 16257 1 149.00000 418.400000
13648 1829 18311 1 149.00000 418.400000
14008 1830 18311 1 149.00000 418.400000
14237 1831 18311 1 149.00000 418.400000
12005 1832 14420 1 149.00000 418.400000
12005 1833 12757 1 149.00000 418.400000
12005 1834 15654 1 149.00000 418.400000
12005 1835 15899 1 149.00000 418.400000
12006 1836 13973 1 149.00000 418.400000
12006 1837 13157 1 149.00000 418.400000
12006 1838 16075 1 149.00000 418.400000
12007 1839 14755 1 149.00000 418.400000
12007 1840 13546 1 149.00000 418.400000
12007 1841 12624 1 149.00000 418.400000
12007 1842 14769 1 149.00000 418.400000
12008 1843 16661 1 149.00000 418.400000
12008 1844 16251 1 149.00000 418.400000
12008 1845 12530 1 149.00000 418.400000
12008 1846 15724 1 149.00000 418.400000
12009 1847 12818 1 149.00000 418.400000
12009 1848 12702 1 149.00000 418.400000
12009 1849 12938 1 149.00000 418.400000
12009 1850 14469 1 149.00000 418.400000
12010 1851 14764 1 149.00000 418.400000
12010 1852 13215 1 149.00000 418.400000
12010 1853 16490 1 149.00000 418.400000
12010 1854 12081 1 149.00000 418.400000
12011 1855 15203 1 149.00000 418.400000
12011 1856 15660 1 149.00000 418.400000
12011 1857 15992 1 149.00000 418.400000
17771 1858 17939 1 149.00000 418.400000
12012 1859 15577 1 149.00000 418.400000
12012 1860 15757 1 149.00000 418.400000
12012 1861 12753 1 149.00000 418.400000
12012 1862 13253 1 149.00000 418.400000
13118 1863 18071 1 149.00000 418.400000
12985 1864 18071 1 149.00000 418.400000
15269 1865 18071 1 149.00000 418.400000
12013 1866 16954 1 149.00000 418.400000
12013 1867 15910 1 149.00000 418.400000
12014 1868 14528 1 149.00000 418.400000
12014 1869 16950 1 149.00000 418.400000
12014 1870 16249 1 149.00000 418.400000
12014 1871 16476 1 149.00000 418.400000
12015 1872 13469 1 149.00000 418.400000
12015 1873 12052 1 149.00000 418.400000
12015 1874 14035 1 149.00000 418.400000
12015 1875 16726 1 149.00000 418.400000
12016 1876 16228 1 149.00000 418.400000
12016 1877 15976 1 149.00000 418.400000
12016 1878 16980 1 149.00000 418.400000
12017 1879 14471 1 149.00000 418.400000
12017 1880 16443 1 149.00000 418.400000
12017 1881 13268 1 149.00000 418.400000
12017 1882 12673 1 149.00000 418.400000
12018 1883 14361 1 149.00000 418.400000
12018 1884 13242 1 149.00000 418.400000
12018 1885 14394 1 149.00000 418.400000
12019 1886 12488 1 149.00000 418.400000
12019 1887 14939 1 149.00000 418.400000
12019 1888 13609 1 149.00000 418.400000
12020 1889 14745 1 149.00000 418.400000
12020 1890 16857 1 149.00000 418.400000
12020 1891 13368 1 149.00000 418.400000
12021 1892 14283 1 149.00000 418.400000
12021 1893 15254 1 149.00000 418.400000
14283 1894 16052 1 149.00000 418.400000
12021 1895 16070 1 149.00000 418.400000
12022 1896 13495 1 149.00000 418.400000
12022 1897 16879 1 149.00000 418.400000
12023 1898 12209 1 149.00000 418.400000
12023 1899 14887 1 149.00000 418.400000
12023 1900 14787 1 149.00000 418.400000
12023 1901 16649 1 149.00000 418.400000
14716 1902 17000 1 149.00000 418.400000
12024 1903 13167 1 149.00000 418.400000
15875 1904 16271 1 149.00000 418.400000
12024 1905 14716 1 149.00000 418.400000
12025 1906 15714 1 149.00000 418.400000
12025 1907 14832 1 149.00000 418.400000
12025 1908 16507 1 149.00000 418.400000
12025 1909 12370 1 149.00000 418.400000
12026 1910 13221 1 149.00000 418.400000
12026 1911 14381 1 149.00000 418.400000
14381 1912 15234 1 149.00000 418.400000
12026 1913 14023 1 149.00000 418.400000
12027 1914 16720 1 149.00000 418.400000
12027 1915 16532 1 149.00000 418.400000
12027 1916 13386 1 149.00000 418.400000
12027 1917 12353 1 149.00000 418.400000
12028 1918 15348 1 149.00000 418.400000
12028 1919 13756 1 149.00000 418.400000
12029 1920 16747 1 149.00000 418.400000
12029 1921 15643 1 149.00000 418.400000
12029 1922 19061 1 149.00000 418.400000
12029 1923 13685 1 149.00000 418.400000
15682 1924 16541 1 149.00000 418.400000
12030 1925 15682 1 149.00000 418.400000
12030 1926 18821 1 149.00000 418.400000
15068 1927 18821 1 149.00000 418.400000
13170 1928 16732 1 149.00000 418.400000
12031 1929 12600 1 149.00000 418.400000
12152 1930 16472 1 149.00000 418.400000
12031 1931 13170 1 149.00000 418.400000
12032 1932 16486 1 149.00000 418.400000
12032 1933 16524 1 149.00000 418.400000
12032 1934 15182 1 149.00000 418.400000
12032 1935 15303 1 149.00000 418.400000
12033 1936 14271 1 149.00000 418.400000
12033 1937 12298 1 149.00000 418.400000
12033 1938 13806 1 149.00000 418.400000
12509 1939 14554 1 149.00000 418.400000
12034 1940 12089 1 149.00000 418.400000
12034 1941 13765 1 149.00000 418.400000
12034 1942 16113 1 149.00000 418.400000
12035 1943 12922 1 149.00000 418.400000
12035 1944 17441 1 149.00000 418.400000
12035 1945 18584 1 149.00000 418.400000
11629 1946 12809 1 149.00000 418.400000
12036 1947 15500 1 149.00000 418.400000
11629 1948 14352 1 149.00000 418.400000
12037 1949 15461 1 149.00000 418.400000
12037 1950 13406 1 149.00000 418.400000
12037 1951 16053 1 149.00000 418.400000
12038 1952 13986 1 149.00000 418.400000
12038 1953 14395 1 149.00000 418.400000
12038 1954 14484 1 149.00000 418.400000
12038 1955 13267 1 149.00000 418.400000
12039 1956 12358 1 149.00000 418.400000
12039 1957 12606 1 149.00000 418.400000
12039 1958 13587 1 149.00000 418.400000
12039 1959 13249 1 149.00000 418.400000
12040 1960 19145 1 149.00000 418.400000
12040 1961 14150 1 149.00000 418.400000
12040 1962 13640 1 149.00000 418.400000
12040 1963 13033 1 149.00000 418.400000
12041 1964 12204 1 149.00000 418.400000
12041 1965 14774 1 149.00000 418.400000
12041 1966 16817 1 149.00000 418.400000
12041 1967 16442 1 149.00000 418.400000
12042 1968 16942 1 149.00000 418.400000
12042 1969 15924 1 149.00000 418.400000
12042 1970 18899 1 149.00000 418.400000
12043 1971 15778 1 149.00000 418.400000
12043 1972 18491 1 149.00000 418.400000
12043 1973 16114 1 149.00000 418.400000
13793 1974 16114 1 149.00000 418.400000
15002 1975 16273 1 149.00000 418.400000
12044 1976 15231 1 149.00000 418.400000
12044 1977 16273 1 149.00000 418.400000
12044 1978 12987 1 149.00000 418.400000
12045 1979 12075 1 149.00000 418.400000
12045 1980 12429 1 149.00000 418.400000
12045 1981 13600 1 149.00000 418.400000
12045 1982 15684 1 149.00000 418.400000
12046 1983 13196 1 149.00000 418.400000
12046 1984 17795 1 149.00000 418.400000
12046 1985 14267 1 149.00000 418.400000
12046 1986 18314 1 149.00000 418.400000
12047 1987 12985 1 149.00000 418.400000
12047 1988 12110 1 149.00000 418.400000
16311 1989 16341 1 149.00000 418.400000
12047 1990 16341 1 149.00000 418.400000
12048 1991 14207 1 149.00000 418.400000
12048 1992 16609 1 149.00000 418.400000
12048 1993 16770 1 149.00000 418.400000
12048 1994 12282 1 149.00000 418.400000
12049 1995 14027 1 149.00000 418.400000
12049 1996 13395 1 149.00000 418.400000
12049 1997 14752 1 149.00000 418.400000
12049 1998 15881 1 149.00000 418.400000
12050 1999 15059 1 149.00000 418.400000
12050 2000 13307 1 149.00000 418.400000
12050 2001 14693 1 149.00000 418.400000
12050 2002 15389 1 149.00000 418.400000
12051 2003 12313 1 149.00000 418.400000
12051 2004 14192 1 149.00000 418.400000
12051 2005 15985 1 149.00000 418.400000
12052 2006 16447 1 149.00000 418.400000
12052 2007 15147 1 149.00000 418.400000
12052 2008 14950 1 149.00000 418.400000
18734 2009 19180 1 149.00000 418.400000
12053 2010 15153 1 149.00000 418.400000
12053 2011 13180 1 149.00000 418.400000
12053 2012 13273 1 149.00000 418.400000
12053 2013 13499 1 149.00000 418.400000
12054 2014 12948 1 149.00000 418.400000
12054 2015 13627 1 149.00000 418.400000
12054 2016 16067 1 149.00000 418.400000
12054 2017 13406 1 149.00000 418.400000
12055 2018 13908 1 149.00000 418.400000
12055 2019 15251 1 149.00000 418.400000
12056 2020 15434 1 149.00000 418.400000
12056 2021 12868 1 149.00000 418.400000
12056 2022 12391 1 149.00000 418.400000
12057 2023 13004 1 149.00000 418.400000
12057 2024 15380 1 149.00000 418.400000
12057 2025 13047 1 149.00000 418.400000
12057 2026 17555 1 149.00000 418.400000
12058 2027 12343 1 149.00000 418.400000
12058 2028 16258 1 149.00000 418.400000
12059 2029 13626 1 149.00000 418.400000
12059 2030 15462 1 149.00000 418.400000
12059 2031 15454 1 149.00000 418.400000
12059 2032 12640 1 149.00000 418.400000
12060 2033 14186 1 149.00000 418.400000
12060 2034 16804 1 149.00000 418.400000
12060 2035 15754 1 149.00000 418.400000
12060 2036 19058 1 149.00000 418.400000
12061 2037 15196 1 149.00000 418.400000
12061 2038 15346 1 149.00000 418.400000
12061 2039 15254 1 149.00000 418.400000
12061 2040 12296 1 149.00000 418.400000
12062 2041 16847 1 149.00000 418.400000
12062 2042 16083 1 149.00000 418.400000
12063 2043 18611 1 149.00000 418.400000
12063 2044 15545 1 149.00000 418.400000
12063 2045 13350 1 149.00000 418.400000
12064 2046 17133 1 149.00000 418.400000
12064 2047 18824 1 149.00000 418.400000
12064 2048 15587 1 149.00000 418.400000
12065 2049 13332 1 149.00000 418.400000
12065 2050 15717 1 149.00000 418.400000
12065 2051 13729 1 149.00000 418.400000
12065 2052 13409 1 149.00000 418.400000
12066 2053 12071 1 149.00000 418.400000
12066 2054 13360 1 149.00000 418.400000
12067 2055 12355 1 149.00000 418.400000
12067 2056 16380 1 149.00000 418.400000
12067 2057 16527 1 149.00000 418.400000
12067 2058 12274 1 149.00000 418.400000
12068 2059 13535 1 149.00000 418.400000
12068 2060 12357 1 149.00000 418.400000
12068 2061 14455 1 149.00000 418.400000
12069 2062 16304 1 149.00000 418.400000
12069 2063 15412 1 149.00000 418.400000
12069 2064 12540 1 149.00000 418.400000
12069 2065 16007 1 149.00000 418.400000
17723 2066 18314 1 149.00000 418.400000
12070 2067 13792 1 149.00000 418.400000
12070 2068 15661 1 149.00000 418.400000
12070 2069 13188 1 149.00000 418.400000
12071 2070 12129 1 149.00000 418.400000
12071 2071 14710 1 149.00000 418.400000
12072 2072 14151 1 149.00000 418.400000
12072 2073 15291 1 149.00000 418.400000
11740 2074 16195 1 149.00000 418.400000
12073 2075 12622 1 149.00000 418.400000
12073 2076 14667 1 149.00000 418.400000
12073 2077 15506 1 149.00000 418.400000
12073 2078 16912 1 149.00000 418.400000
12074 2079 14400 1 149.00000 418.400000
12074 2080 15153 1 149.00000 418.400000
12074 2081 13116 1 149.00000 418.400000
12075 2082 12528 1 149.00000 418.400000
12075 2083 16574 1 149.00000 418.400000
12076 2084 14721 1 149.00000 418.400000
12076 2085 15093 1 149.00000 418.400000
12076 2086 16475 1 149.00000 418.400000
12076 2087 13052 1 149.00000 418.400000
12077 2088 12529 1 149.00000 418.400000
12077 2089 13914 1 149.00000 418.400000
12077 2090 13315 1 149.00000 418.400000
12077 2091 14140 1 149.00000 418.400000
12078 2092 16192 1 149.00000 418.400000
12078 2093 13929 1 149.00000 418.400000
12078 2094 15119 1 149.00000 418.400000
12078 2095 18398 1 149.00000 418.400000
12079 2096 14741 1 149.00000 418.400000
12079 2097 18404 1 149.00000 418.400000
12080 2098 16818 1 149.00000 418.400000
16818 2099 18857 1 149.00000 418.400000
12080 2100 15906 1 149.00000 418.400000
12081 2101 12104 1 149.00000 418.400000
12081 2102 16220 1 149.00000 418.400000
12081 2103 16219 1 149.00000 418.400000
12082 2104 16695 1 149.00000 418.400000
12082 2105 13685 1 149.00000 418.400000
12082 2106 16482 1 149.00000 418.400000
17843 2107 19100 1 149.00000 418.400000
16836 2108 19100 1 149.00000 418.400000
12083 2109 12976 1 149.00000 418.400000
12083 2110 16209 1 149.00000 418.400000
12083 2111 14879 1 149.00000 418.400000
12083 2112 15292 1 149.00000 418.400000
12084 2113 16394 1 149.00000 418.400000
12084 2114 13189 1 149.00000 418.400000
12084 2115 13728 1 149.00000 418.400000
12084 2116 15573 1 149.00000 418.400000
12337 2117 14079 1 149.00000 418.400000
12085 2118 14079 1 149.00000 418.400000
12085 2119 16379 1 149.00000 418.400000
12085 2120 14301 1 149.00000 418.400000
12086 2121 14236 1 149.00000 418.400000
12086 2122 13682 1 149.00000 418.400000
12086 2123 12942 1 149.00000 418.400000
12086 2124 16871 1 149.00000 418.400000
12087 2125 16915 1 149.00000 418.400000
12087 2126 13399 1 149.00000 418.400000
12088 2127 12496 1 149.00000 418.400000
12088 2128 12796 1 149.00000 418.400000
12088 2129 16514 1 149.00000 418.400000
12088 2130 15854 1 149.00000 418.400000
12089 2131 15168 1 149.00000 418.400000
12089 2132 14599 1 149.00000 418.400000
12090 2133 12151 1 149.00000 418.400000
12090 2134 13568 1 149.00000 418.400000
12090 2135 15580 1 149.00000 418.400000
12090 2136 13920 1 149.00000 418.400000
12091 2137 14411 1 149.00000 418.400000
12091 2138 15966 1 149.00000 418.400000
12091 2139 18350 1 149.00000 418.400000
12092 2140 14110 1 149.00000 418.400000
12092 2141 13303 1 149.00000 418.400000
12092 2142 12960 1 149.00000 418.400000
12092 2143 15468 1 149.00000 418.400000
12093 2144 16686 1 149.00000 418.400000
12093 2145 13296 1 149.00000 418.400000
12093 2146 13776 1 149.00000 418.400000
12093 2147 13329 1 149.00000 418.400000
12094 2148 19155 1 149.00000 418.400000
12095 2149 13700 1 149.00000 418.400000
12095 2150 16788 1 149.00000 418.400000
12095 2151 15306 1 149.00000 418.400000
12096 2152 16181 1 149.00000 418.400000
12096 2153 16461 1 149.00000 418.400000
12096 2154 15469 1 149.00000 418.400000
12096 2155 16708 1 149.00000 418.400000
12097 2156 16256 1 149.00000 418.400000
12097 2157 16696 1 149.00000 418.400000
12097 2158 14066 1 149.00000 418.400000
12098 2159 14700 1 149.00000 418.400000
12098 2160 12775 1 149.00000 418.400000
12099 2161 12961 1 149.00000 418.400000
12099 2162 16890 1 149.00000 418.400000
13292 2163 14681 1 149.00000 418.400000
12099 2164 13292 1 149.00000 418.400000
14554 2165 18317 1 149.00000 418.400000
14196 2166 18317 1 149.00000 418.400000
12100 2167 15692 1 149.00000 418.400000
12100 2168 14728 1 149.00000 418.400000
12100 2169 15751 1 149.00000 418.400000
12100 2170 14872 1 149.00000 418.400000
12101 2171 13595 1 149.00000 418.400000
12101 2172 14970 1 149.00000 418.400000
12101 2173 16849 1 149.00000 418.400000
12101 2174 15789 1 149.00000 418.400000
12102 2175 12971 1 149.00000 418.400000
14890 2176 16831 1 149.00000 418.400000
12102 2177 18689 1 149.00000 418.400000
12102 2178 16831 1 149.00000 418.400000
12103 2179 15656 1 149.00000 418.400000
12103 2180 14685 1 149.00000 418.400000
12104 2181 16144 1 149.00000 418.400000
12104 2182 14305 1 149.00000 418.400000
12104 2183 14133 1 149.00000 418.400000
12105 2184 12760 1 149.00000 418.400000
12105 2185 14950 1 149.00000 418.400000
12105 2186 16956 1 149.00000 418.400000
12105 2187 14468 1 149.00000 418.400000
12106 2188 12996 1 149.00000 418.400000
12106 2189 16536 1 149.00000 418.400000
12106 2190 12553 1 149.00000 418.400000
12106 2191 14118 1 149.00000 418.400000
12107 2192 16948 1 149.00000 418.400000
12107 2193 16731 1 149.00000 418.400000
15736 2194 16754 1 149.00000 418.400000
12107 2195 16754 1 149.00000 418.400000
12108 2196 16174 1 149.00000 418.400000
12108 2197 15953 1 149.00000 418.400000
12108 2198 16426 1 149.00000 418.400000
12108 2199 15474 1 149.00000 418.400000
15609 2200 18320 1 149.00000 418.400000
15258 2201 18320 1 149.00000 418.400000
12109 2202 12938 1 149.00000 418.400000
12109 2203 12912 1 149.00000 418.400000
12109 2204 16461 1 149.00000 418.400000
12109 2205 14082 1 149.00000 418.400000
12110 2206 16318 1 149.00000 418.400000
12110 2207 13282 1 149.00000 418.400000
12110 2208 12117 1 149.00000 418.400000
12111 2209 15467 1 149.00000 418.400000
12111 2210 13155 1 149.00000 418.400000
12111 2211 13093 1 149.00000 418.400000
12112 2212 13320 1 149.00000 418.400000
12112 2213 15648 1 149.00000 418.400000
12112 2214 12781 1 149.00000 418.400000
12112 2215 16940 1 149.00000 418.400000
12113 2216 12525 1 149.00000 418.400000
12113 2217 12755 1 149.00000 418.400000
12114 2218 15644 1 149.00000 418.400000
12114 2219 12801 1 149.00000 418.400000
12114 2220 15897 1 149.00000 418.400000
12114 2221 16145 1 149.00000 418.400000
12115 2222 13420 1 149.00000 418.400000
12115 2223 15550 1 149.00000 418.400000
12115 2224 14029 1 149.00000 418.400000
12115 2225 14827 1 149.00000 418.400000
12116 2226 13643 1 149.00000 418.400000
12116 2227 16048 1 149.00000 418.400000
12116 2228 15820 1 149.00000 418.400000
12116 2229 13632 1 149.00000 418.400000
12117 2230 15380 1 149.00000 418.400000
12117 2231 16257 1 149.00000 418.400000
12117 2232 13118 1 149.00000 418.400000
12118 2233 12649 1 149.00000 418.400000
12118 2234 13071 1 149.00000 418.400000
12119 2235 14145 1 149.00000 418.400000
12119 2236 13101 1 149.00000 418.400000
12119 2237 15118 1 149.00000 418.400000
12119 2238 13630 1 149.00000 418.400000
12120 2239 15320 1 149.00000 418.400000
12120 2240 18608 1 149.00000 418.400000
12120 2241 12678 1 149.00000 418.400000
12121 2242 16444 1 149.00000 418.400000
12121 2243 14000 1 149.00000 418.400000
12121 2244 13115 1 149.00000 418.400000
12121 2245 16232 1 149.00000 418.400000
12122 2246 19130 1 149.00000 418.400000
12122 2247 16927 1 149.00000 418.400000
12122 2248 13332 1 149.00000 418.400000
12122 2249 15290 1 149.00000 418.400000
12123 2250 14852 1 149.00000 418.400000
12123 2251 13190 1 149.00000 418.400000
12123 2252 15917 1 149.00000 418.400000
12124 2253 15201 1 149.00000 418.400000
12124 2254 13802 1 149.00000 418.400000
12124 2255 13879 1 149.00000 418.400000
12124 2256 14226 1 149.00000 418.400000
12125 2257 13125 1 149.00000 418.400000
12125 2258 14894 1 149.00000 418.400000
12125 2259 16424 1 149.00000 418.400000
12125 2260 13693 1 149.00000 418.400000
12126 2261 15056 1 149.00000 418.400000
12126 2262 16506 1 149.00000 418.400000
12126 2263 13256 1 149.00000 418.400000
12126 2264 15324 1 149.00000 418.400000
12127 2265 14937 1 149.00000 418.400000
12127 2266 13470 1 149.00000 418.400000
12127 2267 13997 1 149.00000 418.400000
12127 2268 12559 1 149.00000 418.400000
12320 2269 16882 1 149.00000 418.400000
12128 2270 16882 1 149.00000 418.400000
12128 2271 16736 1 149.00000 418.400000
12128 2272 12363 1 149.00000 418.400000
12129 2273 12837 1 149.00000 418.400000
12129 2274 15227 1 149.00000 418.400000
12129 2275 15501 1 149.00000 418.400000
12130 2276 14630 1 149.00000 418.400000
12130 2277 13139 1 149.00000 418.400000
12130 2278 13634 1 149.00000 418.400000
12130 2279 16662 1 149.00000 418.400000
12131 2280 15640 1 149.00000 418.400000
12131 2281 14065 1 149.00000 418.400000
12131 2282 15805 1 149.00000 418.400000
12131 2283 15967 1 149.00000 418.400000
12132 2284 13763 1 149.00000 418.400000
12132 2285 13778 1 149.00000 418.400000
12132 2286 12447 1 149.00000 418.400000
12132 2287 15226 1 149.00000 418.400000
12133 2288 14621 1 149.00000 418.400000
12133 2289 12790 1 149.00000 418.400000
12133 2290 15155 1 149.00000 418.400000
12134 2291 16873 1 149.00000 418.400000
12134 2292 14831 1 149.00000 418.400000
12134 2293 14948 1 149.00000 418.400000
12134 2294 12374 1 149.00000 418.400000
12135 2295 15720 1 149.00000 418.400000
12136 2296 12924 1 149.00000 418.400000
12136 2297 12913 1 149.00000 418.400000
12136 2298 14754 1 149.00000 418.400000
14058 2299 18323 1 149.00000 418.400000
12137 2300 16668 1 149.00000 418.400000
12137 2301 15286 1 149.00000 418.400000
12137 2302 12356 1 149.00000 418.400000
12137 2303 14147 1 149.00000 418.400000
12138 2304 14033 1 149.00000 418.400000
12139 2305 16566 1 149.00000 418.400000
12139 2306 14368 1 149.00000 418.400000
12139 2307 13369 1 149.00000 418.400000
12139 2308 16174 1 149.00000 418.400000
12140 2309 12674 1 149.00000 418.400000
12140 2310 15898 1 149.00000 418.400000
12140 2311 15501 1 149.00000 418.400000
12140 2312 15996 1 149.00000 418.400000
12141 2313 16719 1 149.00000 418.400000
12141 2314 13644 1 149.00000 418.400000
12141 2315 14009 1 149.00000 418.400000
12141 2316 15555 1 149.00000 418.400000
12142 2317 16587 1 149.00000 418.400000
12142 2318 16613 1 149.00000 418.400000
12142 2319 13670 1 149.00000 418.400000
12142 2320 12892 1 149.00000 418.400000
12144 2321 14459 1 149.00000 418.400000
12144 2322 15088 1 149.00000 418.400000
12144 2323 15655 1 149.00000 418.400000
17675 2324 18470 1 149.00000 418.400000
15238 2325 17675 1 149.00000 418.400000
12145 2326 13725 1 149.00000 418.400000
12145 2327 13377 1 149.00000 418.400000
12145 2328 12199 1 149.00000 418.400000
12145 2329 14205 1 149.00000 418.400000
12146 2330 14893 1 149.00000 418.400000
12146 2331 16867 1 149.00000 418.400000
14056 2332 14893 1 149.00000 418.400000
12147 2333 12581 1 149.00000 418.400000
12147 2334 12412 1 149.00000 418.400000
12147 2335 14631 1 149.00000 418.400000
12147 2336 15079 1 149.00000 418.400000
15275 2337 15731 1 149.00000 418.400000
11950 2338 12148 1 149.00000 418.400000
15731 2339 16574 1 149.00000 418.400000
12148 2340 15731 1 149.00000 418.400000
12149 2341 15471 1 149.00000 418.400000
12649 2342 14895 1 149.00000 418.400000
12149 2343 14895 1 149.00000 418.400000
12150 2344 12780 1 149.00000 418.400000
12150 2345 13501 1 149.00000 418.400000
12150 2346 16523 1 149.00000 418.400000
12150 2347 15472 1 149.00000 418.400000
12151 2348 13704 1 149.00000 418.400000
12151 2349 16354 1 149.00000 418.400000
12152 2350 13170 1 149.00000 418.400000
12152 2351 14617 1 149.00000 418.400000
13170 2352 15826 1 149.00000 418.400000
12152 2353 15712 1 149.00000 418.400000
12153 2354 16433 1 149.00000 418.400000
12153 2355 16603 1 149.00000 418.400000
12153 2356 13095 1 149.00000 418.400000
12153 2357 13944 1 149.00000 418.400000
12154 2358 13326 1 149.00000 418.400000
12154 2359 14377 1 149.00000 418.400000
12154 2360 14541 1 149.00000 418.400000
12154 2361 15021 1 149.00000 418.400000
12155 2362 13644 1 149.00000 418.400000
12155 2363 15064 1 149.00000 418.400000
12155 2364 15123 1 149.00000 418.400000
12155 2365 12467 1 149.00000 418.400000
12156 2366 13809 1 149.00000 418.400000
12156 2367 15624 1 149.00000 418.400000
12156 2368 13915 1 149.00000 418.400000
12156 2369 13644 1 149.00000 418.400000
12157 2370 15196 1 149.00000 418.400000
12157 2371 14774 1 149.00000 418.400000
12157 2372 13514 1 149.00000 418.400000
12157 2373 16223 1 149.00000 418.400000
12158 2374 15156 1 149.00000 418.400000
12158 2375 12752 1 149.00000 418.400000
12158 2376 15159 1 149.00000 418.400000
12158 2377 14029 1 149.00000 418.400000
12159 2378 12163 1 149.00000 418.400000
12159 2379 14568 1 149.00000 418.400000
12159 2380 13497 1 149.00000 418.400000
12159 2381 13550 1 149.00000 418.400000
12160 2382 15033 1 149.00000 418.400000
12160 2383 14625 1 149.00000 418.400000
12160 2384 16694 1 149.00000 418.400000
12160 2385 13261 1 149.00000 418.400000
12161 2386 15256 1 149.00000 418.400000
12161 2387 14409 1 149.00000 418.400000
12161 2388 13075 1 149.00000 418.400000
12161 2389 16991 1 149.00000 418.400000
12162 2390 16052 1 149.00000 418.400000
12162 2391 14454 1 149.00000 418.400000
12162 2392 15488 1 149.00000 418.400000
12162 2393 15196 1 149.00000 418.400000
12163 2394 13295 1 149.00000 418.400000
12163 2395 16853 1 149.00000 418.400000
12163 2396 12377 1 149.00000 418.400000
16268 2397 16853 1 149.00000 418.400000
12164 2398 16343 1 149.00000 418.400000
12164 2399 15554 1 149.00000 418.400000
12164 2400 12207 1 149.00000 418.400000
14333 2401 16343 1 149.00000 418.400000
12165 2402 16438 1 149.00000 418.400000
12165 2403 15147 1 149.00000 418.400000
12165 2404 12379 1 149.00000 418.400000
12165 2405 12932 1 149.00000 418.400000
12166 2406 16834 1 149.00000 418.400000
12166 2407 16179 1 149.00000 418.400000
12166 2408 13551 1 149.00000 418.400000
12166 2409 16413 1 149.00000 418.400000
12167 2410 13712 1 149.00000 418.400000
12167 2411 16219 1 149.00000 418.400000
12167 2412 14187 1 149.00000 418.400000
12168 2413 16936 1 149.00000 418.400000
12168 2414 15625 1 149.00000 418.400000
12168 2415 15475 1 149.00000 418.400000
12168 2416 15183 1 149.00000 418.400000
12169 2417 13183 1 149.00000 418.400000
12169 2418 15816 1 149.00000 418.400000
12169 2419 18674 1 149.00000 418.400000
12169 2420 13266 1 149.00000 418.400000
12170 2421 15283 1 149.00000 418.400000
12170 2422 14240 1 149.00000 418.400000
12170 2423 14401 1 149.00000 418.400000
12170 2424 15930 1 149.00000 418.400000
12171 2425 14886 1 149.00000 418.400000
12171 2426 12901 1 149.00000 418.400000
12171 2427 16003 1 149.00000 418.400000
12171 2428 12247 1 149.00000 418.400000
11875 2429 12172 1 149.00000 418.400000
12172 2430 16463 1 149.00000 418.400000
12173 2431 18539 1 149.00000 418.400000
11628 2432 13824 1 149.00000 418.400000
12173 2433 13824 1 149.00000 418.400000
12174 2434 14848 1 149.00000 418.400000
12174 2435 16696 1 149.00000 418.400000
12174 2436 12517 1 149.00000 418.400000
12174 2437 16624 1 149.00000 418.400000
12175 2438 14605 1 149.00000 418.400000
12175 2439 15569 1 149.00000 418.400000
12175 2440 15223 1 149.00000 418.400000
12175 2441 14172 1 149.00000 418.400000
11589 2442 12176 1 149.00000 418.400000
12176 2443 12990 1 149.00000 418.400000
12176 2444 13491 1 149.00000 418.400000
12176 2445 14335 1 149.00000 418.400000
12177 2446 12500 1 149.00000 418.400000
12177 2447 12889 1 149.00000 418.400000
12177 2448 14811 1 149.00000 418.400000
12177 2449 14122 1 149.00000 418.400000
14980 2450 18326 1 149.00000 418.400000
18326 2451 18545 1 149.00000 418.400000
17867 2452 18326 1 149.00000 418.400000
12178 2453 12670 1 149.00000 418.400000
12178 2454 12802 1 149.00000 418.400000
12178 2455 14994 1 149.00000 418.400000
12179 2456 16556 1 149.00000 418.400000
12179 2457 16623 1 149.00000 418.400000
12180 2458 15019 1 149.00000 418.400000
12180 2459 15614 1 149.00000 418.400000
12180 2460 12465 1 149.00000 418.400000
12180 2461 16685 1 149.00000 418.400000
16684 2462 17543 1 149.00000 418.400000
12681 2463 17543 1 149.00000 418.400000
12181 2464 13793 1 149.00000 418.400000
12181 2465 14131 1 149.00000 418.400000
12181 2466 16851 1 149.00000 418.400000
12181 2467 13894 1 149.00000 418.400000
12182 2468 12198 1 149.00000 418.400000
12182 2469 15077 1 149.00000 418.400000
12182 2470 13656 1 149.00000 418.400000
12182 2471 15290 1 149.00000 418.400000
12183 2472 15589 1 149.00000 418.400000
12183 2473 14753 1 149.00000 418.400000
12183 2474 15506 1 149.00000 418.400000
12183 2475 13124 1 149.00000 418.400000
12184 2476 16012 1 149.00000 418.400000
12184 2477 16861 1 149.00000 418.400000
12184 2478 15777 1 149.00000 418.400000
12568 2479 16861 1 149.00000 418.400000
12185 2480 13210 1 149.00000 418.400000
12185 2481 16642 1 149.00000 418.400000
12185 2482 12860 1 149.00000 418.400000
12761 2483 18329 1 149.00000 418.400000
14163 2484 18329 1 149.00000 418.400000
14925 2485 18329 1 149.00000 418.400000
12186 2486 15912 1 149.00000 418.400000
12186 2487 12764 1 149.00000 418.400000
12186 2488 12331 1 149.00000 418.400000
12186 2489 14670 1 149.00000 418.400000
16133 2490 18431 1 149.00000 418.400000
15378 2491 16145 1 149.00000 418.400000
15378 2492 18431 1 149.00000 418.400000
12187 2493 18956 1 149.00000 418.400000
12187 2494 17427 1 149.00000 418.400000
12187 2495 18590 1 149.00000 418.400000
12188 2496 12225 1 149.00000 418.400000
12188 2497 12842 1 149.00000 418.400000
12188 2498 14935 1 149.00000 418.400000
12188 2499 15167 1 149.00000 418.400000
12189 2500 16599 1 149.00000 418.400000
12189 2501 13886 1 149.00000 418.400000
12190 2502 15228 1 149.00000 418.400000
12190 2503 14732 1 149.00000 418.400000
12190 2504 12335 1 149.00000 418.400000
14676 2505 18332 1 149.00000 418.400000
12309 2506 18332 1 149.00000 418.400000
14676 2507 16159 1 149.00000 418.400000
12191 2508 14840 1 149.00000 418.400000
12191 2509 16002 1 149.00000 418.400000
12191 2510 13649 1 149.00000 418.400000
12191 2511 16772 1 149.00000 418.400000
12192 2512 14358 1 149.00000 418.400000
12192 2513 12457 1 149.00000 418.400000
12192 2514 13056 1 149.00000 418.400000
12192 2515 13488 1 149.00000 418.400000
12193 2516 16091 1 149.00000 418.400000
12193 2517 18479 1 149.00000 418.400000
12193 2518 16434 1 149.00000 418.400000
12193 2519 16332 1 149.00000 418.400000
12194 2520 16774 1 149.00000 418.400000
12194 2521 14269 1 149.00000 418.400000
12194 2522 16593 1 149.00000 418.400000
12194 2523 16240 1 149.00000 418.400000
12195 2524 12550 1 149.00000 418.400000
12195 2525 14662 1 149.00000 418.400000
12195 2526 12610 1 149.00000 418.400000
12195 2527 13082 1 149.00000 418.400000
12196 2528 15515 1 149.00000 418.400000
12196 2529 12742 1 149.00000 418.400000
12196 2530 14365 1 149.00000 418.400000
12196 2531 12629 1 149.00000 418.400000
12197 2532 15468 1 149.00000 418.400000
12197 2533 14804 1 149.00000 418.400000
12197 2534 14534 1 149.00000 418.400000
12197 2535 15455 1 149.00000 418.400000
12198 2536 16419 1 149.00000 418.400000
12198 2537 16049 1 149.00000 418.400000
12198 2538 16816 1 149.00000 418.400000
12199 2539 16509 1 149.00000 418.400000
12199 2540 18602 1 149.00000 418.400000
12199 2541 13870 1 149.00000 418.400000
12200 2542 12813 1 149.00000 418.400000
12200 2543 15651 1 149.00000 418.400000
12200 2544 15737 1 149.00000 418.400000
12201 2545 14693 1 149.00000 418.400000
12201 2546 16249 1 149.00000 418.400000
12201 2547 13855 1 149.00000 418.400000
12201 2548 16111 1 149.00000 418.400000
12202 2549 15126 1 149.00000 418.400000
12202 2550 12292 1 149.00000 418.400000
12202 2551 13692 1 149.00000 418.400000
12202 2552 15384 1 149.00000 418.400000
12203 2553 13566 1 149.00000 418.400000
12203 2554 13617 1 149.00000 418.400000
12203 2555 15313 1 149.00000 418.400000
12203 2556 16923 1 149.00000 418.400000
13402 2557 16759 1 149.00000 418.400000
16022 2558 17531 1 149.00000 418.400000
17531 2559 18344 1 149.00000 418.400000
13402 2560 17531 1 149.00000 418.400000
12204 2561 12826 1 149.00000 418.400000
12204 2562 13858 1 149.00000 418.400000
12204 2563 13514 1 149.00000 418.400000
12205 2564 16573 1 149.00000 418.400000
12205 2565 12853 1 149.00000 418.400000
12205 2566 15234 1 149.00000 418.400000
12206 2567 13790 1 149.00000 418.400000
12206 2568 15767 1 149.00000 418.400000
12206 2569 18938 1 149.00000 418.400000
12206 2570 14877 1 149.00000 418.400000
12207 2571 16005 1 149.00000 418.400000
12207 2572 12549 1 149.00000 418.400000
12549 2573 15405 1 149.00000 418.400000
11733 2574 12208 1 149.00000 418.400000
12208 2575 13604 1 149.00000 418.400000
12208 2576 14042 1 149.00000 418.400000
12208 2577 13129 1 149.00000 418.400000
12209 2578 15533 1 149.00000 418.400000
12209 2579 14562 1 149.00000 418.400000
12209 2580 13889 1 149.00000 418.400000
12210 2581 14127 1 149.00000 418.400000
12210 2582 15395 1 149.00000 418.400000
12245 2583 15607 1 149.00000 418.400000
12211 2584 12515 1 149.00000 418.400000
12211 2585 15607 1 149.00000 418.400000
12211 2586 13268 1 149.00000 418.400000
12212 2587 18701 1 149.00000 418.400000
12212 2588 15834 1 149.00000 418.400000
12213 2589 13852 1 149.00000 418.400000
12213 2590 12680 1 149.00000 418.400000
12213 2591 15283 1 149.00000 418.400000
12214 2592 12998 1 149.00000 418.400000
12214 2593 14762 1 149.00000 418.400000
12214 2594 12844 1 149.00000 418.400000
12215 2595 16890 1 149.00000 418.400000
12215 2596 15072 1 149.00000 418.400000
12215 2597 12341 1 149.00000 418.400000
12216 2598 16904 1 149.00000 418.400000
12216 2599 16440 1 149.00000 418.400000
12216 2600 13604 1 149.00000 418.400000
12216 2601 12952 1 149.00000 418.400000
12217 2602 16354 1 149.00000 418.400000
12217 2603 15093 1 149.00000 418.400000
12218 2604 18347 1 149.00000 418.400000
17063 2605 18347 1 149.00000 418.400000
12219 2606 16954 1 149.00000 418.400000
15103 2607 16954 1 149.00000 418.400000
12219 2608 16869 1 149.00000 418.400000
12219 2609 16074 1 149.00000 418.400000
12220 2610 16654 1 149.00000 418.400000
12220 2611 13228 1 149.00000 418.400000
12220 2612 14118 1 149.00000 418.400000
12221 2613 12833 1 149.00000 418.400000
12221 2614 12792 1 149.00000 418.400000
12221 2615 13430 1 149.00000 418.400000
12222 2616 13383 1 149.00000 418.400000
12222 2617 13661 1 149.00000 418.400000
12222 2618 14792 1 149.00000 418.400000
12223 2619 16824 1 149.00000 418.400000
12223 2620 13334 1 149.00000 418.400000
12223 2621 16488 1 149.00000 418.400000
12223 2622 14439 1 149.00000 418.400000
12310 2623 18335 1 149.00000 418.400000
15354 2624 18335 1 149.00000 418.400000
13101 2625 13571 1 149.00000 418.400000
12224 2626 15554 1 149.00000 418.400000
12224 2627 13571 1 149.00000 418.400000
12224 2628 13533 1 149.00000 418.400000
12225 2629 16298 1 149.00000 418.400000
12225 2630 15527 1 149.00000 418.400000
12225 2631 13307 1 149.00000 418.400000
12226 2632 16345 1 149.00000 418.400000
12226 2633 12913 1 149.00000 418.400000
12226 2634 16863 1 149.00000 418.400000
12226 2635 16079 1 149.00000 418.400000
12227 2636 16158 1 149.00000 418.400000
12227 2637 13646 1 149.00000 418.400000
12227 2638 15651 1 149.00000 418.400000
12227 2639 16364 1 149.00000 418.400000
12228 2640 13594 1 149.00000 418.400000
12228 2641 16146 1 149.00000 418.400000
12228 2642 14053 1 149.00000 418.400000
12228 2643 13552 1 149.00000 418.400000
12229 2644 17003 1 149.00000 418.400000
12229 2645 13637 1 149.00000 418.400000
12229 2646 12862 1 149.00000 418.400000
12230 2647 13680 1 149.00000 418.400000
12230 2648 16806 1 149.00000 418.400000
16105 2649 16806 1 149.00000 418.400000
12230 2650 14571 1 149.00000 418.400000
12231 2651 18632 1 149.00000 418.400000
12231 2652 19076 1 149.00000 418.400000
12231 2653 16948 1 149.00000 418.400000
12232 2654 13807 1 149.00000 418.400000
12232 2655 14444 1 149.00000 418.400000
12232 2656 15147 1 149.00000 418.400000
12232 2657 16900 1 149.00000 418.400000
12233 2658 15213 1 149.00000 418.400000
12233 2659 12366 1 149.00000 418.400000
12234 2660 13665 1 149.00000 418.400000
12234 2661 13632 1 149.00000 418.400000
12234 2662 13948 1 149.00000 418.400000
12234 2663 16999 1 149.00000 418.400000
12235 2664 14772 1 149.00000 418.400000
12235 2665 14146 1 149.00000 418.400000
12236 2666 14584 1 149.00000 418.400000
12236 2667 18863 1 149.00000 418.400000
12237 2668 14840 1 149.00000 418.400000
12237 2669 14752 1 149.00000 418.400000
12237 2670 13091 1 149.00000 418.400000
12237 2671 12460 1 149.00000 418.400000
12238 2672 13480 1 149.00000 418.400000
12238 2673 13663 1 149.00000 418.400000
12238 2674 14452 1 149.00000 418.400000
12238 2675 12354 1 149.00000 418.400000
12239 2676 12902 1 149.00000 418.400000
12239 2677 15415 1 149.00000 418.400000
12239 2678 16671 1 149.00000 418.400000
12239 2679 14225 1 149.00000 418.400000
12240 2680 13682 1 149.00000 418.400000
12240 2681 13771 1 149.00000 418.400000
12240 2682 16142 1 149.00000 418.400000
14996 2683 16142 1 149.00000 418.400000
12241 2684 18422 1 149.00000 418.400000
12241 2685 12835 1 149.00000 418.400000
12241 2686 13471 1 149.00000 418.400000
12241 2687 16550 1 149.00000 418.400000
12242 2688 16103 1 149.00000 418.400000
12242 2689 16141 1 149.00000 418.400000
12242 2690 18632 1 149.00000 418.400000
12242 2691 14173 1 149.00000 418.400000
12243 2692 15687 1 149.00000 418.400000
12243 2693 14537 1 149.00000 418.400000
12243 2694 16718 1 149.00000 418.400000
12243 2695 13070 1 149.00000 418.400000
12244 2696 13506 1 149.00000 418.400000
12244 2697 12540 1 149.00000 418.400000
12244 2698 15260 1 149.00000 418.400000
12245 2699 15813 1 149.00000 418.400000
12245 2700 18851 1 149.00000 418.400000
12245 2701 13831 1 149.00000 418.400000
12246 2702 16102 1 149.00000 418.400000
12246 2703 14615 1 149.00000 418.400000
12246 2704 13809 1 149.00000 418.400000
12246 2705 14563 1 149.00000 418.400000
12247 2706 13509 1 149.00000 418.400000
12247 2707 12408 1 149.00000 418.400000
12247 2708 16623 1 149.00000 418.400000
12248 2709 13482 1 149.00000 418.400000
12248 2710 16749 1 149.00000 418.400000
12248 2711 16782 1 149.00000 418.400000
12248 2712 13353 1 149.00000 418.400000
12249 2713 14086 1 149.00000 418.400000
12249 2714 13833 1 149.00000 418.400000
12249 2715 12646 1 149.00000 418.400000
12249 2716 13126 1 149.00000 418.400000
12250 2717 16898 1 149.00000 418.400000
12250 2718 14970 1 149.00000 418.400000
12250 2719 13409 1 149.00000 418.400000
12250 2720 15266 1 149.00000 418.400000
12251 2721 17009 1 149.00000 418.400000
12251 2722 14826 1 149.00000 418.400000
12251 2723 12572 1 149.00000 418.400000
12251 2724 16500 1 149.00000 418.400000
12252 2725 16933 1 149.00000 418.400000
12252 2726 13930 1 149.00000 418.400000
12252 2727 15648 1 149.00000 418.400000
12252 2728 13655 1 149.00000 418.400000
15975 2729 18338 1 149.00000 418.400000
18338 2730 18569 1 149.00000 418.400000
13452 2731 18338 1 149.00000 418.400000
12253 2732 12872 1 149.00000 418.400000
12253 2733 14357 1 149.00000 418.400000
12253 2734 14947 1 149.00000 418.400000
12254 2735 13400 1 149.00000 418.400000
12254 2736 13805 1 149.00000 418.400000
12254 2737 16386 1 149.00000 418.400000
12255 2738 12469 1 149.00000 418.400000
12255 2739 13925 1 149.00000 418.400000
12255 2740 15168 1 149.00000 418.400000
12255 2741 15130 1 149.00000 418.400000
12256 2742 16465 1 149.00000 418.400000
12256 2743 16965 1 149.00000 418.400000
12256 2744 16091 1 149.00000 418.400000
12256 2745 12826 1 149.00000 418.400000
12257 2746 18641 1 149.00000 418.400000
12257 2747 15387 1 149.00000 418.400000
12257 2748 16951 1 149.00000 418.400000
12258 2749 13251 1 149.00000 418.400000
12258 2750 14718 1 149.00000 418.400000
12258 2751 16157 1 149.00000 418.400000
12258 2752 12894 1 149.00000 418.400000
12259 2753 14392 1 149.00000 418.400000
14930 2754 16071 1 149.00000 418.400000
12259 2755 14979 1 149.00000 418.400000
12259 2756 14930 1 149.00000 418.400000
12260 2757 12664 1 149.00000 418.400000
12260 2758 13360 1 149.00000 418.400000
12260 2759 13903 1 149.00000 418.400000
12260 2760 13659 1 149.00000 418.400000
12261 2761 15581 1 149.00000 418.400000
12261 2762 14906 1 149.00000 418.400000
12261 2763 14477 1 149.00000 418.400000
12262 2764 13037 1 149.00000 418.400000
12262 2765 15840 1 149.00000 418.400000
12262 2766 14312 1 149.00000 418.400000
12262 2767 14806 1 149.00000 418.400000
12263 2768 16304 1 149.00000 418.400000
12263 2769 16224 1 149.00000 418.400000
12263 2770 12306 1 149.00000 418.400000
12264 2771 16942 1 149.00000 418.400000
13970 2772 14457 1 149.00000 418.400000
12264 2773 13970 1 149.00000 418.400000
12264 2774 15339 1 149.00000 418.400000
12265 2775 15327 1 149.00000 418.400000
12265 2776 15896 1 149.00000 418.400000
12266 2777 15892 1 149.00000 418.400000
12266 2778 12745 1 149.00000 418.400000
12266 2779 16100 1 149.00000 418.400000
12267 2780 19055 1 149.00000 418.400000
12267 2781 13612 1 149.00000 418.400000
12267 2782 14713 1 149.00000 418.400000
12267 2783 14813 1 149.00000 418.400000
12268 2784 16036 1 149.00000 418.400000
12268 2785 14566 1 149.00000 418.400000
12268 2786 14472 1 149.00000 418.400000
12268 2787 13530 1 149.00000 418.400000
12269 2788 14252 1 149.00000 418.400000
12269 2789 13026 1 149.00000 418.400000
12269 2790 16215 1 149.00000 418.400000
12270 2791 12874 1 149.00000 418.400000
12270 2792 14299 1 149.00000 418.400000
12874 2793 13217 1 149.00000 418.400000
12271 2794 17011 1 149.00000 418.400000
12271 2795 15866 1 149.00000 418.400000
12271 2796 15281 1 149.00000 418.400000
14270 2797 15866 1 149.00000 418.400000
12272 2798 16605 1 149.00000 418.400000
12272 2799 16215 1 149.00000 418.400000
12273 2800 14581 1 149.00000 418.400000
12273 2801 15333 1 149.00000 418.400000
13199 2802 14581 1 149.00000 418.400000
12274 2803 14825 1 149.00000 418.400000
12274 2804 15148 1 149.00000 418.400000
12274 2805 14792 1 149.00000 418.400000
12275 2806 12974 1 149.00000 418.400000
12275 2807 14532 1 149.00000 418.400000
12275 2808 16124 1 149.00000 418.400000
12275 2809 13322 1 149.00000 418.400000
12276 2810 14406 1 149.00000 418.400000
12276 2811 14623 1 149.00000 418.400000
12276 2812 15844 1 149.00000 418.400000
12276 2813 15383 1 149.00000 418.400000
12277 2814 15194 1 149.00000 418.400000
14075 2815 14136 1 149.00000 418.400000
12277 2816 16316 1 149.00000 418.400000
11644 2817 14075 1 149.00000 418.400000
12278 2818 12553 1 149.00000 418.400000
12278 2819 14223 1 149.00000 418.400000
12278 2820 16461 1 149.00000 418.400000
12278 2821 13860 1 149.00000 418.400000
12279 2822 16303 1 149.00000 418.400000
12279 2823 16997 1 149.00000 418.400000
12279 2824 16535 1 149.00000 418.400000
12280 2825 15998 1 149.00000 418.400000
12280 2826 16902 1 149.00000 418.400000
12280 2827 14666 1 149.00000 418.400000
12280 2828 16864 1 149.00000 418.400000
12281 2829 16669 1 149.00000 418.400000
12281 2830 16491 1 149.00000 418.400000
12281 2831 14254 1 149.00000 418.400000
12282 2832 12457 1 149.00000 418.400000
12282 2833 12838 1 149.00000 418.400000
12283 2834 12308 1 149.00000 418.400000
12283 2835 14938 1 149.00000 418.400000
12283 2836 12718 1 149.00000 418.400000
12284 2837 15807 1 149.00000 418.400000
12284 2838 15968 1 149.00000 418.400000
12284 2839 15788 1 149.00000 418.400000
12285 2840 13221 1 149.00000 418.400000
12285 2841 15015 1 149.00000 418.400000
12285 2842 13209 1 149.00000 418.400000
12285 2843 12802 1 149.00000 418.400000
12286 2844 14444 1 149.00000 418.400000
12286 2845 12518 1 149.00000 418.400000
12286 2846 14950 1 149.00000 418.400000
12286 2847 13783 1 149.00000 418.400000
12287 2848 14171 1 149.00000 418.400000
12287 2849 15564 1 149.00000 418.400000
12287 2850 12488 1 149.00000 418.400000
12288 2851 13058 1 149.00000 418.400000
12288 2852 12993 1 149.00000 418.400000
12288 2853 14411 1 149.00000 418.400000
12289 2854 16328 1 149.00000 418.400000
12289 2855 14120 1 149.00000 418.400000
12289 2856 14414 1 149.00000 418.400000
12528 2857 18341 1 149.00000 418.400000
12290 2858 13960 1 149.00000 418.400000
12290 2859 13720 1 149.00000 418.400000
12290 2860 15699 1 149.00000 418.400000
13960 2861 15574 1 149.00000 418.400000
12291 2862 13924 1 149.00000 418.400000
12291 2863 16779 1 149.00000 418.400000
12292 2864 12805 1 149.00000 418.400000
12292 2865 12890 1 149.00000 418.400000
12890 2866 15905 1 149.00000 418.400000
12293 2867 15589 1 149.00000 418.400000
12293 2868 16698 1 149.00000 418.400000
12293 2869 14682 1 149.00000 418.400000
12293 2870 13703 1 149.00000 418.400000
12294 2871 16169 1 149.00000 418.400000
12294 2872 13115 1 149.00000 418.400000
12294 2873 14516 1 149.00000 418.400000
12295 2874 14435 1 149.00000 418.400000
12295 2875 13927 1 149.00000 418.400000
12295 2876 14569 1 149.00000 418.400000
12296 2877 14097 1 149.00000 418.400000
12296 2878 12363 1 149.00000 418.400000
12296 2879 12777 1 149.00000 418.400000
12297 2880 12393 1 149.00000 418.400000
12297 2881 14669 1 149.00000 418.400000
12297 2882 13165 1 149.00000 418.400000
12297 2883 12944 1 149.00000 418.400000
16039 2884 18344 1 149.00000 418.400000
13751 2885 18344 1 149.00000 418.400000
12298 2886 15967 1 149.00000 418.400000
12298 2887 16971 1 149.00000 418.400000
12298 2888 14208 1 149.00000 418.400000
12299 2889 14842 1 149.00000 418.400000
12299 2890 15349 1 149.00000 418.400000
12299 2891 15060 1 149.00000 418.400000
12300 2892 13455 1 149.00000 418.400000
12300 2893 19025 1 149.00000 418.400000
12597 2894 14902 1 149.00000 418.400000
12300 2895 14902 1 149.00000 418.400000
12301 2896 13332 1 149.00000 418.400000
12301 2897 13370 1 149.00000 418.400000
12301 2898 15308 1 149.00000 418.400000
12301 2899 14068 1 149.00000 418.400000
12302 2900 15372 1 149.00000 418.400000
12302 2901 13771 1 149.00000 418.400000
12302 2902 15190 1 149.00000 418.400000
12303 2903 13284 1 149.00000 418.400000
12303 2904 16487 1 149.00000 418.400000
12303 2905 16036 1 149.00000 418.400000
12304 2906 14056 1 149.00000 418.400000
13658 2907 16546 1 149.00000 418.400000
12304 2908 16546 1 149.00000 418.400000
12305 2909 15456 1 149.00000 418.400000
12305 2910 14694 1 149.00000 418.400000
12305 2911 14706 1 149.00000 418.400000
12306 2912 15412 1 149.00000 418.400000
12306 2913 15260 1 149.00000 418.400000
12306 2914 16740 1 149.00000 418.400000
12307 2915 16537 1 149.00000 418.400000
12307 2916 16048 1 149.00000 418.400000
12307 2917 12796 1 149.00000 418.400000
12308 2918 15393 1 149.00000 418.400000
12308 2919 12434 1 149.00000 418.400000
12308 2920 16972 1 149.00000 418.400000
12309 2921 16599 1 149.00000 418.400000
12309 2922 14972 1 149.00000 418.400000
12311 2923 17001 1 149.00000 418.400000
12311 2924 16006 1 149.00000 418.400000
12311 2925 16790 1 149.00000 418.400000
12311 2926 16456 1 149.00000 418.400000
12312 2927 16194 1 149.00000 418.400000
12312 2928 16759 1 149.00000 418.400000
12312 2929 16561 1 149.00000 418.400000
12312 2930 15950 1 149.00000 418.400000
12313 2931 14407 1 149.00000 418.400000
12313 2932 13198 1 149.00000 418.400000
12313 2933 13925 1 149.00000 418.400000
12314 2934 16822 1 149.00000 418.400000
12314 2935 12366 1 149.00000 418.400000
12314 2936 14440 1 149.00000 418.400000
12315 2937 12984 1 149.00000 418.400000
12315 2938 15353 1 149.00000 418.400000
12315 2939 15328 1 149.00000 418.400000
12316 2940 16830 1 149.00000 418.400000
12316 2941 12644 1 149.00000 418.400000
11798 2942 12316 1 149.00000 418.400000
12644 2943 14415 1 149.00000 418.400000
12317 2944 14201 1 149.00000 418.400000
12317 2945 15109 1 149.00000 418.400000
12317 2946 16463 1 149.00000 418.400000
12318 2947 15922 1 149.00000 418.400000
12318 2948 13573 1 149.00000 418.400000
12318 2949 16092 1 149.00000 418.400000
12318 2950 16717 1 149.00000 418.400000
16791 2951 16884 1 149.00000 418.400000
13633 2952 16791 1 149.00000 418.400000
12319 2953 16791 1 149.00000 418.400000
14564 2954 16791 1 149.00000 418.400000
12320 2955 15319 1 149.00000 418.400000
12320 2956 16683 1 149.00000 418.400000
12320 2957 14169 1 149.00000 418.400000
12321 2958 15570 1 149.00000 418.400000
12321 2959 15981 1 149.00000 418.400000
12321 2960 14934 1 149.00000 418.400000
12321 2961 16295 1 149.00000 418.400000
12322 2962 13499 1 149.00000 418.400000
12322 2963 16621 1 149.00000 418.400000
12322 2964 13377 1 149.00000 418.400000
12322 2965 15901 1 149.00000 418.400000
12323 2966 13963 1 149.00000 418.400000
12323 2967 13416 1 149.00000 418.400000
12323 2968 14860 1 149.00000 418.400000
12323 2969 16212 1 149.00000 418.400000
12324 2970 16118 1 149.00000 418.400000
12324 2971 12869 1 149.00000 418.400000
12557 2972 12869 1 149.00000 418.400000
12324 2973 14319 1 149.00000 418.400000
12325 2974 12570 1 149.00000 418.400000
12325 2975 13546 1 149.00000 418.400000
12325 2976 13944 1 149.00000 418.400000
12325 2977 14704 1 149.00000 418.400000
12326 2978 14763 1 149.00000 418.400000
12326 2979 13302 1 149.00000 418.400000
12326 2980 16860 1 149.00000 418.400000
12326 2981 16796 1 149.00000 418.400000
12327 2982 14111 1 149.00000 418.400000
12327 2983 13338 1 149.00000 418.400000
12327 2984 13595 1 149.00000 418.400000
12327 2985 12987 1 149.00000 418.400000
12328 2986 14924 1 149.00000 418.400000
12328 2987 15347 1 149.00000 418.400000
12328 2988 15086 1 149.00000 418.400000
12218 2989 16888 1 149.00000 418.400000
12218 2990 17747 1 149.00000 418.400000
14864 2991 18347 1 149.00000 418.400000
15512 2992 16094 1 149.00000 418.400000
12599 2993 16094 1 149.00000 418.400000
12989 2994 16094 1 149.00000 418.400000
16094 2995 18350 1 149.00000 418.400000
12329 2996 15744 1 149.00000 418.400000
12329 2997 12968 1 149.00000 418.400000
12330 2998 15263 1 149.00000 418.400000
12330 2999 16895 1 149.00000 418.400000
12330 3000 15506 1 149.00000 418.400000
12330 3001 12865 1 149.00000 418.400000
12331 3002 12495 1 149.00000 418.400000
12331 3003 15115 1 149.00000 418.400000
12332 3004 14112 1 149.00000 418.400000
12332 3005 13234 1 149.00000 418.400000
12332 3006 14474 1 149.00000 418.400000
12333 3007 16606 1 149.00000 418.400000
13971 3008 14157 1 149.00000 418.400000
12333 3009 14749 1 149.00000 418.400000
12333 3010 14157 1 149.00000 418.400000
12334 3011 17002 1 149.00000 418.400000
12334 3012 13618 1 149.00000 418.400000
12334 3013 16981 1 149.00000 418.400000
12334 3014 16300 1 149.00000 418.400000
12335 3015 12894 1 149.00000 418.400000
12335 3016 16922 1 149.00000 418.400000
12335 3017 14614 1 149.00000 418.400000
12336 3018 14698 1 149.00000 418.400000
12336 3019 15271 1 149.00000 418.400000
12336 3020 14502 1 149.00000 418.400000
12336 3021 16452 1 149.00000 418.400000
12337 3022 14399 1 149.00000 418.400000
12337 3023 12454 1 149.00000 418.400000
12337 3024 15654 1 149.00000 418.400000
12338 3025 14177 1 149.00000 418.400000
12338 3026 12637 1 149.00000 418.400000
12338 3027 16799 1 149.00000 418.400000
12338 3028 14170 1 149.00000 418.400000
12339 3029 16208 1 149.00000 418.400000
12339 3030 15933 1 149.00000 418.400000
12339 3031 12795 1 149.00000 418.400000
12339 3032 12521 1 149.00000 418.400000
12340 3033 16384 1 149.00000 418.400000
12340 3034 13049 1 149.00000 418.400000
12340 3035 18653 1 149.00000 418.400000
12341 3036 15965 1 149.00000 418.400000
12341 3037 13078 1 149.00000 418.400000
12341 3038 12436 1 149.00000 418.400000
12342 3039 15924 1 149.00000 418.400000
12342 3040 15217 1 149.00000 418.400000
12342 3041 16216 1 149.00000 418.400000
12343 3042 14857 1 149.00000 418.400000
12344 3043 16260 1 149.00000 418.400000
12344 3044 15435 1 149.00000 418.400000
12344 3045 13181 1 149.00000 418.400000
15596 3046 16260 1 149.00000 418.400000
16916 3047 17035 1 149.00000 418.400000
16955 3048 17035 1 149.00000 418.400000
12345 3049 14532 1 149.00000 418.400000
12345 3050 16123 1 149.00000 418.400000
12345 3051 13244 1 149.00000 418.400000
12345 3052 16670 1 149.00000 418.400000
12346 3053 15977 1 149.00000 418.400000
11574 3054 12346 1 149.00000 418.400000
12346 3055 15443 1 149.00000 418.400000
11957 3056 13127 1 149.00000 418.400000
11817 3057 15523 1 149.00000 418.400000
12348 3058 14578 1 149.00000 418.400000
12348 3059 16508 1 149.00000 418.400000
12348 3060 16226 1 149.00000 418.400000
12349 3061 13508 1 149.00000 418.400000
12349 3062 16819 1 149.00000 418.400000
12350 3063 12574 1 149.00000 418.400000
12350 3064 14141 1 149.00000 418.400000
12350 3065 13973 1 149.00000 418.400000
12350 3066 16712 1 149.00000 418.400000
12351 3067 14475 1 149.00000 418.400000
12351 3068 14944 1 149.00000 418.400000
12351 3069 16972 1 149.00000 418.400000
12352 3070 14779 1 149.00000 418.400000
12352 3071 15833 1 149.00000 418.400000
12352 3072 15355 1 149.00000 418.400000
12352 3073 16779 1 149.00000 418.400000
12353 3074 13215 1 149.00000 418.400000
12353 3075 16314 1 149.00000 418.400000
12353 3076 14336 1 149.00000 418.400000
12354 3077 13752 1 149.00000 418.400000
12354 3078 16557 1 149.00000 418.400000
12354 3079 15902 1 149.00000 418.400000
12355 3080 16399 1 149.00000 418.400000
12355 3081 16861 1 149.00000 418.400000
12356 3082 16569 1 149.00000 418.400000
12356 3083 16673 1 149.00000 418.400000
13764 3084 15115 1 149.00000 418.400000
12357 3085 16393 1 149.00000 418.400000
12357 3086 13764 1 149.00000 418.400000
12358 3087 13899 1 149.00000 418.400000
12358 3088 12737 1 149.00000 418.400000
12358 3089 14973 1 149.00000 418.400000
12359 3090 13412 1 149.00000 418.400000
12359 3091 13161 1 149.00000 418.400000
12359 3092 14400 1 149.00000 418.400000
12359 3093 12402 1 149.00000 418.400000
12360 3094 15028 1 149.00000 418.400000
12360 3095 12992 1 149.00000 418.400000
12360 3096 15132 1 149.00000 418.400000
12361 3097 13966 1 149.00000 418.400000
12361 3098 14061 1 149.00000 418.400000
12361 3099 16165 1 149.00000 418.400000
12362 3100 16434 1 149.00000 418.400000
12362 3101 17711 1 149.00000 418.400000
12363 3102 14774 1 149.00000 418.400000
12363 3103 13164 1 149.00000 418.400000
15031 3104 18356 1 149.00000 418.400000
15740 3105 18356 1 149.00000 418.400000
13875 3106 18356 1 149.00000 418.400000
15718 3107 16612 1 149.00000 418.400000
12705 3108 15718 1 149.00000 418.400000
18359 3109 18362 1 149.00000 418.400000
12364 3110 16762 1 149.00000 418.400000
12364 3111 13720 1 149.00000 418.400000
12364 3112 14520 1 149.00000 418.400000
12365 3113 14433 1 149.00000 418.400000
12365 3114 16891 1 149.00000 418.400000
12365 3115 13095 1 149.00000 418.400000
12365 3116 16811 1 149.00000 418.400000
12366 3117 13411 1 149.00000 418.400000
12366 3118 14436 1 149.00000 418.400000
12367 3119 18815 1 149.00000 418.400000
12367 3120 15128 1 149.00000 418.400000
12367 3121 15720 1 149.00000 418.400000
12368 3122 15101 1 149.00000 418.400000
12368 3123 15247 1 149.00000 418.400000
12368 3124 15627 1 149.00000 418.400000
12368 3125 15739 1 149.00000 418.400000
12369 3126 14869 1 149.00000 418.400000
12369 3127 16014 1 149.00000 418.400000
12369 3128 16824 1 149.00000 418.400000
12369 3129 16908 1 149.00000 418.400000
12370 3130 14782 1 149.00000 418.400000
12370 3131 13818 1 149.00000 418.400000
12370 3132 12454 1 149.00000 418.400000
14327 3133 16018 1 149.00000 418.400000
12371 3134 14327 1 149.00000 418.400000
14327 3135 15457 1 149.00000 418.400000
12371 3136 15918 1 149.00000 418.400000
12372 3137 16327 1 149.00000 418.400000
12372 3138 15497 1 149.00000 418.400000
12372 3139 13740 1 149.00000 418.400000
12373 3140 16538 1 149.00000 418.400000
12373 3141 15692 1 149.00000 418.400000
12373 3142 13326 1 149.00000 418.400000
12373 3143 14184 1 149.00000 418.400000
12374 3144 14337 1 149.00000 418.400000
12374 3145 15127 1 149.00000 418.400000
12374 3146 13591 1 149.00000 418.400000
16008 3147 17831 1 149.00000 418.400000
12375 3148 18635 1 149.00000 418.400000
12375 3149 16225 1 149.00000 418.400000
12376 3150 14169 1 149.00000 418.400000
12376 3151 13581 1 149.00000 418.400000
12376 3152 12424 1 149.00000 418.400000
12376 3153 13238 1 149.00000 418.400000
12377 3154 15982 1 149.00000 418.400000
12377 3155 16497 1 149.00000 418.400000
12377 3156 13497 1 149.00000 418.400000
12378 3157 14130 1 149.00000 418.400000
12378 3158 16170 1 149.00000 418.400000
12378 3159 16513 1 149.00000 418.400000
12378 3160 15374 1 149.00000 418.400000
16970 3161 18362 1 149.00000 418.400000
12379 3162 16763 1 149.00000 418.400000
12379 3163 15323 1 149.00000 418.400000
12379 3164 12715 1 149.00000 418.400000
12380 3165 14087 1 149.00000 418.400000
12380 3166 14054 1 149.00000 418.400000
12380 3167 12418 1 149.00000 418.400000
12380 3168 12666 1 149.00000 418.400000
12381 3169 15058 1 149.00000 418.400000
12381 3170 15278 1 149.00000 418.400000
12381 3171 13194 1 149.00000 418.400000
12381 3172 13204 1 149.00000 418.400000
12382 3173 13924 1 149.00000 418.400000
12382 3174 14576 1 149.00000 418.400000
12382 3175 13182 1 149.00000 418.400000
12382 3176 13110 1 149.00000 418.400000
12383 3177 13743 1 149.00000 418.400000
12383 3178 15224 1 149.00000 418.400000
12383 3179 14125 1 149.00000 418.400000
12383 3180 12981 1 149.00000 418.400000
12384 3181 13622 1 149.00000 418.400000
12384 3182 13821 1 149.00000 418.400000
12384 3183 15779 1 149.00000 418.400000
17413 3184 18212 1 149.00000 418.400000
12385 3185 16664 1 149.00000 418.400000
12385 3186 13134 1 149.00000 418.400000
12385 3187 14709 1 149.00000 418.400000
12386 3188 14973 1 149.00000 418.400000
12386 3189 18650 1 149.00000 418.400000
12387 3190 14585 1 149.00000 418.400000
12387 3191 14038 1 149.00000 418.400000
12387 3192 16281 1 149.00000 418.400000
12387 3193 12643 1 149.00000 418.400000
12388 3194 16559 1 149.00000 418.400000
12388 3195 17795 1 149.00000 418.400000
12563 3196 16559 1 149.00000 418.400000
12388 3197 14252 1 149.00000 418.400000
12389 3198 16805 1 149.00000 418.400000
12389 3199 13610 1 149.00000 418.400000
12389 3200 13800 1 149.00000 418.400000
12389 3201 17011 1 149.00000 418.400000
12390 3202 14090 1 149.00000 418.400000
12390 3203 13740 1 149.00000 418.400000
12390 3204 15261 1 149.00000 418.400000
12390 3205 14658 1 149.00000 418.400000
12391 3206 16316 1 149.00000 418.400000
12391 3207 16383 1 149.00000 418.400000
12391 3208 14392 1 149.00000 418.400000
12392 3209 15466 1 149.00000 418.400000
12392 3210 14496 1 149.00000 418.400000
12392 3211 16164 1 149.00000 418.400000
12392 3212 15484 1 149.00000 418.400000
12393 3213 12447 1 149.00000 418.400000
12477 3214 15254 1 149.00000 418.400000
12393 3215 12477 1 149.00000 418.400000
12394 3216 13246 1 149.00000 418.400000
12394 3217 12408 1 149.00000 418.400000
12394 3218 14886 1 149.00000 418.400000
12395 3219 12808 1 149.00000 418.400000
12395 3220 18788 1 149.00000 418.400000
12395 3221 17495 1 149.00000 418.400000
12395 3222 12408 1 149.00000 418.400000
12396 3223 18770 1 149.00000 418.400000
12396 3224 16348 1 149.00000 418.400000
12397 3225 16662 1 149.00000 418.400000
12397 3226 14404 1 149.00000 418.400000
12397 3227 13436 1 149.00000 418.400000
12397 3228 13794 1 149.00000 418.400000
12398 3229 15818 1 149.00000 418.400000
12398 3230 13831 1 149.00000 418.400000
12398 3231 12787 1 149.00000 418.400000
12398 3232 12673 1 149.00000 418.400000
12399 3233 13247 1 149.00000 418.400000
11882 3234 12683 1 149.00000 418.400000
11882 3235 14162 1 149.00000 418.400000
12400 3236 13354 1 149.00000 418.400000
12400 3237 15490 1 149.00000 418.400000
12400 3238 17015 1 149.00000 418.400000
12400 3239 13441 1 149.00000 418.400000
12401 3240 14153 1 149.00000 418.400000
12401 3241 15361 1 149.00000 418.400000
12401 3242 16368 1 149.00000 418.400000
12402 3243 15926 1 149.00000 418.400000
12402 3244 13708 1 149.00000 418.400000
12402 3245 13077 1 149.00000 418.400000
12403 3246 13204 1 149.00000 418.400000
12403 3247 13899 1 149.00000 418.400000
12386 3248 12403 1 149.00000 418.400000
12403 3249 12606 1 149.00000 418.400000
12404 3250 12588 1 149.00000 418.400000
12404 3251 14530 1 149.00000 418.400000
12404 3252 14099 1 149.00000 418.400000
12405 3253 13175 1 149.00000 418.400000
12405 3254 16116 1 149.00000 418.400000
12405 3255 13256 1 149.00000 418.400000
12406 3256 16624 1 149.00000 418.400000
12406 3257 14503 1 149.00000 418.400000
12406 3258 15849 1 149.00000 418.400000
12406 3259 12517 1 149.00000 418.400000
12407 3260 14059 1 149.00000 418.400000
12407 3261 13964 1 149.00000 418.400000
12407 3262 13831 1 149.00000 418.400000
12407 3263 14174 1 149.00000 418.400000
12408 3264 14451 1 149.00000 418.400000
12409 3265 13326 1 149.00000 418.400000
12409 3266 12776 1 149.00000 418.400000
12409 3267 13193 1 149.00000 418.400000
12409 3268 13664 1 149.00000 418.400000
12410 3269 15955 1 149.00000 418.400000
12410 3270 13880 1 149.00000 418.400000
12410 3271 12766 1 149.00000 418.400000
12410 3272 14767 1 149.00000 418.400000
12411 3273 13610 1 149.00000 418.400000
12411 3274 12526 1 149.00000 418.400000
12411 3275 16985 1 149.00000 418.400000
12411 3276 16080 1 149.00000 418.400000
12412 3277 15814 1 149.00000 418.400000
12412 3278 15261 1 149.00000 418.400000
12413 3279 12605 1 149.00000 418.400000
12413 3280 15725 1 149.00000 418.400000
12413 3281 13794 1 149.00000 418.400000
12414 3282 16905 1 149.00000 418.400000
12414 3283 16997 1 149.00000 418.400000
12680 3284 18365 1 149.00000 418.400000
15189 3285 18365 1 149.00000 418.400000
12415 3286 13389 1 149.00000 418.400000
12415 3287 16126 1 149.00000 418.400000
12416 3288 13837 1 149.00000 418.400000
12416 3289 13603 1 149.00000 418.400000
12416 3290 13448 1 149.00000 418.400000
13120 3291 13738 1 149.00000 418.400000
12417 3292 13716 1 149.00000 418.400000
12417 3293 13120 1 149.00000 418.400000
12417 3294 13577 1 149.00000 418.400000
12418 3295 13762 1 149.00000 418.400000
12418 3296 15248 1 149.00000 418.400000
12418 3297 14247 1 149.00000 418.400000
13461 3298 14069 1 149.00000 418.400000
12419 3299 12924 1 149.00000 418.400000
12419 3300 13461 1 149.00000 418.400000
12419 3301 13063 1 149.00000 418.400000
13437 3302 18368 1 149.00000 418.400000
18368 3303 18443 1 149.00000 418.400000
15754 3304 18368 1 149.00000 418.400000
12420 3305 15710 1 149.00000 418.400000
12420 3306 14522 1 149.00000 418.400000
12420 3307 15425 1 149.00000 418.400000
12420 3308 12631 1 149.00000 418.400000
12240 3309 12421 1 149.00000 418.400000
12421 3310 12942 1 149.00000 418.400000
12421 3311 13947 1 149.00000 418.400000
12421 3312 16573 1 149.00000 418.400000
12422 3313 16258 1 149.00000 418.400000
12422 3314 16389 1 149.00000 418.400000
12422 3315 12550 1 149.00000 418.400000
12422 3316 16574 1 149.00000 418.400000
12423 3317 14617 1 149.00000 418.400000
12423 3318 16289 1 149.00000 418.400000
12423 3319 14714 1 149.00000 418.400000
12424 3320 15946 1 149.00000 418.400000
12424 3321 16562 1 149.00000 418.400000
12424 3322 13908 1 149.00000 418.400000
12425 3323 15036 1 149.00000 418.400000
12425 3324 13345 1 149.00000 418.400000
12426 3325 13630 1 149.00000 418.400000
12426 3326 14663 1 149.00000 418.400000
12426 3327 13796 1 149.00000 418.400000
13329 3328 14663 1 149.00000 418.400000
12427 3329 13927 1 149.00000 418.400000
12427 3330 13624 1 149.00000 418.400000
12427 3331 13040 1 149.00000 418.400000
12427 3332 18047 1 149.00000 418.400000
12428 3333 18761 1 149.00000 418.400000
12428 3334 14322 1 149.00000 418.400000
12428 3335 14284 1 149.00000 418.400000
12429 3336 15760 1 149.00000 418.400000
12429 3337 12872 1 149.00000 418.400000
12430 3338 15976 1 149.00000 418.400000
12430 3339 16372 1 149.00000 418.400000
12431 3340 13868 1 149.00000 418.400000
12431 3341 13459 1 149.00000 418.400000
12431 3342 13565 1 149.00000 418.400000
12431 3343 16194 1 149.00000 418.400000
12432 3344 14040 1 149.00000 418.400000
12432 3345 18848 1 149.00000 418.400000
12432 3346 12801 1 149.00000 418.400000
12432 3347 17663 1 149.00000 418.400000
12433 3348 15048 1 149.00000 418.400000
12433 3349 14782 1 149.00000 418.400000
12433 3350 12765 1 149.00000 418.400000
14078 3351 18371 1 149.00000 418.400000
15534 3352 18371 1 149.00000 418.400000
16724 3353 18371 1 149.00000 418.400000
12434 3354 14900 1 149.00000 418.400000
12434 3355 16570 1 149.00000 418.400000
12434 3356 14944 1 149.00000 418.400000
14319 3357 17007 1 149.00000 418.400000
12435 3358 13270 1 149.00000 418.400000
12435 3359 14319 1 149.00000 418.400000
12435 3360 12651 1 149.00000 418.400000
12436 3361 14838 1 149.00000 418.400000
12436 3362 16705 1 149.00000 418.400000
12436 3363 13249 1 149.00000 418.400000
12437 3364 12683 1 149.00000 418.400000
12437 3365 18443 1 149.00000 418.400000
13769 3366 16804 1 149.00000 418.400000
12437 3367 13769 1 149.00000 418.400000
12438 3368 13393 1 149.00000 418.400000
12438 3369 13404 1 149.00000 418.400000
12438 3370 16127 1 149.00000 418.400000
13616 3371 18374 1 149.00000 418.400000
12439 3372 13770 1 149.00000 418.400000
12439 3373 13383 1 149.00000 418.400000
12439 3374 12457 1 149.00000 418.400000
12439 3375 15733 1 149.00000 418.400000
14889 3376 18377 1 149.00000 418.400000
15695 3377 18377 1 149.00000 418.400000
15646 3378 18377 1 149.00000 418.400000
13601 3379 18380 1 149.00000 418.400000
15799 3380 18380 1 149.00000 418.400000
12440 3381 15076 1 149.00000 418.400000
12440 3382 14956 1 149.00000 418.400000
12440 3383 12937 1 149.00000 418.400000
12440 3384 14290 1 149.00000 418.400000
12441 3385 15274 1 149.00000 418.400000
12441 3386 12989 1 149.00000 418.400000
12441 3387 13699 1 149.00000 418.400000
12442 3388 16284 1 149.00000 418.400000
12442 3389 13315 1 149.00000 418.400000
12442 3390 14698 1 149.00000 418.400000
12442 3391 13914 1 149.00000 418.400000
12443 3392 14523 1 149.00000 418.400000
12443 3393 13088 1 149.00000 418.400000
12443 3394 16933 1 149.00000 418.400000
12443 3395 13885 1 149.00000 418.400000
12444 3396 12710 1 149.00000 418.400000
12444 3397 14450 1 149.00000 418.400000
12444 3398 16887 1 149.00000 418.400000
12445 3399 16421 1 149.00000 418.400000
12445 3400 13695 1 149.00000 418.400000
12445 3401 14124 1 149.00000 418.400000
12446 3402 15082 1 149.00000 418.400000
12446 3403 13985 1 149.00000 418.400000
12446 3404 15600 1 149.00000 418.400000
12446 3405 14453 1 149.00000 418.400000
12447 3406 16584 1 149.00000 418.400000
12750 3407 15198 1 149.00000 418.400000
12448 3408 12750 1 149.00000 418.400000
12448 3409 15559 1 149.00000 418.400000
12449 3410 16644 1 149.00000 418.400000
12449 3411 16829 1 149.00000 418.400000
12449 3412 14730 1 149.00000 418.400000
12449 3413 16728 1 149.00000 418.400000
12450 3414 13253 1 149.00000 418.400000
13253 3415 14328 1 149.00000 418.400000
12450 3416 13055 1 149.00000 418.400000
14959 3417 18383 1 149.00000 418.400000
18383 3418 19052 1 149.00000 418.400000
13620 3419 18383 1 149.00000 418.400000
12451 3420 14920 1 149.00000 418.400000
12451 3421 15388 1 149.00000 418.400000
12451 3422 15980 1 149.00000 418.400000
12451 3423 16021 1 149.00000 418.400000
12452 3424 15963 1 149.00000 418.400000
12452 3425 18179 1 149.00000 418.400000
12453 3426 15820 1 149.00000 418.400000
12453 3427 14257 1 149.00000 418.400000
12453 3428 16358 1 149.00000 418.400000
12453 3429 14953 1 149.00000 418.400000
15621 3430 18386 1 149.00000 418.400000
14678 3431 18386 1 149.00000 418.400000
12307 3432 12454 1 149.00000 418.400000
12454 3433 14321 1 149.00000 418.400000
12467 3434 17915 1 149.00000 418.400000
12455 3435 14984 1 149.00000 418.400000
12455 3436 12496 1 149.00000 418.400000
12455 3437 15182 1 149.00000 418.400000
12455 3438 14916 1 149.00000 418.400000
12456 3439 13088 1 149.00000 418.400000
12456 3440 13147 1 149.00000 418.400000
12456 3441 16802 1 149.00000 418.400000
12456 3442 15797 1 149.00000 418.400000
12457 3443 14620 1 149.00000 418.400000
12458 3444 13230 1 149.00000 418.400000
12458 3445 13662 1 149.00000 418.400000
12458 3446 13932 1 149.00000 418.400000
12458 3447 13726 1 149.00000 418.400000
12459 3448 13103 1 149.00000 418.400000
12459 3449 14812 1 149.00000 418.400000
12393 3450 12459 1 149.00000 418.400000
12459 3451 16010 1 149.00000 418.400000
12460 3452 14837 1 149.00000 418.400000
12460 3453 13460 1 149.00000 418.400000
12461 3454 14964 1 149.00000 418.400000
12461 3455 12493 1 149.00000 418.400000
12461 3456 16079 1 149.00000 418.400000
12462 3457 16568 1 149.00000 418.400000
14988 3458 16941 1 149.00000 418.400000
12462 3459 13056 1 149.00000 418.400000
12463 3460 15969 1 149.00000 418.400000
12463 3461 14499 1 149.00000 418.400000
12463 3462 16190 1 149.00000 418.400000
12463 3463 16794 1 149.00000 418.400000
11718 3464 12464 1 149.00000 418.400000
12464 3465 15038 1 149.00000 418.400000
12464 3466 15430 1 149.00000 418.400000
12464 3467 16349 1 149.00000 418.400000
12465 3468 16270 1 149.00000 418.400000
12465 3469 14312 1 149.00000 418.400000
12465 3470 19013 1 149.00000 418.400000
12466 3471 13781 1 149.00000 418.400000
12466 3472 15233 1 149.00000 418.400000
12466 3473 15228 1 149.00000 418.400000
12466 3474 13584 1 149.00000 418.400000
12467 3475 15941 1 149.00000 418.400000
12467 3476 14561 1 149.00000 418.400000
12546 3477 17879 1 149.00000 418.400000
14410 3478 17879 1 149.00000 418.400000
13867 3479 17879 1 149.00000 418.400000
12468 3480 13588 1 149.00000 418.400000
12468 3481 16279 1 149.00000 418.400000
12468 3482 14429 1 149.00000 418.400000
12468 3483 14133 1 149.00000 418.400000
12469 3484 15191 1 149.00000 418.400000
12469 3485 17006 1 149.00000 418.400000
12470 3486 15776 1 149.00000 418.400000
12470 3487 13582 1 149.00000 418.400000
12470 3488 15092 1 149.00000 418.400000
12471 3489 16835 1 149.00000 418.400000
12471 3490 18353 1 149.00000 418.400000
12471 3491 13358 1 149.00000 418.400000
13653 3492 15528 1 149.00000 418.400000
13653 3493 18899 1 149.00000 418.400000
14548 3494 16534 1 149.00000 418.400000
12472 3495 13896 1 149.00000 418.400000
12472 3496 15402 1 149.00000 418.400000
12472 3497 16173 1 149.00000 418.400000
12472 3498 15178 1 149.00000 418.400000
12473 3499 16660 1 149.00000 418.400000
12473 3500 18419 1 149.00000 418.400000
12473 3501 14105 1 149.00000 418.400000
12473 3502 15140 1 149.00000 418.400000
12474 3503 13714 1 149.00000 418.400000
12474 3504 13814 1 149.00000 418.400000
12474 3505 16488 1 149.00000 418.400000
12475 3506 14533 1 149.00000 418.400000
12475 3507 15332 1 149.00000 418.400000
12475 3508 15174 1 149.00000 418.400000
12475 3509 16241 1 149.00000 418.400000
12476 3510 14059 1 149.00000 418.400000
12476 3511 14073 1 149.00000 418.400000
12476 3512 15338 1 149.00000 418.400000
12476 3513 16729 1 149.00000 418.400000
12477 3514 15226 1 149.00000 418.400000
12477 3515 16267 1 149.00000 418.400000
12478 3516 15710 1 149.00000 418.400000
12478 3517 12798 1 149.00000 418.400000
12479 3518 18731 1 149.00000 418.400000
12479 3519 13811 1 149.00000 418.400000
12479 3520 13212 1 149.00000 418.400000
12480 3521 16204 1 149.00000 418.400000
12480 3522 13583 1 149.00000 418.400000
12480 3523 16327 1 149.00000 418.400000
12480 3524 16320 1 149.00000 418.400000
14526 3525 18389 1 149.00000 418.400000
15764 3526 18389 1 149.00000 418.400000
15465 3527 18389 1 149.00000 418.400000
12481 3528 16871 1 149.00000 418.400000
12481 3529 16582 1 149.00000 418.400000
12481 3530 16016 1 149.00000 418.400000
12482 3531 14150 1 149.00000 418.400000
12482 3532 13467 1 149.00000 418.400000
12482 3533 13947 1 149.00000 418.400000
12482 3534 16142 1 149.00000 418.400000
12483 3535 12957 1 149.00000 418.400000
12483 3536 17006 1 149.00000 418.400000
12483 3537 17855 1 149.00000 418.400000
12484 3538 16929 1 149.00000 418.400000
12484 3539 13107 1 149.00000 418.400000
12484 3540 18779 1 149.00000 418.400000
12484 3541 14396 1 149.00000 418.400000
12485 3542 12670 1 149.00000 418.400000
12485 3543 17147 1 149.00000 418.400000
12485 3544 14611 1 149.00000 418.400000
12485 3545 14830 1 149.00000 418.400000
12486 3546 16360 1 149.00000 418.400000
12486 3547 12852 1 149.00000 418.400000
12486 3548 15070 1 149.00000 418.400000
12487 3549 14012 1 149.00000 418.400000
12487 3550 14995 1 149.00000 418.400000
12487 3551 15124 1 149.00000 418.400000
12487 3552 15829 1 149.00000 418.400000
12488 3553 14551 1 149.00000 418.400000
12488 3554 14019 1 149.00000 418.400000
12489 3555 16721 1 149.00000 418.400000
12489 3556 12726 1 149.00000 418.400000
12489 3557 16769 1 149.00000 418.400000
12489 3558 15368 1 149.00000 418.400000
15539 3559 18392 1 149.00000 418.400000
15673 3560 18392 1 149.00000 418.400000
14040 3561 18392 1 149.00000 418.400000
16272 3562 16930 1 149.00000 418.400000
12490 3563 12582 1 149.00000 418.400000
12490 3564 16272 1 149.00000 418.400000
13129 3565 16272 1 149.00000 418.400000
12491 3566 13876 1 149.00000 418.400000
12491 3567 16062 1 149.00000 418.400000
12491 3568 15454 1 149.00000 418.400000
17049 3569 19070 1 149.00000 418.400000
16245 3570 17049 1 149.00000 418.400000
12492 3571 14917 1 149.00000 418.400000
12492 3572 13580 1 149.00000 418.400000
12492 3573 14750 1 149.00000 418.400000
12492 3574 12737 1 149.00000 418.400000
12493 3575 13105 1 149.00000 418.400000
12493 3576 16706 1 149.00000 418.400000
11957 3577 13588 1 149.00000 418.400000
12494 3578 13712 1 149.00000 418.400000
12494 3579 14429 1 149.00000 418.400000
12495 3580 16658 1 149.00000 418.400000
12495 3581 16058 1 149.00000 418.400000
12495 3582 15802 1 149.00000 418.400000
12496 3583 14675 1 149.00000 418.400000
12497 3584 15549 1 149.00000 418.400000
12497 3585 16000 1 149.00000 418.400000
12497 3586 13228 1 149.00000 418.400000
13372 3587 16734 1 149.00000 418.400000
12498 3588 13372 1 149.00000 418.400000
12498 3589 16836 1 149.00000 418.400000
12498 3590 13492 1 149.00000 418.400000
12499 3591 15930 1 149.00000 418.400000
12499 3592 12836 1 149.00000 418.400000
12499 3593 13213 1 149.00000 418.400000
12499 3594 15556 1 149.00000 418.400000
12500 3595 14091 1 149.00000 418.400000
12500 3596 16372 1 149.00000 418.400000
12500 3597 14712 1 149.00000 418.400000
12501 3598 15289 1 149.00000 418.400000
12501 3599 12684 1 149.00000 418.400000
12501 3600 12593 1 149.00000 418.400000
15097 3601 17759 1 149.00000 418.400000
12502 3602 14946 1 149.00000 418.400000
12502 3603 13279 1 149.00000 418.400000
12502 3604 13277 1 149.00000 418.400000
12503 3605 14647 1 149.00000 418.400000
12503 3606 14264 1 149.00000 418.400000
12503 3607 14685 1 149.00000 418.400000
12503 3608 14557 1 149.00000 418.400000
12504 3609 15502 1 149.00000 418.400000
12504 3610 14480 1 149.00000 418.400000
12504 3611 16486 1 149.00000 418.400000
12504 3612 15696 1 149.00000 418.400000
12505 3613 15195 1 149.00000 418.400000
12505 3614 12932 1 149.00000 418.400000
12505 3615 15317 1 149.00000 418.400000
12505 3616 13540 1 149.00000 418.400000
11917 3617 15424 1 149.00000 418.400000
12506 3618 13964 1 149.00000 418.400000
12506 3619 13190 1 149.00000 418.400000
12507 3620 15590 1 149.00000 418.400000
12507 3621 14794 1 149.00000 418.400000
12507 3622 16054 1 149.00000 418.400000
12508 3623 12823 1 149.00000 418.400000
12508 3624 16098 1 149.00000 418.400000
16098 3625 17687 1 149.00000 418.400000
12508 3626 16788 1 149.00000 418.400000
12509 3627 12933 1 149.00000 418.400000
14817 3628 18548 1 149.00000 418.400000
12510 3629 14018 1 149.00000 418.400000
14018 3630 15956 1 149.00000 418.400000
12510 3631 15562 1 149.00000 418.400000
12511 3632 13016 1 149.00000 418.400000
12511 3633 17987 1 149.00000 418.400000
12511 3634 13959 1 149.00000 418.400000
17987 3635 19165 1 149.00000 418.400000
12512 3636 16380 1 149.00000 418.400000
12512 3637 14306 1 149.00000 418.400000
12513 3638 16046 1 149.00000 418.400000
12513 3639 16068 1 149.00000 418.400000
12513 3640 16632 1 149.00000 418.400000
12513 3641 14441 1 149.00000 418.400000
12514 3642 15911 1 149.00000 418.400000
12514 3643 15356 1 149.00000 418.400000
12515 3644 17963 1 149.00000 418.400000
12515 3645 18557 1 149.00000 418.400000
12516 3646 14531 1 149.00000 418.400000
12516 3647 13684 1 149.00000 418.400000
12516 3648 13129 1 149.00000 418.400000
12517 3649 13457 1 149.00000 418.400000
12517 3650 15570 1 149.00000 418.400000
12518 3651 16220 1 149.00000 418.400000
12518 3652 12644 1 149.00000 418.400000
12518 3653 16673 1 149.00000 418.400000
12519 3654 13385 1 149.00000 418.400000
12085 3655 14098 1 149.00000 418.400000
12519 3656 14277 1 149.00000 418.400000
12519 3657 14098 1 149.00000 418.400000
12520 3658 16682 1 149.00000 418.400000
12520 3659 15342 1 149.00000 418.400000
12520 3660 15431 1 149.00000 418.400000
12521 3661 15122 1 149.00000 418.400000
12521 3662 16054 1 149.00000 418.400000
12521 3663 15342 1 149.00000 418.400000
12522 3664 12739 1 149.00000 418.400000
12522 3665 13540 1 149.00000 418.400000
12522 3666 14090 1 149.00000 418.400000
12522 3667 14304 1 149.00000 418.400000
12523 3668 15085 1 149.00000 418.400000
12523 3669 14947 1 149.00000 418.400000
12523 3670 12610 1 149.00000 418.400000
12523 3671 16496 1 149.00000 418.400000
12524 3672 13357 1 149.00000 418.400000
12524 3673 14742 1 149.00000 418.400000
12524 3674 14460 1 149.00000 418.400000
12524 3675 14793 1 149.00000 418.400000
16766 3676 18395 1 149.00000 418.400000
15142 3677 18395 1 149.00000 418.400000
12525 3678 15838 1 149.00000 418.400000
12525 3679 12925 1 149.00000 418.400000
12525 3680 15980 1 149.00000 418.400000
12526 3681 15918 1 149.00000 418.400000
12526 3682 14093 1 149.00000 418.400000
12527 3683 16331 1 149.00000 418.400000
12527 3684 16573 1 149.00000 418.400000
12527 3685 15872 1 149.00000 418.400000
12528 3686 18509 1 149.00000 418.400000
12528 3687 12707 1 149.00000 418.400000
12529 3688 12989 1 149.00000 418.400000
12529 3689 16061 1 149.00000 418.400000
12529 3690 16359 1 149.00000 418.400000
12530 3691 14664 1 149.00000 418.400000
12530 3692 15685 1 149.00000 418.400000
12530 3693 13338 1 149.00000 418.400000
12531 3694 16787 1 149.00000 418.400000
11704 3695 12531 1 149.00000 418.400000
12531 3696 15089 1 149.00000 418.400000
12531 3697 16808 1 149.00000 418.400000
12532 3698 13987 1 149.00000 418.400000
12532 3699 13930 1 149.00000 418.400000
12532 3700 15470 1 149.00000 418.400000
12532 3701 12781 1 149.00000 418.400000
12533 3702 13568 1 149.00000 418.400000
12533 3703 14133 1 149.00000 418.400000
12534 3704 15192 1 149.00000 418.400000
12534 3705 16275 1 149.00000 418.400000
12534 3706 12598 1 149.00000 418.400000
12534 3707 13863 1 149.00000 418.400000
13320 3708 14329 1 149.00000 418.400000
12535 3709 13320 1 149.00000 418.400000
12535 3710 16953 1 149.00000 418.400000
12535 3711 16426 1 149.00000 418.400000
12536 3712 13574 1 149.00000 418.400000
12536 3713 12944 1 149.00000 418.400000
13574 3714 14307 1 149.00000 418.400000
12536 3715 15449 1 149.00000 418.400000
12537 3716 16302 1 149.00000 418.400000
12537 3717 13011 1 149.00000 418.400000
12537 3718 16562 1 149.00000 418.400000
12537 3719 13618 1 149.00000 418.400000
12538 3720 13828 1 149.00000 418.400000
12538 3721 12757 1 149.00000 418.400000
12538 3722 14274 1 149.00000 418.400000
12539 3723 14536 1 149.00000 418.400000
12539 3724 14219 1 149.00000 418.400000
12539 3725 12878 1 149.00000 418.400000
12540 3726 15832 1 149.00000 418.400000
12540 3727 15787 1 149.00000 418.400000
12541 3728 13649 1 149.00000 418.400000
13474 3729 13649 1 149.00000 418.400000
12541 3730 15639 1 149.00000 418.400000
12541 3731 16613 1 149.00000 418.400000
12542 3732 16870 1 149.00000 418.400000
12542 3733 13148 1 149.00000 418.400000
12542 3734 14639 1 149.00000 418.400000
12542 3735 16911 1 149.00000 418.400000
18398 3736 19073 1 149.00000 418.400000
16299 3737 18398 1 149.00000 418.400000
12543 3738 16968 1 149.00000 418.400000
12435 3739 12543 1 149.00000 418.400000
12543 3740 18902 1 149.00000 418.400000
12544 3741 14604 1 149.00000 418.400000
12544 3742 16479 1 149.00000 418.400000
12544 3743 13097 1 149.00000 418.400000
12544 3744 15895 1 149.00000 418.400000
12545 3745 15212 1 149.00000 418.400000
12545 3746 16958 1 149.00000 418.400000
12545 3747 13275 1 149.00000 418.400000
12545 3748 16897 1 149.00000 418.400000
12546 3749 13124 1 149.00000 418.400000
12546 3750 16912 1 149.00000 418.400000
12547 3751 12995 1 149.00000 418.400000
12547 3752 16847 1 149.00000 418.400000
12547 3753 12947 1 149.00000 418.400000
12547 3754 12594 1 149.00000 418.400000
12548 3755 13887 1 149.00000 418.400000
12548 3756 14510 1 149.00000 418.400000
12548 3757 16572 1 149.00000 418.400000
12548 3758 12828 1 149.00000 418.400000
12207 3759 12788 1 149.00000 418.400000
12549 3760 15205 1 149.00000 418.400000
12549 3761 16703 1 149.00000 418.400000
12550 3762 13600 1 149.00000 418.400000
12550 3763 16496 1 149.00000 418.400000
12551 3764 14448 1 149.00000 418.400000
12551 3765 16402 1 149.00000 418.400000
12552 3766 13953 1 149.00000 418.400000
12552 3767 14194 1 149.00000 418.400000
12552 3768 15464 1 149.00000 418.400000
12552 3769 14998 1 149.00000 418.400000
11777 3770 15991 1 149.00000 418.400000
13836 3771 18401 1 149.00000 418.400000
14587 3772 18401 1 149.00000 418.400000
12554 3773 14331 1 149.00000 418.400000
12554 3774 13894 1 149.00000 418.400000
12554 3775 16707 1 149.00000 418.400000
12555 3776 16966 1 149.00000 418.400000
12555 3777 12988 1 149.00000 418.400000
12555 3778 13006 1 149.00000 418.400000
12555 3779 13569 1 149.00000 418.400000
12556 3780 15860 1 149.00000 418.400000
12556 3781 14523 1 149.00000 418.400000
12556 3782 15953 1 149.00000 418.400000
12556 3783 12818 1 149.00000 418.400000
12557 3784 16687 1 149.00000 418.400000
12557 3785 16376 1 149.00000 418.400000
12557 3786 13759 1 149.00000 418.400000
12558 3787 13510 1 149.00000 418.400000
12558 3788 12563 1 149.00000 418.400000
12558 3789 13196 1 149.00000 418.400000
12559 3790 13302 1 149.00000 418.400000
12559 3791 15449 1 149.00000 418.400000
12559 3792 14843 1 149.00000 418.400000
12560 3793 14932 1 149.00000 418.400000
12560 3794 13046 1 149.00000 418.400000
12560 3795 16423 1 149.00000 418.400000
11893 3796 12560 1 149.00000 418.400000
12561 3797 13614 1 149.00000 418.400000
12561 3798 12751 1 149.00000 418.400000
12561 3799 13457 1 149.00000 418.400000
12561 3800 16696 1 149.00000 418.400000
12562 3801 16286 1 149.00000 418.400000
12562 3802 13217 1 149.00000 418.400000
12562 3803 13907 1 149.00000 418.400000
12562 3804 13927 1 149.00000 418.400000
12558 3805 12583 1 149.00000 418.400000
12563 3806 13062 1 149.00000 418.400000
12563 3807 15420 1 149.00000 418.400000
12564 3808 15406 1 149.00000 418.400000
12564 3809 15083 1 149.00000 418.400000
12564 3810 12895 1 149.00000 418.400000
12564 3811 14334 1 149.00000 418.400000
14815 3812 16965 1 149.00000 418.400000
12565 3813 13435 1 149.00000 418.400000
12565 3814 16817 1 149.00000 418.400000
12565 3815 14815 1 149.00000 418.400000
12566 3816 14721 1 149.00000 418.400000
12566 3817 14028 1 149.00000 418.400000
12566 3818 13550 1 149.00000 418.400000
12567 3819 14236 1 149.00000 418.400000
12567 3820 14920 1 149.00000 418.400000
12567 3821 14202 1 149.00000 418.400000
12567 3822 15334 1 149.00000 418.400000
12568 3823 15441 1 149.00000 418.400000
12568 3824 14802 1 149.00000 418.400000
12568 3825 15012 1 149.00000 418.400000
12569 3826 16267 1 149.00000 418.400000
12569 3827 14239 1 149.00000 418.400000
12569 3828 13165 1 149.00000 418.400000
12570 3829 16729 1 149.00000 418.400000
12570 3830 15425 1 149.00000 418.400000
12570 3831 15024 1 149.00000 418.400000
12022 3832 12571 1 149.00000 418.400000
14423 3833 16879 1 149.00000 418.400000
12571 3834 15352 1 149.00000 418.400000
12572 3835 15980 1 149.00000 418.400000
12572 3836 14250 1 149.00000 418.400000
12572 3837 16833 1 149.00000 418.400000
12573 3838 14488 1 149.00000 418.400000
12573 3839 13909 1 149.00000 418.400000
12573 3840 14214 1 149.00000 418.400000
12573 3841 16608 1 149.00000 418.400000
12574 3842 13157 1 149.00000 418.400000
12574 3843 15115 1 149.00000 418.400000
12574 3844 16294 1 149.00000 418.400000
12575 3845 14600 1 149.00000 418.400000
12575 3846 15682 1 149.00000 418.400000
12575 3847 13130 1 149.00000 418.400000
12575 3848 16590 1 149.00000 418.400000
12576 3849 13898 1 149.00000 418.400000
12576 3850 12917 1 149.00000 418.400000
12576 3851 13233 1 149.00000 418.400000
12577 3852 13639 1 149.00000 418.400000
12577 3853 15291 1 149.00000 418.400000
12577 3854 16655 1 149.00000 418.400000
12578 3855 16317 1 149.00000 418.400000
12578 3856 14769 1 149.00000 418.400000
12578 3857 16443 1 149.00000 418.400000
12578 3858 13941 1 149.00000 418.400000
12579 3859 13595 1 149.00000 418.400000
12579 3860 16700 1 149.00000 418.400000
12579 3861 16520 1 149.00000 418.400000
12579 3862 14218 1 149.00000 418.400000
12580 3863 14393 1 149.00000 418.400000
12580 3864 15926 1 149.00000 418.400000
12580 3865 16875 1 149.00000 418.400000
12580 3866 15947 1 149.00000 418.400000
12581 3867 13614 1 149.00000 418.400000
12581 3868 15769 1 149.00000 418.400000
12582 3869 16027 1 149.00000 418.400000
12583 3870 16514 1 149.00000 418.400000
12583 3871 13599 1 149.00000 418.400000
12583 3872 13276 1 149.00000 418.400000
12584 3873 13584 1 149.00000 418.400000
12584 3874 14911 1 149.00000 418.400000
12584 3875 15448 1 149.00000 418.400000
12584 3876 13105 1 149.00000 418.400000
13212 3877 18404 1 149.00000 418.400000
15876 3878 18404 1 149.00000 418.400000
15662 3879 18407 1 149.00000 418.400000
18407 3880 18773 1 149.00000 418.400000
15774 3881 18407 1 149.00000 418.400000
12585 3882 15173 1 149.00000 418.400000
12585 3883 14293 1 149.00000 418.400000
12585 3884 13580 1 149.00000 418.400000
12585 3885 14991 1 149.00000 418.400000
12586 3886 15122 1 149.00000 418.400000
12586 3887 15933 1 149.00000 418.400000
12586 3888 16360 1 149.00000 418.400000
12587 3889 16244 1 149.00000 418.400000
12587 3890 13613 1 149.00000 418.400000
12587 3891 14605 1 149.00000 418.400000
12588 3892 13719 1 149.00000 418.400000
12588 3893 12705 1 149.00000 418.400000
12588 3894 15879 1 149.00000 418.400000
12589 3895 16120 1 149.00000 418.400000
12589 3896 14881 1 149.00000 418.400000
12589 3897 14900 1 149.00000 418.400000
12589 3898 15800 1 149.00000 418.400000
12590 3899 15901 1 149.00000 418.400000
12590 3900 13549 1 149.00000 418.400000
12590 3901 16945 1 149.00000 418.400000
12591 3902 14606 1 149.00000 418.400000
12591 3903 14110 1 149.00000 418.400000
12591 3904 18470 1 149.00000 418.400000
12591 3905 12618 1 149.00000 418.400000
12592 3906 15175 1 149.00000 418.400000
12592 3907 13722 1 149.00000 418.400000
12592 3908 15538 1 149.00000 418.400000
12592 3909 12889 1 149.00000 418.400000
12593 3910 15672 1 149.00000 418.400000
12593 3911 14684 1 149.00000 418.400000
12593 3912 12885 1 149.00000 418.400000
12594 3913 14986 1 149.00000 418.400000
12594 3914 14330 1 149.00000 418.400000
12595 3915 14787 1 149.00000 418.400000
12595 3916 15719 1 149.00000 418.400000
12595 3917 13147 1 149.00000 418.400000
12595 3918 16996 1 149.00000 418.400000
14197 3919 14746 1 149.00000 418.400000
12596 3920 14197 1 149.00000 418.400000
12596 3921 16928 1 149.00000 418.400000
18674 3922 18752 1 149.00000 418.400000
12597 3923 18752 1 149.00000 418.400000
12598 3924 15748 1 149.00000 418.400000
12598 3925 15567 1 149.00000 418.400000
12598 3926 14377 1 149.00000 418.400000
12599 3927 18878 1 149.00000 418.400000
12599 3928 14942 1 149.00000 418.400000
12600 3929 13553 1 149.00000 418.400000
12600 3930 18761 1 149.00000 418.400000
12601 3931 14852 1 149.00000 418.400000
12601 3932 15915 1 149.00000 418.400000
12601 3933 14907 1 149.00000 418.400000
12601 3934 14184 1 149.00000 418.400000
13543 3935 15528 1 149.00000 418.400000
12602 3936 13543 1 149.00000 418.400000
12603 3937 13603 1 149.00000 418.400000
12603 3938 14046 1 149.00000 418.400000
12604 3939 15273 1 149.00000 418.400000
12604 3940 13273 1 149.00000 418.400000
12604 3941 14297 1 149.00000 418.400000
12604 3942 16010 1 149.00000 418.400000
12605 3943 14024 1 149.00000 418.400000
12605 3944 13429 1 149.00000 418.400000
12605 3945 15615 1 149.00000 418.400000
12606 3946 15785 1 149.00000 418.400000
12607 3947 14159 1 149.00000 418.400000
12607 3948 13745 1 149.00000 418.400000
12607 3949 15127 1 149.00000 418.400000
12608 3950 12996 1 149.00000 418.400000
12608 3951 15025 1 149.00000 418.400000
12608 3952 13369 1 149.00000 418.400000
12608 3953 13996 1 149.00000 418.400000
12609 3954 13829 1 149.00000 418.400000
12609 3955 14307 1 149.00000 418.400000
13829 3956 15184 1 149.00000 418.400000
12609 3957 13574 1 149.00000 418.400000
12610 3958 14835 1 149.00000 418.400000
12610 3959 15012 1 149.00000 418.400000
12611 3960 14669 1 149.00000 418.400000
12611 3961 12777 1 149.00000 418.400000
12612 3962 14034 1 149.00000 418.400000
12612 3963 15078 1 149.00000 418.400000
12612 3964 13387 1 149.00000 418.400000
12612 3965 15420 1 149.00000 418.400000
12613 3966 14533 1 149.00000 418.400000
12613 3967 15681 1 149.00000 418.400000
12613 3968 14632 1 149.00000 418.400000
12613 3969 13993 1 149.00000 418.400000
12614 3970 15790 1 149.00000 418.400000
12614 3971 12627 1 149.00000 418.400000
11935 3972 13810 1 149.00000 418.400000
12615 3973 13336 1 149.00000 418.400000
12615 3974 16680 1 149.00000 418.400000
12615 3975 15265 1 149.00000 418.400000
12615 3976 15747 1 149.00000 418.400000
12616 3977 14881 1 149.00000 418.400000
12616 3978 15890 1 149.00000 418.400000
12617 3979 14264 1 149.00000 418.400000
12617 3980 13482 1 149.00000 418.400000
12617 3981 14945 1 149.00000 418.400000
12618 3982 16869 1 149.00000 418.400000
12618 3983 14597 1 149.00000 418.400000
12618 3984 14035 1 149.00000 418.400000
12619 3985 14770 1 149.00000 418.400000
12619 3986 17003 1 149.00000 418.400000
12619 3987 16322 1 149.00000 418.400000
12619 3988 15102 1 149.00000 418.400000
12620 3989 15882 1 149.00000 418.400000
12620 3990 13544 1 149.00000 418.400000
12620 3991 14528 1 149.00000 418.400000
12620 3992 14903 1 149.00000 418.400000
12621 3993 17105 1 149.00000 418.400000
12621 3994 13415 1 149.00000 418.400000
12621 3995 18869 1 149.00000 418.400000
12621 3996 13333 1 149.00000 418.400000
12622 3997 16895 1 149.00000 418.400000
12622 3998 14546 1 149.00000 418.400000
12622 3999 14430 1 149.00000 418.400000
12623 4000 14898 1 149.00000 418.400000
12623 4001 14904 1 149.00000 418.400000
12623 4002 15925 1 149.00000 418.400000
12624 4003 16232 1 149.00000 418.400000
12624 4004 16603 1 149.00000 418.400000
12625 4005 13926 1 149.00000 418.400000
12625 4006 16215 1 149.00000 418.400000
12625 4007 14836 1 149.00000 418.400000
12625 4008 14865 1 149.00000 418.400000
12626 4009 15883 1 149.00000 418.400000
12324 4010 12626 1 149.00000 418.400000
12626 4011 14348 1 149.00000 418.400000
12627 4012 13950 1 149.00000 418.400000
12627 4013 13184 1 149.00000 418.400000
12628 4014 15184 1 149.00000 418.400000
12628 4015 13458 1 149.00000 418.400000
12628 4016 13733 1 149.00000 418.400000
15113 4017 18410 1 149.00000 418.400000
18191 4018 18410 1 149.00000 418.400000
12629 4019 14988 1 149.00000 418.400000
12629 4020 15280 1 149.00000 418.400000
12629 4021 16743 1 149.00000 418.400000
12997 4022 16517 1 149.00000 418.400000
12630 4023 14138 1 149.00000 418.400000
12630 4024 13054 1 149.00000 418.400000
12630 4025 16517 1 149.00000 418.400000
12631 4026 13453 1 149.00000 418.400000
13453 4027 16744 1 149.00000 418.400000
12632 4028 13552 1 149.00000 418.400000
12632 4029 16663 1 149.00000 418.400000
11761 4030 15203 1 149.00000 418.400000
12633 4031 16252 1 149.00000 418.400000
12633 4032 12877 1 149.00000 418.400000
15767 4033 18413 1 149.00000 418.400000
14205 4034 18413 1 149.00000 418.400000
12634 4035 14793 1 149.00000 418.400000
13660 4036 15936 1 149.00000 418.400000
12634 4037 16962 1 149.00000 418.400000
12634 4038 15936 1 149.00000 418.400000
12635 4039 15576 1 149.00000 418.400000
12635 4040 14497 1 149.00000 418.400000
17891 4041 18416 1 149.00000 418.400000
15962 4042 18416 1 149.00000 418.400000
12636 4043 15796 1 149.00000 418.400000
12636 4044 12656 1 149.00000 418.400000
12636 4045 16627 1 149.00000 418.400000
12637 4046 12824 1 149.00000 418.400000
12637 4047 13396 1 149.00000 418.400000
12637 4048 14006 1 149.00000 418.400000
12638 4049 15412 1 149.00000 418.400000
12638 4050 18911 1 149.00000 418.400000
12638 4051 17343 1 149.00000 418.400000
12638 4052 15051 1 149.00000 418.400000
12639 4053 15274 1 149.00000 418.400000
12639 4054 13761 1 149.00000 418.400000
12639 4055 15084 1 149.00000 418.400000
12640 4056 14128 1 149.00000 418.400000
12640 4057 18890 1 149.00000 418.400000
12640 4058 15887 1 149.00000 418.400000
12641 4059 13953 1 149.00000 418.400000
12641 4060 14924 1 149.00000 418.400000
12641 4061 12976 1 149.00000 418.400000
12642 4062 15908 1 149.00000 418.400000
12642 4063 16033 1 149.00000 418.400000
12642 4064 14124 1 149.00000 418.400000
12642 4065 12685 1 149.00000 418.400000
12643 4066 16134 1 149.00000 418.400000
12164 4067 16134 1 149.00000 418.400000
12643 4068 14974 1 149.00000 418.400000
12644 4069 14468 1 149.00000 418.400000
12645 4070 15635 1 149.00000 418.400000
12645 4071 15730 1 149.00000 418.400000
12645 4072 12865 1 149.00000 418.400000
12645 4073 15094 1 149.00000 418.400000
12646 4074 16601 1 149.00000 418.400000
12646 4075 12714 1 149.00000 418.400000
12646 4076 18809 1 149.00000 418.400000
12647 4077 15582 1 149.00000 418.400000
12647 4078 15986 1 149.00000 418.400000
12647 4079 13136 1 149.00000 418.400000
12647 4080 16348 1 149.00000 418.400000
11970 4081 15031 1 149.00000 418.400000
12648 4082 18191 1 149.00000 418.400000
12648 4083 12844 1 149.00000 418.400000
12649 4084 14086 1 149.00000 418.400000
12649 4085 13098 1 149.00000 418.400000
12650 4086 15579 1 149.00000 418.400000
12650 4087 16484 1 149.00000 418.400000
12650 4088 14965 1 149.00000 418.400000
12651 4089 12740 1 149.00000 418.400000
12651 4090 14129 1 149.00000 418.400000
12651 4091 13857 1 149.00000 418.400000
12652 4092 14195 1 149.00000 418.400000
12652 4093 13679 1 149.00000 418.400000
12652 4094 13322 1 149.00000 418.400000
12652 4095 15322 1 149.00000 418.400000
12653 4096 13703 1 149.00000 418.400000
12653 4097 15593 1 149.00000 418.400000
12653 4098 13804 1 149.00000 418.400000
12653 4099 15721 1 149.00000 418.400000
12654 4100 13643 1 149.00000 418.400000
13643 4101 16507 1 149.00000 418.400000
12655 4102 17259 1 149.00000 418.400000
12655 4103 13472 1 149.00000 418.400000
12656 4104 13585 1 149.00000 418.400000
12656 4105 16843 1 149.00000 418.400000
12656 4106 16594 1 149.00000 418.400000
13225 4107 16852 1 149.00000 418.400000
12657 4108 13225 1 149.00000 418.400000
12657 4109 16958 1 149.00000 418.400000
12657 4110 15763 1 149.00000 418.400000
13220 4111 13347 1 149.00000 418.400000
12658 4112 12854 1 149.00000 418.400000
12658 4113 14407 1 149.00000 418.400000
12659 4114 14897 1 149.00000 418.400000
12659 4115 15148 1 149.00000 418.400000
12659 4116 16812 1 149.00000 418.400000
12659 4117 16527 1 149.00000 418.400000
12660 4118 15454 1 149.00000 418.400000
12660 4119 16883 1 149.00000 418.400000
12661 4120 16864 1 149.00000 418.400000
12661 4121 15040 1 149.00000 418.400000
12661 4122 15798 1 149.00000 418.400000
12661 4123 14552 1 149.00000 418.400000
12662 4124 15897 1 149.00000 418.400000
12662 4125 16742 1 149.00000 418.400000
12662 4126 14116 1 149.00000 418.400000
12662 4127 16356 1 149.00000 418.400000
12663 4128 13562 1 149.00000 418.400000
12663 4129 16047 1 149.00000 418.400000
12664 4130 15885 1 149.00000 418.400000
12664 4131 13392 1 149.00000 418.400000
12665 4132 15116 1 149.00000 418.400000
12665 4133 12860 1 149.00000 418.400000
12665 4134 15043 1 149.00000 418.400000
12666 4135 14086 1 149.00000 418.400000
12666 4136 14115 1 149.00000 418.400000
12666 4137 12719 1 149.00000 418.400000
12667 4138 14789 1 149.00000 418.400000
12667 4139 16310 1 149.00000 418.400000
12667 4140 15015 1 149.00000 418.400000
12668 4141 15404 1 149.00000 418.400000
12668 4142 15777 1 149.00000 418.400000
12668 4143 12736 1 149.00000 418.400000
12668 4144 12853 1 149.00000 418.400000
12669 4145 16744 1 149.00000 418.400000
12669 4146 13754 1 149.00000 418.400000
12669 4147 15710 1 149.00000 418.400000
12669 4148 15210 1 149.00000 418.400000
12670 4149 15943 1 149.00000 418.400000
12670 4150 18965 1 149.00000 418.400000
12671 4151 15350 1 149.00000 418.400000
12671 4152 13581 1 149.00000 418.400000
12671 4153 13908 1 149.00000 418.400000
12672 4154 14454 1 149.00000 418.400000
12672 4155 16223 1 149.00000 418.400000
12672 4156 13752 1 149.00000 418.400000
12672 4157 14466 1 149.00000 418.400000
12673 4158 16171 1 149.00000 418.400000
12673 4159 16132 1 149.00000 418.400000
12674 4160 16650 1 149.00000 418.400000
12674 4161 15577 1 149.00000 418.400000
12674 4162 15409 1 149.00000 418.400000
12675 4163 15206 1 149.00000 418.400000
12675 4164 14455 1 149.00000 418.400000
12675 4165 16464 1 149.00000 418.400000
12675 4166 13977 1 149.00000 418.400000
11656 4167 18419 1 149.00000 418.400000
11656 4168 19190 1 149.00000 418.400000
12676 4169 14850 1 149.00000 418.400000
12676 4170 15766 1 149.00000 418.400000
12676 4171 14082 1 149.00000 418.400000
14580 4172 18422 1 149.00000 418.400000
12677 4173 14797 1 149.00000 418.400000
12677 4174 15261 1 149.00000 418.400000
12677 4175 12682 1 149.00000 418.400000
12678 4176 16485 1 149.00000 418.400000
12678 4177 15044 1 149.00000 418.400000
12678 4178 13876 1 149.00000 418.400000
12679 4179 12815 1 149.00000 418.400000
12679 4180 15886 1 149.00000 418.400000
12679 4181 13832 1 149.00000 418.400000
12680 4182 12953 1 149.00000 418.400000
12680 4183 15930 1 149.00000 418.400000
12681 4184 13150 1 149.00000 418.400000
12681 4185 15584 1 149.00000 418.400000
12682 4186 15497 1 149.00000 418.400000
12682 4187 15333 1 149.00000 418.400000
12682 4188 15814 1 149.00000 418.400000
12683 4189 13582 1 149.00000 418.400000
12683 4190 16407 1 149.00000 418.400000
12684 4191 12945 1 149.00000 418.400000
12684 4192 14510 1 149.00000 418.400000
12684 4193 12986 1 149.00000 418.400000
12685 4194 12912 1 149.00000 418.400000
12685 4195 16757 1 149.00000 418.400000
12685 4196 13963 1 149.00000 418.400000
12686 4197 13984 1 149.00000 418.400000
12686 4198 16088 1 149.00000 418.400000
12686 4199 13906 1 149.00000 418.400000
12686 4200 16202 1 149.00000 418.400000
12687 4201 14578 1 149.00000 418.400000
12687 4202 16000 1 149.00000 418.400000
12687 4203 15496 1 149.00000 418.400000
12687 4204 16654 1 149.00000 418.400000
12688 4205 16820 1 149.00000 418.400000
12688 4206 13526 1 149.00000 418.400000
12688 4207 19120 1 149.00000 418.400000
16656 4208 18425 1 149.00000 418.400000
18425 4209 18977 1 149.00000 418.400000
12689 4210 13033 1 149.00000 418.400000
12689 4211 13365 1 149.00000 418.400000
12689 4212 14349 1 149.00000 418.400000
12690 4213 14044 1 149.00000 418.400000
12690 4214 14625 1 149.00000 418.400000
12690 4215 16650 1 149.00000 418.400000
12690 4216 18680 1 149.00000 418.400000
12691 4217 16408 1 149.00000 418.400000
12691 4218 16947 1 149.00000 418.400000
12691 4219 14654 1 149.00000 418.400000
12691 4220 14217 1 149.00000 418.400000
12692 4221 16365 1 149.00000 418.400000
12692 4222 12963 1 149.00000 418.400000
12692 4223 13405 1 149.00000 418.400000
12692 4224 13219 1 149.00000 418.400000
12693 4225 13910 1 149.00000 418.400000
12693 4226 14334 1 149.00000 418.400000
12693 4227 13774 1 149.00000 418.400000
12693 4228 13605 1 149.00000 418.400000
12694 4229 13858 1 149.00000 418.400000
12694 4230 15197 1 149.00000 418.400000
12694 4231 13946 1 149.00000 418.400000
12695 4232 12936 1 149.00000 418.400000
12695 4233 14849 1 149.00000 418.400000
12695 4234 15415 1 149.00000 418.400000
12695 4235 15977 1 149.00000 418.400000
14148 4236 18428 1 149.00000 418.400000
12696 4237 13513 1 149.00000 418.400000
12696 4238 19049 1 149.00000 418.400000
12696 4239 13526 1 149.00000 418.400000
12696 4240 16264 1 149.00000 418.400000
12697 4241 15295 1 149.00000 418.400000
12697 4242 14282 1 149.00000 418.400000
12697 4243 16339 1 149.00000 418.400000
12698 4244 12927 1 149.00000 418.400000
12698 4245 12746 1 149.00000 418.400000
12698 4246 15830 1 149.00000 418.400000
12698 4247 15139 1 149.00000 418.400000
12699 4248 15722 1 149.00000 418.400000
12699 4249 14431 1 149.00000 418.400000
12699 4250 14144 1 149.00000 418.400000
12699 4251 16757 1 149.00000 418.400000
12700 4252 15612 1 149.00000 418.400000
12700 4253 13322 1 149.00000 418.400000
12700 4254 13660 1 149.00000 418.400000
12701 4255 15448 1 149.00000 418.400000
12701 4256 14545 1 149.00000 418.400000
12701 4257 16706 1 149.00000 418.400000
12701 4258 16409 1 149.00000 418.400000
12702 4259 13842 1 149.00000 418.400000
12702 4260 13996 1 149.00000 418.400000
12702 4261 15037 1 149.00000 418.400000
12703 4262 12840 1 149.00000 418.400000
12703 4263 15277 1 149.00000 418.400000
12703 4264 16973 1 149.00000 418.400000
12703 4265 16321 1 149.00000 418.400000
12704 4266 14589 1 149.00000 418.400000
12704 4267 13532 1 149.00000 418.400000
12704 4268 15668 1 149.00000 418.400000
12704 4269 15331 1 149.00000 418.400000
12705 4270 18698 1 149.00000 418.400000
12705 4271 14101 1 149.00000 418.400000
12706 4272 12711 1 149.00000 418.400000
12706 4273 15801 1 149.00000 418.400000
12706 4274 15561 1 149.00000 418.400000
12706 4275 15639 1 149.00000 418.400000
12707 4276 15275 1 149.00000 418.400000
12707 4277 16885 1 149.00000 418.400000
12708 4278 17519 1 149.00000 418.400000
12708 4279 16247 1 149.00000 418.400000
12708 4280 14063 1 149.00000 418.400000
12708 4281 18725 1 149.00000 418.400000
12709 4282 15806 1 149.00000 418.400000
12709 4283 16853 1 149.00000 418.400000
12710 4284 15267 1 149.00000 418.400000
12763 4285 15267 1 149.00000 418.400000
12710 4286 13336 1 149.00000 418.400000
12711 4287 15242 1 149.00000 418.400000
12711 4288 12858 1 149.00000 418.400000
12711 4289 14844 1 149.00000 418.400000
12712 4290 17006 1 149.00000 418.400000
12712 4291 13216 1 149.00000 418.400000
12712 4292 19037 1 149.00000 418.400000
12712 4293 13343 1 149.00000 418.400000
12713 4294 14236 1 149.00000 418.400000
11702 4295 14088 1 149.00000 418.400000
12713 4296 14828 1 149.00000 418.400000
12714 4297 13597 1 149.00000 418.400000
12714 4298 16463 1 149.00000 418.400000
12715 4299 14694 1 149.00000 418.400000
12715 4300 16874 1 149.00000 418.400000
12715 4301 15270 1 149.00000 418.400000
12716 4302 12793 1 149.00000 418.400000
12793 4303 15215 1 149.00000 418.400000
12716 4304 17063 1 149.00000 418.400000
12717 4305 15504 1 149.00000 418.400000
12717 4306 13794 1 149.00000 418.400000
12717 4307 13847 1 149.00000 418.400000
12717 4308 16067 1 149.00000 418.400000
12718 4309 12752 1 149.00000 418.400000
12718 4310 14827 1 149.00000 418.400000
12718 4311 15927 1 149.00000 418.400000
12719 4312 13258 1 149.00000 418.400000
12719 4313 16601 1 149.00000 418.400000
12720 4314 15668 1 149.00000 418.400000
12720 4315 14286 1 149.00000 418.400000
12720 4316 16516 1 149.00000 418.400000
12721 4317 16519 1 149.00000 418.400000
12721 4318 17217 1 149.00000 418.400000
12721 4319 13988 1 149.00000 418.400000
13988 4320 16830 1 149.00000 418.400000
12722 4321 13817 1 149.00000 418.400000
12722 4322 12866 1 149.00000 418.400000
12722 4323 15065 1 149.00000 418.400000
12722 4324 14011 1 149.00000 418.400000
12723 4325 14330 1 149.00000 418.400000
12723 4326 16847 1 149.00000 418.400000
12724 4327 13040 1 149.00000 418.400000
12724 4328 15324 1 149.00000 418.400000
12724 4329 15056 1 149.00000 418.400000
12724 4330 14470 1 149.00000 418.400000
12725 4331 15312 1 149.00000 418.400000
12519 4332 12725 1 149.00000 418.400000
12725 4333 16177 1 149.00000 418.400000
12725 4334 15462 1 149.00000 418.400000
12726 4335 14717 1 149.00000 418.400000
12726 4336 13864 1 149.00000 418.400000
12726 4337 16620 1 149.00000 418.400000
12727 4338 13185 1 149.00000 418.400000
12727 4339 16404 1 149.00000 418.400000
12727 4340 14600 1 149.00000 418.400000
12728 4341 15557 1 149.00000 418.400000
12728 4342 16928 1 149.00000 418.400000
12728 4343 15137 1 149.00000 418.400000
12728 4344 14870 1 149.00000 418.400000
12729 4345 15223 1 149.00000 418.400000
12729 4346 14270 1 149.00000 418.400000
12729 4347 14515 1 149.00000 418.400000
12729 4348 15771 1 149.00000 418.400000
12730 4349 13321 1 149.00000 418.400000
12730 4350 14760 1 149.00000 418.400000
12730 4351 15786 1 149.00000 418.400000
12730 4352 15434 1 149.00000 418.400000
12731 4353 13751 1 149.00000 418.400000
12731 4354 13134 1 149.00000 418.400000
12731 4355 15092 1 149.00000 418.400000
12731 4356 14602 1 149.00000 418.400000
12732 4357 16448 1 149.00000 418.400000
12732 4358 15743 1 149.00000 418.400000
12732 4359 13622 1 149.00000 418.400000
12732 4360 16416 1 149.00000 418.400000
12733 4361 16310 1 149.00000 418.400000
12733 4362 13975 1 149.00000 418.400000
12733 4363 15479 1 149.00000 418.400000
12733 4364 12802 1 149.00000 418.400000
12734 4365 16734 1 149.00000 418.400000
12734 4366 13696 1 149.00000 418.400000
12734 4367 15904 1 149.00000 418.400000
12734 4368 13224 1 149.00000 418.400000
12735 4369 15553 1 149.00000 418.400000
12735 4370 15632 1 149.00000 418.400000
12735 4371 12784 1 149.00000 418.400000
12736 4372 16075 1 149.00000 418.400000
12736 4373 16576 1 149.00000 418.400000
13532 4374 18431 1 149.00000 418.400000
12737 4375 14660 1 149.00000 418.400000
12737 4376 13984 1 149.00000 418.400000
12738 4377 15217 1 149.00000 418.400000
12738 4378 19140 1 149.00000 418.400000
12738 4379 16135 1 149.00000 418.400000
12739 4380 16405 1 149.00000 418.400000
12739 4381 12932 1 149.00000 418.400000
12740 4382 13886 1 149.00000 418.400000
12740 4383 13845 1 149.00000 418.400000
12740 4384 16968 1 149.00000 418.400000
12741 4385 16638 1 149.00000 418.400000
12741 4386 16442 1 149.00000 418.400000
12741 4387 15319 1 149.00000 418.400000
12741 4388 15620 1 149.00000 418.400000
12742 4389 16248 1 149.00000 418.400000
12742 4390 14988 1 149.00000 418.400000
12743 4391 18776 1 149.00000 418.400000
12888 4392 18776 1 149.00000 418.400000
12743 4393 13522 1 149.00000 418.400000
12744 4394 15912 1 149.00000 418.400000
12744 4395 14365 1 149.00000 418.400000
12744 4396 15101 1 149.00000 418.400000
12744 4397 14464 1 149.00000 418.400000
16413 4398 18434 1 149.00000 418.400000
14396 4399 18434 1 149.00000 418.400000
14990 4400 18434 1 149.00000 418.400000
12745 4401 15256 1 149.00000 418.400000
12745 4402 14320 1 149.00000 418.400000
12745 4403 16194 1 149.00000 418.400000
12746 4404 16688 1 149.00000 418.400000
12746 4405 15169 1 149.00000 418.400000
12746 4406 14200 1 149.00000 418.400000
12747 4407 13903 1 149.00000 418.400000
12747 4408 14962 1 149.00000 418.400000
12747 4409 15280 1 149.00000 418.400000
12748 4410 16419 1 149.00000 418.400000
12748 4411 13454 1 149.00000 418.400000
12748 4412 13670 1 149.00000 418.400000
12749 4413 16897 1 149.00000 418.400000
12749 4414 16827 1 149.00000 418.400000
12749 4415 15151 1 149.00000 418.400000
12749 4416 16435 1 149.00000 418.400000
12750 4417 13841 1 149.00000 418.400000
12750 4418 12814 1 149.00000 418.400000
12448 4419 18749 1 149.00000 418.400000
12751 4420 12816 1 149.00000 418.400000
12751 4421 14733 1 149.00000 418.400000
12751 4422 12830 1 149.00000 418.400000
12752 4423 16555 1 149.00000 418.400000
12752 4424 15557 1 149.00000 418.400000
12753 4425 14896 1 149.00000 418.400000
12753 4426 15493 1 149.00000 418.400000
12753 4427 18530 1 149.00000 418.400000
12754 4428 14650 1 149.00000 418.400000
12754 4429 13198 1 149.00000 418.400000
12754 4430 13439 1 149.00000 418.400000
12754 4431 17015 1 149.00000 418.400000
16680 4432 18437 1 149.00000 418.400000
13645 4433 18437 1 149.00000 418.400000
14691 4434 18437 1 149.00000 418.400000
12755 4435 13433 1 149.00000 418.400000
12756 4436 14403 1 149.00000 418.400000
12756 4437 19001 1 149.00000 418.400000
12756 4438 15730 1 149.00000 418.400000
12756 4439 15836 1 149.00000 418.400000
12757 4440 14832 1 149.00000 418.400000
12757 4441 13375 1 149.00000 418.400000
12758 4442 14344 1 149.00000 418.400000
12758 4443 13333 1 149.00000 418.400000
11635 4444 12758 1 149.00000 418.400000
12758 4445 16874 1 149.00000 418.400000
12759 4446 15568 1 149.00000 418.400000
12759 4447 15617 1 149.00000 418.400000
12759 4448 17004 1 149.00000 418.400000
12759 4449 13206 1 149.00000 418.400000
12760 4450 16090 1 149.00000 418.400000
12760 4451 15650 1 149.00000 418.400000
12760 4452 16803 1 149.00000 418.400000
12761 4453 14355 1 149.00000 418.400000
12761 4454 17385 1 149.00000 418.400000
12761 4455 18626 1 149.00000 418.400000
12762 4456 15491 1 149.00000 418.400000
12762 4457 13254 1 149.00000 418.400000
12762 4458 12910 1 149.00000 418.400000
12763 4459 13102 1 149.00000 418.400000
12763 4460 13846 1 149.00000 418.400000
12764 4461 14464 1 149.00000 418.400000
12764 4462 12794 1 149.00000 418.400000
11763 4463 12764 1 149.00000 418.400000
12765 4464 13276 1 149.00000 418.400000
12765 4465 16514 1 149.00000 418.400000
12766 4466 13302 1 149.00000 418.400000
12766 4467 14690 1 149.00000 418.400000
12766 4468 13493 1 149.00000 418.400000
12767 4469 16509 1 149.00000 418.400000
12767 4470 14606 1 149.00000 418.400000
12767 4471 15726 1 149.00000 418.400000
12767 4472 14804 1 149.00000 418.400000
12768 4473 14838 1 149.00000 418.400000
12768 4474 15173 1 149.00000 418.400000
12768 4475 14750 1 149.00000 418.400000
15774 4476 18440 1 149.00000 418.400000
16976 4477 18440 1 149.00000 418.400000
16508 4478 18440 1 149.00000 418.400000
12769 4479 15785 1 149.00000 418.400000
14681 4480 16551 1 149.00000 418.400000
12769 4481 16551 1 149.00000 418.400000
12770 4482 13888 1 149.00000 418.400000
12770 4483 14041 1 149.00000 418.400000
12770 4484 14633 1 149.00000 418.400000
12770 4485 16781 1 149.00000 418.400000
12771 4486 15830 1 149.00000 418.400000
12771 4487 15482 1 149.00000 418.400000
12771 4488 13892 1 149.00000 418.400000
12771 4489 16925 1 149.00000 418.400000
12772 4490 14408 1 149.00000 418.400000
12772 4491 16540 1 149.00000 418.400000
12772 4492 13258 1 149.00000 418.400000
12772 4493 14895 1 149.00000 418.400000
12773 4494 15376 1 149.00000 418.400000
14899 4495 16348 1 149.00000 418.400000
12773 4496 14899 1 149.00000 418.400000
12773 4497 18971 1 149.00000 418.400000
12774 4498 13687 1 149.00000 418.400000
12774 4499 13352 1 149.00000 418.400000
12774 4500 15907 1 149.00000 418.400000
12775 4501 16106 1 149.00000 418.400000
12775 4502 16915 1 149.00000 418.400000
12775 4503 16854 1 149.00000 418.400000
12776 4504 16366 1 149.00000 418.400000
12776 4505 16518 1 149.00000 418.400000
12776 4506 15315 1 149.00000 418.400000
12777 4507 16589 1 149.00000 418.400000
12777 4508 16825 1 149.00000 418.400000
15020 4509 18446 1 149.00000 418.400000
15974 4510 18446 1 149.00000 418.400000
12778 4511 13437 1 149.00000 418.400000
12778 4512 14288 1 149.00000 418.400000
12778 4513 13422 1 149.00000 418.400000
13713 4514 13731 1 149.00000 418.400000
18449 4515 18785 1 149.00000 418.400000
14212 4516 18449 1 149.00000 418.400000
16611 4517 18449 1 149.00000 418.400000
12779 4518 16026 1 149.00000 418.400000
12779 4519 16680 1 149.00000 418.400000
12779 4520 16877 1 149.00000 418.400000
12779 4521 13016 1 149.00000 418.400000
12780 4522 15294 1 149.00000 418.400000
12780 4523 15564 1 149.00000 418.400000
12781 4524 15784 1 149.00000 418.400000
12781 4525 14511 1 149.00000 418.400000
12782 4526 13615 1 149.00000 418.400000
12782 4527 16108 1 149.00000 418.400000
11818 4528 12782 1 149.00000 418.400000
12782 4529 16231 1 149.00000 418.400000
12783 4530 16719 1 149.00000 418.400000
12784 4531 16771 1 149.00000 418.400000
12784 4532 16845 1 149.00000 418.400000
12149 4533 12784 1 149.00000 418.400000
12785 4534 15697 1 149.00000 418.400000
12785 4535 14613 1 149.00000 418.400000
12786 4536 15499 1 149.00000 418.400000
12786 4537 15373 1 149.00000 418.400000
12786 4538 16544 1 149.00000 418.400000
15167 4539 19105 1 149.00000 418.400000
12787 4540 14909 1 149.00000 418.400000
12787 4541 16230 1 149.00000 418.400000
12787 4542 15424 1 149.00000 418.400000
12788 4543 14239 1 149.00000 418.400000
12788 4544 14297 1 149.00000 418.400000
12788 4545 12958 1 149.00000 418.400000
12789 4546 14568 1 149.00000 418.400000
12789 4547 13497 1 149.00000 418.400000
12789 4548 14508 1 149.00000 418.400000
12789 4549 16786 1 149.00000 418.400000
12790 4550 16023 1 149.00000 418.400000
12790 4551 14748 1 149.00000 418.400000
12790 4552 15580 1 149.00000 418.400000
15003 4553 18716 1 149.00000 418.400000
12791 4554 18566 1 149.00000 418.400000
12791 4555 16802 1 149.00000 418.400000
12791 4556 15003 1 149.00000 418.400000
12792 4557 12848 1 149.00000 418.400000
12792 4558 16545 1 149.00000 418.400000
12792 4559 14155 1 149.00000 418.400000
12716 4560 16888 1 149.00000 418.400000
12793 4561 16905 1 149.00000 418.400000
12793 4562 15105 1 149.00000 418.400000
12794 4563 14458 1 149.00000 418.400000
12794 4564 13533 1 149.00000 418.400000
12795 4565 16009 1 149.00000 418.400000
12795 4566 15821 1 149.00000 418.400000
12796 4567 15886 1 149.00000 418.400000
12797 4568 14553 1 149.00000 418.400000
12797 4569 13572 1 149.00000 418.400000
12797 4570 16960 1 149.00000 418.400000
12797 4571 12950 1 149.00000 418.400000
12798 4572 15338 1 149.00000 418.400000
12798 4573 16093 1 149.00000 418.400000
12798 4574 15425 1 149.00000 418.400000
12799 4575 15559 1 149.00000 418.400000
12799 4576 13713 1 149.00000 418.400000
12799 4577 18749 1 149.00000 418.400000
12799 4578 13368 1 149.00000 418.400000
12800 4579 13823 1 149.00000 418.400000
12800 4580 15677 1 149.00000 418.400000
12800 4581 14967 1 149.00000 418.400000
12800 4582 15824 1 149.00000 418.400000
12801 4583 13541 1 149.00000 418.400000
13541 4584 15744 1 149.00000 418.400000
12802 4585 16462 1 149.00000 418.400000
12803 4586 15008 1 149.00000 418.400000
12803 4587 19055 1 149.00000 418.400000
12803 4588 14724 1 149.00000 418.400000
13092 4589 15716 1 149.00000 418.400000
13289 4590 15716 1 149.00000 418.400000
12804 4591 15716 1 149.00000 418.400000
13994 4592 15716 1 149.00000 418.400000
14992 4593 15460 1 149.00000 418.400000
12805 4594 15291 1 149.00000 418.400000
12805 4595 15460 1 149.00000 418.400000
12806 4596 13149 1 149.00000 418.400000
12806 4597 15948 1 149.00000 418.400000
12806 4598 15866 1 149.00000 418.400000
12807 4599 14149 1 149.00000 418.400000
12807 4600 12930 1 149.00000 418.400000
12807 4601 15559 1 149.00000 418.400000
12807 4602 15535 1 149.00000 418.400000
12808 4603 16623 1 149.00000 418.400000
12808 4604 19043 1 149.00000 418.400000
12809 4605 16355 1 149.00000 418.400000
12809 4606 12861 1 149.00000 418.400000
14119 4607 16676 1 149.00000 418.400000
14119 4608 15864 1 149.00000 418.400000
12810 4609 13631 1 149.00000 418.400000
12810 4610 15764 1 149.00000 418.400000
12810 4611 16065 1 149.00000 418.400000
12810 4612 16107 1 149.00000 418.400000
12811 4613 16350 1 149.00000 418.400000
12811 4614 14503 1 149.00000 418.400000
12811 4615 15240 1 149.00000 418.400000
12811 4616 15769 1 149.00000 418.400000
12812 4617 12911 1 149.00000 418.400000
12812 4618 15218 1 149.00000 418.400000
12812 4619 15824 1 149.00000 418.400000
12813 4620 16158 1 149.00000 418.400000
12813 4621 13726 1 149.00000 418.400000
12813 4622 14727 1 149.00000 418.400000
12814 4623 18875 1 149.00000 418.400000
11667 4624 12814 1 149.00000 418.400000
12679 4625 14674 1 149.00000 418.400000
12815 4626 15098 1 149.00000 418.400000
12815 4627 13304 1 149.00000 418.400000
12816 4628 15604 1 149.00000 418.400000
12816 4629 14066 1 149.00000 418.400000
12817 4630 13666 1 149.00000 418.400000
12817 4631 15585 1 149.00000 418.400000
12817 4632 13356 1 149.00000 418.400000
12817 4633 14906 1 149.00000 418.400000
12818 4634 14072 1 149.00000 418.400000
12818 4635 16174 1 149.00000 418.400000
12819 4636 16932 1 149.00000 418.400000
12819 4637 13744 1 149.00000 418.400000
12819 4638 13199 1 149.00000 418.400000
11673 4639 16764 1 149.00000 418.400000
11673 4640 14157 1 149.00000 418.400000
12821 4641 16523 1 149.00000 418.400000
12821 4642 15703 1 149.00000 418.400000
12821 4643 15294 1 149.00000 418.400000
12821 4644 13785 1 149.00000 418.400000
12822 4645 14478 1 149.00000 418.400000
12822 4646 16359 1 149.00000 418.400000
12822 4647 16985 1 149.00000 418.400000
12823 4648 12839 1 149.00000 418.400000
12823 4649 12836 1 149.00000 418.400000
12823 4650 13250 1 149.00000 418.400000
12824 4651 16547 1 149.00000 418.400000
12824 4652 16830 1 149.00000 418.400000
12824 4653 13280 1 149.00000 418.400000
12825 4654 13038 1 149.00000 418.400000
12825 4655 14316 1 149.00000 418.400000
12825 4656 13523 1 149.00000 418.400000
12825 4657 16122 1 149.00000 418.400000
12826 4658 13946 1 149.00000 418.400000
12826 4659 15486 1 149.00000 418.400000
12827 4660 16961 1 149.00000 418.400000
12827 4661 17005 1 149.00000 418.400000
12827 4662 16266 1 149.00000 418.400000
12827 4663 13290 1 149.00000 418.400000
12828 4664 14120 1 149.00000 418.400000
12828 4665 16007 1 149.00000 418.400000
12828 4666 15752 1 149.00000 418.400000
12829 4667 16919 1 149.00000 418.400000
12829 4668 16665 1 149.00000 418.400000
12829 4669 15786 1 149.00000 418.400000
12829 4670 13214 1 149.00000 418.400000
12830 4671 15178 1 149.00000 418.400000
12830 4672 14635 1 149.00000 418.400000
12830 4673 16084 1 149.00000 418.400000
12831 4674 14527 1 149.00000 418.400000
12831 4675 13849 1 149.00000 418.400000
14196 4676 15659 1 149.00000 418.400000
12831 4677 15659 1 149.00000 418.400000
12832 4678 13068 1 149.00000 418.400000
12832 4679 13833 1 149.00000 418.400000
12832 4680 16601 1 149.00000 418.400000
12832 4681 16593 1 149.00000 418.400000
12833 4682 16709 1 149.00000 418.400000
12833 4683 16787 1 149.00000 418.400000
12834 4684 14492 1 149.00000 418.400000
12834 4685 13344 1 149.00000 418.400000
12834 4686 14663 1 149.00000 418.400000
12834 4687 13296 1 149.00000 418.400000
12835 4688 15229 1 149.00000 418.400000
12835 4689 15067 1 149.00000 418.400000
12835 4690 12954 1 149.00000 418.400000
18452 4691 18782 1 149.00000 418.400000
13859 4692 18452 1 149.00000 418.400000
15313 4693 18452 1 149.00000 418.400000
12836 4694 16186 1 149.00000 418.400000
12836 4695 16521 1 149.00000 418.400000
12837 4696 13508 1 149.00000 418.400000
12837 4697 16218 1 149.00000 418.400000
12838 4698 15518 1 149.00000 418.400000
12838 4699 15829 1 149.00000 418.400000
12839 4700 14240 1 149.00000 418.400000
12839 4701 14512 1 149.00000 418.400000
12840 4702 15905 1 149.00000 418.400000
12840 4703 13528 1 149.00000 418.400000
12840 4704 14453 1 149.00000 418.400000
12841 4705 14065 1 149.00000 418.400000
12841 4706 15519 1 149.00000 418.400000
12841 4707 14221 1 149.00000 418.400000
12842 4708 14074 1 149.00000 418.400000
12842 4709 18500 1 149.00000 418.400000
12842 4710 15389 1 149.00000 418.400000
12843 4711 14925 1 149.00000 418.400000
12843 4712 14355 1 149.00000 418.400000
12843 4713 12859 1 149.00000 418.400000
12843 4714 15362 1 149.00000 418.400000
12844 4715 13296 1 149.00000 418.400000
12844 4716 14739 1 149.00000 418.400000
12845 4717 13411 1 149.00000 418.400000
12845 4718 16710 1 149.00000 418.400000
12845 4719 15965 1 149.00000 418.400000
12845 4720 14102 1 149.00000 418.400000
12846 4721 13730 1 149.00000 418.400000
12846 4722 12898 1 149.00000 418.400000
12846 4723 12856 1 149.00000 418.400000
12846 4724 13889 1 149.00000 418.400000
12847 4725 16529 1 149.00000 418.400000
12847 4726 16878 1 149.00000 418.400000
12847 4727 16309 1 149.00000 418.400000
12847 4728 15152 1 149.00000 418.400000
12848 4729 13514 1 149.00000 418.400000
12848 4730 13435 1 149.00000 418.400000
12848 4731 14454 1 149.00000 418.400000
12849 4732 14579 1 149.00000 418.400000
12849 4733 16992 1 149.00000 418.400000
12849 4734 12971 1 149.00000 418.400000
12849 4735 16510 1 149.00000 418.400000
12850 4736 14371 1 149.00000 418.400000
12850 4737 18689 1 149.00000 418.400000
12851 4738 15069 1 149.00000 418.400000
12851 4739 16028 1 149.00000 418.400000
12851 4740 16550 1 149.00000 418.400000
12851 4741 13471 1 149.00000 418.400000
12852 4742 14433 1 149.00000 418.400000
12852 4743 14183 1 149.00000 418.400000
12852 4744 12918 1 149.00000 418.400000
12853 4745 16565 1 149.00000 418.400000
12853 4746 13339 1 149.00000 418.400000
12854 4747 14759 1 149.00000 418.400000
12854 4748 16596 1 149.00000 418.400000
12854 4749 15828 1 149.00000 418.400000
12855 4750 13102 1 149.00000 418.400000
12855 4751 13924 1 149.00000 418.400000
12856 4752 13918 1 149.00000 418.400000
12856 4753 15474 1 149.00000 418.400000
12856 4754 16477 1 149.00000 418.400000
14223 4755 16477 1 149.00000 418.400000
12857 4756 13091 1 149.00000 418.400000
12857 4757 16419 1 149.00000 418.400000
12857 4758 14928 1 149.00000 418.400000
12858 4759 16384 1 149.00000 418.400000
14152 4760 14634 1 149.00000 418.400000
12858 4761 14634 1 149.00000 418.400000
12859 4762 13942 1 149.00000 418.400000
12859 4763 16522 1 149.00000 418.400000
12859 4764 13153 1 149.00000 418.400000
12860 4765 15372 1 149.00000 418.400000
12861 4766 15480 1 149.00000 418.400000
12861 4767 15720 1 149.00000 418.400000
12861 4768 15750 1 149.00000 418.400000
12862 4769 14387 1 149.00000 418.400000
12862 4770 14615 1 149.00000 418.400000
14030 4771 18455 1 149.00000 418.400000
14266 4772 18455 1 149.00000 418.400000
12863 4773 18818 1 149.00000 418.400000
12863 4774 13114 1 149.00000 418.400000
12863 4775 13372 1 149.00000 418.400000
12863 4776 18143 1 149.00000 418.400000
12864 4777 18578 1 149.00000 418.400000
12864 4778 13561 1 149.00000 418.400000
12864 4779 17603 1 149.00000 418.400000
12864 4780 12923 1 149.00000 418.400000
12865 4781 16081 1 149.00000 418.400000
12865 4782 15589 1 149.00000 418.400000
14021 4783 16081 1 149.00000 418.400000
12866 4784 16525 1 149.00000 418.400000
12866 4785 18641 1 149.00000 418.400000
12867 4786 16769 1 149.00000 418.400000
12867 4787 13159 1 149.00000 418.400000
12867 4788 14717 1 149.00000 418.400000
12571 4789 12868 1 149.00000 418.400000
16453 4790 18458 1 149.00000 418.400000
13870 4791 18458 1 149.00000 418.400000
18458 4792 18470 1 149.00000 418.400000
12869 4793 14129 1 149.00000 418.400000
12869 4794 13465 1 149.00000 418.400000
12870 4795 13324 1 149.00000 418.400000
12871 4796 15360 1 149.00000 418.400000
12871 4797 14003 1 149.00000 418.400000
12871 4798 15706 1 149.00000 418.400000
12871 4799 15208 1 149.00000 418.400000
12872 4800 16496 1 149.00000 418.400000
12873 4801 13339 1 149.00000 418.400000
13339 4802 16651 1 149.00000 418.400000
12873 4803 15360 1 149.00000 418.400000
12874 4804 16286 1 149.00000 418.400000
12874 4805 15134 1 149.00000 418.400000
12270 4806 13240 1 149.00000 418.400000
13848 4807 18461 1 149.00000 418.400000
15000 4808 18461 1 149.00000 418.400000
18461 4809 18878 1 149.00000 418.400000
12875 4810 14198 1 149.00000 418.400000
14198 4811 18794 1 149.00000 418.400000
12875 4812 15763 1 149.00000 418.400000
15063 4813 18464 1 149.00000 418.400000
18464 4814 18611 1 149.00000 418.400000
12876 4815 15610 1 149.00000 418.400000
12876 4816 15093 1 149.00000 418.400000
12877 4817 18059 1 149.00000 418.400000
12878 4818 16329 1 149.00000 418.400000
12878 4819 13748 1 149.00000 418.400000
12878 4820 15735 1 149.00000 418.400000
12879 4821 12999 1 149.00000 418.400000
12879 4822 14228 1 149.00000 418.400000
12879 4823 14324 1 149.00000 418.400000
12879 4824 15339 1 149.00000 418.400000
16236 4825 18467 1 149.00000 418.400000
16197 4826 18467 1 149.00000 418.400000
14702 4827 18467 1 149.00000 418.400000
12880 4828 14298 1 149.00000 418.400000
12880 4829 13204 1 149.00000 418.400000
12880 4830 15887 1 149.00000 418.400000
12881 4831 16731 1 149.00000 418.400000
12881 4832 15151 1 149.00000 418.400000
12881 4833 16103 1 149.00000 418.400000
12881 4834 13231 1 149.00000 418.400000
12882 4835 15286 1 149.00000 418.400000
12882 4836 16975 1 149.00000 418.400000
12882 4837 13540 1 149.00000 418.400000
12883 4838 14193 1 149.00000 418.400000
12883 4839 13534 1 149.00000 418.400000
12883 4840 15210 1 149.00000 418.400000
12884 4841 14149 1 149.00000 418.400000
12884 4842 15204 1 149.00000 418.400000
12884 4843 14832 1 149.00000 418.400000
12884 4844 13431 1 149.00000 418.400000
12885 4845 13319 1 149.00000 418.400000
12885 4846 13990 1 149.00000 418.400000
12885 4847 15114 1 149.00000 418.400000
16129 4848 16303 1 149.00000 418.400000
12886 4849 16303 1 149.00000 418.400000
12887 4850 14907 1 149.00000 418.400000
12887 4851 14278 1 149.00000 418.400000
12887 4852 16427 1 149.00000 418.400000
12888 4853 19001 1 149.00000 418.400000
12888 4854 14753 1 149.00000 418.400000
12888 4855 15263 1 149.00000 418.400000
12889 4856 16353 1 149.00000 418.400000
12889 4857 16256 1 149.00000 418.400000
12890 4858 16580 1 149.00000 418.400000
12890 4859 13607 1 149.00000 418.400000
12292 4860 15134 1 149.00000 418.400000
13525 4861 18473 1 149.00000 418.400000
13433 4862 18473 1 149.00000 418.400000
12891 4863 16375 1 149.00000 418.400000
12891 4864 16671 1 149.00000 418.400000
12891 4865 14942 1 149.00000 418.400000
12891 4866 17014 1 149.00000 418.400000
12892 4867 15266 1 149.00000 418.400000
12892 4868 15565 1 149.00000 418.400000
12892 4869 15549 1 149.00000 418.400000
12893 4870 13721 1 149.00000 418.400000
12893 4871 15221 1 149.00000 418.400000
12894 4872 15371 1 149.00000 418.400000
12895 4873 14016 1 149.00000 418.400000
12895 4874 15375 1 149.00000 418.400000
12895 4875 14612 1 149.00000 418.400000
12896 4876 12952 1 149.00000 418.400000
12896 4877 15957 1 149.00000 418.400000
12896 4878 13702 1 149.00000 418.400000
16159 4879 18476 1 149.00000 418.400000
12897 4880 13844 1 149.00000 418.400000
12897 4881 16698 1 149.00000 418.400000
12897 4882 13810 1 149.00000 418.400000
12898 4883 14010 1 149.00000 418.400000
12898 4884 14107 1 149.00000 418.400000
12898 4885 14958 1 149.00000 418.400000
12899 4886 15304 1 149.00000 418.400000
12900 4887 16980 1 149.00000 418.400000
12900 4888 13265 1 149.00000 418.400000
12900 4889 16353 1 149.00000 418.400000
12900 4890 15222 1 149.00000 418.400000
12901 4891 13089 1 149.00000 418.400000
12901 4892 14739 1 149.00000 418.400000
12901 4893 14663 1 149.00000 418.400000
14518 4894 18479 1 149.00000 418.400000
13625 4895 18482 1 149.00000 418.400000
18482 4896 18713 1 149.00000 418.400000
12902 4897 15839 1 149.00000 418.400000
12902 4898 14134 1 149.00000 418.400000
14489 4899 16437 1 149.00000 418.400000
12903 4900 14489 1 149.00000 418.400000
12903 4901 13050 1 149.00000 418.400000
12904 4902 13439 1 149.00000 418.400000
12904 4903 15345 1 149.00000 418.400000
12904 4904 14637 1 149.00000 418.400000
12904 4905 13515 1 149.00000 418.400000
12905 4906 14364 1 149.00000 418.400000
12905 4907 14055 1 149.00000 418.400000
12905 4908 13430 1 149.00000 418.400000
12905 4909 15756 1 149.00000 418.400000
12906 4910 16764 1 149.00000 418.400000
12906 4911 16723 1 149.00000 418.400000
12906 4912 13647 1 149.00000 418.400000
12906 4913 15151 1 149.00000 418.400000
12907 4914 15425 1 149.00000 418.400000
12907 4915 13904 1 149.00000 418.400000
12907 4916 16761 1 149.00000 418.400000
12907 4917 15835 1 149.00000 418.400000
12908 4918 14533 1 149.00000 418.400000
12908 4919 15661 1 149.00000 418.400000
12908 4920 13797 1 149.00000 418.400000
12908 4921 15907 1 149.00000 418.400000
13648 4922 17175 1 149.00000 418.400000
12909 4923 15487 1 149.00000 418.400000
12909 4924 13058 1 149.00000 418.400000
12909 4925 14831 1 149.00000 418.400000
12910 4926 14005 1 149.00000 418.400000
12910 4927 13133 1 149.00000 418.400000
12910 4928 13175 1 149.00000 418.400000
12911 4929 16121 1 149.00000 418.400000
12911 4930 17519 1 149.00000 418.400000
12912 4931 16872 1 149.00000 418.400000
12913 4932 14481 1 149.00000 418.400000
12914 4933 13991 1 149.00000 418.400000
12914 4934 15131 1 149.00000 418.400000
12914 4935 14822 1 149.00000 418.400000
12914 4936 16343 1 149.00000 418.400000
13476 4937 15321 1 149.00000 418.400000
12915 4938 18614 1 149.00000 418.400000
12915 4939 15321 1 149.00000 418.400000
16318 4940 16626 1 149.00000 418.400000
12916 4941 13316 1 149.00000 418.400000
12916 4942 16626 1 149.00000 418.400000
12916 4943 15052 1 149.00000 418.400000
12917 4944 16047 1 149.00000 418.400000
12917 4945 14409 1 149.00000 418.400000
12917 4946 15267 1 149.00000 418.400000
12918 4947 13275 1 149.00000 418.400000
12918 4948 16723 1 149.00000 418.400000
12918 4949 13590 1 149.00000 418.400000
12919 4950 15939 1 149.00000 418.400000
12919 4951 15897 1 149.00000 418.400000
12919 4952 18848 1 149.00000 418.400000
12919 4953 15695 1 149.00000 418.400000
12920 4954 15495 1 149.00000 418.400000
12920 4955 16313 1 149.00000 418.400000
12920 4956 13049 1 149.00000 418.400000
12921 4957 15930 1 149.00000 418.400000
12921 4958 15452 1 149.00000 418.400000
12921 4959 13865 1 149.00000 418.400000
12921 4960 14540 1 149.00000 418.400000
16549 4961 17385 1 149.00000 418.400000
12922 4962 14790 1 149.00000 418.400000
12922 4963 14968 1 149.00000 418.400000
12923 4964 14488 1 149.00000 418.400000
12923 4965 16339 1 149.00000 418.400000
12923 4966 15357 1 149.00000 418.400000
12924 4967 16345 1 149.00000 418.400000
12924 4968 16127 1 149.00000 418.400000
12925 4969 16639 1 149.00000 418.400000
12925 4970 16500 1 149.00000 418.400000
12925 4971 19110 1 149.00000 418.400000
12926 4972 15656 1 149.00000 418.400000
12926 4973 13392 1 149.00000 418.400000
12926 4974 14557 1 149.00000 418.400000
12926 4975 15521 1 149.00000 418.400000
12927 4976 16782 1 149.00000 418.400000
12927 4977 16901 1 149.00000 418.400000
12927 4978 16749 1 149.00000 418.400000
12928 4979 16142 1 149.00000 418.400000
12928 4980 14504 1 149.00000 418.400000
12929 4981 13677 1 149.00000 418.400000
12929 4982 13739 1 149.00000 418.400000
12930 4983 15193 1 149.00000 418.400000
12930 4984 14399 1 149.00000 418.400000
12930 4985 13818 1 149.00000 418.400000
12931 4986 13747 1 149.00000 418.400000
12931 4987 13794 1 149.00000 418.400000
12931 4988 16580 1 149.00000 418.400000
12932 4989 14633 1 149.00000 418.400000
12933 4990 16423 1 149.00000 418.400000
12933 4991 17699 1 149.00000 418.400000
12934 4992 16722 1 149.00000 418.400000
12934 4993 14302 1 149.00000 418.400000
18485 4994 18851 1 149.00000 418.400000
13601 4995 18485 1 149.00000 418.400000
14875 4996 18488 1 149.00000 418.400000
12968 4997 18488 1 149.00000 418.400000
12935 4998 14238 1 149.00000 418.400000
12935 4999 14695 1 149.00000 418.400000
12935 5000 13379 1 149.00000 418.400000
12935 5001 15906 1 149.00000 418.400000
12936 5002 14019 1 149.00000 418.400000
12936 5003 15615 1 149.00000 418.400000
12936 5004 13747 1 149.00000 418.400000
12937 5005 14475 1 149.00000 418.400000
12937 5006 14192 1 149.00000 418.400000
12937 5007 13441 1 149.00000 418.400000
12938 5008 12996 1 149.00000 418.400000
12938 5009 14885 1 149.00000 418.400000
12939 5010 13989 1 149.00000 418.400000
13989 5011 15619 1 149.00000 418.400000
16715 5012 16815 1 149.00000 418.400000
12939 5013 16715 1 149.00000 418.400000
12940 5014 14545 1 149.00000 418.400000
12940 5015 16828 1 149.00000 418.400000
12940 5016 15593 1 149.00000 418.400000
12940 5017 15305 1 149.00000 418.400000
12941 5018 13269 1 149.00000 418.400000
12941 5019 13044 1 149.00000 418.400000
12941 5020 15336 1 149.00000 418.400000
12942 5021 15364 1 149.00000 418.400000
12943 5022 15717 1 149.00000 418.400000
12943 5023 14089 1 149.00000 418.400000
12943 5024 16927 1 149.00000 418.400000
12943 5025 13443 1 149.00000 418.400000
12944 5026 14812 1 149.00000 418.400000
12944 5027 13434 1 149.00000 418.400000
13954 5028 14417 1 149.00000 418.400000
12945 5029 13954 1 149.00000 418.400000
13301 5030 18491 1 149.00000 418.400000
13894 5031 18491 1 149.00000 418.400000
12946 5032 15227 1 149.00000 418.400000
12946 5033 13874 1 149.00000 418.400000
12946 5034 14211 1 149.00000 418.400000
12946 5035 14710 1 149.00000 418.400000
12947 5036 16013 1 149.00000 418.400000
12947 5037 14623 1 149.00000 418.400000
12948 5038 15461 1 149.00000 418.400000
12949 5039 18617 1 149.00000 418.400000
12949 5040 14323 1 149.00000 418.400000
12949 5041 18665 1 149.00000 418.400000
12949 5042 14657 1 149.00000 418.400000
16621 5043 18494 1 149.00000 418.400000
15302 5044 18494 1 149.00000 418.400000
12950 5045 16688 1 149.00000 418.400000
12950 5046 14257 1 149.00000 418.400000
12950 5047 13948 1 149.00000 418.400000
12951 5048 15891 1 149.00000 418.400000
16233 5049 16963 1 149.00000 418.400000
12951 5050 16963 1 149.00000 418.400000
12951 5051 13576 1 149.00000 418.400000
12952 5052 14042 1 149.00000 418.400000
12952 5053 14531 1 149.00000 418.400000
18497 5054 18755 1 149.00000 418.400000
13853 5055 18497 1 149.00000 418.400000
12953 5056 13782 1 149.00000 418.400000
12953 5057 16737 1 149.00000 418.400000
12953 5058 16431 1 149.00000 418.400000
15687 5059 16738 1 149.00000 418.400000
12954 5060 15855 1 149.00000 418.400000
12954 5061 15687 1 149.00000 418.400000
12955 5062 13230 1 149.00000 418.400000
12955 5063 13143 1 149.00000 418.400000
12955 5064 16631 1 149.00000 418.400000
12956 5065 14951 1 149.00000 418.400000
12956 5066 14310 1 149.00000 418.400000
12956 5067 13440 1 149.00000 418.400000
12957 5068 14327 1 149.00000 418.400000
12957 5069 14743 1 149.00000 418.400000
12957 5070 14502 1 149.00000 418.400000
12958 5071 17017 1 149.00000 418.400000
12958 5072 16267 1 149.00000 418.400000
12958 5073 13710 1 149.00000 418.400000
12959 5074 14224 1 149.00000 418.400000
12959 5075 15885 1 149.00000 418.400000
12959 5076 14710 1 149.00000 418.400000
12959 5077 15878 1 149.00000 418.400000
12960 5078 14617 1 149.00000 418.400000
12960 5079 14877 1 149.00000 418.400000
12960 5080 16436 1 149.00000 418.400000
12961 5081 17001 1 149.00000 418.400000
12961 5082 16110 1 149.00000 418.400000
12962 5083 14523 1 149.00000 418.400000
12962 5084 14511 1 149.00000 418.400000
12963 5085 15856 1 149.00000 418.400000
12963 5086 13915 1 149.00000 418.400000
12963 5087 15314 1 149.00000 418.400000
12964 5088 13663 1 149.00000 418.400000
12964 5089 16328 1 149.00000 418.400000
12964 5090 15911 1 149.00000 418.400000
12964 5091 16740 1 149.00000 418.400000
12965 5092 18977 1 149.00000 418.400000
12965 5093 13683 1 149.00000 418.400000
12965 5094 14071 1 149.00000 418.400000
12965 5095 13875 1 149.00000 418.400000
12966 5096 16441 1 149.00000 418.400000
12966 5097 14666 1 149.00000 418.400000
12966 5098 14729 1 149.00000 418.400000
12966 5099 15028 1 149.00000 418.400000
12967 5100 16440 1 149.00000 418.400000
12967 5101 14361 1 149.00000 418.400000
12967 5102 15017 1 149.00000 418.400000
12967 5103 16795 1 149.00000 418.400000
13444 5104 18500 1 149.00000 418.400000
13191 5105 18500 1 149.00000 418.400000
12968 5106 17005 1 149.00000 418.400000
12035 5107 12968 1 149.00000 418.400000
12969 5108 15775 1 149.00000 418.400000
12969 5109 15361 1 149.00000 418.400000
12969 5110 14447 1 149.00000 418.400000
12969 5111 15893 1 149.00000 418.400000
12970 5112 13287 1 149.00000 418.400000
12970 5113 13410 1 149.00000 418.400000
12970 5114 13892 1 149.00000 418.400000
13410 5115 13948 1 149.00000 418.400000
12971 5116 16625 1 149.00000 418.400000
12971 5117 16994 1 149.00000 418.400000
12972 5118 15579 1 149.00000 418.400000
12972 5119 15481 1 149.00000 418.400000
12972 5120 14086 1 149.00000 418.400000
12972 5121 14013 1 149.00000 418.400000
12973 5122 14856 1 149.00000 418.400000
12973 5123 12974 1 149.00000 418.400000
12973 5124 13070 1 149.00000 418.400000
12974 5125 14723 1 149.00000 418.400000
12974 5126 16704 1 149.00000 418.400000
12975 5127 14837 1 149.00000 418.400000
12975 5128 15841 1 149.00000 418.400000
12975 5129 16424 1 149.00000 418.400000
14991 5130 18503 1 149.00000 418.400000
14293 5131 18503 1 149.00000 418.400000
13519 5132 18503 1 149.00000 418.400000
12976 5133 18764 1 149.00000 418.400000
12976 5134 18515 1 149.00000 418.400000
12977 5135 14973 1 149.00000 418.400000
12977 5136 13701 1 149.00000 418.400000
12978 5137 15526 1 149.00000 418.400000
12102 5138 12978 1 149.00000 418.400000
12978 5139 15919 1 149.00000 418.400000
12978 5140 14081 1 149.00000 418.400000
17999 5141 18506 1 149.00000 418.400000
16932 5142 18506 1 149.00000 418.400000
15628 5143 18506 1 149.00000 418.400000
12979 5144 14025 1 149.00000 418.400000
12979 5145 16017 1 149.00000 418.400000
12979 5146 18626 1 149.00000 418.400000
12979 5147 15362 1 149.00000 418.400000
12980 5148 15566 1 149.00000 418.400000
12980 5149 14135 1 149.00000 418.400000
12980 5150 14572 1 149.00000 418.400000
12981 5151 14198 1 149.00000 418.400000
12981 5152 15005 1 149.00000 418.400000
12981 5153 16087 1 149.00000 418.400000
12982 5154 14535 1 149.00000 418.400000
12982 5155 13050 1 149.00000 418.400000
12982 5156 13109 1 149.00000 418.400000
11559 5157 12983 1 149.00000 418.400000
12983 5158 13038 1 149.00000 418.400000
12983 5159 13352 1 149.00000 418.400000
12983 5160 14520 1 149.00000 418.400000
11838 5161 16819 1 149.00000 418.400000
12984 5162 16819 1 149.00000 418.400000
13648 5163 18509 1 149.00000 418.400000
15297 5164 18509 1 149.00000 418.400000
12986 5165 15915 1 149.00000 418.400000
12986 5166 13398 1 149.00000 418.400000
12987 5167 16682 1 149.00000 418.400000
12987 5168 16898 1 149.00000 418.400000
12988 5169 14871 1 149.00000 418.400000
12988 5170 16049 1 149.00000 418.400000
12989 5171 18107 1 149.00000 418.400000
12990 5172 13112 1 149.00000 418.400000
18512 5173 18812 1 149.00000 418.400000
15749 5174 18512 1 149.00000 418.400000
12991 5175 13737 1 149.00000 418.400000
12991 5176 16068 1 149.00000 418.400000
12991 5177 16334 1 149.00000 418.400000
11797 5178 12991 1 149.00000 418.400000
12992 5179 15284 1 149.00000 418.400000
12992 5180 15602 1 149.00000 418.400000
12992 5181 13061 1 149.00000 418.400000
12993 5182 14493 1 149.00000 418.400000
12993 5183 18701 1 149.00000 418.400000
12993 5184 15621 1 149.00000 418.400000
12994 5185 15842 1 149.00000 418.400000
12994 5186 16633 1 149.00000 418.400000
12994 5187 13797 1 149.00000 418.400000
12995 5188 16619 1 149.00000 418.400000
12995 5189 15598 1 149.00000 418.400000
12996 5190 16181 1 149.00000 418.400000
12997 5191 14226 1 149.00000 418.400000
12997 5192 14368 1 149.00000 418.400000
12997 5193 13996 1 149.00000 418.400000
12998 5194 15197 1 149.00000 418.400000
12998 5195 16577 1 149.00000 418.400000
12998 5196 14210 1 149.00000 418.400000
11880 5197 12999 1 149.00000 418.400000
12999 5198 16823 1 149.00000 418.400000
12999 5199 13965 1 149.00000 418.400000
13000 5200 16969 1 149.00000 418.400000
13000 5201 13639 1 149.00000 418.400000
13000 5202 13607 1 149.00000 418.400000
13001 5203 14419 1 149.00000 418.400000
11895 5204 13001 1 149.00000 418.400000
13001 5205 13168 1 149.00000 418.400000
13002 5206 14487 1 149.00000 418.400000
13759 5207 14487 1 149.00000 418.400000
13002 5208 14509 1 149.00000 418.400000
13002 5209 16118 1 149.00000 418.400000
13003 5210 14047 1 149.00000 418.400000
13003 5211 15082 1 149.00000 418.400000
13003 5212 14476 1 149.00000 418.400000
13003 5213 16638 1 149.00000 418.400000
13004 5214 13173 1 149.00000 418.400000
13004 5215 16843 1 149.00000 418.400000
13004 5216 14671 1 149.00000 418.400000
13005 5217 13239 1 149.00000 418.400000
13005 5218 13394 1 149.00000 418.400000
13005 5219 13429 1 149.00000 418.400000
13005 5220 16342 1 149.00000 418.400000
16209 5221 18515 1 149.00000 418.400000
13006 5222 16757 1 149.00000 418.400000
14290 5223 15159 1 149.00000 418.400000
13007 5224 14290 1 149.00000 418.400000
13007 5225 16570 1 149.00000 418.400000
13007 5226 16555 1 149.00000 418.400000
13008 5227 16561 1 149.00000 418.400000
13008 5228 15256 1 149.00000 418.400000
13008 5229 13589 1 149.00000 418.400000
13008 5230 18824 1 149.00000 418.400000
15811 5231 15914 1 149.00000 418.400000
13009 5232 13575 1 149.00000 418.400000
13009 5233 15811 1 149.00000 418.400000
13010 5234 18095 1 149.00000 418.400000
13010 5235 14855 1 149.00000 418.400000
13011 5236 13908 1 149.00000 418.400000
13011 5237 16246 1 149.00000 418.400000
13012 5238 16386 1 149.00000 418.400000
15079 5239 16386 1 149.00000 418.400000
13012 5240 15261 1 149.00000 418.400000
13012 5241 14821 1 149.00000 418.400000
13013 5242 13943 1 149.00000 418.400000
13013 5243 15334 1 149.00000 418.400000
13013 5244 16414 1 149.00000 418.400000
13013 5245 13544 1 149.00000 418.400000
13014 5246 13739 1 149.00000 418.400000
13014 5247 13950 1 149.00000 418.400000
13014 5248 13792 1 149.00000 418.400000
14389 5249 18518 1 149.00000 418.400000
14318 5250 18518 1 149.00000 418.400000
18518 5251 18578 1 149.00000 418.400000
16085 5252 16238 1 149.00000 418.400000
13015 5253 16238 1 149.00000 418.400000
13015 5254 15501 1 149.00000 418.400000
13015 5255 16283 1 149.00000 418.400000
14548 5256 17687 1 149.00000 418.400000
14867 5257 17687 1 149.00000 418.400000
13016 5258 14341 1 149.00000 418.400000
13016 5259 15458 1 149.00000 418.400000
13017 5260 16310 1 149.00000 418.400000
13017 5261 18659 1 149.00000 418.400000
13018 5262 16888 1 149.00000 418.400000
13018 5263 16412 1 149.00000 418.400000
13018 5264 15665 1 149.00000 418.400000
13019 5265 14783 1 149.00000 418.400000
13019 5266 16888 1 149.00000 418.400000
13020 5267 14131 1 149.00000 418.400000
13020 5268 13301 1 149.00000 418.400000
13020 5269 16707 1 149.00000 418.400000
13020 5270 16365 1 149.00000 418.400000
13021 5271 14705 1 149.00000 418.400000
13021 5272 15591 1 149.00000 418.400000
13021 5273 13815 1 149.00000 418.400000
13022 5274 15311 1 149.00000 418.400000
13022 5275 14492 1 149.00000 418.400000
13022 5276 13067 1 149.00000 418.400000
13023 5277 13857 1 149.00000 418.400000
13023 5278 16669 1 149.00000 418.400000
13023 5279 15935 1 149.00000 418.400000
13023 5280 14954 1 149.00000 418.400000
13024 5281 14438 1 149.00000 418.400000
13024 5282 16630 1 149.00000 418.400000
13024 5283 13233 1 149.00000 418.400000
13024 5284 14467 1 149.00000 418.400000
13025 5285 16979 1 149.00000 418.400000
13025 5286 15973 1 149.00000 418.400000
18107 5287 18878 1 149.00000 418.400000
13866 5288 18107 1 149.00000 418.400000
13026 5289 16410 1 149.00000 418.400000
13026 5290 13510 1 149.00000 418.400000
13026 5291 13922 1 149.00000 418.400000
13027 5292 14177 1 149.00000 418.400000
13027 5293 13386 1 149.00000 418.400000
13027 5294 15307 1 149.00000 418.400000
13028 5295 14927 1 149.00000 418.400000
13028 5296 13841 1 149.00000 418.400000
13028 5297 18875 1 149.00000 418.400000
13718 5298 17357 1 149.00000 418.400000
17357 5299 18704 1 149.00000 418.400000
11620 5300 13029 1 149.00000 418.400000
13029 5301 15667 1 149.00000 418.400000
13029 5302 15192 1 149.00000 418.400000
13030 5303 13959 1 149.00000 418.400000
13030 5304 14424 1 149.00000 418.400000
13031 5305 14474 1 149.00000 418.400000
13031 5306 15689 1 149.00000 418.400000
13031 5307 14526 1 149.00000 418.400000
13032 5308 13042 1 149.00000 418.400000
13032 5309 14298 1 149.00000 418.400000
13032 5310 14277 1 149.00000 418.400000
13032 5311 14079 1 149.00000 418.400000
13033 5312 13467 1 149.00000 418.400000
13034 5313 14112 1 149.00000 418.400000
13034 5314 14401 1 149.00000 418.400000
13034 5315 14495 1 149.00000 418.400000
13034 5316 16516 1 149.00000 418.400000
13035 5317 13172 1 149.00000 418.400000
13035 5318 13083 1 149.00000 418.400000
13035 5319 13542 1 149.00000 418.400000
13035 5320 16098 1 149.00000 418.400000
13036 5321 15130 1 149.00000 418.400000
13036 5322 13683 1 149.00000 418.400000
13036 5323 14502 1 149.00000 418.400000
16775 5324 18521 1 149.00000 418.400000
15125 5325 18521 1 149.00000 418.400000
13037 5326 14571 1 149.00000 418.400000
13037 5327 15614 1 149.00000 418.400000
13037 5328 13982 1 149.00000 418.400000
13038 5329 14639 1 149.00000 418.400000
13039 5330 14147 1 149.00000 418.400000
13039 5331 14902 1 149.00000 418.400000
13039 5332 16780 1 149.00000 418.400000
13040 5333 19170 1 149.00000 418.400000
13040 5334 15531 1 149.00000 418.400000
14050 5335 15871 1 149.00000 418.400000
13041 5336 14305 1 149.00000 418.400000
14305 5337 15871 1 149.00000 418.400000
14490 5338 15871 1 149.00000 418.400000
13042 5339 16485 1 149.00000 418.400000
13042 5340 13417 1 149.00000 418.400000
13042 5341 15886 1 149.00000 418.400000
13043 5342 16020 1 149.00000 418.400000
13043 5343 16044 1 149.00000 418.400000
13044 5344 14608 1 149.00000 418.400000
13045 5345 13835 1 149.00000 418.400000
13045 5346 13228 1 149.00000 418.400000
13045 5347 15266 1 149.00000 418.400000
13046 5348 14817 1 149.00000 418.400000
13046 5349 16204 1 149.00000 418.400000
13046 5350 13913 1 149.00000 418.400000
13047 5351 13580 1 149.00000 418.400000
13048 5352 18695 1 149.00000 418.400000
13049 5353 16336 1 149.00000 418.400000
13050 5354 15628 1 149.00000 418.400000
13050 5355 13744 1 149.00000 418.400000
18524 5356 18992 1 149.00000 418.400000
13051 5357 13104 1 149.00000 418.400000
13051 5358 16918 1 149.00000 418.400000
12024 5359 13051 1 149.00000 418.400000
13051 5360 14105 1 149.00000 418.400000
13052 5361 18572 1 149.00000 418.400000
13052 5362 16398 1 149.00000 418.400000
13052 5363 14571 1 149.00000 418.400000
13053 5364 15714 1 149.00000 418.400000
13053 5365 16088 1 149.00000 418.400000
13054 5366 16445 1 149.00000 418.400000
13054 5367 13926 1 149.00000 418.400000
13054 5368 16092 1 149.00000 418.400000
13055 5369 14085 1 149.00000 418.400000
13055 5370 13073 1 149.00000 418.400000
13055 5371 15920 1 149.00000 418.400000
13056 5372 14988 1 149.00000 418.400000
16320 5373 18527 1 149.00000 418.400000
14221 5374 18527 1 149.00000 418.400000
13717 5375 14703 1 149.00000 418.400000
13717 5376 16630 1 149.00000 418.400000
13057 5377 15920 1 149.00000 418.400000
13057 5378 15595 1 149.00000 418.400000
13058 5379 16057 1 149.00000 418.400000
12344 5380 13058 1 149.00000 418.400000
13059 5381 16265 1 149.00000 418.400000
13060 5382 14571 1 149.00000 418.400000
13060 5383 14028 1 149.00000 418.400000
13060 5384 13189 1 149.00000 418.400000
13061 5385 16349 1 149.00000 418.400000
13061 5386 13666 1 149.00000 418.400000
13061 5387 14053 1 149.00000 418.400000
13062 5388 14267 1 149.00000 418.400000
13062 5389 13788 1 149.00000 418.400000
13062 5390 13560 1 149.00000 418.400000
13063 5391 15646 1 149.00000 418.400000
13063 5392 15465 1 149.00000 418.400000
12498 5393 13064 1 149.00000 418.400000
13064 5394 16347 1 149.00000 418.400000
13065 5395 13256 1 149.00000 418.400000
13065 5396 13169 1 149.00000 418.400000
13065 5397 13529 1 149.00000 418.400000
13065 5398 14898 1 149.00000 418.400000
13066 5399 16884 1 149.00000 418.400000
13066 5400 16806 1 149.00000 418.400000
13066 5401 13513 1 149.00000 418.400000
13066 5402 14121 1 149.00000 418.400000
13067 5403 13858 1 149.00000 418.400000
13067 5404 13089 1 149.00000 418.400000
13067 5405 15517 1 149.00000 418.400000
13068 5406 14201 1 149.00000 418.400000
13068 5407 13597 1 149.00000 418.400000
13068 5408 13608 1 149.00000 418.400000
13069 5409 16163 1 149.00000 418.400000
12146 5410 13069 1 149.00000 418.400000
13070 5411 16186 1 149.00000 418.400000
13070 5412 15556 1 149.00000 418.400000
13071 5413 16540 1 149.00000 418.400000
13071 5414 18809 1 149.00000 418.400000
13072 5415 16944 1 149.00000 418.400000
13072 5416 14037 1 149.00000 418.400000
13073 5417 16678 1 149.00000 418.400000
13073 5418 16893 1 149.00000 418.400000
13057 5419 13073 1 149.00000 418.400000
13074 5420 15463 1 149.00000 418.400000
13074 5421 14409 1 149.00000 418.400000
13074 5422 13654 1 149.00000 418.400000
13074 5423 16769 1 149.00000 418.400000
13075 5424 18590 1 149.00000 418.400000
13075 5425 15265 1 149.00000 418.400000
13075 5426 15867 1 149.00000 418.400000
17639 5427 18530 1 149.00000 418.400000
15778 5428 18530 1 149.00000 418.400000
13076 5429 13957 1 149.00000 418.400000
13076 5430 15178 1 149.00000 418.400000
13077 5431 13622 1 149.00000 418.400000
13077 5432 14800 1 149.00000 418.400000
13077 5433 13638 1 149.00000 418.400000
13078 5434 14681 1 149.00000 418.400000
13078 5435 16855 1 149.00000 418.400000
13078 5436 17001 1 149.00000 418.400000
13079 5437 18833 1 149.00000 418.400000
13079 5438 14676 1 149.00000 418.400000
13079 5439 13111 1 149.00000 418.400000
18332 5440 18722 1 149.00000 418.400000
13080 5441 15647 1 149.00000 418.400000
13080 5442 18929 1 149.00000 418.400000
13080 5443 13691 1 149.00000 418.400000
13081 5444 14753 1 149.00000 418.400000
14373 5445 16808 1 149.00000 418.400000
13082 5446 14373 1 149.00000 418.400000
13082 5447 16137 1 149.00000 418.400000
13083 5448 14867 1 149.00000 418.400000
13083 5449 16534 1 149.00000 418.400000
11764 5450 13084 1 149.00000 418.400000
11977 5451 15235 1 149.00000 418.400000
11977 5452 15247 1 149.00000 418.400000
13085 5453 15199 1 149.00000 418.400000
13085 5454 16344 1 149.00000 418.400000
13085 5455 15995 1 149.00000 418.400000
13086 5456 16961 1 149.00000 418.400000
13086 5457 15998 1 149.00000 418.400000
13086 5458 15633 1 149.00000 418.400000
13086 5459 14220 1 149.00000 418.400000
13087 5460 13836 1 149.00000 418.400000
13087 5461 15781 1 149.00000 418.400000
13087 5462 14931 1 149.00000 418.400000
13087 5463 14249 1 149.00000 418.400000
13341 5464 13514 1 149.00000 418.400000
13089 5465 13830 1 149.00000 418.400000
13089 5466 13341 1 149.00000 418.400000
13090 5467 15758 1 149.00000 418.400000
13090 5468 16793 1 149.00000 418.400000
13090 5469 13254 1 149.00000 418.400000
13091 5470 14824 1 149.00000 418.400000
13091 5471 16002 1 149.00000 418.400000
13092 5472 13297 1 149.00000 418.400000
13092 5473 16211 1 149.00000 418.400000
13093 5474 15601 1 149.00000 418.400000
13093 5475 13776 1 149.00000 418.400000
11763 5476 16393 1 149.00000 418.400000
13095 5477 16661 1 149.00000 418.400000
13095 5478 15070 1 149.00000 418.400000
13096 5479 16289 1 149.00000 418.400000
13096 5480 15903 1 149.00000 418.400000
13096 5481 16763 1 149.00000 418.400000
13096 5482 14694 1 149.00000 418.400000
13097 5483 16552 1 149.00000 418.400000
13097 5484 14107 1 149.00000 418.400000
13097 5485 13657 1 149.00000 418.400000
13098 5486 14013 1 149.00000 418.400000
13098 5487 16996 1 149.00000 418.400000
13099 5488 14892 1 149.00000 418.400000
13099 5489 15305 1 149.00000 418.400000
13099 5490 14078 1 149.00000 418.400000
13100 5491 14521 1 149.00000 418.400000
13100 5492 14467 1 149.00000 418.400000
13100 5493 15856 1 149.00000 418.400000
13101 5494 14825 1 149.00000 418.400000
13101 5495 14458 1 149.00000 418.400000
16813 5496 18533 1 149.00000 418.400000
15843 5497 18533 1 149.00000 418.400000
13363 5498 18533 1 149.00000 418.400000
13102 5499 15437 1 149.00000 418.400000
13102 5500 16797 1 149.00000 418.400000
13875 5501 18536 1 149.00000 418.400000
15074 5502 18536 1 149.00000 418.400000
16577 5503 18536 1 149.00000 418.400000
13103 5504 14846 1 149.00000 418.400000
13103 5505 16282 1 149.00000 418.400000
13103 5506 13132 1 149.00000 418.400000
13104 5507 16315 1 149.00000 418.400000
13104 5508 15401 1 149.00000 418.400000
13104 5509 15994 1 149.00000 418.400000
13105 5510 13420 1 149.00000 418.400000
13105 5511 14773 1 149.00000 418.400000
13106 5512 16606 1 149.00000 418.400000
13106 5513 16994 1 149.00000 418.400000
13106 5514 14560 1 149.00000 418.400000
13106 5515 15735 1 149.00000 418.400000
13107 5516 16150 1 149.00000 418.400000
13108 5517 16961 1 149.00000 418.400000
13108 5518 14002 1 149.00000 418.400000
13108 5519 13451 1 149.00000 418.400000
13109 5520 15705 1 149.00000 418.400000
13109 5521 13168 1 149.00000 418.400000
13109 5522 15636 1 149.00000 418.400000
13110 5523 14779 1 149.00000 418.400000
13110 5524 14736 1 149.00000 418.400000
13111 5525 16714 1 149.00000 418.400000
13112 5526 14385 1 149.00000 418.400000
13112 5527 13281 1 149.00000 418.400000
13113 5528 14061 1 149.00000 418.400000
13113 5529 15318 1 149.00000 418.400000
13113 5530 13684 1 149.00000 418.400000
13113 5531 14701 1 149.00000 418.400000
13114 5532 13331 1 149.00000 418.400000
13114 5533 13403 1 149.00000 418.400000
13114 5534 13404 1 149.00000 418.400000
13115 5535 14010 1 149.00000 418.400000
13115 5536 16614 1 149.00000 418.400000
13116 5537 16875 1 149.00000 418.400000
13116 5538 13549 1 149.00000 418.400000
13116 5539 15837 1 149.00000 418.400000
13117 5540 19079 1 149.00000 418.400000
13117 5541 14363 1 149.00000 418.400000
13118 5542 17555 1 149.00000 418.400000
13118 5543 15649 1 149.00000 418.400000
13119 5544 16591 1 149.00000 418.400000
14423 5545 16312 1 149.00000 418.400000
13119 5546 14644 1 149.00000 418.400000
13119 5547 16312 1 149.00000 418.400000
13120 5548 16405 1 149.00000 418.400000
13120 5549 14304 1 149.00000 418.400000
12417 5550 16253 1 149.00000 418.400000
13121 5551 16712 1 149.00000 418.400000
13121 5552 14275 1 149.00000 418.400000
13122 5553 16393 1 149.00000 418.400000
13122 5554 15701 1 149.00000 418.400000
13122 5555 14596 1 149.00000 418.400000
13122 5556 13359 1 149.00000 418.400000
13123 5557 15683 1 149.00000 418.400000
13123 5558 14862 1 149.00000 418.400000
13123 5559 14607 1 149.00000 418.400000
13124 5560 16698 1 149.00000 418.400000
13124 5561 14190 1 149.00000 418.400000
13125 5562 14674 1 149.00000 418.400000
13125 5563 15098 1 149.00000 418.400000
13125 5564 14648 1 149.00000 418.400000
13127 5565 16045 1 149.00000 418.400000
13127 5566 17301 1 149.00000 418.400000
13127 5567 16296 1 149.00000 418.400000
13128 5568 14370 1 149.00000 418.400000
13128 5569 14827 1 149.00000 418.400000
13128 5570 13144 1 149.00000 418.400000
13129 5571 13865 1 149.00000 418.400000
13130 5572 18734 1 149.00000 418.400000
13130 5573 16504 1 149.00000 418.400000
13131 5574 16331 1 149.00000 418.400000
13131 5575 13967 1 149.00000 418.400000
13131 5576 16576 1 149.00000 418.400000
12259 5577 15931 1 149.00000 418.400000
15931 5578 18539 1 149.00000 418.400000
13132 5579 13778 1 149.00000 418.400000
15185 5580 16584 1 149.00000 418.400000
13132 5581 15185 1 149.00000 418.400000
13133 5582 18599 1 149.00000 418.400000
13133 5583 15941 1 149.00000 418.400000
13133 5584 14696 1 149.00000 418.400000
13134 5585 16277 1 149.00000 418.400000
13134 5586 13819 1 149.00000 418.400000
13135 5587 14378 1 149.00000 418.400000
13135 5588 15418 1 149.00000 418.400000
13135 5589 13697 1 149.00000 418.400000
13135 5590 16962 1 149.00000 418.400000
13136 5591 17010 1 149.00000 418.400000
13136 5592 15709 1 149.00000 418.400000
13136 5593 14078 1 149.00000 418.400000
13137 5594 14786 1 149.00000 418.400000
13137 5595 13310 1 149.00000 418.400000
13137 5596 15925 1 149.00000 418.400000
13137 5597 16482 1 149.00000 418.400000
13138 5598 15985 1 149.00000 418.400000
13138 5599 13216 1 149.00000 418.400000
13139 5600 16076 1 149.00000 418.400000
13139 5601 13945 1 149.00000 418.400000
13140 5602 14626 1 149.00000 418.400000
13140 5603 14779 1 149.00000 418.400000
13140 5604 14043 1 149.00000 418.400000
13141 5605 14672 1 149.00000 418.400000
13141 5606 15016 1 149.00000 418.400000
13141 5607 14473 1 149.00000 418.400000
13141 5608 13765 1 149.00000 418.400000
13142 5609 14530 1 149.00000 418.400000
13142 5610 15394 1 149.00000 418.400000
13142 5611 16970 1 149.00000 418.400000
13143 5612 15863 1 149.00000 418.400000
13143 5613 15704 1 149.00000 418.400000
13143 5614 16627 1 149.00000 418.400000
13144 5615 14485 1 149.00000 418.400000
13144 5616 15986 1 149.00000 418.400000
13144 5617 15393 1 149.00000 418.400000
13145 5618 16071 1 149.00000 418.400000
13145 5619 14659 1 149.00000 418.400000
13145 5620 14392 1 149.00000 418.400000
13145 5621 13919 1 149.00000 418.400000
13146 5622 15494 1 149.00000 418.400000
13146 5623 16876 1 149.00000 418.400000
13146 5624 14583 1 149.00000 418.400000
13146 5625 14659 1 149.00000 418.400000
13147 5626 16649 1 149.00000 418.400000
13148 5627 16373 1 149.00000 418.400000
13148 5628 14876 1 149.00000 418.400000
13149 5629 14515 1 149.00000 418.400000
13150 5630 14040 1 149.00000 418.400000
13151 5631 14479 1 149.00000 418.400000
15575 5632 16446 1 149.00000 418.400000
13151 5633 16446 1 149.00000 418.400000
13151 5634 13732 1 149.00000 418.400000
13152 5635 16512 1 149.00000 418.400000
13152 5636 16412 1 149.00000 418.400000
13152 5637 13226 1 149.00000 418.400000
13152 5638 13882 1 149.00000 418.400000
13153 5639 15629 1 149.00000 418.400000
13153 5640 13524 1 149.00000 418.400000
13153 5641 15870 1 149.00000 418.400000
13154 5642 15087 1 149.00000 418.400000
13154 5643 16717 1 149.00000 418.400000
13154 5644 13937 1 149.00000 418.400000
13154 5645 14951 1 149.00000 418.400000
13155 5646 13912 1 149.00000 418.400000
13155 5647 15765 1 149.00000 418.400000
13155 5648 15016 1 149.00000 418.400000
13156 5649 16907 1 149.00000 418.400000
13156 5650 14456 1 149.00000 418.400000
13156 5651 15509 1 149.00000 418.400000
13156 5652 16930 1 149.00000 418.400000
14253 5653 15208 1 149.00000 418.400000
13157 5654 14253 1 149.00000 418.400000
13157 5655 14670 1 149.00000 418.400000
13158 5656 13939 1 149.00000 418.400000
13158 5657 14158 1 149.00000 418.400000
13158 5658 15707 1 149.00000 418.400000
13158 5659 16284 1 149.00000 418.400000
16116 5660 17915 1 149.00000 418.400000
13159 5661 13426 1 149.00000 418.400000
13159 5662 15892 1 149.00000 418.400000
13159 5663 14320 1 149.00000 418.400000
13160 5664 14154 1 149.00000 418.400000
13160 5665 13336 1 149.00000 418.400000
13160 5666 13645 1 149.00000 418.400000
13161 5667 15219 1 149.00000 418.400000
13161 5668 16875 1 149.00000 418.400000
13161 5669 14725 1 149.00000 418.400000
13162 5670 14485 1 149.00000 418.400000
13162 5671 16369 1 149.00000 418.400000
13162 5672 13343 1 149.00000 418.400000
13162 5673 18971 1 149.00000 418.400000
13163 5674 14479 1 149.00000 418.400000
13163 5675 13398 1 149.00000 418.400000
13163 5676 13745 1 149.00000 418.400000
13163 5677 13202 1 149.00000 418.400000
13164 5678 15678 1 149.00000 418.400000
13164 5679 13939 1 149.00000 418.400000
13164 5680 16579 1 149.00000 418.400000
13165 5681 16825 1 149.00000 418.400000
13165 5682 14843 1 149.00000 418.400000
13166 5683 15100 1 149.00000 418.400000
13166 5684 14709 1 149.00000 418.400000
13166 5685 15888 1 149.00000 418.400000
13167 5686 16158 1 149.00000 418.400000
13167 5687 14727 1 149.00000 418.400000
13167 5688 14273 1 149.00000 418.400000
13168 5689 14798 1 149.00000 418.400000
13168 5690 15136 1 149.00000 418.400000
13169 5691 16628 1 149.00000 418.400000
13169 5692 14117 1 149.00000 418.400000
13169 5693 15199 1 149.00000 418.400000
12031 5694 13553 1 149.00000 418.400000
13553 5695 16458 1 149.00000 418.400000
13171 5696 15596 1 149.00000 418.400000
13171 5697 15592 1 149.00000 418.400000
13171 5698 16196 1 149.00000 418.400000
13171 5699 16455 1 149.00000 418.400000
13172 5700 13418 1 149.00000 418.400000
13172 5701 16622 1 149.00000 418.400000
13172 5702 16492 1 149.00000 418.400000
13173 5703 15548 1 149.00000 418.400000
13173 5704 13464 1 149.00000 418.400000
13173 5705 16257 1 149.00000 418.400000
13224 5706 14197 1 149.00000 418.400000
13174 5707 15055 1 149.00000 418.400000
13174 5708 13224 1 149.00000 418.400000
13175 5709 15432 1 149.00000 418.400000
13175 5710 13667 1 149.00000 418.400000
13176 5711 13953 1 149.00000 418.400000
13176 5712 13972 1 149.00000 418.400000
13177 5713 14695 1 149.00000 418.400000
13177 5714 13569 1 149.00000 418.400000
13178 5715 14818 1 149.00000 418.400000
13178 5716 13635 1 149.00000 418.400000
13178 5717 18692 1 149.00000 418.400000
13179 5718 15240 1 149.00000 418.400000
13179 5719 14189 1 149.00000 418.400000
13179 5720 16674 1 149.00000 418.400000
13179 5721 16696 1 149.00000 418.400000
13180 5722 15117 1 149.00000 418.400000
13180 5723 14937 1 149.00000 418.400000
13180 5724 15837 1 149.00000 418.400000
16445 5725 18542 1 149.00000 418.400000
14226 5726 18542 1 149.00000 418.400000
14138 5727 18542 1 149.00000 418.400000
13181 5728 15027 1 149.00000 418.400000
13181 5729 14317 1 149.00000 418.400000
13181 5730 15407 1 149.00000 418.400000
13182 5731 15437 1 149.00000 418.400000
13182 5732 14539 1 149.00000 418.400000
13183 5733 13504 1 149.00000 418.400000
13183 5734 13555 1 149.00000 418.400000
13184 5735 16129 1 149.00000 418.400000
13184 5736 18629 1 149.00000 418.400000
13185 5737 16607 1 149.00000 418.400000
13186 5738 16188 1 149.00000 418.400000
13186 5739 13624 1 149.00000 418.400000
13186 5740 15959 1 149.00000 418.400000
13186 5741 15250 1 149.00000 418.400000
13187 5742 16522 1 149.00000 418.400000
13187 5743 13260 1 149.00000 418.400000
15330 5744 16522 1 149.00000 418.400000
12994 5745 13188 1 149.00000 418.400000
13188 5746 14545 1 149.00000 418.400000
13189 5747 15610 1 149.00000 418.400000
13189 5748 14721 1 149.00000 418.400000
13190 5749 14907 1 149.00000 418.400000
13190 5750 14269 1 149.00000 418.400000
13191 5751 14281 1 149.00000 418.400000
13191 5752 14362 1 149.00000 418.400000
13192 5753 13862 1 149.00000 418.400000
13192 5754 13482 1 149.00000 418.400000
13192 5755 16466 1 149.00000 418.400000
13193 5756 14852 1 149.00000 418.400000
13193 5757 14737 1 149.00000 418.400000
13193 5758 14356 1 149.00000 418.400000
13194 5759 15044 1 149.00000 418.400000
15044 5760 16848 1 149.00000 418.400000
13195 5761 15296 1 149.00000 418.400000
13195 5762 13421 1 149.00000 418.400000
13195 5763 15945 1 149.00000 418.400000
14966 5764 15296 1 149.00000 418.400000
13196 5765 13560 1 149.00000 418.400000
13196 5766 16403 1 149.00000 418.400000
13197 5767 16093 1 149.00000 418.400000
13197 5768 14765 1 149.00000 418.400000
13197 5769 15835 1 149.00000 418.400000
13197 5770 14269 1 149.00000 418.400000
13198 5771 15168 1 149.00000 418.400000
13199 5772 16320 1 149.00000 418.400000
13199 5773 15519 1 149.00000 418.400000
13200 5774 14013 1 149.00000 418.400000
13200 5775 13897 1 149.00000 418.400000
13200 5776 16818 1 149.00000 418.400000
13201 5777 13221 1 149.00000 418.400000
13201 5778 13771 1 149.00000 418.400000
13201 5779 15234 1 149.00000 418.400000
13202 5780 14022 1 149.00000 418.400000
13202 5781 14417 1 149.00000 418.400000
13202 5782 13887 1 149.00000 418.400000
13203 5783 15323 1 149.00000 418.400000
13203 5784 13469 1 149.00000 418.400000
13203 5785 15468 1 149.00000 418.400000
13204 5786 16239 1 149.00000 418.400000
13205 5787 13911 1 149.00000 418.400000
13205 5788 15937 1 149.00000 418.400000
13205 5789 14286 1 149.00000 418.400000
13205 5790 16544 1 149.00000 418.400000
15652 5791 15928 1 149.00000 418.400000
13206 5792 15652 1 149.00000 418.400000
13206 5793 15402 1 149.00000 418.400000
13556 5794 14242 1 149.00000 418.400000
13207 5795 14638 1 149.00000 418.400000
13207 5796 14398 1 149.00000 418.400000
13207 5797 14242 1 149.00000 418.400000
13208 5798 13959 1 149.00000 418.400000
11620 5799 13208 1 149.00000 418.400000
13208 5800 14584 1 149.00000 418.400000
13208 5801 14178 1 149.00000 418.400000
13209 5802 13652 1 149.00000 418.400000
13210 5803 15772 1 149.00000 418.400000
13210 5804 15665 1 149.00000 418.400000
13210 5805 16512 1 149.00000 418.400000
13211 5806 15937 1 149.00000 418.400000
13211 5807 15641 1 149.00000 418.400000
13211 5808 15255 1 149.00000 418.400000
13211 5809 15870 1 149.00000 418.400000
13212 5810 16058 1 149.00000 418.400000
13212 5811 15285 1 149.00000 418.400000
13213 5812 13384 1 149.00000 418.400000
13213 5813 14495 1 149.00000 418.400000
13213 5814 13274 1 149.00000 418.400000
13214 5815 16848 1 149.00000 418.400000
13214 5816 16367 1 149.00000 418.400000
13214 5817 13832 1 149.00000 418.400000
13215 5818 16515 1 149.00000 418.400000
13215 5819 16776 1 149.00000 418.400000
13138 5820 14076 1 149.00000 418.400000
13216 5821 14485 1 149.00000 418.400000
13217 5822 14868 1 149.00000 418.400000
13217 5823 16695 1 149.00000 418.400000
13592 5824 15702 1 149.00000 418.400000
13218 5825 15702 1 149.00000 418.400000
13218 5826 15665 1 149.00000 418.400000
13218 5827 14258 1 149.00000 418.400000
14561 5828 14613 1 149.00000 418.400000
13219 5829 14613 1 149.00000 418.400000
13220 5830 13481 1 149.00000 418.400000
13221 5831 15522 1 149.00000 418.400000
13222 5832 15650 1 149.00000 418.400000
13222 5833 14597 1 149.00000 418.400000
13222 5834 18644 1 149.00000 418.400000
13223 5835 14394 1 149.00000 418.400000
13223 5836 15013 1 149.00000 418.400000
14748 5837 15013 1 149.00000 418.400000
14621 5838 15013 1 149.00000 418.400000
16800 5839 18545 1 149.00000 418.400000
15091 5840 16800 1 149.00000 418.400000
16800 5841 19061 1 149.00000 418.400000
16655 5842 16800 1 149.00000 418.400000
13224 5843 15390 1 149.00000 418.400000
13174 5844 16836 1 149.00000 418.400000
13225 5845 13901 1 149.00000 418.400000
13225 5846 13473 1 149.00000 418.400000
13226 5847 14150 1 149.00000 418.400000
13226 5848 18719 1 149.00000 418.400000
13226 5849 15276 1 149.00000 418.400000
13227 5850 16390 1 149.00000 418.400000
13227 5851 14574 1 149.00000 418.400000
13227 5852 15299 1 149.00000 418.400000
13228 5853 16587 1 149.00000 418.400000
13229 5854 14213 1 149.00000 418.400000
13229 5855 14216 1 149.00000 418.400000
13229 5856 15799 1 149.00000 418.400000
13229 5857 16132 1 149.00000 418.400000
12939 5858 13230 1 149.00000 418.400000
13230 5859 13709 1 149.00000 418.400000
15969 5860 18548 1 149.00000 418.400000
15532 5861 15969 1 149.00000 418.400000
13231 5862 16298 1 149.00000 418.400000
14588 5863 15466 1 149.00000 418.400000
13231 5864 15466 1 149.00000 418.400000
13232 5865 15754 1 149.00000 418.400000
13232 5866 18614 1 149.00000 418.400000
13232 5867 16478 1 149.00000 418.400000
13233 5868 14854 1 149.00000 418.400000
13233 5869 16769 1 149.00000 418.400000
13234 5870 15588 1 149.00000 418.400000
13234 5871 14040 1 149.00000 418.400000
13234 5872 16145 1 149.00000 418.400000
13235 5873 13388 1 149.00000 418.400000
13235 5874 15561 1 149.00000 418.400000
13235 5875 13883 1 149.00000 418.400000
13236 5876 13707 1 149.00000 418.400000
13236 5877 14168 1 149.00000 418.400000
13236 5878 13638 1 149.00000 418.400000
11783 5879 13236 1 149.00000 418.400000
13237 5880 14128 1 149.00000 418.400000
13237 5881 14007 1 149.00000 418.400000
13237 5882 14098 1 149.00000 418.400000
13237 5883 15887 1 149.00000 418.400000
13238 5884 15350 1 149.00000 418.400000
13238 5885 13742 1 149.00000 418.400000
13238 5886 16388 1 149.00000 418.400000
13239 5887 17014 1 149.00000 418.400000
13239 5888 15834 1 149.00000 418.400000
13240 5889 13747 1 149.00000 418.400000
13240 5890 14551 1 149.00000 418.400000
13240 5891 15443 1 149.00000 418.400000
13241 5892 13710 1 149.00000 418.400000
12643 5893 13241 1 149.00000 418.400000
13241 5894 15273 1 149.00000 418.400000
13242 5895 14841 1 149.00000 418.400000
13242 5896 15992 1 149.00000 418.400000
13242 5897 14999 1 149.00000 418.400000
13243 5898 16525 1 149.00000 418.400000
13243 5899 16000 1 149.00000 418.400000
13243 5900 15242 1 149.00000 418.400000
13244 5901 14635 1 149.00000 418.400000
13244 5902 13487 1 149.00000 418.400000
13244 5903 14046 1 149.00000 418.400000
13245 5904 13766 1 149.00000 418.400000
13245 5905 15039 1 149.00000 418.400000
13245 5906 16601 1 149.00000 418.400000
13245 5907 13895 1 149.00000 418.400000
13246 5908 16003 1 149.00000 418.400000
12357 5909 13246 1 149.00000 418.400000
13246 5910 13535 1 149.00000 418.400000
13247 5911 14709 1 149.00000 418.400000
13247 5912 13819 1 149.00000 418.400000
13247 5913 15485 1 149.00000 418.400000
13248 5914 15476 1 149.00000 418.400000
13248 5915 15586 1 149.00000 418.400000
13248 5916 13563 1 149.00000 418.400000
13249 5917 13578 1 149.00000 418.400000
13249 5918 13984 1 149.00000 418.400000
13250 5919 16753 1 149.00000 418.400000
11741 5920 13251 1 149.00000 418.400000
13251 5921 15702 1 149.00000 418.400000
13251 5922 13621 1 149.00000 418.400000
13252 5923 16377 1 149.00000 418.400000
13252 5924 16123 1 149.00000 418.400000
13252 5925 13487 1 149.00000 418.400000
13253 5926 14595 1 149.00000 418.400000
12450 5927 13789 1 149.00000 418.400000
13254 5928 16530 1 149.00000 418.400000
13254 5929 15396 1 149.00000 418.400000
13255 5930 14120 1 149.00000 418.400000
13255 5931 16808 1 149.00000 418.400000
13255 5932 14417 1 149.00000 418.400000
13255 5933 14510 1 149.00000 418.400000
13256 5934 14005 1 149.00000 418.400000
13257 5935 15036 1 149.00000 418.400000
13257 5936 14583 1 149.00000 418.400000
13258 5937 14309 1 149.00000 418.400000
13258 5938 13766 1 149.00000 418.400000
13259 5939 14822 1 149.00000 418.400000
13259 5940 13808 1 149.00000 418.400000
13259 5941 15153 1 149.00000 418.400000
13259 5942 14653 1 149.00000 418.400000
16241 5943 16653 1 149.00000 418.400000
14313 5944 16241 1 149.00000 418.400000
13260 5945 16241 1 149.00000 418.400000
13261 5946 15516 1 149.00000 418.400000
13261 5947 15515 1 149.00000 418.400000
13261 5948 13488 1 149.00000 418.400000
13262 5949 16842 1 149.00000 418.400000
13262 5950 14164 1 149.00000 418.400000
13262 5951 13412 1 149.00000 418.400000
13262 5952 13789 1 149.00000 418.400000
13263 5953 14246 1 149.00000 418.400000
13263 5954 15883 1 149.00000 418.400000
13002 5955 13263 1 149.00000 418.400000
13263 5956 16555 1 149.00000 418.400000
13264 5957 14504 1 149.00000 418.400000
13264 5958 14023 1 149.00000 418.400000
13264 5959 13771 1 149.00000 418.400000
13264 5960 15704 1 149.00000 418.400000
13265 5961 13736 1 149.00000 418.400000
13265 5962 13952 1 149.00000 418.400000
15459 5963 18782 1 149.00000 418.400000
13266 5964 13617 1 149.00000 418.400000
13266 5965 18782 1 149.00000 418.400000
13267 5966 15859 1 149.00000 418.400000
13267 5967 15630 1 149.00000 418.400000
13268 5968 14263 1 149.00000 418.400000
13268 5969 18485 1 149.00000 418.400000
13269 5970 14564 1 149.00000 418.400000
13269 5971 14549 1 149.00000 418.400000
13269 5972 13815 1 149.00000 418.400000
13679 5973 14564 1 149.00000 418.400000
13270 5974 16968 1 149.00000 418.400000
13270 5975 13671 1 149.00000 418.400000
13271 5976 13952 1 149.00000 418.400000
13271 5977 15652 1 149.00000 418.400000
13782 5978 14537 1 149.00000 418.400000
13272 5979 15229 1 149.00000 418.400000
13272 5980 13782 1 149.00000 418.400000
13782 5981 15189 1 149.00000 418.400000
13273 5982 14300 1 149.00000 418.400000
13273 5983 13470 1 149.00000 418.400000
13274 5984 15938 1 149.00000 418.400000
13274 5985 14437 1 149.00000 418.400000
13274 5986 13564 1 149.00000 418.400000
13275 5987 16827 1 149.00000 418.400000
13275 5988 15933 1 149.00000 418.400000
13276 5989 16403 1 149.00000 418.400000
13276 5990 14984 1 149.00000 418.400000
13277 5991 18908 1 149.00000 418.400000
13277 5992 13447 1 149.00000 418.400000
13278 5993 15605 1 149.00000 418.400000
13278 5994 13825 1 149.00000 418.400000
13278 5995 16755 1 149.00000 418.400000
13278 5996 15256 1 149.00000 418.400000
13279 5997 17469 1 149.00000 418.400000
13279 5998 18707 1 149.00000 418.400000
13280 5999 16220 1 149.00000 418.400000
13281 6000 18872 1 149.00000 418.400000
13281 6001 16916 1 149.00000 418.400000
13282 6002 15723 1 149.00000 418.400000
13282 6003 14049 1 149.00000 418.400000
13282 6004 13316 1 149.00000 418.400000
16821 6005 18551 1 149.00000 418.400000
15746 6006 18551 1 149.00000 418.400000
13283 6007 15889 1 149.00000 418.400000
13283 6008 13389 1 149.00000 418.400000
13283 6009 15870 1 149.00000 418.400000
13283 6010 14018 1 149.00000 418.400000
13284 6011 15913 1 149.00000 418.400000
13284 6012 16366 1 149.00000 418.400000
13285 6013 13365 1 149.00000 418.400000
13285 6014 15097 1 149.00000 418.400000
13285 6015 15483 1 149.00000 418.400000
13286 6016 16917 1 149.00000 418.400000
13286 6017 14989 1 149.00000 418.400000
13286 6018 15318 1 149.00000 418.400000
13286 6019 16737 1 149.00000 418.400000
11831 6020 13611 1 149.00000 418.400000
11831 6021 16688 1 149.00000 418.400000
13288 6022 15798 1 149.00000 418.400000
13288 6023 13985 1 149.00000 418.400000
13288 6024 14002 1 149.00000 418.400000
13288 6025 15157 1 149.00000 418.400000
18554 6026 18572 1 149.00000 418.400000
15610 6027 18554 1 149.00000 418.400000
13289 6028 13976 1 149.00000 418.400000
13289 6029 15581 1 149.00000 418.400000
13289 6030 16526 1 149.00000 418.400000
16505 6031 17927 1 149.00000 418.400000
16505 6032 18557 1 149.00000 418.400000
13290 6033 13921 1 149.00000 418.400000
13290 6034 14784 1 149.00000 418.400000
13291 6035 13837 1 149.00000 418.400000
13291 6036 16982 1 149.00000 418.400000
13291 6037 14121 1 149.00000 418.400000
13292 6038 18563 1 149.00000 418.400000
13293 6039 14266 1 149.00000 418.400000
13293 6040 16594 1 149.00000 418.400000
13293 6041 13892 1 149.00000 418.400000
13293 6042 16056 1 149.00000 418.400000
13294 6043 16706 1 149.00000 418.400000
13294 6044 14735 1 149.00000 418.400000
13294 6045 16151 1 149.00000 418.400000
13294 6046 16640 1 149.00000 418.400000
13295 6047 16262 1 149.00000 418.400000
13295 6048 14465 1 149.00000 418.400000
13295 6049 15855 1 149.00000 418.400000
13296 6050 16924 1 149.00000 418.400000
13297 6051 13976 1 149.00000 418.400000
13298 6052 15242 1 149.00000 418.400000
13298 6053 15968 1 149.00000 418.400000
13298 6054 15090 1 149.00000 418.400000
13299 6055 15278 1 149.00000 418.400000
13299 6056 14166 1 149.00000 418.400000
13299 6057 18650 1 149.00000 418.400000
13300 6058 15129 1 149.00000 418.400000
13300 6059 16581 1 149.00000 418.400000
13300 6060 16408 1 149.00000 418.400000
13302 6061 16862 1 149.00000 418.400000
13303 6062 13469 1 149.00000 418.400000
13303 6063 15120 1 149.00000 418.400000
13303 6064 16289 1 149.00000 418.400000
13304 6065 13693 1 149.00000 418.400000
13304 6066 16919 1 149.00000 418.400000
13304 6067 15894 1 149.00000 418.400000
13305 6068 16280 1 149.00000 418.400000
13305 6069 13835 1 149.00000 418.400000
13306 6070 16045 1 149.00000 418.400000
13306 6071 18869 1 149.00000 418.400000
13306 6072 16790 1 149.00000 418.400000
13306 6073 14680 1 149.00000 418.400000
13307 6074 14594 1 149.00000 418.400000
13307 6075 14588 1 149.00000 418.400000
13308 6076 16989 1 149.00000 418.400000
13308 6077 15160 1 149.00000 418.400000
13308 6078 16433 1 149.00000 418.400000
13309 6079 14261 1 149.00000 418.400000
13309 6080 15816 1 149.00000 418.400000
13310 6081 15102 1 149.00000 418.400000
13310 6082 15555 1 149.00000 418.400000
13310 6083 14770 1 149.00000 418.400000
13311 6084 14022 1 149.00000 418.400000
13311 6085 14777 1 149.00000 418.400000
13311 6086 13732 1 149.00000 418.400000
13311 6087 15127 1 149.00000 418.400000
13312 6088 16984 1 149.00000 418.400000
13312 6089 18902 1 149.00000 418.400000
13313 6090 15692 1 149.00000 418.400000
13313 6091 16432 1 149.00000 418.400000
13313 6092 14479 1 149.00000 418.400000
13313 6093 14203 1 149.00000 418.400000
13314 6094 15478 1 149.00000 418.400000
13314 6095 16675 1 149.00000 418.400000
13314 6096 13651 1 149.00000 418.400000
13315 6097 13699 1 149.00000 418.400000
13315 6098 13761 1 149.00000 418.400000
14768 6099 18560 1 149.00000 418.400000
17603 6100 18560 1 149.00000 418.400000
14389 6101 18560 1 149.00000 418.400000
13316 6102 15228 1 149.00000 418.400000
13316 6103 16922 1 149.00000 418.400000
13317 6104 16377 1 149.00000 418.400000
13317 6105 13819 1 149.00000 418.400000
13317 6106 14602 1 149.00000 418.400000
13317 6107 14934 1 149.00000 418.400000
13318 6108 16269 1 149.00000 418.400000
13318 6109 16247 1 149.00000 418.400000
13318 6110 15677 1 149.00000 418.400000
13319 6111 14828 1 149.00000 418.400000
15275 6112 15571 1 149.00000 418.400000
13319 6113 15275 1 149.00000 418.400000
16368 6114 16426 1 149.00000 418.400000
13320 6115 15953 1 149.00000 418.400000
12868 6116 13321 1 149.00000 418.400000
13321 6117 16665 1 149.00000 418.400000
13322 6118 16489 1 149.00000 418.400000
13323 6119 16179 1 149.00000 418.400000
13323 6120 13356 1 149.00000 418.400000
13323 6121 14045 1 149.00000 418.400000
13324 6122 16246 1 149.00000 418.400000
13324 6123 14092 1 149.00000 418.400000
13325 6124 14902 1 149.00000 418.400000
13325 6125 16274 1 149.00000 418.400000
13325 6126 17413 1 149.00000 418.400000
13325 6127 13516 1 149.00000 418.400000
13326 6128 13745 1 149.00000 418.400000
12316 6129 13327 1 149.00000 418.400000
13327 6130 17371 1 149.00000 418.400000
13327 6131 14506 1 149.00000 418.400000
13328 6132 13329 1 149.00000 418.400000
13328 6133 13533 1 149.00000 418.400000
13328 6134 15792 1 149.00000 418.400000
13776 6135 15701 1 149.00000 418.400000
13329 6136 13359 1 149.00000 418.400000
13330 6137 15204 1 149.00000 418.400000
13330 6138 13845 1 149.00000 418.400000
13330 6139 14129 1 149.00000 418.400000
13330 6140 16376 1 149.00000 418.400000
13331 6141 13492 1 149.00000 418.400000
13331 6142 16288 1 149.00000 418.400000
13331 6143 14428 1 149.00000 418.400000
13332 6144 16415 1 149.00000 418.400000
14352 6145 14940 1 149.00000 418.400000
13333 6146 14352 1 149.00000 418.400000
14352 6147 16110 1 149.00000 418.400000
13334 6148 13814 1 149.00000 418.400000
13334 6149 15868 1 149.00000 418.400000
13335 6150 16636 1 149.00000 418.400000
13335 6151 19082 1 149.00000 418.400000
13335 6152 17903 1 149.00000 418.400000
13335 6153 15822 1 149.00000 418.400000
13336 6154 14390 1 149.00000 418.400000
13337 6155 14382 1 149.00000 418.400000
13337 6156 14553 1 149.00000 418.400000
13337 6157 14209 1 149.00000 418.400000
13338 6158 16210 1 149.00000 418.400000
13338 6159 14183 1 149.00000 418.400000
13339 6160 14591 1 149.00000 418.400000
12873 6161 13850 1 149.00000 418.400000
13850 6162 16075 1 149.00000 418.400000
13340 6163 13801 1 149.00000 418.400000
13340 6164 13923 1 149.00000 418.400000
13341 6165 14640 1 149.00000 418.400000
13341 6166 14155 1 149.00000 418.400000
14509 6167 16732 1 149.00000 418.400000
13342 6168 16236 1 149.00000 418.400000
13342 6169 15826 1 149.00000 418.400000
13342 6170 14509 1 149.00000 418.400000
13343 6171 15750 1 149.00000 418.400000
13343 6172 18815 1 149.00000 418.400000
14680 6173 18563 1 149.00000 418.400000
14652 6174 18563 1 149.00000 418.400000
16267 6175 17017 1 149.00000 418.400000
13344 6176 13796 1 149.00000 418.400000
13344 6177 16652 1 149.00000 418.400000
12021 6178 17017 1 149.00000 418.400000
13345 6179 15236 1 149.00000 418.400000
13345 6180 13378 1 149.00000 418.400000
13346 6181 16041 1 149.00000 418.400000
13346 6182 16692 1 149.00000 418.400000
13346 6183 14430 1 149.00000 418.400000
13346 6184 14605 1 149.00000 418.400000
13347 6185 14711 1 149.00000 418.400000
13347 6186 13737 1 149.00000 418.400000
13347 6187 16216 1 149.00000 418.400000
13348 6188 13604 1 149.00000 418.400000
13348 6189 16737 1 149.00000 418.400000
13348 6190 14537 1 149.00000 418.400000
13348 6191 13865 1 149.00000 418.400000
14741 6192 18095 1 149.00000 418.400000
13349 6193 14794 1 149.00000 418.400000
13349 6194 13940 1 149.00000 418.400000
13349 6195 15177 1 149.00000 418.400000
13349 6196 14483 1 149.00000 418.400000
13350 6197 16269 1 149.00000 418.400000
13350 6198 15395 1 149.00000 418.400000
14341 6199 14691 1 149.00000 418.400000
13351 6200 16235 1 149.00000 418.400000
13351 6201 14893 1 149.00000 418.400000
13351 6202 13629 1 149.00000 418.400000
13352 6203 13772 1 149.00000 418.400000
13352 6204 13720 1 149.00000 418.400000
13353 6205 14555 1 149.00000 418.400000
13353 6206 16466 1 149.00000 418.400000
13353 6207 15169 1 149.00000 418.400000
13354 6208 14714 1 149.00000 418.400000
13354 6209 14706 1 149.00000 418.400000
13355 6210 15212 1 149.00000 418.400000
13355 6211 16329 1 149.00000 418.400000
13355 6212 14801 1 149.00000 418.400000
13355 6213 16723 1 149.00000 418.400000
13356 6214 13593 1 149.00000 418.400000
13357 6215 13961 1 149.00000 418.400000
13357 6216 13542 1 149.00000 418.400000
13357 6217 14245 1 149.00000 418.400000
13358 6218 15476 1 149.00000 418.400000
13358 6219 15507 1 149.00000 418.400000
13359 6220 16003 1 149.00000 418.400000
13360 6221 16892 1 149.00000 418.400000
13015 6222 13360 1 149.00000 418.400000
13361 6223 16069 1 149.00000 418.400000
13361 6224 14402 1 149.00000 418.400000
13361 6225 18995 1 149.00000 418.400000
13362 6226 15030 1 149.00000 418.400000
13362 6227 16523 1 149.00000 418.400000
13362 6228 14383 1 149.00000 418.400000
13363 6229 15671 1 149.00000 418.400000
13364 6230 16976 1 149.00000 418.400000
13364 6231 14368 1 149.00000 418.400000
13364 6232 18131 1 149.00000 418.400000
17519 6233 17831 1 149.00000 418.400000
12689 6234 14276 1 149.00000 418.400000
13365 6235 15686 1 149.00000 418.400000
13366 6236 14612 1 149.00000 418.400000
13366 6237 13784 1 149.00000 418.400000
13366 6238 15416 1 149.00000 418.400000
13367 6239 16367 1 149.00000 418.400000
13367 6240 14200 1 149.00000 418.400000
13367 6241 16866 1 149.00000 418.400000
13367 6242 16925 1 149.00000 418.400000
13368 6243 14101 1 149.00000 418.400000
13368 6244 15535 1 149.00000 418.400000
13369 6245 16654 1 149.00000 418.400000
13370 6246 15444 1 149.00000 418.400000
13370 6247 16273 1 149.00000 418.400000
13371 6248 16041 1 149.00000 418.400000
13371 6249 14776 1 149.00000 418.400000
13371 6250 13512 1 149.00000 418.400000
13372 6251 19019 1 149.00000 418.400000
13373 6252 16376 1 149.00000 418.400000
13373 6253 14686 1 149.00000 418.400000
13373 6254 14530 1 149.00000 418.400000
13374 6255 14713 1 149.00000 418.400000
14592 6256 15315 1 149.00000 418.400000
13374 6257 13664 1 149.00000 418.400000
13374 6258 14592 1 149.00000 418.400000
13375 6259 14500 1 149.00000 418.400000
13375 6260 16710 1 149.00000 418.400000
13375 6261 16088 1 149.00000 418.400000
13376 6262 19061 1 149.00000 418.400000
13376 6263 18899 1 149.00000 418.400000
13376 6264 14457 1 149.00000 418.400000
13377 6265 13733 1 149.00000 418.400000
11628 6266 16163 1 149.00000 418.400000
13379 6267 15809 1 149.00000 418.400000
13380 6268 16810 1 149.00000 418.400000
13380 6269 16015 1 149.00000 418.400000
13380 6270 15049 1 149.00000 418.400000
13380 6271 16414 1 149.00000 418.400000
13381 6272 16078 1 149.00000 418.400000
13381 6273 15890 1 149.00000 418.400000
13381 6274 14966 1 149.00000 418.400000
14260 6275 14966 1 149.00000 418.400000
14124 6276 18566 1 149.00000 418.400000
14043 6277 18566 1 149.00000 418.400000
13382 6278 16859 1 149.00000 418.400000
13382 6279 15253 1 149.00000 418.400000
13382 6280 16638 1 149.00000 418.400000
13382 6281 15435 1 149.00000 418.400000
13383 6282 16921 1 149.00000 418.400000
12490 6283 13384 1 149.00000 418.400000
13384 6284 16516 1 149.00000 418.400000
13384 6285 15452 1 149.00000 418.400000
13385 6286 16177 1 149.00000 418.400000
13385 6287 16371 1 149.00000 418.400000
13386 6288 16799 1 149.00000 418.400000
13386 6289 16490 1 149.00000 418.400000
13387 6290 16809 1 149.00000 418.400000
13387 6291 16532 1 149.00000 418.400000
13388 6292 14844 1 149.00000 418.400000
13388 6293 15400 1 149.00000 418.400000
13388 6294 14255 1 149.00000 418.400000
13389 6295 16244 1 149.00000 418.400000
13389 6296 16189 1 149.00000 418.400000
13390 6297 16232 1 149.00000 418.400000
13390 6298 16317 1 149.00000 418.400000
13390 6299 15794 1 149.00000 418.400000
13390 6300 15895 1 149.00000 418.400000
13391 6301 14775 1 149.00000 418.400000
13391 6302 19040 1 149.00000 418.400000
13391 6303 16185 1 149.00000 418.400000
13392 6304 16531 1 149.00000 418.400000
13392 6305 16480 1 149.00000 418.400000
13393 6306 14481 1 149.00000 418.400000
13393 6307 18818 1 149.00000 418.400000
13393 6308 16734 1 149.00000 418.400000
13394 6309 15288 1 149.00000 418.400000
13394 6310 18758 1 149.00000 418.400000
13395 6311 14034 1 149.00000 418.400000
13395 6312 14648 1 149.00000 418.400000
13395 6313 13417 1 149.00000 418.400000
17651 6314 18827 1 149.00000 418.400000
15807 6315 17651 1 149.00000 418.400000
13396 6316 16490 1 149.00000 418.400000
13396 6317 16276 1 149.00000 418.400000
13396 6318 14177 1 149.00000 418.400000
13397 6319 15270 1 149.00000 418.400000
13397 6320 14874 1 149.00000 418.400000
13333 6321 13397 1 149.00000 418.400000
13397 6322 16790 1 149.00000 418.400000
13398 6323 13954 1 149.00000 418.400000
13398 6324 15692 1 149.00000 418.400000
13399 6325 16854 1 149.00000 418.400000
13399 6326 14310 1 149.00000 418.400000
13399 6327 13862 1 149.00000 418.400000
13400 6328 16858 1 149.00000 418.400000
13400 6329 16923 1 149.00000 418.400000
13400 6330 16217 1 149.00000 418.400000
13401 6331 14945 1 149.00000 418.400000
13401 6332 16749 1 149.00000 418.400000
13401 6333 15706 1 149.00000 418.400000
13401 6334 14209 1 149.00000 418.400000
13402 6335 14799 1 149.00000 418.400000
13403 6336 14639 1 149.00000 418.400000
14639 6337 16288 1 149.00000 418.400000
13404 6338 13938 1 149.00000 418.400000
13404 6339 16633 1 149.00000 418.400000
13405 6340 17008 1 149.00000 418.400000
13405 6341 18119 1 149.00000 418.400000
13405 6342 15624 1 149.00000 418.400000
13406 6343 15983 1 149.00000 418.400000
15983 6344 16076 1 149.00000 418.400000
13406 6345 16662 1 149.00000 418.400000
13407 6346 13742 1 149.00000 418.400000
13407 6347 15678 1 149.00000 418.400000
13407 6348 16929 1 149.00000 418.400000
13407 6349 13581 1 149.00000 418.400000
13408 6350 14734 1 149.00000 418.400000
13408 6351 16866 1 149.00000 418.400000
13409 6352 16816 1 149.00000 418.400000
13409 6353 16610 1 149.00000 418.400000
13410 6354 13585 1 149.00000 418.400000
13410 6355 16999 1 149.00000 418.400000
12970 6356 16056 1 149.00000 418.400000
13411 6357 14500 1 149.00000 418.400000
13412 6358 14168 1 149.00000 418.400000
13412 6359 15524 1 149.00000 418.400000
13413 6360 16076 1 149.00000 418.400000
14229 6361 15864 1 149.00000 418.400000
13413 6362 15294 1 149.00000 418.400000
13413 6363 14229 1 149.00000 418.400000
13414 6364 18668 1 149.00000 418.400000
13414 6365 14622 1 149.00000 418.400000
13414 6366 16004 1 149.00000 418.400000
13414 6367 15005 1 149.00000 418.400000
13415 6368 13625 1 149.00000 418.400000
12831 6369 13415 1 149.00000 418.400000
13415 6370 14354 1 149.00000 418.400000
13416 6371 15502 1 149.00000 418.400000
13416 6372 14894 1 149.00000 418.400000
13416 6373 15722 1 149.00000 418.400000
13417 6374 16809 1 149.00000 418.400000
13417 6375 15854 1 149.00000 418.400000
13418 6376 15306 1 149.00000 418.400000
13418 6377 15538 1 149.00000 418.400000
13419 6378 16367 1 149.00000 418.400000
13419 6379 18662 1 149.00000 418.400000
13419 6380 14734 1 149.00000 418.400000
13420 6381 16640 1 149.00000 418.400000
13421 6382 15649 1 149.00000 418.400000
13422 6383 18596 1 149.00000 418.400000
13422 6384 14799 1 149.00000 418.400000
14362 6385 18569 1 149.00000 418.400000
18569 6386 19028 1 149.00000 418.400000
13423 6387 14116 1 149.00000 418.400000
13423 6388 14618 1 149.00000 418.400000
13423 6389 15045 1 149.00000 418.400000
13423 6390 16324 1 149.00000 418.400000
13424 6391 16140 1 149.00000 418.400000
13424 6392 13430 1 149.00000 418.400000
13424 6393 16709 1 149.00000 418.400000
13424 6394 16841 1 149.00000 418.400000
13425 6395 13696 1 149.00000 418.400000
13425 6396 15904 1 149.00000 418.400000
13425 6397 14746 1 149.00000 418.400000
13426 6398 13567 1 149.00000 418.400000
13426 6399 16100 1 149.00000 418.400000
13567 6400 15164 1 149.00000 418.400000
15252 6401 16591 1 149.00000 418.400000
13427 6402 14077 1 149.00000 418.400000
13427 6403 15220 1 149.00000 418.400000
13428 6404 16866 1 149.00000 418.400000
13428 6405 15482 1 149.00000 418.400000
13428 6406 13442 1 149.00000 418.400000
13429 6407 13847 1 149.00000 418.400000
13429 6408 16391 1 149.00000 418.400000
13430 6409 15230 1 149.00000 418.400000
13431 6410 13857 1 149.00000 418.400000
13431 6411 16172 1 149.00000 418.400000
14903 6412 16168 1 149.00000 418.400000
14878 6413 16168 1 149.00000 418.400000
13432 6414 16168 1 149.00000 418.400000
13433 6415 15262 1 149.00000 418.400000
13434 6416 16584 1 149.00000 418.400000
15984 6417 16150 1 149.00000 418.400000
13434 6418 16150 1 149.00000 418.400000
13435 6419 13752 1 149.00000 418.400000
13435 6420 16513 1 149.00000 418.400000
13436 6421 14630 1 149.00000 418.400000
13436 6422 15929 1 149.00000 418.400000
13437 6423 13582 1 149.00000 418.400000
13438 6424 14359 1 149.00000 418.400000
13438 6425 19010 1 149.00000 418.400000
13438 6426 14520 1 149.00000 418.400000
13438 6427 17771 1 149.00000 418.400000
13439 6428 16113 1 149.00000 418.400000
13439 6429 14763 1 149.00000 418.400000
13440 6430 15817 1 149.00000 418.400000
13440 6431 13862 1 149.00000 418.400000
13441 6432 16417 1 149.00000 418.400000
13441 6433 13880 1 149.00000 418.400000
13442 6434 15139 1 149.00000 418.400000
13442 6435 15606 1 149.00000 418.400000
13442 6436 15447 1 149.00000 418.400000
15606 6437 16739 1 149.00000 418.400000
13443 6438 14218 1 149.00000 418.400000
13443 6439 14497 1 149.00000 418.400000
13444 6440 15613 1 149.00000 418.400000
13444 6441 16242 1 149.00000 418.400000
13444 6442 15874 1 149.00000 418.400000
13445 6443 13968 1 149.00000 418.400000
13445 6444 13741 1 149.00000 418.400000
13445 6445 13818 1 149.00000 418.400000
13445 6446 14149 1 149.00000 418.400000
13446 6447 13871 1 149.00000 418.400000
13446 6448 14212 1 149.00000 418.400000
13446 6449 14235 1 149.00000 418.400000
13447 6450 13877 1 149.00000 418.400000
13447 6451 15160 1 149.00000 418.400000
13447 6452 18926 1 149.00000 418.400000
13448 6453 14808 1 149.00000 418.400000
13448 6454 15865 1 149.00000 418.400000
13448 6455 16101 1 149.00000 418.400000
13449 6456 14126 1 149.00000 418.400000
13449 6457 13528 1 149.00000 418.400000
13449 6458 14463 1 149.00000 418.400000
13449 6459 16302 1 149.00000 418.400000
13450 6460 14756 1 149.00000 418.400000
13450 6461 14076 1 149.00000 418.400000
13450 6462 14370 1 149.00000 418.400000
13450 6463 15582 1 149.00000 418.400000
13451 6464 14784 1 149.00000 418.400000
13451 6465 15644 1 149.00000 418.400000
13451 6466 16178 1 149.00000 418.400000
13452 6467 15694 1 149.00000 418.400000
12631 6468 14234 1 149.00000 418.400000
13453 6469 14114 1 149.00000 418.400000
12631 6470 15024 1 149.00000 418.400000
13454 6471 14280 1 149.00000 418.400000
13454 6472 14824 1 149.00000 418.400000
13455 6473 16024 1 149.00000 418.400000
13455 6474 15650 1 149.00000 418.400000
13455 6475 16115 1 149.00000 418.400000
13456 6476 13628 1 149.00000 418.400000
13456 6477 15186 1 149.00000 418.400000
13456 6478 15870 1 149.00000 418.400000
13001 6479 13457 1 149.00000 418.400000
13458 6480 16214 1 149.00000 418.400000
13458 6481 14205 1 149.00000 418.400000
13458 6482 15379 1 149.00000 418.400000
13459 6483 15214 1 149.00000 418.400000
13459 6484 15892 1 149.00000 418.400000
13459 6485 14616 1 149.00000 418.400000
18575 6486 18647 1 149.00000 418.400000
14653 6487 18575 1 149.00000 418.400000
14587 6488 14653 1 149.00000 418.400000
13460 6489 15014 1 149.00000 418.400000
13461 6490 14259 1 149.00000 418.400000
13461 6491 15764 1 149.00000 418.400000
12419 6492 15489 1 149.00000 418.400000
13462 6493 14755 1 149.00000 418.400000
13462 6494 16505 1 149.00000 418.400000
13462 6495 15949 1 149.00000 418.400000
12211 6496 13462 1 149.00000 418.400000
13463 6497 14196 1 149.00000 418.400000
13463 6498 15128 1 149.00000 418.400000
13463 6499 14645 1 149.00000 418.400000
13463 6500 16794 1 149.00000 418.400000
13464 6501 15165 1 149.00000 418.400000
13464 6502 13592 1 149.00000 418.400000
13465 6503 14487 1 149.00000 418.400000
13465 6504 16376 1 149.00000 418.400000
13466 6505 16682 1 149.00000 418.400000
13466 6506 13795 1 149.00000 418.400000
13467 6507 16066 1 149.00000 418.400000
13468 6508 15407 1 149.00000 418.400000
13468 6509 15374 1 149.00000 418.400000
13468 6510 13732 1 149.00000 418.400000
13468 6511 14948 1 149.00000 418.400000
13469 6512 16763 1 149.00000 418.400000
13470 6513 16010 1 149.00000 418.400000
13470 6514 15302 1 149.00000 418.400000
13471 6515 14080 1 149.00000 418.400000
13471 6516 15978 1 149.00000 418.400000
13472 6517 18950 1 149.00000 418.400000
13472 6518 13761 1 149.00000 418.400000
15187 6519 18950 1 149.00000 418.400000
13474 6520 16605 1 149.00000 418.400000
13474 6521 14480 1 149.00000 418.400000
13475 6522 13556 1 149.00000 418.400000
13475 6523 15674 1 149.00000 418.400000
13475 6524 14279 1 149.00000 418.400000
13476 6525 16676 1 149.00000 418.400000
14282 6526 18578 1 149.00000 418.400000
13477 6527 13654 1 149.00000 418.400000
13477 6528 14424 1 149.00000 418.400000
13477 6529 16889 1 149.00000 418.400000
13478 6530 16816 1 149.00000 418.400000
13478 6531 16362 1 149.00000 418.400000
13479 6532 14262 1 149.00000 418.400000
13479 6533 18803 1 149.00000 418.400000
13479 6534 13758 1 149.00000 418.400000
13479 6535 13525 1 149.00000 418.400000
13480 6536 14414 1 149.00000 418.400000
13480 6537 14032 1 149.00000 418.400000
13481 6538 16838 1 149.00000 418.400000
13481 6539 14805 1 149.00000 418.400000
13483 6540 15771 1 149.00000 418.400000
13483 6541 15940 1 149.00000 418.400000
13483 6542 14776 1 149.00000 418.400000
13483 6543 16784 1 149.00000 418.400000
13484 6544 13612 1 149.00000 418.400000
13484 6545 14228 1 149.00000 418.400000
14228 6546 14778 1 149.00000 418.400000
11805 6547 14037 1 149.00000 418.400000
11805 6548 16045 1 149.00000 418.400000
11805 6549 16006 1 149.00000 418.400000
13486 6550 14465 1 149.00000 418.400000
13486 6551 14006 1 149.00000 418.400000
14006 6552 16262 1 149.00000 418.400000
13487 6553 13837 1 149.00000 418.400000
13487 6554 15599 1 149.00000 418.400000
11703 6555 13488 1 149.00000 418.400000
16339 6556 17843 1 149.00000 418.400000
17843 6557 18593 1 149.00000 418.400000
13489 6558 14987 1 149.00000 418.400000
13490 6559 16714 1 149.00000 418.400000
13490 6560 13502 1 149.00000 418.400000
13490 6561 14700 1 149.00000 418.400000
13490 6562 16915 1 149.00000 418.400000
13491 6563 15384 1 149.00000 418.400000
13491 6564 16378 1 149.00000 418.400000
13491 6565 15277 1 149.00000 418.400000
16401 6566 18581 1 149.00000 418.400000
16697 6567 18581 1 149.00000 418.400000
18581 6568 18758 1 149.00000 418.400000
15251 6569 18584 1 149.00000 418.400000
16494 6570 18584 1 149.00000 418.400000
13492 6571 16578 1 149.00000 418.400000
15300 6572 18587 1 149.00000 418.400000
15640 6573 18587 1 149.00000 418.400000
13949 6574 15300 1 149.00000 418.400000
13493 6575 16756 1 149.00000 418.400000
13493 6576 15449 1 149.00000 418.400000
13493 6577 15655 1 149.00000 418.400000
13494 6578 16771 1 149.00000 418.400000
13494 6579 15505 1 149.00000 418.400000
13494 6580 13959 1 149.00000 418.400000
13495 6581 16198 1 149.00000 418.400000
13496 6582 15483 1 149.00000 418.400000
13496 6583 14003 1 149.00000 418.400000
13496 6584 16294 1 149.00000 418.400000
13496 6585 15252 1 149.00000 418.400000
13497 6586 15477 1 149.00000 418.400000
15477 6587 16262 1 149.00000 418.400000
14255 6588 15146 1 149.00000 418.400000
13498 6589 15146 1 149.00000 418.400000
13498 6590 15053 1 149.00000 418.400000
13498 6591 14152 1 149.00000 418.400000
13499 6592 13997 1 149.00000 418.400000
13499 6593 13549 1 149.00000 418.400000
13500 6594 15962 1 149.00000 418.400000
13500 6595 18941 1 149.00000 418.400000
13500 6596 15793 1 149.00000 418.400000
13501 6597 16290 1 149.00000 418.400000
13501 6598 14918 1 149.00000 418.400000
13501 6599 14165 1 149.00000 418.400000
13502 6600 14426 1 149.00000 418.400000
13502 6601 15142 1 149.00000 418.400000
13503 6602 15245 1 149.00000 418.400000
13503 6603 15859 1 149.00000 418.400000
13503 6604 15121 1 149.00000 418.400000
13503 6605 16082 1 149.00000 418.400000
13504 6606 14733 1 149.00000 418.400000
13504 6607 15079 1 149.00000 418.400000
13505 6608 14861 1 149.00000 418.400000
13505 6609 14559 1 149.00000 418.400000
13505 6610 15608 1 149.00000 418.400000
13505 6611 14076 1 149.00000 418.400000
13506 6612 15711 1 149.00000 418.400000
13506 6613 15066 1 149.00000 418.400000
13506 6614 16055 1 149.00000 418.400000
13507 6615 18827 1 149.00000 418.400000
13498 6616 13507 1 149.00000 418.400000
13507 6617 16503 1 149.00000 418.400000
13508 6618 15158 1 149.00000 418.400000
13508 6619 16238 1 149.00000 418.400000
13509 6620 14640 1 149.00000 418.400000
13509 6621 16556 1 149.00000 418.400000
13951 6622 14640 1 149.00000 418.400000
13510 6623 15657 1 149.00000 418.400000
13510 6624 15303 1 149.00000 418.400000
13511 6625 15916 1 149.00000 418.400000
13511 6626 15248 1 149.00000 418.400000
13511 6627 16054 1 149.00000 418.400000
13511 6628 15734 1 149.00000 418.400000
13512 6629 15668 1 149.00000 418.400000
13512 6630 15223 1 149.00000 418.400000
13513 6631 14808 1 149.00000 418.400000
13513 6632 16166 1 149.00000 418.400000
13515 6633 14599 1 149.00000 418.400000
13515 6634 15532 1 149.00000 418.400000
13515 6635 14796 1 149.00000 418.400000
13516 6636 14506 1 149.00000 418.400000
13516 6637 14715 1 149.00000 418.400000
13516 6638 16291 1 149.00000 418.400000
13517 6639 13839 1 149.00000 418.400000
13518 6640 16544 1 149.00000 418.400000
13518 6641 14474 1 149.00000 418.400000
13518 6642 15508 1 149.00000 418.400000
18590 6643 18824 1 149.00000 418.400000
13519 6644 16387 1 149.00000 418.400000
13381 6645 13519 1 149.00000 418.400000
13519 6646 18677 1 149.00000 418.400000
15357 6647 18593 1 149.00000 418.400000
13520 6648 16837 1 149.00000 418.400000
13520 6649 14941 1 149.00000 418.400000
13520 6650 18236 1 149.00000 418.400000
13521 6651 13921 1 149.00000 418.400000
13521 6652 14002 1 149.00000 418.400000
13521 6653 15453 1 149.00000 418.400000
13521 6654 16321 1 149.00000 418.400000
13522 6655 13636 1 149.00000 418.400000
13522 6656 13848 1 149.00000 418.400000
13522 6657 14199 1 149.00000 418.400000
14923 6658 18596 1 149.00000 418.400000
13523 6659 16476 1 149.00000 418.400000
13523 6660 13772 1 149.00000 418.400000
13523 6661 14683 1 149.00000 418.400000
13524 6662 14018 1 149.00000 418.400000
13524 6663 15057 1 149.00000 418.400000
13525 6664 15613 1 149.00000 418.400000
13525 6665 14878 1 149.00000 418.400000
13526 6666 18704 1 149.00000 418.400000
13526 6667 15865 1 149.00000 418.400000
13527 6668 13914 1 149.00000 418.400000
13527 6669 14908 1 149.00000 418.400000
13527 6670 16061 1 149.00000 418.400000
13528 6671 14992 1 149.00000 418.400000
13528 6672 15277 1 149.00000 418.400000
13529 6673 16886 1 149.00000 418.400000
13529 6674 16116 1 149.00000 418.400000
13529 6675 14904 1 149.00000 418.400000
13530 6676 13657 1 149.00000 418.400000
13530 6677 16998 1 149.00000 418.400000
13530 6678 13686 1 149.00000 418.400000
13531 6679 16299 1 149.00000 418.400000
13531 6680 16422 1 149.00000 418.400000
13531 6681 15951 1 149.00000 418.400000
13531 6682 15340 1 149.00000 418.400000
13532 6683 14112 1 149.00000 418.400000
13533 6684 16148 1 149.00000 418.400000
13534 6685 15916 1 149.00000 418.400000
13534 6686 14522 1 149.00000 418.400000
13535 6687 13856 1 149.00000 418.400000
13536 6688 16900 1 149.00000 418.400000
13536 6689 14692 1 149.00000 418.400000
13536 6690 15270 1 149.00000 418.400000
13537 6691 13661 1 149.00000 418.400000
13537 6692 15829 1 149.00000 418.400000
13537 6693 16758 1 149.00000 418.400000
13537 6694 15124 1 149.00000 418.400000
13538 6695 14470 1 149.00000 418.400000
13538 6696 13961 1 149.00000 418.400000
13538 6697 13624 1 149.00000 418.400000
13538 6698 16777 1 149.00000 418.400000
13539 6699 15346 1 149.00000 418.400000
13539 6700 16052 1 149.00000 418.400000
13539 6701 14466 1 149.00000 418.400000
13539 6702 14139 1 149.00000 418.400000
13540 6703 14821 1 149.00000 418.400000
14821 6704 16913 1 149.00000 418.400000
13541 6705 15939 1 149.00000 418.400000
13541 6706 13851 1 149.00000 418.400000
13542 6707 14360 1 149.00000 418.400000
13542 6708 14651 1 149.00000 418.400000
13543 6709 14457 1 149.00000 418.400000
13543 6710 15832 1 149.00000 418.400000
13544 6711 16319 1 149.00000 418.400000
13545 6712 15751 1 149.00000 418.400000
13545 6713 14872 1 149.00000 418.400000
13545 6714 17009 1 149.00000 418.400000
12945 6715 13545 1 149.00000 418.400000
13546 6716 13904 1 149.00000 418.400000
13547 6717 15029 1 149.00000 418.400000
13547 6718 16418 1 149.00000 418.400000
13547 6719 14488 1 149.00000 418.400000
13547 6720 14191 1 149.00000 418.400000
13548 6721 14330 1 149.00000 418.400000
13548 6722 16398 1 149.00000 418.400000
13548 6723 14312 1 149.00000 418.400000
13549 6724 16323 1 149.00000 418.400000
14760 6725 19115 1 149.00000 418.400000
14859 6726 17699 1 149.00000 418.400000
13550 6727 15429 1 149.00000 418.400000
13550 6728 15645 1 149.00000 418.400000
13551 6729 15998 1 149.00000 418.400000
13551 6730 15365 1 149.00000 418.400000
13551 6731 16834 1 149.00000 418.400000
13552 6732 13666 1 149.00000 418.400000
13552 6733 18935 1 149.00000 418.400000
15077 6734 19007 1 149.00000 418.400000
16966 6735 19007 1 149.00000 418.400000
13553 6736 14877 1 149.00000 418.400000
12031 6737 18791 1 149.00000 418.400000
13554 6738 15780 1 149.00000 418.400000
13554 6739 14425 1 149.00000 418.400000
13554 6740 15364 1 149.00000 418.400000
15432 6741 18599 1 149.00000 418.400000
14235 6742 18599 1 149.00000 418.400000
13555 6743 15103 1 149.00000 418.400000
13555 6744 16115 1 149.00000 418.400000
13555 6745 16072 1 149.00000 418.400000
13556 6746 18839 1 149.00000 418.400000
13556 6747 13756 1 149.00000 418.400000
13557 6748 16702 1 149.00000 418.400000
13557 6749 13724 1 149.00000 418.400000
13557 6750 14051 1 149.00000 418.400000
13557 6751 16893 1 149.00000 418.400000
13558 6752 17003 1 149.00000 418.400000
13558 6753 14009 1 149.00000 418.400000
13558 6754 13809 1 149.00000 418.400000
13558 6755 13930 1 149.00000 418.400000
13559 6756 14978 1 149.00000 418.400000
13559 6757 14805 1 149.00000 418.400000
13560 6758 15700 1 149.00000 418.400000
13561 6759 14389 1 149.00000 418.400000
13561 6760 16207 1 149.00000 418.400000
13561 6761 13909 1 149.00000 418.400000
13806 6762 15805 1 149.00000 418.400000
15783 6763 15805 1 149.00000 418.400000
13562 6764 16963 1 149.00000 418.400000
13847 6765 15615 1 149.00000 418.400000
13563 6766 16635 1 149.00000 418.400000
13563 6767 15615 1 149.00000 418.400000
12508 6768 13564 1 149.00000 418.400000
13564 6769 14360 1 149.00000 418.400000
13564 6770 14723 1 149.00000 418.400000
13565 6771 15708 1 149.00000 418.400000
13565 6772 16125 1 149.00000 418.400000
13565 6773 15783 1 149.00000 418.400000
13566 6774 14631 1 149.00000 418.400000
13566 6775 16702 1 149.00000 418.400000
13566 6776 16768 1 149.00000 418.400000
13567 6777 14717 1 149.00000 418.400000
13426 6778 16839 1 149.00000 418.400000
13567 6779 14816 1 149.00000 418.400000
14490 6780 16144 1 149.00000 418.400000
13568 6781 14490 1 149.00000 418.400000
13568 6782 16677 1 149.00000 418.400000
13570 6783 16224 1 149.00000 418.400000
13570 6784 16246 1 149.00000 418.400000
12224 6785 16005 1 149.00000 418.400000
13571 6786 15118 1 149.00000 418.400000
16005 6787 17017 1 149.00000 418.400000
13572 6788 14057 1 149.00000 418.400000
13572 6789 13989 1 149.00000 418.400000
13572 6790 14953 1 149.00000 418.400000
13573 6791 13822 1 149.00000 418.400000
13573 6792 15494 1 149.00000 418.400000
13573 6793 14627 1 149.00000 418.400000
12536 6794 15088 1 149.00000 418.400000
13574 6795 16150 1 149.00000 418.400000
13575 6796 16882 1 149.00000 418.400000
13575 6797 14719 1 149.00000 418.400000
13576 6798 15143 1 149.00000 418.400000
13576 6799 16406 1 149.00000 418.400000
13576 6800 14085 1 149.00000 418.400000
13577 6801 16689 1 149.00000 418.400000
13577 6802 13596 1 149.00000 418.400000
13577 6803 16279 1 149.00000 418.400000
13578 6804 16855 1 149.00000 418.400000
13578 6805 16710 1 149.00000 418.400000
13578 6806 15899 1 149.00000 418.400000
13579 6807 16036 1 149.00000 418.400000
13579 6808 14161 1 149.00000 418.400000
13579 6809 16964 1 149.00000 418.400000
13047 6810 13701 1 149.00000 418.400000
13581 6811 16736 1 149.00000 418.400000
13582 6812 16277 1 149.00000 418.400000
13583 6813 14818 1 149.00000 418.400000
13583 6814 15519 1 149.00000 418.400000
12916 6815 13584 1 149.00000 418.400000
13584 6816 15927 1 149.00000 418.400000
13585 6817 15445 1 149.00000 418.400000
13585 6818 15863 1 149.00000 418.400000
13586 6819 15241 1 149.00000 418.400000
13223 6820 13586 1 149.00000 418.400000
13586 6821 16666 1 149.00000 418.400000
13486 6822 13586 1 149.00000 418.400000
13587 6823 16705 1 149.00000 418.400000
13587 6824 16551 1 149.00000 418.400000
13589 6825 14923 1 149.00000 418.400000
13589 6826 16060 1 149.00000 418.400000
13589 6827 17427 1 149.00000 418.400000
13590 6828 16360 1 149.00000 418.400000
13590 6829 16891 1 149.00000 418.400000
13590 6830 15831 1 149.00000 418.400000
13591 6831 13634 1 149.00000 418.400000
13591 6832 14404 1 149.00000 418.400000
13592 6833 16157 1 149.00000 418.400000
13592 6834 14272 1 149.00000 418.400000
13593 6835 16031 1 149.00000 418.400000
14544 6836 14889 1 149.00000 418.400000
13593 6837 14889 1 149.00000 418.400000
13594 6838 16967 1 149.00000 418.400000
13594 6839 15038 1 149.00000 418.400000
13595 6840 15231 1 149.00000 418.400000
13596 6841 15176 1 149.00000 418.400000
13596 6842 15161 1 149.00000 418.400000
13597 6843 18923 1 149.00000 418.400000
13597 6844 13895 1 149.00000 418.400000
13598 6845 15175 1 149.00000 418.400000
13598 6846 14811 1 149.00000 418.400000
13598 6847 15995 1 149.00000 418.400000
13598 6848 16450 1 149.00000 418.400000
13599 6849 15854 1 149.00000 418.400000
13599 6850 15303 1 149.00000 418.400000
13599 6851 14034 1 149.00000 418.400000
11745 6852 13600 1 149.00000 418.400000
12148 6853 13600 1 149.00000 418.400000
13601 6854 15803 1 149.00000 418.400000
13601 6855 16132 1 149.00000 418.400000
13602 6856 16151 1 149.00000 418.400000
13602 6857 14744 1 149.00000 418.400000
13602 6858 15742 1 149.00000 418.400000
13602 6859 16025 1 149.00000 418.400000
13603 6860 16084 1 149.00000 418.400000
12603 6861 16786 1 149.00000 418.400000
13603 6862 14929 1 149.00000 418.400000
13604 6863 16586 1 149.00000 418.400000
13605 6864 16331 1 149.00000 418.400000
13605 6865 15406 1 149.00000 418.400000
13605 6866 16709 1 149.00000 418.400000
14443 6867 16915 1 149.00000 418.400000
13606 6868 15142 1 149.00000 418.400000
13606 6869 14443 1 149.00000 418.400000
13607 6870 15291 1 149.00000 418.400000
13607 6871 15071 1 149.00000 418.400000
13608 6872 16240 1 149.00000 418.400000
13608 6873 15039 1 149.00000 418.400000
13608 6874 16538 1 149.00000 418.400000
13609 6875 14629 1 149.00000 418.400000
13609 6876 14378 1 149.00000 418.400000
13609 6877 16344 1 149.00000 418.400000
13610 6878 15245 1 149.00000 418.400000
13610 6879 16040 1 149.00000 418.400000
13611 6880 16925 1 149.00000 418.400000
13611 6881 15278 1 149.00000 418.400000
13611 6882 14200 1 149.00000 418.400000
12264 6883 13612 1 149.00000 418.400000
13612 6884 14592 1 149.00000 418.400000
13613 6885 16126 1 149.00000 418.400000
13613 6886 16692 1 149.00000 418.400000
13614 6887 14189 1 149.00000 418.400000
13615 6888 13977 1 149.00000 418.400000
13616 6889 18806 1 149.00000 418.400000
13616 6890 14154 1 149.00000 418.400000
13617 6891 16217 1 149.00000 418.400000
13617 6892 18854 1 149.00000 418.400000
13618 6893 14463 1 149.00000 418.400000
13618 6894 15066 1 149.00000 418.400000
13619 6895 14938 1 149.00000 418.400000
13619 6896 15669 1 149.00000 418.400000
15669 6897 15883 1 149.00000 418.400000
13619 6898 15927 1 149.00000 418.400000
13620 6899 18728 1 149.00000 418.400000
13620 6900 16035 1 149.00000 418.400000
15972 6901 18602 1 149.00000 418.400000
13621 6902 15073 1 149.00000 418.400000
13621 6903 14340 1 149.00000 418.400000
13621 6904 15421 1 149.00000 418.400000
13622 6905 14095 1 149.00000 418.400000
13623 6906 13798 1 149.00000 418.400000
13623 6907 16176 1 149.00000 418.400000
13623 6908 16080 1 149.00000 418.400000
13623 6909 15836 1 149.00000 418.400000
13624 6910 14435 1 149.00000 418.400000
13625 6911 15414 1 149.00000 418.400000
13625 6912 13849 1 149.00000 418.400000
13626 6913 18974 1 149.00000 418.400000
13626 6914 15133 1 149.00000 418.400000
13626 6915 16883 1 149.00000 418.400000
13627 6916 13847 1 149.00000 418.400000
13627 6917 14943 1 149.00000 418.400000
13628 6918 14632 1 149.00000 418.400000
13628 6919 15369 1 149.00000 418.400000
13628 6920 15484 1 149.00000 418.400000
16759 6921 17133 1 149.00000 418.400000
13629 6922 14167 1 149.00000 418.400000
13629 6923 14722 1 149.00000 418.400000
14722 6924 18734 1 149.00000 418.400000
13630 6925 13856 1 149.00000 418.400000
15269 6926 18605 1 149.00000 418.400000
13631 6927 15446 1 149.00000 418.400000
13631 6928 15465 1 149.00000 418.400000
13631 6929 15695 1 149.00000 418.400000
13632 6930 14257 1 149.00000 418.400000
13633 6931 16616 1 149.00000 418.400000
13633 6932 18737 1 149.00000 418.400000
13634 6933 14377 1 149.00000 418.400000
13634 6934 15824 1 149.00000 418.400000
13635 6935 14418 1 149.00000 418.400000
13635 6936 15417 1 149.00000 418.400000
13635 6937 15779 1 149.00000 418.400000
13636 6938 15782 1 149.00000 418.400000
13636 6939 16227 1 149.00000 418.400000
13636 6940 14315 1 149.00000 418.400000
13637 6941 16102 1 149.00000 418.400000
13637 6942 16044 1 149.00000 418.400000
13637 6943 13930 1 149.00000 418.400000
13638 6944 16416 1 149.00000 418.400000
13638 6945 15110 1 149.00000 418.400000
13639 6946 14457 1 149.00000 418.400000
13639 6947 16340 1 149.00000 418.400000
14761 6948 15259 1 149.00000 418.400000
15259 6949 15447 1 149.00000 418.400000
13640 6950 15259 1 149.00000 418.400000
13641 6951 15997 1 149.00000 418.400000
13641 6952 13894 1 149.00000 418.400000
13641 6953 16085 1 149.00000 418.400000
13641 6954 15996 1 149.00000 418.400000
13642 6955 16851 1 149.00000 418.400000
13642 6956 15158 1 149.00000 418.400000
13642 6957 13995 1 149.00000 418.400000
13643 6958 16390 1 149.00000 418.400000
12654 6959 16999 1 149.00000 418.400000
13644 6960 14613 1 149.00000 418.400000
13616 6961 13645 1 149.00000 418.400000
13646 6962 15073 1 149.00000 418.400000
13646 6963 13980 1 149.00000 418.400000
13980 6964 14810 1 149.00000 418.400000
13891 6965 15562 1 149.00000 418.400000
13647 6966 15351 1 149.00000 418.400000
13647 6967 15562 1 149.00000 418.400000
13648 6968 15200 1 149.00000 418.400000
15200 6969 15684 1 149.00000 418.400000
13649 6970 15145 1 149.00000 418.400000
12541 6971 13883 1 149.00000 418.400000
13650 6972 14804 1 149.00000 418.400000
13650 6973 14593 1 149.00000 418.400000
13650 6974 16323 1 149.00000 418.400000
13651 6975 15659 1 149.00000 418.400000
13651 6976 14932 1 149.00000 418.400000
13651 6977 13888 1 149.00000 418.400000
15044 6978 18608 1 149.00000 418.400000
13652 6979 16389 1 149.00000 418.400000
13652 6980 14803 1 149.00000 418.400000
13652 6981 15780 1 149.00000 418.400000
13654 6982 15368 1 149.00000 418.400000
13654 6983 15605 1 149.00000 418.400000
13655 6984 14853 1 149.00000 418.400000
13655 6985 15632 1 149.00000 418.400000
13655 6986 14004 1 149.00000 418.400000
13656 6987 16415 1 149.00000 418.400000
13656 6988 15809 1 149.00000 418.400000
13657 6989 13889 1 149.00000 418.400000
13657 6990 15361 1 149.00000 418.400000
13658 6991 15967 1 149.00000 418.400000
13658 6992 16643 1 149.00000 418.400000
13659 6993 16480 1 149.00000 418.400000
13659 6994 16743 1 149.00000 418.400000
13660 6995 14195 1 149.00000 418.400000
13660 6996 14807 1 149.00000 418.400000
13661 6997 18968 1 149.00000 418.400000
13662 6998 14318 1 149.00000 418.400000
13662 6999 13909 1 149.00000 418.400000
13663 7000 16139 1 149.00000 418.400000
14127 7001 18611 1 149.00000 418.400000
11717 7002 13664 1 149.00000 418.400000
13665 7003 16089 1 149.00000 418.400000
13665 7004 16608 1 149.00000 418.400000
13665 7005 15820 1 149.00000 418.400000
13666 7006 15858 1 149.00000 418.400000
13667 7007 15491 1 149.00000 418.400000
13667 7008 16778 1 149.00000 418.400000
13667 7009 15056 1 149.00000 418.400000
13668 7010 14665 1 149.00000 418.400000
13668 7011 16040 1 149.00000 418.400000
13668 7012 15263 1 149.00000 418.400000
13669 7013 15401 1 149.00000 418.400000
13669 7014 14683 1 149.00000 418.400000
13669 7015 16476 1 149.00000 418.400000
13669 7016 16015 1 149.00000 418.400000
13670 7017 15991 1 149.00000 418.400000
13670 7018 16816 1 149.00000 418.400000
13671 7019 14972 1 149.00000 418.400000
13671 7020 17287 1 149.00000 418.400000
13672 7021 16352 1 149.00000 418.400000
13672 7022 13822 1 149.00000 418.400000
13672 7023 16824 1 149.00000 418.400000
13673 7024 16119 1 149.00000 418.400000
13673 7025 14435 1 149.00000 418.400000
13673 7026 15959 1 149.00000 418.400000
13673 7027 16286 1 149.00000 418.400000
13674 7028 14189 1 149.00000 418.400000
13674 7029 15396 1 149.00000 418.400000
13674 7030 16768 1 149.00000 418.400000
13674 7031 13724 1 149.00000 418.400000
13675 7032 16180 1 149.00000 418.400000
13675 7033 16333 1 149.00000 418.400000
13675 7034 14793 1 149.00000 418.400000
13676 7035 14406 1 149.00000 418.400000
13676 7036 15598 1 149.00000 418.400000
13676 7037 19076 1 149.00000 418.400000
13678 7038 16591 1 149.00000 418.400000
13678 7039 15521 1 149.00000 418.400000
13678 7040 14731 1 149.00000 418.400000
13678 7041 16658 1 149.00000 418.400000
13679 7042 15715 1 149.00000 418.400000
13679 7043 15591 1 149.00000 418.400000
13680 7044 14747 1 149.00000 418.400000
13680 7045 14610 1 149.00000 418.400000
13680 7046 15614 1 149.00000 418.400000
13681 7047 16411 1 149.00000 418.400000
13681 7048 14094 1 149.00000 418.400000
13681 7049 14588 1 149.00000 418.400000
13681 7050 15151 1 149.00000 418.400000
13682 7051 15372 1 149.00000 418.400000
13683 7052 16452 1 149.00000 418.400000
13684 7053 14540 1 149.00000 418.400000
13684 7054 13966 1 149.00000 418.400000
13685 7055 16942 1 149.00000 418.400000
13686 7056 16964 1 149.00000 418.400000
13686 7057 14562 1 149.00000 418.400000
13687 7058 14313 1 149.00000 418.400000
13687 7059 14533 1 149.00000 418.400000
13687 7060 16468 1 149.00000 418.400000
13688 7061 14628 1 149.00000 418.400000
13688 7062 15583 1 149.00000 418.400000
14628 7063 16098 1 149.00000 418.400000
13688 7064 14512 1 149.00000 418.400000
13689 7065 15838 1 149.00000 418.400000
13689 7066 17161 1 149.00000 418.400000
13690 7067 14823 1 149.00000 418.400000
13690 7068 16141 1 149.00000 418.400000
13690 7069 15351 1 149.00000 418.400000
13690 7070 14623 1 149.00000 418.400000
13691 7071 16225 1 149.00000 418.400000
13691 7072 16771 1 149.00000 418.400000
13691 7073 19165 1 149.00000 418.400000
13692 7074 15335 1 149.00000 418.400000
13692 7075 14353 1 149.00000 418.400000
13692 7076 16119 1 149.00000 418.400000
13693 7077 15179 1 149.00000 418.400000
13693 7078 15786 1 149.00000 418.400000
13694 7079 16322 1 149.00000 418.400000
13694 7080 14918 1 149.00000 418.400000
13694 7081 15667 1 149.00000 418.400000
14918 7082 16523 1 149.00000 418.400000
13695 7083 14871 1 149.00000 418.400000
13695 7084 13860 1 149.00000 418.400000
12596 7085 13696 1 149.00000 418.400000
13696 7086 15209 1 149.00000 418.400000
13697 7087 14914 1 149.00000 418.400000
13697 7088 14448 1 149.00000 418.400000
13697 7089 14742 1 149.00000 418.400000
13698 7090 16407 1 149.00000 418.400000
13819 7091 16454 1 149.00000 418.400000
13698 7092 16454 1 149.00000 418.400000
13698 7093 13840 1 149.00000 418.400000
13699 7094 18950 1 149.00000 418.400000
13700 7095 16563 1 149.00000 418.400000
13700 7096 16186 1 149.00000 418.400000
13700 7097 16718 1 149.00000 418.400000
14923 7098 18614 1 149.00000 418.400000
13701 7099 14030 1 149.00000 418.400000
13701 7100 14917 1 149.00000 418.400000
13702 7101 15224 1 149.00000 418.400000
13702 7102 14986 1 149.00000 418.400000
13703 7103 14021 1 149.00000 418.400000
13703 7104 14442 1 149.00000 418.400000
13704 7105 16677 1 149.00000 418.400000
13704 7106 14721 1 149.00000 418.400000
13704 7107 15573 1 149.00000 418.400000
13705 7108 16460 1 149.00000 418.400000
13705 7109 15258 1 149.00000 418.400000
13705 7110 15438 1 149.00000 418.400000
13705 7111 16582 1 149.00000 418.400000
13706 7112 16989 1 149.00000 418.400000
13706 7113 18986 1 149.00000 418.400000
13706 7114 18839 1 149.00000 418.400000
13707 7115 15530 1 149.00000 418.400000
13707 7116 16263 1 149.00000 418.400000
13707 7117 15814 1 149.00000 418.400000
13708 7118 15007 1 149.00000 418.400000
13708 7119 15503 1 149.00000 418.400000
13708 7120 15293 1 149.00000 418.400000
13709 7121 16089 1 149.00000 418.400000
13709 7122 14214 1 149.00000 418.400000
13709 7123 13746 1 149.00000 418.400000
13710 7124 14974 1 149.00000 418.400000
13710 7125 16282 1 149.00000 418.400000
14974 7126 15004 1 149.00000 418.400000
13711 7127 18980 1 149.00000 418.400000
13711 7128 13905 1 149.00000 418.400000
13711 7129 13789 1 149.00000 418.400000
13711 7130 16511 1 149.00000 418.400000
13712 7131 16296 1 149.00000 418.400000
15096 7132 16296 1 149.00000 418.400000
13714 7133 15032 1 149.00000 418.400000
13714 7134 16854 1 149.00000 418.400000
13715 7135 13913 1 149.00000 418.400000
13715 7136 14058 1 149.00000 418.400000
13715 7137 15743 1 149.00000 418.400000
13716 7138 15176 1 149.00000 418.400000
13716 7139 15011 1 149.00000 418.400000
13716 7140 16422 1 149.00000 418.400000
18617 7141 18896 1 149.00000 418.400000
14671 7142 18617 1 149.00000 418.400000
13717 7143 13871 1 149.00000 418.400000
13057 7144 14703 1 149.00000 418.400000
13717 7145 15408 1 149.00000 418.400000
13718 7146 15011 1 149.00000 418.400000
13718 7147 16264 1 149.00000 418.400000
13718 7148 16394 1 149.00000 418.400000
13719 7149 15287 1 149.00000 418.400000
13719 7150 16857 1 149.00000 418.400000
13719 7151 13787 1 149.00000 418.400000
13720 7152 15436 1 149.00000 418.400000
13721 7153 14282 1 149.00000 418.400000
13721 7154 16775 1 149.00000 418.400000
13722 7155 16450 1 149.00000 418.400000
13722 7156 15599 1 149.00000 418.400000
13722 7157 16123 1 149.00000 418.400000
13723 7158 14783 1 149.00000 418.400000
13723 7159 14498 1 149.00000 418.400000
13723 7160 16412 1 149.00000 418.400000
13723 7161 15642 1 149.00000 418.400000
13724 7162 14036 1 149.00000 418.400000
13724 7163 16406 1 149.00000 418.400000
13725 7164 16323 1 149.00000 418.400000
13725 7165 14767 1 149.00000 418.400000
13725 7166 14690 1 149.00000 418.400000
13726 7167 15249 1 149.00000 418.400000
14933 7168 17627 1 149.00000 418.400000
14000 7169 17627 1 149.00000 418.400000
15662 7170 17627 1 149.00000 418.400000
13727 7171 15841 1 149.00000 418.400000
13728 7172 15804 1 149.00000 418.400000
13728 7173 14028 1 149.00000 418.400000
13728 7174 16201 1 149.00000 418.400000
13729 7175 16898 1 149.00000 418.400000
13729 7176 15177 1 149.00000 418.400000
12044 7177 13729 1 149.00000 418.400000
13730 7178 14010 1 149.00000 418.400000
13730 7179 15895 1 149.00000 418.400000
18620 7180 18776 1 149.00000 418.400000
13731 7181 13845 1 149.00000 418.400000
13731 7182 14101 1 149.00000 418.400000
13732 7183 16170 1 149.00000 418.400000
13733 7184 15302 1 149.00000 418.400000
13733 7185 14307 1 149.00000 418.400000
13734 7186 14007 1 149.00000 418.400000
13734 7187 16006 1 149.00000 418.400000
13734 7188 14128 1 149.00000 418.400000
13734 7189 13916 1 149.00000 418.400000
13735 7190 16593 1 149.00000 418.400000
13735 7191 14193 1 149.00000 418.400000
13735 7192 16716 1 149.00000 418.400000
13735 7193 13762 1 149.00000 418.400000
13206 7194 13736 1 149.00000 418.400000
13736 7195 16173 1 149.00000 418.400000
13738 7196 14929 1 149.00000 418.400000
13738 7197 16668 1 149.00000 418.400000
11968 7198 18623 1 149.00000 418.400000
13739 7199 16341 1 149.00000 418.400000
13739 7200 14905 1 149.00000 418.400000
13740 7201 14041 1 149.00000 418.400000
13740 7202 14649 1 149.00000 418.400000
13741 7203 15935 1 149.00000 418.400000
13741 7204 14972 1 149.00000 418.400000
13742 7205 15365 1 149.00000 418.400000
13742 7206 14666 1 149.00000 418.400000
13743 7207 15979 1 149.00000 418.400000
13743 7208 14089 1 149.00000 418.400000
13744 7209 13934 1 149.00000 418.400000
13746 7210 15863 1 149.00000 418.400000
13746 7211 16501 1 149.00000 418.400000
13746 7212 13948 1 149.00000 418.400000
13747 7213 14171 1 149.00000 418.400000
13748 7214 14536 1 149.00000 418.400000
13748 7215 14433 1 149.00000 418.400000
14536 7216 16723 1 149.00000 418.400000
18626 7217 18707 1 149.00000 418.400000
13749 7218 18743 1 149.00000 418.400000
13749 7219 18059 1 149.00000 418.400000
13749 7220 16023 1 149.00000 418.400000
13749 7221 16064 1 149.00000 418.400000
13750 7222 16282 1 149.00000 418.400000
13750 7223 13778 1 149.00000 418.400000
14489 7224 14577 1 149.00000 418.400000
13751 7225 14577 1 149.00000 418.400000
13751 7226 16820 1 149.00000 418.400000
13752 7227 14719 1 149.00000 418.400000
13753 7228 16301 1 149.00000 418.400000
13753 7229 16693 1 149.00000 418.400000
13753 7230 15131 1 149.00000 418.400000
13753 7231 13789 1 149.00000 418.400000
13754 7232 15262 1 149.00000 418.400000
13432 7233 13754 1 149.00000 418.400000
13754 7234 14878 1 149.00000 418.400000
13755 7235 14729 1 149.00000 418.400000
13755 7236 15132 1 149.00000 418.400000
15284 7237 16374 1 149.00000 418.400000
13756 7238 15049 1 149.00000 418.400000
13756 7239 14073 1 149.00000 418.400000
16513 7240 16946 1 149.00000 418.400000
13757 7241 16513 1 149.00000 418.400000
13757 7242 16978 1 149.00000 418.400000
13758 7243 14903 1 149.00000 418.400000
13758 7244 16646 1 149.00000 418.400000
13759 7245 16732 1 149.00000 418.400000
13759 7246 14686 1 149.00000 418.400000
13760 7247 13815 1 149.00000 418.400000
13760 7248 15551 1 149.00000 418.400000
13760 7249 13840 1 149.00000 418.400000
13760 7250 15336 1 149.00000 418.400000
13761 7251 14380 1 149.00000 418.400000
14158 7252 14380 1 149.00000 418.400000
13762 7253 13833 1 149.00000 418.400000
13763 7254 14139 1 149.00000 418.400000
13764 7255 14275 1 149.00000 418.400000
13764 7256 13973 1 149.00000 418.400000
16373 7257 17771 1 149.00000 418.400000
13765 7258 16903 1 149.00000 418.400000
13765 7259 16229 1 149.00000 418.400000
13766 7260 14983 1 149.00000 418.400000
13766 7261 15748 1 149.00000 418.400000
13767 7262 15093 1 149.00000 418.400000
13767 7263 16398 1 149.00000 418.400000
13767 7264 16252 1 149.00000 418.400000
12220 7265 13768 1 149.00000 418.400000
13768 7266 14578 1 149.00000 418.400000
13769 7267 15476 1 149.00000 418.400000
13770 7268 13777 1 149.00000 418.400000
14638 7269 15574 1 149.00000 418.400000
13772 7270 15574 1 149.00000 418.400000
13773 7271 13860 1 149.00000 418.400000
13773 7272 15719 1 149.00000 418.400000
13773 7273 14887 1 149.00000 418.400000
13773 7274 15797 1 149.00000 418.400000
13774 7275 14662 1 149.00000 418.400000
13774 7276 16140 1 149.00000 418.400000
14803 7277 16462 1 149.00000 418.400000
13775 7278 14987 1 149.00000 418.400000
13775 7279 16462 1 149.00000 418.400000
13775 7280 16727 1 149.00000 418.400000
13776 7281 15792 1 149.00000 418.400000
15405 7282 15792 1 149.00000 418.400000
13328 7283 13796 1 149.00000 418.400000
13777 7284 13803 1 149.00000 418.400000
13777 7285 18905 1 149.00000 418.400000
13777 7286 18746 1 149.00000 418.400000
13778 7287 16109 1 149.00000 418.400000
14573 7288 16109 1 149.00000 418.400000
13779 7289 16104 1 149.00000 418.400000
13779 7290 15480 1 149.00000 418.400000
16104 7291 16369 1 149.00000 418.400000
13780 7292 14737 1 149.00000 418.400000
13780 7293 15917 1 149.00000 418.400000
13780 7294 16487 1 149.00000 418.400000
13781 7295 14833 1 149.00000 418.400000
13781 7296 15055 1 149.00000 418.400000
13781 7297 14422 1 149.00000 418.400000
13783 7298 14326 1 149.00000 418.400000
13783 7299 15147 1 149.00000 418.400000
13783 7300 16569 1 149.00000 418.400000
14905 7301 18629 1 149.00000 418.400000
18629 7302 18740 1 149.00000 418.400000
13784 7303 15575 1 149.00000 418.400000
13784 7304 16946 1 149.00000 418.400000
13784 7305 15375 1 149.00000 418.400000
13785 7306 15667 1 149.00000 418.400000
13785 7307 14178 1 149.00000 418.400000
13413 7308 13785 1 149.00000 418.400000
13786 7309 16129 1 149.00000 418.400000
13786 7310 13844 1 149.00000 418.400000
13786 7311 16542 1 149.00000 418.400000
13786 7312 15790 1 149.00000 418.400000
13787 7313 15535 1 149.00000 418.400000
13787 7314 15546 1 149.00000 418.400000
13788 7315 15198 1 149.00000 418.400000
13788 7316 15700 1 149.00000 418.400000
13790 7317 14205 1 149.00000 418.400000
13790 7318 16436 1 149.00000 418.400000
11880 7319 16482 1 149.00000 418.400000
11880 7320 14778 1 149.00000 418.400000
13792 7321 14175 1 149.00000 418.400000
13792 7322 16828 1 149.00000 418.400000
13793 7323 15909 1 149.00000 418.400000
13793 7324 15898 1 149.00000 418.400000
14521 7325 15909 1 149.00000 418.400000
13998 7326 15734 1 149.00000 418.400000
13795 7327 14794 1 149.00000 418.400000
13795 7328 13998 1 149.00000 418.400000
13796 7329 16005 1 149.00000 418.400000
13797 7330 15332 1 149.00000 418.400000
13798 7331 17010 1 149.00000 418.400000
13798 7332 14861 1 149.00000 418.400000
13798 7333 14756 1 149.00000 418.400000
13799 7334 14674 1 149.00000 418.400000
13799 7335 16424 1 149.00000 418.400000
13799 7336 16848 1 149.00000 418.400000
13799 7337 15786 1 149.00000 418.400000
13800 7338 16713 1 149.00000 418.400000
13800 7339 14781 1 149.00000 418.400000
13800 7340 15398 1 149.00000 418.400000
13867 7341 16949 1 149.00000 418.400000
13801 7342 13867 1 149.00000 418.400000
13801 7343 16083 1 149.00000 418.400000
13801 7344 15844 1 149.00000 418.400000
13802 7345 16352 1 149.00000 418.400000
13802 7346 15037 1 149.00000 418.400000
13802 7347 16908 1 149.00000 418.400000
13803 7348 16974 1 149.00000 418.400000
13803 7349 16921 1 149.00000 418.400000
13803 7350 16451 1 149.00000 418.400000
13804 7351 13917 1 149.00000 418.400000
13804 7352 14735 1 149.00000 418.400000
13804 7353 16952 1 149.00000 418.400000
13805 7354 15511 1 149.00000 418.400000
13805 7355 16074 1 149.00000 418.400000
13805 7356 14593 1 149.00000 418.400000
13806 7357 16571 1 149.00000 418.400000
13562 7358 15129 1 149.00000 418.400000
13562 7359 13806 1 149.00000 418.400000
13807 7360 16763 1 149.00000 418.400000
13807 7361 15141 1 149.00000 418.400000
13807 7362 16447 1 149.00000 418.400000
13808 7363 18647 1 149.00000 418.400000
13808 7364 18686 1 149.00000 418.400000
13808 7365 15473 1 149.00000 418.400000
13809 7366 15961 1 149.00000 418.400000
13810 7367 13993 1 149.00000 418.400000
11577 7368 16754 1 149.00000 418.400000
13811 7369 14543 1 149.00000 418.400000
13812 7370 14225 1 149.00000 418.400000
11828 7371 14849 1 149.00000 418.400000
13812 7372 16321 1 149.00000 418.400000
11841 7373 13571 1 149.00000 418.400000
13813 7374 14974 1 149.00000 418.400000
14626 7375 18635 1 149.00000 418.400000
15833 7376 18635 1 149.00000 418.400000
13816 7377 15861 1 149.00000 418.400000
13816 7378 16878 1 149.00000 418.400000
13816 7379 14188 1 149.00000 418.400000
13816 7380 15627 1 149.00000 418.400000
13817 7381 14641 1 149.00000 418.400000
13817 7382 16849 1 149.00000 418.400000
13818 7383 15989 1 149.00000 418.400000
13820 7384 14849 1 149.00000 418.400000
13820 7385 15618 1 149.00000 418.400000
13820 7386 14024 1 149.00000 418.400000
13820 7387 16063 1 149.00000 418.400000
13821 7388 16529 1 149.00000 418.400000
13821 7389 14160 1 149.00000 418.400000
13822 7390 16357 1 149.00000 418.400000
13822 7391 15353 1 149.00000 418.400000
13823 7392 14757 1 149.00000 418.400000
13823 7393 14831 1 149.00000 418.400000
13825 7394 14424 1 149.00000 418.400000
13825 7395 15225 1 149.00000 418.400000
13825 7396 16060 1 149.00000 418.400000
13826 7397 14313 1 149.00000 418.400000
13826 7398 13938 1 149.00000 418.400000
14961 7399 18638 1 149.00000 418.400000
16977 7400 18638 1 149.00000 418.400000
13827 7401 15122 1 149.00000 418.400000
13827 7402 14522 1 149.00000 418.400000
13827 7403 13904 1 149.00000 418.400000
13827 7404 15916 1 149.00000 418.400000
13828 7405 16553 1 149.00000 418.400000
13828 7406 14420 1 149.00000 418.400000
13828 7407 16237 1 149.00000 418.400000
13829 7408 16146 1 149.00000 418.400000
12609 7409 13838 1 149.00000 418.400000
14809 7410 16146 1 149.00000 418.400000
13830 7411 16471 1 149.00000 418.400000
13830 7412 14492 1 149.00000 418.400000
13830 7413 15196 1 149.00000 418.400000
13831 7414 14471 1 149.00000 418.400000
13832 7415 14772 1 149.00000 418.400000
13832 7416 15058 1 149.00000 418.400000
13833 7417 16463 1 149.00000 418.400000
13076 7418 13834 1 149.00000 418.400000
13834 7419 14147 1 149.00000 418.400000
13834 7420 14673 1 149.00000 418.400000
13835 7421 15991 1 149.00000 418.400000
13835 7422 14118 1 149.00000 418.400000
13837 7423 16295 1 149.00000 418.400000
13838 7424 15379 1 149.00000 418.400000
13838 7425 16967 1 149.00000 418.400000
13838 7426 14062 1 149.00000 418.400000
13839 7427 16086 1 149.00000 418.400000
13839 7428 14289 1 149.00000 418.400000
13839 7429 15867 1 149.00000 418.400000
13840 7430 15776 1 149.00000 418.400000
12319 7431 15715 1 149.00000 418.400000
13840 7432 15715 1 149.00000 418.400000
13841 7433 14745 1 149.00000 418.400000
13842 7434 15860 1 149.00000 418.400000
13842 7435 16261 1 149.00000 418.400000
13842 7436 13879 1 149.00000 418.400000
13843 7437 15957 1 149.00000 418.400000
13843 7438 15544 1 149.00000 418.400000
13843 7439 16904 1 149.00000 418.400000
13844 7440 14410 1 149.00000 418.400000
13844 7441 14514 1 149.00000 418.400000
13845 7442 16687 1 149.00000 418.400000
13846 7443 15463 1 149.00000 418.400000
13846 7444 14888 1 149.00000 418.400000
13846 7445 14854 1 149.00000 418.400000
13563 7446 15288 1 149.00000 418.400000
13848 7447 16914 1 149.00000 418.400000
13848 7448 14781 1 149.00000 418.400000
13849 7449 14554 1 149.00000 418.400000
13849 7450 14494 1 149.00000 418.400000
12873 7451 14253 1 149.00000 418.400000
13850 7452 14141 1 149.00000 418.400000
13850 7453 14003 1 149.00000 418.400000
13851 7454 17005 1 149.00000 418.400000
13851 7455 15633 1 149.00000 418.400000
13851 7456 14875 1 149.00000 418.400000
13852 7457 15974 1 149.00000 418.400000
13852 7458 16165 1 149.00000 418.400000
13853 7459 16035 1 149.00000 418.400000
13853 7460 14959 1 149.00000 418.400000
13853 7461 16156 1 149.00000 418.400000
13854 7462 15055 1 149.00000 418.400000
13854 7463 16734 1 149.00000 418.400000
13855 7464 16646 1 149.00000 418.400000
13855 7465 14262 1 149.00000 418.400000
13855 7466 15527 1 149.00000 418.400000
13856 7467 14364 1 149.00000 418.400000
13856 7468 14886 1 149.00000 418.400000
13741 7469 13857 1 149.00000 418.400000
14498 7470 17161 1 149.00000 418.400000
13858 7471 16618 1 149.00000 418.400000
13859 7472 16473 1 149.00000 418.400000
13860 7473 16467 1 149.00000 418.400000
13861 7474 15113 1 149.00000 418.400000
13861 7475 15517 1 149.00000 418.400000
13861 7476 15367 1 149.00000 418.400000
13509 7477 13861 1 149.00000 418.400000
13862 7478 15560 1 149.00000 418.400000
13863 7479 13965 1 149.00000 418.400000
13863 7480 14324 1 149.00000 418.400000
13864 7481 14696 1 149.00000 418.400000
13864 7482 15941 1 149.00000 418.400000
13864 7483 13900 1 149.00000 418.400000
13865 7484 15556 1 149.00000 418.400000
13866 7485 15000 1 149.00000 418.400000
13866 7486 16359 1 149.00000 418.400000
13868 7487 14535 1 149.00000 418.400000
13868 7488 15628 1 149.00000 418.400000
13868 7489 15144 1 149.00000 418.400000
13869 7490 14961 1 149.00000 418.400000
13869 7491 13967 1 149.00000 418.400000
13869 7492 14001 1 149.00000 418.400000
13870 7493 15767 1 149.00000 418.400000
13870 7494 15726 1 149.00000 418.400000
13871 7495 14687 1 149.00000 418.400000
13871 7496 14462 1 149.00000 418.400000
13890 7497 18641 1 149.00000 418.400000
13872 7498 14650 1 149.00000 418.400000
13872 7499 15988 1 149.00000 418.400000
13872 7500 14192 1 149.00000 418.400000
13872 7501 14407 1 149.00000 418.400000
13873 7502 15681 1 149.00000 418.400000
13873 7503 14594 1 149.00000 418.400000
13873 7504 14588 1 149.00000 418.400000
13874 7505 16235 1 149.00000 418.400000
13629 7506 13874 1 149.00000 418.400000
14847 7507 15462 1 149.00000 418.400000
13876 7508 14847 1 149.00000 418.400000
13876 7509 15320 1 149.00000 418.400000
14556 7510 18644 1 149.00000 418.400000
13877 7511 14446 1 149.00000 418.400000
12290 7512 13877 1 149.00000 418.400000
14447 7513 16368 1 149.00000 418.400000
14107 7514 14447 1 149.00000 418.400000
13878 7515 15304 1 149.00000 418.400000
13879 7516 14072 1 149.00000 418.400000
13879 7517 16361 1 149.00000 418.400000
13880 7518 14650 1 149.00000 418.400000
13880 7519 15759 1 149.00000 418.400000
13881 7520 15850 1 149.00000 418.400000
13881 7521 15804 1 149.00000 418.400000
15804 7522 16689 1 149.00000 418.400000
13882 7523 16844 1 149.00000 418.400000
13882 7524 15165 1 149.00000 418.400000
13882 7525 14323 1 149.00000 418.400000
13883 7526 16567 1 149.00000 418.400000
13883 7527 15400 1 149.00000 418.400000
13194 7528 13884 1 149.00000 418.400000
13884 7529 14166 1 149.00000 418.400000
13885 7530 15188 1 149.00000 418.400000
13885 7531 16708 1 149.00000 418.400000
13885 7532 15775 1 149.00000 418.400000
13886 7533 14149 1 149.00000 418.400000
13886 7534 14972 1 149.00000 418.400000
13887 7535 16926 1 149.00000 418.400000
13888 7536 16604 1 149.00000 418.400000
13888 7537 16856 1 149.00000 418.400000
13889 7538 15893 1 149.00000 418.400000
13890 7539 16813 1 149.00000 418.400000
13890 7540 15623 1 149.00000 418.400000
13891 7541 16411 1 149.00000 418.400000
13891 7542 15956 1 149.00000 418.400000
13891 7543 14496 1 149.00000 418.400000
13892 7544 16203 1 149.00000 418.400000
13893 7545 16378 1 149.00000 418.400000
13893 7546 18842 1 149.00000 418.400000
13895 7547 14063 1 149.00000 418.400000
13896 7548 14491 1 149.00000 418.400000
13896 7549 14147 1 149.00000 418.400000
13896 7550 15617 1 149.00000 418.400000
13897 7551 17567 1 149.00000 418.400000
13897 7552 16996 1 149.00000 418.400000
13898 7553 15214 1 149.00000 418.400000
13898 7554 16963 1 149.00000 418.400000
13899 7555 14482 1 149.00000 418.400000
13900 7556 15314 1 149.00000 418.400000
13900 7557 15123 1 149.00000 418.400000
13900 7558 14563 1 149.00000 418.400000
13901 7559 14173 1 149.00000 418.400000
13902 7560 15925 1 149.00000 418.400000
13902 7561 16886 1 149.00000 418.400000
13902 7562 15054 1 149.00000 418.400000
13902 7563 14117 1 149.00000 418.400000
13903 7564 15501 1 149.00000 418.400000
13903 7565 14020 1 149.00000 418.400000
13904 7566 16317 1 149.00000 418.400000
13905 7567 14891 1 149.00000 418.400000
14891 7568 16678 1 149.00000 418.400000
13905 7569 14294 1 149.00000 418.400000
14445 7570 14960 1 149.00000 418.400000
13906 7571 14445 1 149.00000 418.400000
13906 7572 14750 1 149.00000 418.400000
13907 7573 14898 1 149.00000 418.400000
13907 7574 15658 1 149.00000 418.400000
13907 7575 16400 1 149.00000 418.400000
13910 7576 14547 1 149.00000 418.400000
13910 7577 15872 1 149.00000 418.400000
13911 7578 15255 1 149.00000 418.400000
13912 7579 15031 1 149.00000 418.400000
13912 7580 17273 1 149.00000 418.400000
13912 7581 15597 1 149.00000 418.400000
13913 7582 15532 1 149.00000 418.400000
13914 7583 16767 1 149.00000 418.400000
13915 7584 14563 1 149.00000 418.400000
13915 7585 15470 1 149.00000 418.400000
13916 7586 16469 1 149.00000 418.400000
13916 7587 16855 1 149.00000 418.400000
13917 7588 16151 1 149.00000 418.400000
13917 7589 14395 1 149.00000 418.400000
13917 7590 14021 1 149.00000 418.400000
13918 7591 14887 1 149.00000 418.400000
13918 7592 16708 1 149.00000 418.400000
13918 7593 15893 1 149.00000 418.400000
13919 7594 15434 1 149.00000 418.400000
13919 7595 14894 1 149.00000 418.400000
13919 7596 15046 1 149.00000 418.400000
13920 7597 14143 1 149.00000 418.400000
13920 7598 16826 1 149.00000 418.400000
13921 7599 16378 1 149.00000 418.400000
13921 7600 14295 1 149.00000 418.400000
13922 7601 13926 1 149.00000 418.400000
13922 7602 15922 1 149.00000 418.400000
14430 7603 15540 1 149.00000 418.400000
13923 7604 15464 1 149.00000 418.400000
13923 7605 15540 1 149.00000 418.400000
13923 7606 15347 1 149.00000 418.400000
13924 7607 16183 1 149.00000 418.400000
13925 7608 14759 1 149.00000 418.400000
13925 7609 15536 1 149.00000 418.400000
13926 7610 15822 1 149.00000 418.400000
13927 7611 14292 1 149.00000 418.400000
14413 7612 16133 1 149.00000 418.400000
13928 7613 16133 1 149.00000 418.400000
13150 7614 13928 1 149.00000 418.400000
13929 7615 16253 1 149.00000 418.400000
13929 7616 16990 1 149.00000 418.400000
13929 7617 15340 1 149.00000 418.400000
13931 7618 14315 1 149.00000 418.400000
13931 7619 14199 1 149.00000 418.400000
13931 7620 14879 1 149.00000 418.400000
13932 7621 16715 1 149.00000 418.400000
13932 7622 14830 1 149.00000 418.400000
13932 7623 15522 1 149.00000 418.400000
13933 7624 15187 1 149.00000 418.400000
13933 7625 14743 1 149.00000 418.400000
13933 7626 15172 1 149.00000 418.400000
13934 7627 19073 1 149.00000 418.400000
13934 7628 15023 1 149.00000 418.400000
13935 7629 15369 1 149.00000 418.400000
13935 7630 15848 1 149.00000 418.400000
13935 7631 16698 1 149.00000 418.400000
13936 7632 15010 1 149.00000 418.400000
13936 7633 15476 1 149.00000 418.400000
13936 7634 16407 1 149.00000 418.400000
13936 7635 15551 1 149.00000 418.400000
15846 7636 18653 1 149.00000 418.400000
13937 7637 14325 1 149.00000 418.400000
13937 7638 16636 1 149.00000 418.400000
13937 7639 16498 1 149.00000 418.400000
13938 7640 14834 1 149.00000 418.400000
13938 7641 14775 1 149.00000 418.400000
13939 7642 16441 1 149.00000 418.400000
13939 7643 16589 1 149.00000 418.400000
14695 7644 16160 1 149.00000 418.400000
13940 7645 16160 1 149.00000 418.400000
12080 7646 13940 1 149.00000 418.400000
13941 7647 15835 1 149.00000 418.400000
13941 7648 14185 1 149.00000 418.400000
13942 7649 16468 1 149.00000 418.400000
13942 7650 14025 1 149.00000 418.400000
13943 7651 14828 1 149.00000 418.400000
13943 7652 15670 1 149.00000 418.400000
13943 7653 14542 1 149.00000 418.400000
13944 7654 16880 1 149.00000 418.400000
13139 7655 16275 1 149.00000 418.400000
13945 7656 15567 1 149.00000 418.400000
13946 7657 17711 1 149.00000 418.400000
12694 7658 15367 1 149.00000 418.400000
13947 7659 15026 1 149.00000 418.400000
13947 7660 16016 1 149.00000 418.400000
18656 7661 18860 1 149.00000 418.400000
14056 7662 18656 1 149.00000 418.400000
12030 7663 18860 1 149.00000 418.400000
14857 7664 18659 1 149.00000 418.400000
13949 7665 14818 1 149.00000 418.400000
13949 7666 14221 1 149.00000 418.400000
13950 7667 15593 1 149.00000 418.400000
13951 7668 16035 1 149.00000 418.400000
11660 7669 14451 1 149.00000 418.400000
13271 7670 16563 1 149.00000 418.400000
13952 7671 16670 1 149.00000 418.400000
15306 7672 16670 1 149.00000 418.400000
13953 7673 15347 1 149.00000 418.400000
13151 7674 13954 1 149.00000 418.400000
13955 7675 15632 1 149.00000 418.400000
13955 7676 16044 1 149.00000 418.400000
13955 7677 15505 1 149.00000 418.400000
13956 7678 15136 1 149.00000 418.400000
13956 7679 16299 1 149.00000 418.400000
13956 7680 15119 1 149.00000 418.400000
13957 7681 15604 1 149.00000 418.400000
13957 7682 14733 1 149.00000 418.400000
13958 7683 14843 1 149.00000 418.400000
13958 7684 16862 1 149.00000 418.400000
13958 7685 16229 1 149.00000 418.400000
15050 7686 18662 1 149.00000 418.400000
14266 7687 18665 1 149.00000 418.400000
15729 7688 18665 1 149.00000 418.400000
13960 7689 15795 1 149.00000 418.400000
13960 7690 16699 1 149.00000 418.400000
13961 7691 16188 1 149.00000 418.400000
13961 7692 16622 1 149.00000 418.400000
15058 7693 15886 1 149.00000 418.400000
13962 7694 14298 1 149.00000 418.400000
13962 7695 15058 1 149.00000 418.400000
13962 7696 16537 1 149.00000 418.400000
13963 7697 16943 1 149.00000 418.400000
13963 7698 14860 1 149.00000 418.400000
14659 7699 16943 1 149.00000 418.400000
13964 7700 16761 1 149.00000 418.400000
13964 7701 16093 1 149.00000 418.400000
13965 7702 16290 1 149.00000 418.400000
13965 7703 14786 1 149.00000 418.400000
13966 7704 15611 1 149.00000 418.400000
13966 7705 16189 1 149.00000 418.400000
13967 7706 14432 1 149.00000 418.400000
13967 7707 15034 1 149.00000 418.400000
13968 7708 16599 1 149.00000 418.400000
13968 7709 15989 1 149.00000 418.400000
13968 7710 15559 1 149.00000 418.400000
13969 7711 18974 1 149.00000 418.400000
13969 7712 14652 1 149.00000 418.400000
13970 7713 15852 1 149.00000 418.400000
13653 7714 13970 1 149.00000 418.400000
13971 7715 16811 1 149.00000 418.400000
13971 7716 16543 1 149.00000 418.400000
13971 7717 14955 1 149.00000 418.400000
13972 7718 16907 1 149.00000 418.400000
13972 7719 15690 1 149.00000 418.400000
13972 7720 16041 1 149.00000 418.400000
13973 7721 15034 1 149.00000 418.400000
13974 7722 14230 1 149.00000 418.400000
13974 7723 16476 1 149.00000 418.400000
13974 7724 14656 1 149.00000 418.400000
13974 7725 15475 1 149.00000 418.400000
13975 7726 14857 1 149.00000 418.400000
13975 7727 16258 1 149.00000 418.400000
13975 7728 14835 1 149.00000 418.400000
13976 7729 16863 1 149.00000 418.400000
13976 7730 15363 1 149.00000 418.400000
13977 7731 14825 1 149.00000 418.400000
13978 7732 15081 1 149.00000 418.400000
13978 7733 17975 1 149.00000 418.400000
13978 7734 15997 1 149.00000 418.400000
13979 7735 16288 1 149.00000 418.400000
13979 7736 15073 1 149.00000 418.400000
13979 7737 14316 1 149.00000 418.400000
13980 7738 15249 1 149.00000 418.400000
13646 7739 15043 1 149.00000 418.400000
11741 7740 13980 1 149.00000 418.400000
13981 7741 19001 1 149.00000 418.400000
13981 7742 15095 1 149.00000 418.400000
13981 7743 14781 1 149.00000 418.400000
13981 7744 16040 1 149.00000 418.400000
13982 7745 16370 1 149.00000 418.400000
13983 7746 15676 1 149.00000 418.400000
13983 7747 14906 1 149.00000 418.400000
13983 7748 14677 1 149.00000 418.400000
13983 7749 15859 1 149.00000 418.400000
13985 7750 16321 1 149.00000 418.400000
13985 7751 15618 1 149.00000 418.400000
13986 7752 16385 1 149.00000 418.400000
13986 7753 16025 1 149.00000 418.400000
13986 7754 16324 1 149.00000 418.400000
13987 7755 16940 1 149.00000 418.400000
13987 7756 15624 1 149.00000 418.400000
13987 7757 16910 1 149.00000 418.400000
13988 7758 16337 1 149.00000 418.400000
12721 7759 16857 1 149.00000 418.400000
13989 7760 16089 1 149.00000 418.400000
12939 7761 16558 1 149.00000 418.400000
13991 7762 18686 1 149.00000 418.400000
13999 7763 18686 1 149.00000 418.400000
13991 7764 16281 1 149.00000 418.400000
11947 7765 16977 1 149.00000 418.400000
13992 7766 15543 1 149.00000 418.400000
13992 7767 15034 1 149.00000 418.400000
13993 7768 15174 1 149.00000 418.400000
15308 7769 18668 1 149.00000 418.400000
18668 7770 19130 1 149.00000 418.400000
13994 7771 16663 1 149.00000 418.400000
13994 7772 15062 1 149.00000 418.400000
11718 7773 13994 1 149.00000 418.400000
14869 7774 16085 1 149.00000 418.400000
13995 7775 15158 1 149.00000 418.400000
13995 7776 16085 1 149.00000 418.400000
13996 7777 14072 1 149.00000 418.400000
13997 7778 16796 1 149.00000 418.400000
13997 7779 14690 1 149.00000 418.400000
13998 7780 15533 1 149.00000 418.400000
13795 7781 15309 1 149.00000 418.400000
13998 7782 16801 1 149.00000 418.400000
13999 7783 18575 1 149.00000 418.400000
14829 7784 16693 1 149.00000 418.400000
13999 7785 14829 1 149.00000 418.400000
14000 7786 14655 1 149.00000 418.400000
14000 7787 15949 1 149.00000 418.400000
14001 7788 15106 1 149.00000 418.400000
14001 7789 16460 1 149.00000 418.400000
14001 7790 16977 1 149.00000 418.400000
14002 7791 15558 1 149.00000 418.400000
14003 7792 15934 1 149.00000 418.400000
14004 7793 15553 1 149.00000 418.400000
14004 7794 16964 1 149.00000 418.400000
14004 7795 15188 1 149.00000 418.400000
14005 7796 16628 1 149.00000 418.400000
14005 7797 14449 1 149.00000 418.400000
14007 7798 16575 1 149.00000 418.400000
14007 7799 14420 1 149.00000 418.400000
14008 7800 14213 1 149.00000 418.400000
14009 7801 15768 1 149.00000 418.400000
14009 7802 16595 1 149.00000 418.400000
14010 7803 14604 1 149.00000 418.400000
14011 7804 15685 1 149.00000 418.400000
14012 7805 17783 1 149.00000 418.400000
14012 7806 16425 1 149.00000 418.400000
14013 7807 15246 1 149.00000 418.400000
14014 7808 15344 1 149.00000 418.400000
14014 7809 14244 1 149.00000 418.400000
14014 7810 15271 1 149.00000 418.400000
14014 7811 16032 1 149.00000 418.400000
14015 7812 14292 1 149.00000 418.400000
14015 7813 16617 1 149.00000 418.400000
14016 7814 16156 1 149.00000 418.400000
14016 7815 14104 1 149.00000 418.400000
14017 7816 16204 1 149.00000 418.400000
14017 7817 15743 1 149.00000 418.400000
16291 7818 18011 1 149.00000 418.400000
16274 7819 18011 1 149.00000 418.400000
12510 7820 15611 1 149.00000 418.400000
14019 7821 15977 1 149.00000 418.400000
14019 7822 15586 1 149.00000 418.400000
14020 7823 14376 1 149.00000 418.400000
14020 7824 16947 1 149.00000 418.400000
14020 7825 16297 1 149.00000 418.400000
14022 7826 16554 1 149.00000 418.400000
14022 7827 16935 1 149.00000 418.400000
14023 7828 16715 1 149.00000 418.400000
14023 7829 16558 1 149.00000 418.400000
14024 7830 17014 1 149.00000 418.400000
14024 7831 15415 1 149.00000 418.400000
16762 7832 16993 1 149.00000 418.400000
14025 7833 16993 1 149.00000 418.400000
14026 7834 15211 1 149.00000 418.400000
14026 7835 15411 1 149.00000 418.400000
14026 7836 15067 1 149.00000 418.400000
14027 7837 14840 1 149.00000 418.400000
14027 7838 15078 1 149.00000 418.400000
14028 7839 14367 1 149.00000 418.400000
14029 7840 14862 1 149.00000 418.400000
14029 7841 14132 1 149.00000 418.400000
14030 7842 14671 1 149.00000 418.400000
16155 7843 18671 1 149.00000 418.400000
14056 7844 18671 1 149.00000 418.400000
16643 7845 18671 1 149.00000 418.400000
14031 7846 15085 1 149.00000 418.400000
14031 7847 14032 1 149.00000 418.400000
14032 7848 14947 1 149.00000 418.400000
14032 7849 15911 1 149.00000 418.400000
14033 7850 14983 1 149.00000 418.400000
16008 7851 18863 1 149.00000 418.400000
14033 7852 16008 1 149.00000 418.400000
14034 7853 16410 1 149.00000 418.400000
14035 7854 15650 1 149.00000 418.400000
14035 7855 14060 1 149.00000 418.400000
14036 7856 16030 1 149.00000 418.400000
14036 7857 14687 1 149.00000 418.400000
14036 7858 16530 1 149.00000 418.400000
14163 7859 18179 1 149.00000 418.400000
14037 7860 17615 1 149.00000 418.400000
14037 7861 18974 1 149.00000 418.400000
14038 7862 15004 1 149.00000 418.400000
14038 7863 16681 1 149.00000 418.400000
14038 7864 16974 1 149.00000 418.400000
13434 7865 14039 1 149.00000 418.400000
14039 7866 14845 1 149.00000 418.400000
14039 7867 14669 1 149.00000 418.400000
14039 7868 16929 1 149.00000 418.400000
14041 7869 16560 1 149.00000 418.400000
14041 7870 14090 1 149.00000 418.400000
14042 7871 15741 1 149.00000 418.400000
14042 7872 14806 1 149.00000 418.400000
14043 7873 15908 1 149.00000 418.400000
14043 7874 16481 1 149.00000 418.400000
14044 7875 14962 1 149.00000 418.400000
14044 7876 14358 1 149.00000 418.400000
14044 7877 17975 1 149.00000 418.400000
13593 7878 14045 1 149.00000 418.400000
14045 7879 15939 1 149.00000 418.400000
14045 7880 16634 1 149.00000 418.400000
14046 7881 16346 1 149.00000 418.400000
14046 7882 16657 1 149.00000 418.400000
14047 7883 15512 1 149.00000 418.400000
14047 7884 15966 1 149.00000 418.400000
14047 7885 14140 1 149.00000 418.400000
14048 7886 16189 1 149.00000 418.400000
14048 7887 16244 1 149.00000 418.400000
14048 7888 15452 1 149.00000 418.400000
14049 7889 16828 1 149.00000 418.400000
14049 7890 16409 1 149.00000 418.400000
14049 7891 15052 1 149.00000 418.400000
14050 7892 14507 1 149.00000 418.400000
14050 7893 15541 1 149.00000 418.400000
14050 7894 14070 1 149.00000 418.400000
14051 7895 16473 1 149.00000 418.400000
14051 7896 16530 1 149.00000 418.400000
12094 7897 14051 1 149.00000 418.400000
14052 7898 14668 1 149.00000 418.400000
14052 7899 15032 1 149.00000 418.400000
14052 7900 15960 1 149.00000 418.400000
14053 7901 14809 1 149.00000 418.400000
14054 7902 16725 1 149.00000 418.400000
14054 7903 14562 1 149.00000 418.400000
14055 7904 16576 1 149.00000 418.400000
14055 7905 14432 1 149.00000 418.400000
14057 7906 14945 1 149.00000 418.400000
14057 7907 14382 1 149.00000 418.400000
18674 7908 19067 1 149.00000 418.400000
14058 7909 17189 1 149.00000 418.400000
14058 7910 18692 1 149.00000 418.400000
14059 7911 16751 1 149.00000 418.400000
14059 7912 15348 1 149.00000 418.400000
14060 7913 14284 1 149.00000 418.400000
14060 7914 15120 1 149.00000 418.400000
14060 7915 16447 1 149.00000 418.400000
14061 7916 16606 1 149.00000 418.400000
14061 7917 16395 1 149.00000 418.400000
14062 7918 15655 1 149.00000 418.400000
14062 7919 14809 1 149.00000 418.400000
14062 7920 15988 1 149.00000 418.400000
14063 7921 15218 1 149.00000 418.400000
14063 7922 14541 1 149.00000 418.400000
14064 7923 15421 1 149.00000 418.400000
14064 7924 16470 1 149.00000 418.400000
14064 7925 14123 1 149.00000 418.400000
14065 7926 15851 1 149.00000 418.400000
14066 7927 16980 1 149.00000 418.400000
14066 7928 14619 1 149.00000 418.400000
14067 7929 16797 1 149.00000 418.400000
14067 7930 15626 1 149.00000 418.400000
14067 7931 14135 1 149.00000 418.400000
14068 7932 16396 1 149.00000 418.400000
14068 7933 17329 1 149.00000 418.400000
14069 7934 16653 1 149.00000 418.400000
14069 7935 16107 1 149.00000 418.400000
14069 7936 14609 1 149.00000 418.400000
14070 7937 16177 1 149.00000 418.400000
14070 7938 14461 1 149.00000 418.400000
14070 7939 15171 1 149.00000 418.400000
14071 7940 16903 1 149.00000 418.400000
14071 7941 15074 1 149.00000 418.400000
14072 7942 15637 1 149.00000 418.400000
14073 7943 14398 1 149.00000 418.400000
14073 7944 16292 1 149.00000 418.400000
15023 7945 19120 1 149.00000 418.400000
14074 7946 14693 1 149.00000 418.400000
14074 7947 15874 1 149.00000 418.400000
14074 7948 14262 1 149.00000 418.400000
14075 7949 16312 1 149.00000 418.400000
14076 7950 15457 1 149.00000 418.400000
14077 7951 16730 1 149.00000 418.400000
14077 7952 15525 1 149.00000 418.400000
13119 7953 14077 1 149.00000 418.400000
14078 7954 16837 1 149.00000 418.400000
14079 7955 16809 1 149.00000 418.400000
14080 7956 16136 1 149.00000 418.400000
14081 7957 16728 1 149.00000 418.400000
14081 7958 14560 1 149.00000 418.400000
14081 7959 15823 1 149.00000 418.400000
14082 7960 15469 1 149.00000 418.400000
14082 7961 16850 1 149.00000 418.400000
14083 7962 16930 1 149.00000 418.400000
14084 7963 16262 1 149.00000 418.400000
14084 7964 15978 1 149.00000 418.400000
14084 7965 16497 1 149.00000 418.400000
14084 7966 15855 1 149.00000 418.400000
14085 7967 15891 1 149.00000 418.400000
14085 7968 14294 1 149.00000 418.400000
14087 7969 15481 1 149.00000 418.400000
14087 7970 15533 1 149.00000 418.400000
14087 7971 15248 1 149.00000 418.400000
16833 7972 16871 1 149.00000 418.400000
14920 7973 16833 1 149.00000 418.400000
14088 7974 16833 1 149.00000 418.400000
14089 7975 16243 1 149.00000 418.400000
14089 7976 15005 1 149.00000 418.400000
14090 7977 14797 1 149.00000 418.400000
14091 7978 16778 1 149.00000 418.400000
14091 7979 15976 1 149.00000 418.400000
14091 7980 17591 1 149.00000 418.400000
14092 7981 18836 1 149.00000 418.400000
14093 7982 16592 1 149.00000 418.400000
14093 7983 16082 1 149.00000 418.400000
14094 7984 16936 1 149.00000 418.400000
14094 7985 15059 1 149.00000 418.400000
14095 7986 15293 1 149.00000 418.400000
14095 7987 15926 1 149.00000 418.400000
14095 7988 16894 1 149.00000 418.400000
14096 7989 14570 1 149.00000 418.400000
14096 7990 18119 1 149.00000 418.400000
14096 7991 16707 1 149.00000 418.400000
14097 7992 15678 1 149.00000 418.400000
14097 7993 14669 1 149.00000 418.400000
14098 7994 16314 1 149.00000 418.400000
14099 7995 15213 1 149.00000 418.400000
14099 7996 15141 1 149.00000 418.400000
14099 7997 16130 1 149.00000 418.400000
14100 7998 16378 1 149.00000 418.400000
14100 7999 14353 1 149.00000 418.400000
14100 8000 15080 1 149.00000 418.400000
14102 8001 14838 1 149.00000 418.400000
14102 8002 14881 1 149.00000 418.400000
14102 8003 16202 1 149.00000 418.400000
14103 8004 15270 1 149.00000 418.400000
14103 8005 15523 1 149.00000 418.400000
14103 8006 16438 1 149.00000 418.400000
14103 8007 14354 1 149.00000 418.400000
14104 8008 16035 1 149.00000 418.400000
14104 8009 14926 1 149.00000 418.400000
14105 8010 14273 1 149.00000 418.400000
14105 8011 14910 1 149.00000 418.400000
14106 8012 16200 1 149.00000 418.400000
14106 8013 16712 1 149.00000 418.400000
13878 8014 14107 1 149.00000 418.400000
14108 8015 16646 1 149.00000 418.400000
14108 8016 14586 1 149.00000 418.400000
14108 8017 16950 1 149.00000 418.400000
14108 8018 15105 1 149.00000 418.400000
14109 8019 15852 1 149.00000 418.400000
14109 8020 16926 1 149.00000 418.400000
14109 8021 14724 1 149.00000 418.400000
13374 8022 14109 1 149.00000 418.400000
14110 8023 15726 1 149.00000 418.400000
14110 8024 15238 1 149.00000 418.400000
14111 8025 16849 1 149.00000 418.400000
14111 8026 16280 1 149.00000 418.400000
14111 8027 15685 1 149.00000 418.400000
14112 8028 16684 1 149.00000 418.400000
14113 8029 14245 1 149.00000 418.400000
14113 8030 16955 1 149.00000 418.400000
14113 8031 14460 1 149.00000 418.400000
14113 8032 16182 1 149.00000 418.400000
14114 8033 14656 1 149.00000 418.400000
14114 8034 14693 1 149.00000 418.400000
14114 8035 15183 1 149.00000 418.400000
14115 8036 14787 1 149.00000 418.400000
14115 8037 15471 1 149.00000 418.400000
14116 8038 16065 1 149.00000 418.400000
14116 8039 15948 1 149.00000 418.400000
14117 8040 15658 1 149.00000 418.400000
14117 8041 14383 1 149.00000 418.400000
14118 8042 14223 1 149.00000 418.400000
15376 8043 18677 1 149.00000 418.400000
15376 8044 15945 1 149.00000 418.400000
14119 8045 17819 1 149.00000 418.400000
14120 8046 16807 1 149.00000 418.400000
14121 8047 16101 1 149.00000 418.400000
14121 8048 16105 1 149.00000 418.400000
14122 8049 15491 1 149.00000 418.400000
14122 8050 16228 1 149.00000 418.400000
14123 8051 14718 1 149.00000 418.400000
14123 8052 14175 1 149.00000 418.400000
14125 8053 15660 1 149.00000 418.400000
14125 8054 16004 1 149.00000 418.400000
14126 8055 15337 1 149.00000 418.400000
14126 8056 14726 1 149.00000 418.400000
11952 8057 14126 1 149.00000 418.400000
17639 8058 18680 1 149.00000 418.400000
15757 8059 18680 1 149.00000 418.400000
14127 8060 15751 1 149.00000 418.400000
14127 8061 14957 1 149.00000 418.400000
14128 8062 15133 1 149.00000 418.400000
14129 8063 16172 1 149.00000 418.400000
14130 8064 16455 1 149.00000 418.400000
14130 8065 16557 1 149.00000 418.400000
14130 8066 14719 1 149.00000 418.400000
16313 8067 19125 1 149.00000 418.400000
14131 8068 14375 1 149.00000 418.400000
14131 8069 15856 1 149.00000 418.400000
14132 8070 15430 1 149.00000 418.400000
14132 8071 14607 1 149.00000 418.400000
14133 8072 15850 1 149.00000 418.400000
14134 8073 16784 1 149.00000 418.400000
14135 8074 15437 1 149.00000 418.400000
14136 8075 14538 1 149.00000 418.400000
14136 8076 15316 1 149.00000 418.400000
14136 8077 16042 1 149.00000 418.400000
14137 8078 14336 1 149.00000 418.400000
14137 8079 15535 1 149.00000 418.400000
14137 8080 15198 1 149.00000 418.400000
14138 8081 19082 1 149.00000 418.400000
14139 8082 15810 1 149.00000 418.400000
14139 8083 15370 1 149.00000 418.400000
13763 8084 14573 1 149.00000 418.400000
14140 8085 15620 1 149.00000 418.400000
14140 8086 15040 1 149.00000 418.400000
14141 8087 15543 1 149.00000 418.400000
14141 8088 15483 1 149.00000 418.400000
14142 8089 14784 1 149.00000 418.400000
12801 8090 14142 1 149.00000 418.400000
14994 8091 18683 1 149.00000 418.400000
15124 8092 18683 1 149.00000 418.400000
17399 8093 18683 1 149.00000 418.400000
14143 8094 14507 1 149.00000 418.400000
14143 8095 19160 1 149.00000 418.400000
14144 8096 16128 1 149.00000 418.400000
14144 8097 19070 1 149.00000 418.400000
14145 8098 16464 1 149.00000 418.400000
16012 8099 16380 1 149.00000 418.400000
14145 8100 14364 1 149.00000 418.400000
14145 8101 16380 1 149.00000 418.400000
14146 8102 15169 1 149.00000 418.400000
14146 8103 16358 1 149.00000 418.400000
14146 8104 14257 1 149.00000 418.400000
14688 8105 16143 1 149.00000 418.400000
14148 8106 14688 1 149.00000 418.400000
14150 8107 16051 1 149.00000 418.400000
14151 8108 15104 1 149.00000 418.400000
14151 8109 16340 1 149.00000 418.400000
14151 8110 16823 1 149.00000 418.400000
14152 8111 18827 1 149.00000 418.400000
14152 8112 16336 1 149.00000 418.400000
14153 8113 15768 1 149.00000 418.400000
14153 8114 14161 1 149.00000 418.400000
12401 8115 15648 1 149.00000 418.400000
14154 8116 16867 1 149.00000 418.400000
14155 8117 15488 1 149.00000 418.400000
14155 8118 15756 1 149.00000 418.400000
14156 8119 16552 1 149.00000 418.400000
14156 8120 16205 1 149.00000 418.400000
14156 8121 16479 1 149.00000 418.400000
13748 8122 14157 1 149.00000 418.400000
14158 8123 16442 1 149.00000 418.400000
14158 8124 16618 1 149.00000 418.400000
14159 8125 14377 1 149.00000 418.400000
14159 8126 16518 1 149.00000 418.400000
14160 8127 16894 1 149.00000 418.400000
14160 8128 15765 1 149.00000 418.400000
14160 8129 14575 1 149.00000 418.400000
14161 8130 16595 1 149.00000 418.400000
14161 8131 14853 1 149.00000 418.400000
14162 8132 14939 1 149.00000 418.400000
14162 8133 16804 1 149.00000 418.400000
14163 8134 15373 1 149.00000 418.400000
14163 8135 15362 1 149.00000 418.400000
14164 8136 14188 1 149.00000 418.400000
14164 8137 15007 1 149.00000 418.400000
14164 8138 16059 1 149.00000 418.400000
14165 8139 16695 1 149.00000 418.400000
14165 8140 15925 1 149.00000 418.400000
14165 8141 15738 1 149.00000 418.400000
14166 8142 16367 1 149.00000 418.400000
14167 8143 15257 1 149.00000 418.400000
14167 8144 15285 1 149.00000 418.400000
14168 8145 16571 1 149.00000 418.400000
14169 8146 15244 1 149.00000 418.400000
14169 8147 16579 1 149.00000 418.400000
14634 8148 16392 1 149.00000 418.400000
14170 8149 16392 1 149.00000 418.400000
13991 8150 16134 1 149.00000 418.400000
14171 8151 14299 1 149.00000 418.400000
14171 8152 15929 1 149.00000 418.400000
15216 8153 18689 1 149.00000 418.400000
14172 8154 15426 1 149.00000 418.400000
14172 8155 15569 1 149.00000 418.400000
15426 8156 15921 1 149.00000 418.400000
14172 8157 14667 1 149.00000 418.400000
14173 8158 15138 1 149.00000 418.400000
14173 8159 16852 1 149.00000 418.400000
14174 8160 17013 1 149.00000 418.400000
11909 8161 14909 1 149.00000 418.400000
11909 8162 14174 1 149.00000 418.400000
14175 8163 14338 1 149.00000 418.400000
14175 8164 16311 1 149.00000 418.400000
14176 8165 15771 1 149.00000 418.400000
11903 8166 16647 1 149.00000 418.400000
14177 8167 16666 1 149.00000 418.400000
14178 8168 14771 1 149.00000 418.400000
14179 8169 15241 1 149.00000 418.400000
14179 8170 16644 1 149.00000 418.400000
14179 8171 14361 1 149.00000 418.400000
14180 8172 15610 1 149.00000 418.400000
14180 8173 14646 1 149.00000 418.400000
14180 8174 16050 1 149.00000 418.400000
14181 8175 14462 1 149.00000 418.400000
14181 8176 15408 1 149.00000 418.400000
14181 8177 15314 1 149.00000 418.400000
14181 8178 15232 1 149.00000 418.400000
14182 8179 16080 1 149.00000 418.400000
14182 8180 15245 1 149.00000 418.400000
14182 8181 14981 1 149.00000 418.400000
14182 8182 15635 1 149.00000 418.400000
14183 8183 16329 1 149.00000 418.400000
14183 8184 15002 1 149.00000 418.400000
14184 8185 16240 1 149.00000 418.400000
14185 8186 14247 1 149.00000 418.400000
14185 8187 16725 1 149.00000 418.400000
14185 8188 15917 1 149.00000 418.400000
14186 8189 15433 1 149.00000 418.400000
14186 8190 15239 1 149.00000 418.400000
14186 8191 15382 1 149.00000 418.400000
14187 8192 14764 1 149.00000 418.400000
14187 8193 14305 1 149.00000 418.400000
14187 8194 15312 1 149.00000 418.400000
14188 8195 15268 1 149.00000 418.400000
14188 8196 14595 1 149.00000 418.400000
14189 8197 15769 1 149.00000 418.400000
14190 8198 14514 1 149.00000 418.400000
14191 8199 14214 1 149.00000 418.400000
14191 8200 15445 1 149.00000 418.400000
14191 8201 16631 1 149.00000 418.400000
14192 8202 15683 1 149.00000 418.400000
14193 8203 14819 1 149.00000 418.400000
14193 8204 14765 1 149.00000 418.400000
14194 8205 16685 1 149.00000 418.400000
14194 8206 16907 1 149.00000 418.400000
14194 8207 16027 1 149.00000 418.400000
14195 8208 16454 1 149.00000 418.400000
14195 8209 16377 1 149.00000 418.400000
14196 8210 16896 1 149.00000 418.400000
12596 8211 14422 1 149.00000 418.400000
11627 8212 12875 1 149.00000 418.400000
14198 8213 16004 1 149.00000 418.400000
14199 8214 15940 1 149.00000 418.400000
14199 8215 14976 1 149.00000 418.400000
14772 8216 16919 1 149.00000 418.400000
14200 8217 14772 1 149.00000 418.400000
14201 8218 16774 1 149.00000 418.400000
14201 8219 15063 1 149.00000 418.400000
14202 8220 16021 1 149.00000 418.400000
16204 8221 18692 1 149.00000 418.400000
16045 8222 17615 1 149.00000 418.400000
14203 8223 16037 1 149.00000 418.400000
14203 8224 15545 1 149.00000 418.400000
14203 8225 16995 1 149.00000 418.400000
14204 8226 16570 1 149.00000 418.400000
14204 8227 14440 1 149.00000 418.400000
14204 8228 16602 1 149.00000 418.400000
14206 8229 15721 1 149.00000 418.400000
14206 8230 16952 1 149.00000 418.400000
14206 8231 14403 1 149.00000 418.400000
14206 8232 14941 1 149.00000 418.400000
14207 8233 16338 1 149.00000 418.400000
14207 8234 19175 1 149.00000 418.400000
14208 8235 15068 1 149.00000 418.400000
14208 8236 16541 1 149.00000 418.400000
14544 8237 18695 1 149.00000 418.400000
14209 8238 16901 1 149.00000 418.400000
14209 8239 15934 1 149.00000 418.400000
15018 8240 16789 1 149.00000 418.400000
14210 8241 15311 1 149.00000 418.400000
14210 8242 16789 1 149.00000 418.400000
14211 8243 15235 1 149.00000 418.400000
14211 8244 14376 1 149.00000 418.400000
14211 8245 15885 1 149.00000 418.400000
14212 8246 15232 1 149.00000 418.400000
14213 8247 15818 1 149.00000 418.400000
14214 8248 14574 1 149.00000 418.400000
14215 8249 15762 1 149.00000 418.400000
14215 8250 16499 1 149.00000 418.400000
14215 8251 15307 1 149.00000 418.400000
14215 8252 14603 1 149.00000 418.400000
14216 8253 16230 1 149.00000 418.400000
14216 8254 14713 1 149.00000 418.400000
14216 8255 16986 1 149.00000 418.400000
14217 8256 15898 1 149.00000 418.400000
14217 8257 14328 1 149.00000 418.400000
14217 8258 14679 1 149.00000 418.400000
15999 8259 18305 1 149.00000 418.400000
14218 8260 15789 1 149.00000 418.400000
14218 8261 15544 1 149.00000 418.400000
16342 8262 18701 1 149.00000 418.400000
14219 8263 14701 1 149.00000 418.400000
14219 8264 15957 1 149.00000 418.400000
15677 8265 17021 1 149.00000 418.400000
14220 8266 16388 1 149.00000 418.400000
14220 8267 16494 1 149.00000 418.400000
14220 8268 17005 1 149.00000 418.400000
14222 8269 15339 1 149.00000 418.400000
14222 8270 16518 1 149.00000 418.400000
14222 8271 14592 1 149.00000 418.400000
14223 8272 16181 1 149.00000 418.400000
14224 8273 17016 1 149.00000 418.400000
14225 8274 16457 1 149.00000 418.400000
14226 8275 16213 1 149.00000 418.400000
14227 8276 16387 1 149.00000 418.400000
13484 8277 14813 1 149.00000 418.400000
14228 8278 15634 1 149.00000 418.400000
13484 8279 15315 1 149.00000 418.400000
14229 8280 16676 1 149.00000 418.400000
14230 8281 16564 1 149.00000 418.400000
14230 8282 14594 1 149.00000 418.400000
14594 8283 15059 1 149.00000 418.400000
14231 8284 16151 1 149.00000 418.400000
14231 8285 14545 1 149.00000 418.400000
14231 8286 15332 1 149.00000 418.400000
14231 8287 14442 1 149.00000 418.400000
14232 8288 15417 1 149.00000 418.400000
14232 8289 19135 1 149.00000 418.400000
14233 8290 16542 1 149.00000 418.400000
14233 8291 16948 1 149.00000 418.400000
14234 8292 15831 1 149.00000 418.400000
14234 8293 14704 1 149.00000 418.400000
13312 8294 15510 1 149.00000 418.400000
14235 8295 16530 1 149.00000 418.400000
14235 8296 19155 1 149.00000 418.400000
14236 8297 14883 1 149.00000 418.400000
16250 8298 18704 1 149.00000 418.400000
14237 8299 15297 1 149.00000 418.400000
14237 8300 14909 1 149.00000 418.400000
14237 8301 15818 1 149.00000 418.400000
14238 8302 15177 1 149.00000 418.400000
14238 8303 16610 1 149.00000 418.400000
14238 8304 16415 1 149.00000 418.400000
14239 8305 16010 1 149.00000 418.400000
14239 8306 14937 1 149.00000 418.400000
14240 8307 14495 1 149.00000 418.400000
14240 8308 16684 1 149.00000 418.400000
14241 8309 15645 1 149.00000 418.400000
14241 8310 16853 1 149.00000 418.400000
14241 8311 16701 1 149.00000 418.400000
14242 8312 16989 1 149.00000 418.400000
14242 8313 15727 1 149.00000 418.400000
13207 8314 16699 1 149.00000 418.400000
15160 8315 15727 1 149.00000 418.400000
14243 8316 16148 1 149.00000 418.400000
14243 8317 15554 1 149.00000 418.400000
14243 8318 14365 1 149.00000 418.400000
14243 8319 16878 1 149.00000 418.400000
14244 8320 14759 1 149.00000 418.400000
14245 8321 16534 1 149.00000 418.400000
14245 8322 14651 1 149.00000 418.400000
14246 8323 14938 1 149.00000 418.400000
14246 8324 14900 1 149.00000 418.400000
14247 8325 15423 1 149.00000 418.400000
14247 8326 16716 1 149.00000 418.400000
14248 8327 15092 1 149.00000 418.400000
14248 8328 16166 1 149.00000 418.400000
14248 8329 15773 1 149.00000 418.400000
12319 8330 14248 1 149.00000 418.400000
14249 8331 18854 1 149.00000 418.400000
14249 8332 16858 1 149.00000 418.400000
14250 8333 16582 1 149.00000 418.400000
14250 8334 14547 1 149.00000 418.400000
14250 8335 16639 1 149.00000 418.400000
14251 8336 16986 1 149.00000 418.400000
14251 8337 15923 1 149.00000 418.400000
14251 8338 14356 1 149.00000 418.400000
14251 8339 15315 1 149.00000 418.400000
14252 8340 14865 1 149.00000 418.400000
14252 8341 15822 1 149.00000 418.400000
14253 8342 15206 1 149.00000 418.400000
14254 8343 14348 1 149.00000 418.400000
14254 8344 16172 1 149.00000 418.400000
14254 8345 16202 1 149.00000 418.400000
14255 8346 16644 1 149.00000 418.400000
14255 8347 16881 1 149.00000 418.400000
14256 8348 15765 1 149.00000 418.400000
14256 8349 15467 1 149.00000 418.400000
14256 8350 15779 1 149.00000 418.400000
14258 8351 15514 1 149.00000 418.400000
14258 8352 16642 1 149.00000 418.400000
14258 8353 14340 1 149.00000 418.400000
15791 8354 18707 1 149.00000 418.400000
14259 8355 15330 1 149.00000 418.400000
14259 8356 14834 1 149.00000 418.400000
14260 8357 14820 1 149.00000 418.400000
14260 8358 16626 1 149.00000 418.400000
14261 8359 15459 1 149.00000 418.400000
14261 8360 14619 1 149.00000 418.400000
14261 8361 16793 1 149.00000 418.400000
14262 8362 15167 1 149.00000 418.400000
14263 8363 15666 1 149.00000 418.400000
14263 8364 15949 1 149.00000 418.400000
14263 8365 16750 1 149.00000 418.400000
14264 8366 14668 1 149.00000 418.400000
14264 8367 14291 1 149.00000 418.400000
14265 8368 14795 1 149.00000 418.400000
14265 8369 14296 1 149.00000 418.400000
14265 8370 14700 1 149.00000 418.400000
18710 8371 18743 1 149.00000 418.400000
14266 8372 15166 1 149.00000 418.400000
16663 8373 18695 1 149.00000 418.400000
14267 8374 16559 1 149.00000 418.400000
14267 8375 18875 1 149.00000 418.400000
16399 8376 18293 1 149.00000 418.400000
14268 8377 14789 1 149.00000 418.400000
14269 8378 16427 1 149.00000 418.400000
14270 8379 16178 1 149.00000 418.400000
14270 8380 16746 1 149.00000 418.400000
14622 8381 18059 1 149.00000 418.400000
14271 8382 16971 1 149.00000 418.400000
11862 8383 14271 1 149.00000 418.400000
14272 8384 15215 1 149.00000 418.400000
14273 8385 14582 1 149.00000 418.400000
14274 8386 14399 1 149.00000 418.400000
14274 8387 16379 1 149.00000 418.400000
14274 8388 15546 1 149.00000 418.400000
14275 8389 18788 1 149.00000 418.400000
14276 8390 15447 1 149.00000 418.400000
14276 8391 15606 1 149.00000 418.400000
14277 8392 14847 1 149.00000 418.400000
14277 8393 15887 1 149.00000 418.400000
14278 8394 16959 1 149.00000 418.400000
14278 8395 14684 1 149.00000 418.400000
14278 8396 15289 1 149.00000 418.400000
14279 8397 14638 1 149.00000 418.400000
14279 8398 16785 1 149.00000 418.400000
14280 8399 16212 1 149.00000 418.400000
14280 8400 15502 1 149.00000 418.400000
14281 8401 16827 1 149.00000 418.400000
14281 8402 16435 1 149.00000 418.400000
14283 8403 16471 1 149.00000 418.400000
14995 8404 17783 1 149.00000 418.400000
17783 8405 18965 1 149.00000 418.400000
14284 8406 16970 1 149.00000 418.400000
14284 8407 14556 1 149.00000 418.400000
14285 8408 15696 1 149.00000 418.400000
14285 8409 15494 1 149.00000 418.400000
14285 8410 14860 1 149.00000 418.400000
14286 8411 16244 1 149.00000 418.400000
16293 8412 17091 1 149.00000 418.400000
14287 8413 14620 1 149.00000 418.400000
14287 8414 14358 1 149.00000 418.400000
14288 8415 15392 1 149.00000 418.400000
14288 8416 16022 1 149.00000 418.400000
14288 8417 16277 1 149.00000 418.400000
14289 8418 15640 1 149.00000 418.400000
14289 8419 14450 1 149.00000 418.400000
14289 8420 16643 1 149.00000 418.400000
13007 8421 15712 1 149.00000 418.400000
14290 8422 14956 1 149.00000 418.400000
14291 8423 16108 1 149.00000 418.400000
14291 8424 14647 1 149.00000 418.400000
14291 8425 15706 1 149.00000 418.400000
15091 8426 16747 1 149.00000 418.400000
14292 8427 16747 1 149.00000 418.400000
14868 8428 16747 1 149.00000 418.400000
16428 8429 16705 1 149.00000 418.400000
14293 8430 15072 1 149.00000 418.400000
14293 8431 16705 1 149.00000 418.400000
14294 8432 16702 1 149.00000 418.400000
14294 8433 15524 1 149.00000 418.400000
14295 8434 16647 1 149.00000 418.400000
14295 8435 15558 1 149.00000 418.400000
15713 8436 16647 1 149.00000 418.400000
15279 8437 15970 1 149.00000 418.400000
14296 8438 18833 1 149.00000 418.400000
14296 8439 15970 1 149.00000 418.400000
14297 8440 16134 1 149.00000 418.400000
14297 8441 14822 1 149.00000 418.400000
14298 8442 15654 1 149.00000 418.400000
14299 8443 15111 1 149.00000 418.400000
14300 8444 16621 1 149.00000 418.400000
14301 8445 14336 1 149.00000 418.400000
14301 8446 16532 1 149.00000 418.400000
14301 8447 15193 1 149.00000 418.400000
14302 8448 15518 1 149.00000 418.400000
14302 8449 16147 1 149.00000 418.400000
16147 8450 16278 1 149.00000 418.400000
14303 8451 16535 1 149.00000 418.400000
14303 8452 14788 1 149.00000 418.400000
14303 8453 15681 1 149.00000 418.400000
16535 8454 16588 1 149.00000 418.400000
14304 8455 15340 1 149.00000 418.400000
11775 8456 15871 1 149.00000 418.400000
14306 8457 16052 1 149.00000 418.400000
14306 8458 15520 1 149.00000 418.400000
16152 8459 17735 1 149.00000 418.400000
14307 8460 16756 1 149.00000 418.400000
14690 8461 16756 1 149.00000 418.400000
14308 8462 15608 1 149.00000 418.400000
14308 8463 14981 1 149.00000 418.400000
14308 8464 15550 1 149.00000 418.400000
14309 8465 15009 1 149.00000 418.400000
14309 8466 15913 1 149.00000 418.400000
14310 8467 16931 1 149.00000 418.400000
14311 8468 15524 1 149.00000 418.400000
13905 8469 14311 1 149.00000 418.400000
14311 8470 16511 1 149.00000 418.400000
14311 8471 15781 1 149.00000 418.400000
14312 8472 16429 1 149.00000 418.400000
14314 8473 16656 1 149.00000 418.400000
14314 8474 15532 1 149.00000 418.400000
14315 8475 15327 1 149.00000 418.400000
14316 8476 14412 1 149.00000 418.400000
14316 8477 16315 1 149.00000 418.400000
14317 8478 15374 1 149.00000 418.400000
14317 8479 16965 1 149.00000 418.400000
14317 8480 16946 1 149.00000 418.400000
14318 8481 14830 1 149.00000 418.400000
14318 8482 15749 1 149.00000 418.400000
14319 8483 18800 1 149.00000 418.400000
14320 8484 14409 1 149.00000 418.400000
14320 8485 15214 1 149.00000 418.400000
14321 8486 16514 1 149.00000 418.400000
14321 8487 15193 1 149.00000 418.400000
14321 8488 16809 1 149.00000 418.400000
14322 8489 15238 1 149.00000 418.400000
14322 8490 16458 1 149.00000 418.400000
14322 8491 15120 1 149.00000 418.400000
16326 8492 18713 1 149.00000 418.400000
14323 8493 18896 1 149.00000 418.400000
14323 8494 15276 1 149.00000 418.400000
14324 8495 16518 1 149.00000 418.400000
14324 8496 15104 1 149.00000 418.400000
15578 8497 18962 1 149.00000 418.400000
14325 8498 17903 1 149.00000 418.400000
14689 8499 15578 1 149.00000 418.400000
14325 8500 15578 1 149.00000 418.400000
14712 8501 17591 1 149.00000 418.400000
14326 8502 15022 1 149.00000 418.400000
14326 8503 14692 1 149.00000 418.400000
14326 8504 14429 1 149.00000 418.400000
12371 8505 15828 1 149.00000 418.400000
12371 8506 14345 1 149.00000 418.400000
14328 8507 15595 1 149.00000 418.400000
14329 8508 15860 1 149.00000 418.400000
14329 8509 16361 1 149.00000 418.400000
14329 8510 15784 1 149.00000 418.400000
14331 8511 19064 1 149.00000 418.400000
14331 8512 15997 1 149.00000 418.400000
14332 8513 15492 1 149.00000 418.400000
14333 8514 16059 1 149.00000 418.400000
14333 8515 15205 1 149.00000 418.400000
14333 8516 16878 1 149.00000 418.400000
14334 8517 16787 1 149.00000 418.400000
14335 8518 17002 1 149.00000 418.400000
14336 8519 15546 1 149.00000 418.400000
17567 8520 18716 1 149.00000 418.400000
14337 8521 14967 1 149.00000 418.400000
14337 8522 16432 1 149.00000 418.400000
14338 8523 15215 1 149.00000 418.400000
14338 8524 16997 1 149.00000 418.400000
11595 8525 14732 1 149.00000 418.400000
11595 8526 15029 1 149.00000 418.400000
11595 8527 14590 1 149.00000 418.400000
14340 8528 14412 1 149.00000 418.400000
14340 8529 15043 1 149.00000 418.400000
14342 8530 14626 1 149.00000 418.400000
14342 8531 16225 1 149.00000 418.400000
14343 8532 16713 1 149.00000 418.400000
14343 8533 15798 1 149.00000 418.400000
14343 8534 16805 1 149.00000 418.400000
14344 8535 16355 1 149.00000 418.400000
14344 8536 15659 1 149.00000 418.400000
14344 8537 16675 1 149.00000 418.400000
14345 8538 16596 1 149.00000 418.400000
14345 8539 14698 1 149.00000 418.400000
14346 8540 16546 1 149.00000 418.400000
14346 8541 15944 1 149.00000 418.400000
14346 8542 16887 1 149.00000 418.400000
14347 8543 15171 1 149.00000 418.400000
14347 8544 16371 1 149.00000 418.400000
14347 8545 14461 1 149.00000 418.400000
14348 8546 15669 1 149.00000 418.400000
14349 8547 15483 1 149.00000 418.400000
14349 8548 15934 1 149.00000 418.400000
14349 8549 14591 1 149.00000 418.400000
14350 8550 16306 1 149.00000 418.400000
14351 8551 15157 1 149.00000 418.400000
14351 8552 15512 1 149.00000 418.400000
14351 8553 15040 1 149.00000 418.400000
14353 8554 16916 1 149.00000 418.400000
14353 8555 14385 1 149.00000 418.400000
14354 8556 16781 1 149.00000 418.400000
14354 8557 16874 1 149.00000 418.400000
14355 8558 15330 1 149.00000 418.400000
14355 8559 16762 1 149.00000 418.400000
14356 8560 16366 1 149.00000 418.400000
14356 8561 16487 1 149.00000 418.400000
14357 8562 15911 1 149.00000 418.400000
14358 8563 16783 1 149.00000 418.400000
14359 8564 16785 1 149.00000 418.400000
14359 8565 15699 1 149.00000 418.400000
14360 8566 16492 1 149.00000 418.400000
14361 8567 15544 1 149.00000 418.400000
14362 8568 14949 1 149.00000 418.400000
14362 8569 16242 1 149.00000 418.400000
14363 8570 15604 1 149.00000 418.400000
14363 8571 16980 1 149.00000 418.400000
14363 8572 16173 1 149.00000 418.400000
14768 8573 18722 1 149.00000 418.400000
16439 8574 18722 1 149.00000 418.400000
14365 8575 15627 1 149.00000 418.400000
14366 8576 16776 1 149.00000 418.400000
14366 8577 16219 1 149.00000 418.400000
14366 8578 16814 1 149.00000 418.400000
14366 8579 14444 1 149.00000 418.400000
14367 8580 16105 1 149.00000 418.400000
11981 8581 14367 1 149.00000 418.400000
14368 8582 15637 1 149.00000 418.400000
14369 8583 16439 1 149.00000 418.400000
14369 8584 15935 1 149.00000 418.400000
11804 8585 14369 1 149.00000 418.400000
14370 8586 15399 1 149.00000 418.400000
14370 8587 15608 1 149.00000 418.400000
14371 8588 16503 1 149.00000 418.400000
14371 8589 15919 1 149.00000 418.400000
14372 8590 16013 1 149.00000 418.400000
14372 8591 15464 1 149.00000 418.400000
14372 8592 15844 1 149.00000 418.400000
13082 8593 14947 1 149.00000 418.400000
14373 8594 14414 1 149.00000 418.400000
14373 8595 16807 1 149.00000 418.400000
14374 8596 16069 1 149.00000 418.400000
14374 8597 16154 1 149.00000 418.400000
14374 8598 16500 1 149.00000 418.400000
14375 8599 15408 1 149.00000 418.400000
14375 8600 15909 1 149.00000 418.400000
14375 8601 18785 1 149.00000 418.400000
14376 8602 15101 1 149.00000 418.400000
14376 8603 16743 1 149.00000 418.400000
14378 8604 15485 1 149.00000 418.400000
14379 8605 16792 1 149.00000 418.400000
14379 8606 16572 1 149.00000 418.400000
14379 8607 16885 1 149.00000 418.400000
14379 8608 16255 1 149.00000 418.400000
14210 8609 14380 1 149.00000 418.400000
14381 8610 16565 1 149.00000 418.400000
14381 8611 16287 1 149.00000 418.400000
12026 8612 16598 1 149.00000 418.400000
14382 8613 16558 1 149.00000 418.400000
14382 8614 16287 1 149.00000 418.400000
14383 8615 15472 1 149.00000 418.400000
14383 8616 14880 1 149.00000 418.400000
14384 8617 19170 1 149.00000 418.400000
14384 8618 15056 1 149.00000 418.400000
14385 8619 17867 1 149.00000 418.400000
14385 8620 15384 1 149.00000 418.400000
18725 8621 18923 1 149.00000 418.400000
11706 8622 15224 1 149.00000 418.400000
14386 8623 14801 1 149.00000 418.400000
14386 8624 15979 1 149.00000 418.400000
14387 8625 16322 1 149.00000 418.400000
14388 8626 15421 1 149.00000 418.400000
14388 8627 16950 1 149.00000 418.400000
14388 8628 14412 1 149.00000 418.400000
14388 8629 15514 1 149.00000 418.400000
14389 8630 16265 1 149.00000 418.400000
14390 8631 14539 1 149.00000 418.400000
14390 8632 14888 1 149.00000 418.400000
14390 8633 16026 1 149.00000 418.400000
14391 8634 16031 1 149.00000 418.400000
14391 8635 14738 1 149.00000 418.400000
14391 8636 15939 1 149.00000 418.400000
15236 8637 15316 1 149.00000 418.400000
15036 8638 15316 1 149.00000 418.400000
14392 8639 15316 1 149.00000 418.400000
14393 8640 16416 1 149.00000 418.400000
14394 8641 15853 1 149.00000 418.400000
14394 8642 14497 1 149.00000 418.400000
14395 8643 15635 1 149.00000 418.400000
14395 8644 15884 1 149.00000 418.400000
14396 8645 15350 1 149.00000 418.400000
14396 8646 15365 1 149.00000 418.400000
16528 8647 18728 1 149.00000 418.400000
16556 8648 18728 1 149.00000 418.400000
14397 8649 15470 1 149.00000 418.400000
14397 8650 16102 1 149.00000 418.400000
14398 8651 16015 1 149.00000 418.400000
14399 8652 14832 1 149.00000 418.400000
14400 8653 16301 1 149.00000 418.400000
14400 8654 15503 1 149.00000 418.400000
14401 8655 15452 1 149.00000 418.400000
14401 8656 16544 1 149.00000 418.400000
14402 8657 15262 1 149.00000 418.400000
14402 8658 18797 1 149.00000 418.400000
14403 8659 15589 1 149.00000 418.400000
14404 8660 14831 1 149.00000 418.400000
14404 8661 16195 1 149.00000 418.400000
14405 8662 15392 1 149.00000 418.400000
14405 8663 16755 1 149.00000 418.400000
13232 8664 14405 1 149.00000 418.400000
14405 8665 14923 1 149.00000 418.400000
14496 8666 16731 1 149.00000 418.400000
14496 8667 15381 1 149.00000 418.400000
14406 8668 15736 1 149.00000 418.400000
14407 8669 15675 1 149.00000 418.400000
14408 8670 16845 1 149.00000 418.400000
14408 8671 16733 1 149.00000 418.400000
14410 8672 16949 1 149.00000 418.400000
14411 8673 15326 1 149.00000 418.400000
14411 8674 14476 1 149.00000 418.400000
11588 8675 14413 1 149.00000 418.400000
14413 8676 16711 1 149.00000 418.400000
14413 8677 15827 1 149.00000 418.400000
14414 8678 15089 1 149.00000 418.400000
15537 8679 16175 1 149.00000 418.400000
14415 8680 16175 1 149.00000 418.400000
14416 8681 15487 1 149.00000 418.400000
14416 8682 15592 1 149.00000 418.400000
14416 8683 16260 1 149.00000 418.400000
14416 8684 14948 1 149.00000 418.400000
14417 8685 15386 1 149.00000 418.400000
14418 8686 15068 1 149.00000 418.400000
14418 8687 16745 1 149.00000 418.400000
14419 8688 16975 1 149.00000 418.400000
14419 8689 16084 1 149.00000 418.400000
14420 8690 16379 1 149.00000 418.400000
14421 8691 16572 1 149.00000 418.400000
14421 8692 14969 1 149.00000 418.400000
14421 8693 16792 1 149.00000 418.400000
14421 8694 15915 1 149.00000 418.400000
14422 8695 14773 1 149.00000 418.400000
14423 8696 15194 1 149.00000 418.400000
14424 8697 16877 1 149.00000 418.400000
14425 8698 16389 1 149.00000 418.400000
14425 8699 14662 1 149.00000 418.400000
14426 8700 16265 1 149.00000 418.400000
14426 8701 14768 1 149.00000 418.400000
14427 8702 15087 1 149.00000 418.400000
14427 8703 14984 1 149.00000 418.400000
14428 8704 15880 1 149.00000 418.400000
14428 8705 15842 1 149.00000 418.400000
14429 8706 16219 1 149.00000 418.400000
14431 8707 16033 1 149.00000 418.400000
14431 8708 16071 1 149.00000 418.400000
14431 8709 16245 1 149.00000 418.400000
14432 8710 15964 1 149.00000 418.400000
14432 8711 14451 1 149.00000 418.400000
14433 8712 16543 1 149.00000 418.400000
14434 8713 16135 1 149.00000 418.400000
14434 8714 15555 1 149.00000 418.400000
14435 8715 16955 1 149.00000 418.400000
14436 8716 16237 1 149.00000 418.400000
14436 8717 15440 1 149.00000 418.400000
14436 8718 15965 1 149.00000 418.400000
14437 8719 15509 1 149.00000 418.400000
14437 8720 16704 1 149.00000 418.400000
14438 8721 14687 1 149.00000 418.400000
14438 8722 15572 1 149.00000 418.400000
14439 8723 16162 1 149.00000 418.400000
14439 8724 15341 1 149.00000 418.400000
14439 8725 15081 1 149.00000 418.400000
14440 8726 14900 1 149.00000 418.400000
14440 8727 15456 1 149.00000 418.400000
14441 8728 16036 1 149.00000 418.400000
11637 8729 14441 1 149.00000 418.400000
14441 8730 15923 1 149.00000 418.400000
16607 8731 18731 1 149.00000 418.400000
16504 8732 18731 1 149.00000 418.400000
14442 8733 15174 1 149.00000 418.400000
14443 8734 16722 1 149.00000 418.400000
13606 8735 16868 1 149.00000 418.400000
14444 8736 16130 1 149.00000 418.400000
14445 8737 14660 1 149.00000 418.400000
14446 8738 16811 1 149.00000 418.400000
14446 8739 16880 1 149.00000 418.400000
14446 8740 16335 1 149.00000 418.400000
14447 8741 15474 1 149.00000 418.400000
14448 8742 15977 1 149.00000 418.400000
14448 8743 15745 1 149.00000 418.400000
14449 8744 14921 1 149.00000 418.400000
14449 8745 16506 1 149.00000 418.400000
14450 8746 16047 1 149.00000 418.400000
14452 8747 14466 1 149.00000 418.400000
14452 8748 15403 1 149.00000 418.400000
14452 8749 15810 1 149.00000 418.400000
14453 8750 16063 1 149.00000 418.400000
14454 8751 15403 1 149.00000 418.400000
14455 8752 14458 1 149.00000 418.400000
14455 8753 14670 1 149.00000 418.400000
14456 8754 15612 1 149.00000 418.400000
14456 8755 14549 1 149.00000 418.400000
14456 8756 16489 1 149.00000 418.400000
14458 8757 16248 1 149.00000 418.400000
14459 8758 15675 1 149.00000 418.400000
14459 8759 15344 1 149.00000 418.400000
18737 8760 19049 1 149.00000 418.400000
16166 8761 18737 1 149.00000 418.400000
14460 8762 15959 1 149.00000 418.400000
14461 8763 15462 1 149.00000 418.400000
14462 8764 14467 1 149.00000 418.400000
14462 8765 14696 1 149.00000 418.400000
14463 8766 14913 1 149.00000 418.400000
14463 8767 16285 1 149.00000 418.400000
14464 8768 14993 1 149.00000 418.400000
14464 8769 16199 1 149.00000 418.400000
14465 8770 15645 1 149.00000 418.400000
14465 8771 15869 1 149.00000 418.400000
14467 8772 16721 1 149.00000 418.400000
14468 8773 16519 1 149.00000 418.400000
14468 8774 14884 1 149.00000 418.400000
14469 8775 15766 1 149.00000 418.400000
14469 8776 15469 1 149.00000 418.400000
14470 8777 14712 1 149.00000 418.400000
14471 8778 15607 1 149.00000 418.400000
14471 8779 14769 1 149.00000 418.400000
14472 8780 16205 1 149.00000 418.400000
14472 8781 15923 1 149.00000 418.400000
14472 8782 15282 1 149.00000 418.400000
14473 8783 16924 1 149.00000 418.400000
14473 8784 14915 1 149.00000 418.400000
14474 8785 15673 1 149.00000 418.400000
14475 8786 15490 1 149.00000 418.400000
14475 8787 16043 1 149.00000 418.400000
14476 8788 15253 1 149.00000 418.400000
14476 8789 15932 1 149.00000 418.400000
14477 8790 15135 1 149.00000 418.400000
14477 8791 15630 1 149.00000 418.400000
14477 8792 14964 1 149.00000 418.400000
14478 8793 15172 1 149.00000 418.400000
14478 8794 16018 1 149.00000 418.400000
14479 8795 15127 1 149.00000 418.400000
14480 8796 14752 1 149.00000 418.400000
14480 8797 14824 1 149.00000 418.400000
14481 8798 15209 1 149.00000 418.400000
14481 8799 18989 1 149.00000 418.400000
14482 8800 16001 1 149.00000 418.400000
13962 8801 14482 1 149.00000 418.400000
14482 8802 15278 1 149.00000 418.400000
14483 8803 16467 1 149.00000 418.400000
14483 8804 14486 1 149.00000 418.400000
14484 8805 15094 1 149.00000 418.400000
14484 8806 14618 1 149.00000 418.400000
14484 8807 16356 1 149.00000 418.400000
14485 8808 15582 1 149.00000 418.400000
14486 8809 16610 1 149.00000 418.400000
14486 8810 14871 1 149.00000 418.400000
14486 8811 15991 1 149.00000 418.400000
14487 8812 16602 1 149.00000 418.400000
15290 8813 18743 1 149.00000 418.400000
14488 8814 15299 1 149.00000 418.400000
12903 8815 18998 1 149.00000 418.400000
14489 8816 15144 1 149.00000 418.400000
14490 8817 16615 1 149.00000 418.400000
14491 8818 16346 1 149.00000 418.400000
14491 8819 16786 1 149.00000 418.400000
14492 8820 16652 1 149.00000 418.400000
14493 8821 16332 1 149.00000 418.400000
18746 8822 18968 1 149.00000 418.400000
14494 8823 14932 1 149.00000 418.400000
14494 8824 16423 1 149.00000 418.400000
14495 8825 15583 1 149.00000 418.400000
16141 8826 16731 1 149.00000 418.400000
14499 8827 14599 1 149.00000 418.400000
14499 8828 15181 1 149.00000 418.400000
14314 8829 14499 1 149.00000 418.400000
14500 8830 16172 1 149.00000 418.400000
14501 8831 16319 1 149.00000 418.400000
14501 8832 16015 1 149.00000 418.400000
14501 8833 15338 1 149.00000 418.400000
14501 8834 15024 1 149.00000 418.400000
14502 8835 14759 1 149.00000 418.400000
14503 8836 15862 1 149.00000 418.400000
14504 8837 15234 1 149.00000 418.400000
14505 8838 15360 1 149.00000 418.400000
14505 8839 15706 1 149.00000 418.400000
14505 8840 16287 1 149.00000 418.400000
14506 8841 18035 1 149.00000 418.400000
14506 8842 14884 1 149.00000 418.400000
14507 8843 16493 1 149.00000 418.400000
14507 8844 15580 1 149.00000 418.400000
14508 8845 16689 1 149.00000 418.400000
14508 8846 16668 1 149.00000 418.400000
14509 8847 15712 1 149.00000 418.400000
13342 8848 15137 1 149.00000 418.400000
14510 8849 15672 1 149.00000 418.400000
14511 8850 16933 1 149.00000 418.400000
16053 8851 17819 1 149.00000 418.400000
14513 8852 15243 1 149.00000 418.400000
14513 8853 15490 1 149.00000 418.400000
14513 8854 16675 1 149.00000 418.400000
13149 8855 16895 1 149.00000 418.400000
14515 8856 14976 1 149.00000 418.400000
14515 8857 14776 1 149.00000 418.400000
14516 8858 16210 1 149.00000 418.400000
14516 8859 15794 1 149.00000 418.400000
14516 8860 16682 1 149.00000 418.400000
14517 8861 16566 1 149.00000 418.400000
14517 8862 14958 1 149.00000 418.400000
14517 8863 15474 1 149.00000 418.400000
14518 8864 16641 1 149.00000 418.400000
14518 8865 16645 1 149.00000 418.400000
14519 8866 15215 1 149.00000 418.400000
14519 8867 16741 1 149.00000 418.400000
14520 8868 14775 1 149.00000 418.400000
16214 8869 18263 1 149.00000 418.400000
14521 8870 16630 1 149.00000 418.400000
14521 8871 14679 1 149.00000 418.400000
14523 8872 15469 1 149.00000 418.400000
14524 8873 15257 1 149.00000 418.400000
14524 8874 15876 1 149.00000 418.400000
14524 8875 15149 1 149.00000 418.400000
14525 8876 15216 1 149.00000 418.400000
14526 8877 15446 1 149.00000 418.400000
14527 8878 14940 1 149.00000 418.400000
14527 8879 17105 1 149.00000 418.400000
14528 8880 15514 1 149.00000 418.400000
14529 8881 15438 1 149.00000 418.400000
14529 8882 16573 1 149.00000 418.400000
14530 8883 15718 1 149.00000 418.400000
14531 8884 16117 1 149.00000 418.400000
14531 8885 15973 1 149.00000 418.400000
14532 8886 14856 1 149.00000 418.400000
14532 8887 16184 1 149.00000 418.400000
14534 8888 16436 1 149.00000 418.400000
14534 8889 16417 1 149.00000 418.400000
14534 8890 14767 1 149.00000 418.400000
14535 8891 14780 1 149.00000 418.400000
14535 8892 15862 1 149.00000 418.400000
13647 8893 14536 1 149.00000 418.400000
12333 8894 16395 1 149.00000 418.400000
14537 8895 16738 1 149.00000 418.400000
14538 8896 15179 1 149.00000 418.400000
14538 8897 15194 1 149.00000 418.400000
14538 8898 15434 1 149.00000 418.400000
14539 8899 14936 1 149.00000 418.400000
14540 8900 16737 1 149.00000 418.400000
14540 8901 16165 1 149.00000 418.400000
14541 8902 16432 1 149.00000 418.400000
14541 8903 16538 1 149.00000 418.400000
14542 8904 16810 1 149.00000 418.400000
14542 8905 16959 1 149.00000 418.400000
14542 8906 15442 1 149.00000 418.400000
14543 8907 16393 1 149.00000 418.400000
14544 8908 15363 1 149.00000 418.400000
14546 8909 15263 1 149.00000 418.400000
14546 8910 14976 1 149.00000 418.400000
14547 8911 16221 1 149.00000 418.400000
14547 8912 15083 1 149.00000 418.400000
14548 8913 14628 1 149.00000 418.400000
14549 8914 14971 1 149.00000 418.400000
14549 8915 15019 1 149.00000 418.400000
13472 8916 14550 1 149.00000 418.400000
14551 8917 15873 1 149.00000 418.400000
14552 8918 15244 1 149.00000 418.400000
14552 8919 15082 1 149.00000 418.400000
14552 8920 15620 1 149.00000 418.400000
14553 8921 16501 1 149.00000 418.400000
14553 8922 16539 1 149.00000 418.400000
18752 8923 19079 1 149.00000 418.400000
14555 8924 15525 1 149.00000 418.400000
14555 8925 16919 1 149.00000 418.400000
14555 8926 15427 1 149.00000 418.400000
14556 8927 16803 1 149.00000 418.400000
17483 8928 18755 1 149.00000 418.400000
14557 8929 16730 1 149.00000 418.400000
14558 8930 16939 1 149.00000 418.400000
14558 8931 16774 1 149.00000 418.400000
14558 8932 16154 1 149.00000 418.400000
14558 8933 16427 1 149.00000 418.400000
14559 8934 16592 1 149.00000 418.400000
14559 8935 15828 1 149.00000 418.400000
14560 8936 15318 1 149.00000 418.400000
14561 8937 15314 1 149.00000 418.400000
14561 8938 18917 1 149.00000 418.400000
14115 8939 14562 1 149.00000 418.400000
14563 8940 16721 1 149.00000 418.400000
14564 8941 14610 1 149.00000 418.400000
15451 8942 18758 1 149.00000 418.400000
14565 8943 16457 1 149.00000 418.400000
14565 8944 15157 1 149.00000 418.400000
14565 8945 16671 1 149.00000 418.400000
14565 8946 16914 1 149.00000 418.400000
14566 8947 16552 1 149.00000 418.400000
14566 8948 14805 1 149.00000 418.400000
14567 8949 16902 1 149.00000 418.400000
14567 8950 15600 1 149.00000 418.400000
14567 8951 15798 1 149.00000 418.400000
14567 8952 16961 1 149.00000 418.400000
14568 8953 15804 1 149.00000 418.400000
14569 8954 17867 1 149.00000 418.400000
14569 8955 15377 1 149.00000 418.400000
14569 8956 15091 1 149.00000 418.400000
14570 8957 14882 1 149.00000 418.400000
14570 8958 17008 1 149.00000 418.400000
14570 8959 15784 1 149.00000 418.400000
14572 8960 14576 1 149.00000 418.400000
14573 8961 17891 1 149.00000 418.400000
15647 8962 18023 1 149.00000 418.400000
14574 8963 16999 1 149.00000 418.400000
14575 8964 15792 1 149.00000 418.400000
14575 8965 16924 1 149.00000 418.400000
14575 8966 16703 1 149.00000 418.400000
14576 8967 16218 1 149.00000 418.400000
14577 8968 16022 1 149.00000 418.400000
14577 8969 15981 1 149.00000 418.400000
12348 8970 16566 1 149.00000 418.400000
14579 8971 16994 1 149.00000 418.400000
14579 8972 15724 1 149.00000 418.400000
14579 8973 14955 1 149.00000 418.400000
14580 8974 15047 1 149.00000 418.400000
16612 8975 18761 1 149.00000 418.400000
12273 8976 14797 1 149.00000 418.400000
14581 8977 16327 1 149.00000 418.400000
14581 8978 15301 1 149.00000 418.400000
14582 8979 16775 1 149.00000 418.400000
14582 8980 15221 1 149.00000 418.400000
14582 8981 15651 1 149.00000 418.400000
14583 8982 16042 1 149.00000 418.400000
14583 8983 15353 1 149.00000 418.400000
14584 8984 16733 1 149.00000 418.400000
14584 8985 18866 1 149.00000 418.400000
11868 8986 15554 1 149.00000 418.400000
14586 8987 16997 1 149.00000 418.400000
14586 8988 16470 1 149.00000 418.400000
14586 8989 14788 1 149.00000 418.400000
14587 8990 16511 1 149.00000 418.400000
14589 8991 15938 1 149.00000 418.400000
14589 8992 16516 1 149.00000 418.400000
14590 8993 16339 1 149.00000 418.400000
14590 8994 16836 1 149.00000 418.400000
14591 8995 15543 1 149.00000 418.400000
14593 8996 16875 1 149.00000 418.400000
14593 8997 14982 1 149.00000 418.400000
14230 8998 16111 1 149.00000 418.400000
14595 8999 15409 1 149.00000 418.400000
14595 9000 14952 1 149.00000 418.400000
16896 9001 18317 1 149.00000 418.400000
14596 9002 16686 1 149.00000 418.400000
14596 9003 15987 1 149.00000 418.400000
14596 9004 16143 1 149.00000 418.400000
14597 9005 15910 1 149.00000 418.400000
14598 9006 14953 1 149.00000 418.400000
14598 9007 16960 1 149.00000 418.400000
14598 9008 16773 1 149.00000 418.400000
14599 9009 16656 1 149.00000 418.400000
12030 9010 14600 1 149.00000 418.400000
14601 9011 15510 1 149.00000 418.400000
14601 9012 14746 1 149.00000 418.400000
14602 9013 16295 1 149.00000 418.400000
14602 9014 15773 1 149.00000 418.400000
14603 9015 14927 1 149.00000 418.400000
14927 9016 15552 1 149.00000 418.400000
14603 9017 16799 1 149.00000 418.400000
14604 9018 16099 1 149.00000 418.400000
14605 9019 14667 1 149.00000 418.400000
12219 9020 14606 1 149.00000 418.400000
14606 9021 16453 1 149.00000 418.400000
14607 9022 15602 1 149.00000 418.400000
14607 9023 16349 1 149.00000 418.400000
14608 9024 15439 1 149.00000 418.400000
14608 9025 16397 1 149.00000 418.400000
14609 9026 16345 1 149.00000 418.400000
14609 9027 16025 1 149.00000 418.400000
14609 9028 15847 1 149.00000 418.400000
14610 9029 15272 1 149.00000 418.400000
14610 9030 15019 1 149.00000 418.400000
14611 9031 15749 1 149.00000 418.400000
14611 9032 18812 1 149.00000 418.400000
13775 9033 14611 1 149.00000 418.400000
14612 9034 14959 1 149.00000 418.400000
15467 9035 19135 1 149.00000 418.400000
14614 9036 16491 1 149.00000 418.400000
14614 9037 15035 1 149.00000 418.400000
14615 9038 15961 1 149.00000 418.400000
14615 9039 15368 1 149.00000 418.400000
14616 9040 15708 1 149.00000 418.400000
15530 9041 16233 1 149.00000 418.400000
14616 9042 16233 1 149.00000 418.400000
14616 9043 15862 1 149.00000 418.400000
14617 9044 15076 1 149.00000 418.400000
14618 9045 16081 1 149.00000 418.400000
14619 9046 15396 1 149.00000 418.400000
14619 9047 16228 1 149.00000 418.400000
14620 9048 19175 1 149.00000 418.400000
14621 9049 15576 1 149.00000 418.400000
14621 9050 16567 1 149.00000 418.400000
14622 9051 15203 1 149.00000 418.400000
14622 9052 16927 1 149.00000 418.400000
14623 9053 15598 1 149.00000 418.400000
14624 9054 14795 1 149.00000 418.400000
14624 9055 16498 1 149.00000 418.400000
12791 9056 14626 1 149.00000 418.400000
14627 9057 14885 1 149.00000 418.400000
14627 9058 16691 1 149.00000 418.400000
14627 9059 15037 1 149.00000 418.400000
14628 9060 14651 1 149.00000 418.400000
13688 9061 15366 1 149.00000 418.400000
12634 9062 14629 1 149.00000 418.400000
14629 9063 14742 1 149.00000 418.400000
14629 9064 16597 1 149.00000 418.400000
14630 9065 15104 1 149.00000 418.400000
14631 9066 16308 1 149.00000 418.400000
15327 9067 18764 1 149.00000 418.400000
14632 9068 15629 1 149.00000 418.400000
15154 9069 15629 1 149.00000 418.400000
14633 9070 16913 1 149.00000 418.400000
14633 9071 15323 1 149.00000 418.400000
14634 9072 15762 1 149.00000 418.400000
12858 9073 15561 1 149.00000 418.400000
14635 9074 16256 1 149.00000 418.400000
14635 9075 15222 1 149.00000 418.400000
14636 9076 15711 1 149.00000 418.400000
14636 9077 15832 1 149.00000 418.400000
14636 9078 16969 1 149.00000 418.400000
14636 9079 16554 1 149.00000 418.400000
14637 9080 17015 1 149.00000 418.400000
14637 9081 14645 1 149.00000 418.400000
15191 9082 16190 1 149.00000 418.400000
14637 9083 16190 1 149.00000 418.400000
14638 9084 14683 1 149.00000 418.400000
13403 9085 14775 1 149.00000 418.400000
14640 9086 15486 1 149.00000 418.400000
14641 9087 16000 1 149.00000 418.400000
14642 9088 16863 1 149.00000 418.400000
14642 9089 15646 1 149.00000 418.400000
14642 9090 14754 1 149.00000 418.400000
14643 9091 15149 1 149.00000 418.400000
14643 9092 15352 1 149.00000 418.400000
14643 9093 14644 1 149.00000 418.400000
14644 9094 14855 1 149.00000 418.400000
14644 9095 17016 1 149.00000 418.400000
14645 9096 16675 1 149.00000 418.400000
14645 9097 15325 1 149.00000 418.400000
12151 9098 14646 1 149.00000 418.400000
14647 9099 16568 1 149.00000 418.400000
14647 9100 16752 1 149.00000 418.400000
14648 9101 16486 1 149.00000 418.400000
14648 9102 14863 1 149.00000 418.400000
16236 9103 18767 1 149.00000 418.400000
16211 9104 18767 1 149.00000 418.400000
14649 9105 15511 1 149.00000 418.400000
14649 9106 16604 1 149.00000 418.400000
14649 9107 14658 1 149.00000 418.400000
14650 9108 16474 1 149.00000 418.400000
14651 9109 16333 1 149.00000 418.400000
14652 9110 14681 1 149.00000 418.400000
13969 9111 16469 1 149.00000 418.400000
14652 9112 16006 1 149.00000 418.400000
14653 9113 16301 1 149.00000 418.400000
14654 9114 15409 1 149.00000 418.400000
14654 9115 15268 1 149.00000 418.400000
14654 9116 15739 1 149.00000 418.400000
14655 9117 16603 1 149.00000 418.400000
14655 9118 15671 1 149.00000 418.400000
15170 9119 15671 1 149.00000 418.400000
14655 9120 16444 1 149.00000 418.400000
14656 9121 16319 1 149.00000 418.400000
14656 9122 16249 1 149.00000 418.400000
14657 9123 16844 1 149.00000 418.400000
14657 9124 15729 1 149.00000 418.400000
14657 9125 16594 1 149.00000 418.400000
16203 9126 16594 1 149.00000 418.400000
14658 9127 16913 1 149.00000 418.400000
13012 9128 14658 1 149.00000 418.400000
14660 9129 15112 1 149.00000 418.400000
13698 9130 14661 1 149.00000 418.400000
14661 9131 15010 1 149.00000 418.400000
14661 9132 15591 1 149.00000 418.400000
14661 9133 16962 1 149.00000 418.400000
12426 9134 16471 1 149.00000 418.400000
14664 9135 16700 1 149.00000 418.400000
14664 9136 15735 1 149.00000 418.400000
14665 9137 14976 1 149.00000 418.400000
14665 9138 14781 1 149.00000 418.400000
16600 9139 18770 1 149.00000 418.400000
14985 9140 18770 1 149.00000 418.400000
14666 9141 16579 1 149.00000 418.400000
14667 9142 15186 1 149.00000 418.400000
15387 9143 18773 1 149.00000 418.400000
14933 9144 18773 1 149.00000 418.400000
14668 9145 15518 1 149.00000 418.400000
16038 9146 16752 1 149.00000 418.400000
15206 9147 16038 1 149.00000 418.400000
14670 9148 16038 1 149.00000 418.400000
14672 9149 16860 1 149.00000 418.400000
14672 9150 16113 1 149.00000 418.400000
14672 9151 14796 1 149.00000 418.400000
14673 9152 15286 1 149.00000 418.400000
14673 9153 16024 1 149.00000 418.400000
14673 9154 16072 1 149.00000 418.400000
14674 9155 16485 1 149.00000 418.400000
14675 9156 16048 1 149.00000 418.400000
14675 9157 16358 1 149.00000 418.400000
14676 9158 16095 1 149.00000 418.400000
13079 9159 15048 1 149.00000 418.400000
14677 9160 16374 1 149.00000 418.400000
14677 9161 16179 1 149.00000 418.400000
14677 9162 15858 1 149.00000 418.400000
14678 9163 15027 1 149.00000 418.400000
14678 9164 16645 1 149.00000 418.400000
14678 9165 17012 1 149.00000 418.400000
14679 9166 16906 1 149.00000 418.400000
14679 9167 15626 1 149.00000 418.400000
14680 9168 16110 1 149.00000 418.400000
14682 9169 15721 1 149.00000 418.400000
14684 9170 15571 1 149.00000 418.400000
14684 9171 16792 1 149.00000 418.400000
12743 9172 16227 1 149.00000 418.400000
14685 9173 15960 1 149.00000 418.400000
12103 9174 16892 1 149.00000 418.400000
15560 9175 15960 1 149.00000 418.400000
14686 9176 15394 1 149.00000 418.400000
14686 9177 16472 1 149.00000 418.400000
14687 9178 15143 1 149.00000 418.400000
14688 9179 15701 1 149.00000 418.400000
14148 9180 15601 1 149.00000 418.400000
14688 9181 16686 1 149.00000 418.400000
14689 9182 16403 1 149.00000 418.400000
14691 9183 15833 1 149.00000 418.400000
14691 9184 14936 1 149.00000 418.400000
14692 9185 16438 1 149.00000 418.400000
14694 9186 16822 1 149.00000 418.400000
14695 9187 14871 1 149.00000 418.400000
14696 9188 15572 1 149.00000 418.400000
14697 9189 15993 1 149.00000 418.400000
14697 9190 15450 1 149.00000 418.400000
14697 9191 16363 1 149.00000 418.400000
14698 9192 15172 1 149.00000 418.400000
15728 9193 18779 1 149.00000 418.400000
12783 9194 14699 1 149.00000 418.400000
14700 9195 16931 1 149.00000 418.400000
14701 9196 16395 1 149.00000 418.400000
14701 9197 15973 1 149.00000 418.400000
14702 9198 15815 1 149.00000 418.400000
14702 9199 16381 1 149.00000 418.400000
14702 9200 16382 1 149.00000 418.400000
14703 9201 15493 1 149.00000 418.400000
14703 9202 16611 1 149.00000 418.400000
14704 9203 16360 1 149.00000 418.400000
14704 9204 15625 1 149.00000 418.400000
14705 9205 16835 1 149.00000 418.400000
14705 9206 15010 1 149.00000 418.400000
14707 9207 16840 1 149.00000 418.400000
14707 9208 16489 1 149.00000 418.400000
14707 9209 15614 1 149.00000 418.400000
14708 9210 15952 1 149.00000 418.400000
14708 9211 16940 1 149.00000 418.400000
14708 9212 15857 1 149.00000 418.400000
14709 9213 14758 1 149.00000 418.400000
14710 9214 15422 1 149.00000 418.400000
14711 9215 16046 1 149.00000 418.400000
14805 9216 16234 1 149.00000 418.400000
15150 9217 16622 1 149.00000 418.400000
14712 9218 15150 1 149.00000 418.400000
14713 9219 14724 1 149.00000 418.400000
14714 9220 15468 1 149.00000 418.400000
14714 9221 16417 1 149.00000 418.400000
14715 9222 15617 1 149.00000 418.400000
14716 9223 15006 1 149.00000 418.400000
14716 9224 15099 1 149.00000 418.400000
14717 9225 15572 1 149.00000 418.400000
14718 9226 15723 1 149.00000 418.400000
14718 9227 14858 1 149.00000 418.400000
12565 9228 14719 1 149.00000 418.400000
14720 9229 15313 1 149.00000 418.400000
14720 9230 14891 1 149.00000 418.400000
14720 9231 16702 1 149.00000 418.400000
14723 9232 16186 1 149.00000 418.400000
14723 9233 16184 1 149.00000 418.400000
14725 9234 15781 1 149.00000 418.400000
14725 9235 14982 1 149.00000 418.400000
14726 9236 16196 1 149.00000 418.400000
14726 9237 15082 1 149.00000 418.400000
14727 9238 16727 1 149.00000 418.400000
14727 9239 15190 1 149.00000 418.400000
14728 9240 15545 1 149.00000 418.400000
14728 9241 15063 1 149.00000 418.400000
14728 9242 16538 1 149.00000 418.400000
14729 9243 16767 1 149.00000 418.400000
14729 9244 14785 1 149.00000 418.400000
14730 9245 15919 1 149.00000 418.400000
14730 9246 15053 1 149.00000 418.400000
14730 9247 16305 1 149.00000 418.400000
14731 9248 16058 1 149.00000 418.400000
14731 9249 14741 1 149.00000 418.400000
14731 9250 14855 1 149.00000 418.400000
14732 9251 15055 1 149.00000 418.400000
14732 9252 15880 1 149.00000 418.400000
14733 9253 16975 1 149.00000 418.400000
14734 9254 16665 1 149.00000 418.400000
14735 9255 15305 1 149.00000 418.400000
14735 9256 14892 1 149.00000 418.400000
14736 9257 16420 1 149.00000 418.400000
14736 9258 16096 1 149.00000 418.400000
14737 9259 16240 1 149.00000 418.400000
14737 9260 15039 1 149.00000 418.400000
14739 9261 15113 1 149.00000 418.400000
14739 9262 15517 1 149.00000 418.400000
14740 9263 16320 1 149.00000 418.400000
14740 9264 15301 1 149.00000 418.400000
14741 9265 16294 1 149.00000 418.400000
14744 9266 16112 1 149.00000 418.400000
14744 9267 15332 1 149.00000 418.400000
14744 9268 16653 1 149.00000 418.400000
14745 9269 15397 1 149.00000 418.400000
14746 9270 18800 1 149.00000 418.400000
15390 9271 18800 1 149.00000 418.400000
14747 9272 16105 1 149.00000 418.400000
14747 9273 15322 1 149.00000 418.400000
14747 9274 16840 1 149.00000 418.400000
14748 9275 15853 1 149.00000 418.400000
16149 9276 18785 1 149.00000 418.400000
14749 9277 16097 1 149.00000 418.400000
14750 9278 16983 1 149.00000 418.400000
14751 9279 16427 1 149.00000 418.400000
14751 9280 14765 1 149.00000 418.400000
14751 9281 16939 1 149.00000 418.400000
14752 9282 14863 1 149.00000 418.400000
12362 9283 16091 1 149.00000 418.400000
17711 9284 18845 1 149.00000 418.400000
14755 9285 16603 1 149.00000 418.400000
16200 9286 18788 1 149.00000 418.400000
14756 9287 15457 1 149.00000 418.400000
14756 9288 14985 1 149.00000 418.400000
14757 9289 15461 1 149.00000 418.400000
14757 9290 16067 1 149.00000 418.400000
14757 9291 16662 1 149.00000 418.400000
14758 9292 15563 1 149.00000 418.400000
14758 9293 16937 1 149.00000 418.400000
14760 9294 16424 1 149.00000 418.400000
14761 9295 16539 1 149.00000 418.400000
14761 9296 16203 1 149.00000 418.400000
14762 9297 16903 1 149.00000 418.400000
14762 9298 15031 1 149.00000 418.400000
14762 9299 15016 1 149.00000 418.400000
14763 9300 16254 1 149.00000 418.400000
14763 9301 15955 1 149.00000 418.400000
14764 9302 16314 1 149.00000 418.400000
14764 9303 15753 1 149.00000 418.400000
12478 9304 14765 1 149.00000 418.400000
14766 9305 15843 1 149.00000 418.400000
14766 9306 16077 1 149.00000 418.400000
14766 9307 15170 1 149.00000 418.400000
14767 9308 15759 1 149.00000 418.400000
14769 9309 16761 1 149.00000 418.400000
14770 9310 15054 1 149.00000 418.400000
14770 9311 15961 1 149.00000 418.400000
14771 9312 15703 1 149.00000 418.400000
14771 9313 16676 1 149.00000 418.400000
14771 9314 15321 1 149.00000 418.400000
14773 9315 15927 1 149.00000 418.400000
14773 9316 15557 1 149.00000 418.400000
14774 9317 16618 1 149.00000 418.400000
14777 9318 14948 1 149.00000 418.400000
14777 9319 16909 1 149.00000 418.400000
14777 9320 15207 1 149.00000 418.400000
14778 9321 15217 1 149.00000 418.400000
14778 9322 16942 1 149.00000 418.400000
14779 9323 15958 1 149.00000 418.400000
14780 9324 15942 1 149.00000 418.400000
14780 9325 15708 1 149.00000 418.400000
14782 9326 16048 1 149.00000 418.400000
14782 9327 16095 1 149.00000 418.400000
14783 9328 16021 1 149.00000 418.400000
12218 9329 13019 1 149.00000 418.400000
14784 9330 15713 1 149.00000 418.400000
14785 9331 15344 1 149.00000 418.400000
14785 9332 16596 1 149.00000 418.400000
14785 9333 16284 1 149.00000 418.400000
14786 9334 15755 1 149.00000 418.400000
13694 9335 14786 1 149.00000 418.400000
14787 9336 15481 1 149.00000 418.400000
14788 9337 16111 1 149.00000 418.400000
14788 9338 15527 1 149.00000 418.400000
14789 9339 16861 1 149.00000 418.400000
14790 9340 15946 1 149.00000 418.400000
14790 9341 16302 1 149.00000 418.400000
14791 9342 16642 1 149.00000 418.400000
14791 9343 15334 1 149.00000 418.400000
14792 9344 18947 1 149.00000 418.400000
14792 9345 16399 1 149.00000 418.400000
14793 9346 15638 1 149.00000 418.400000
14794 9347 15342 1 149.00000 418.400000
14795 9348 18962 1 149.00000 418.400000
14796 9349 16254 1 149.00000 418.400000
14797 9350 15136 1 149.00000 418.400000
14798 9351 15042 1 149.00000 418.400000
12677 9352 14798 1 149.00000 418.400000
14799 9353 16561 1 149.00000 418.400000
14800 9354 16745 1 149.00000 418.400000
14801 9355 15310 1 149.00000 418.400000
14801 9356 16087 1 149.00000 418.400000
14802 9357 15230 1 149.00000 418.400000
14803 9358 16271 1 149.00000 418.400000
15180 9359 16258 1 149.00000 418.400000
14803 9360 15180 1 149.00000 418.400000
14804 9361 16074 1 149.00000 418.400000
14711 9362 16234 1 149.00000 418.400000
14806 9363 16370 1 149.00000 418.400000
14806 9364 14873 1 149.00000 418.400000
14807 9365 16123 1 149.00000 418.400000
14807 9366 15410 1 149.00000 418.400000
14807 9367 16492 1 149.00000 418.400000
14808 9368 16820 1 149.00000 418.400000
14808 9369 16295 1 149.00000 418.400000
14809 9370 15088 1 149.00000 418.400000
14810 9371 15295 1 149.00000 418.400000
14810 9372 16418 1 149.00000 418.400000
14811 9373 16506 1 149.00000 418.400000
14812 9374 15302 1 149.00000 418.400000
16577 9375 17259 1 149.00000 418.400000
14813 9376 16632 1 149.00000 418.400000
14813 9377 15923 1 149.00000 418.400000
14814 9378 15905 1 149.00000 418.400000
14814 9379 15071 1 149.00000 418.400000
14815 9380 15596 1 149.00000 418.400000
14815 9381 16859 1 149.00000 418.400000
14816 9382 16628 1 149.00000 418.400000
14816 9383 14880 1 149.00000 418.400000
14418 9384 14818 1 149.00000 418.400000
14819 9385 16939 1 149.00000 418.400000
14819 9386 15109 1 149.00000 418.400000
14819 9387 16774 1 149.00000 418.400000
16517 9388 18131 1 149.00000 418.400000
14820 9389 15986 1 149.00000 418.400000
14820 9390 14911 1 149.00000 418.400000
14821 9391 16072 1 149.00000 418.400000
14822 9392 15117 1 149.00000 418.400000
14823 9393 15138 1 149.00000 418.400000
11627 9394 14823 1 149.00000 418.400000
14823 9395 16619 1 149.00000 418.400000
14824 9396 16613 1 149.00000 418.400000
14826 9397 16154 1 149.00000 418.400000
14826 9398 15289 1 149.00000 418.400000
14826 9399 16679 1 149.00000 418.400000
14827 9400 14911 1 149.00000 418.400000
14828 9401 15006 1 149.00000 418.400000
14829 9402 19185 1 149.00000 418.400000
14829 9403 15033 1 149.00000 418.400000
14830 9404 15619 1 149.00000 418.400000
17807 9405 18791 1 149.00000 418.400000
14833 9406 15669 1 149.00000 418.400000
14834 9407 16127 1 149.00000 418.400000
14834 9408 16653 1 149.00000 418.400000
14835 9409 16389 1 149.00000 418.400000
14836 9410 16034 1 149.00000 418.400000
14836 9411 16654 1 149.00000 418.400000
14837 9412 14863 1 149.00000 418.400000
14837 9413 15881 1 149.00000 418.400000
14838 9414 15890 1 149.00000 418.400000
14839 9415 15257 1 149.00000 418.400000
14839 9416 16058 1 149.00000 418.400000
14839 9417 15603 1 149.00000 418.400000
14839 9418 17016 1 149.00000 418.400000
14840 9419 15171 1 149.00000 418.400000
14841 9420 16677 1 149.00000 418.400000
13223 9421 14841 1 149.00000 418.400000
14841 9422 15645 1 149.00000 418.400000
14842 9423 18830 1 149.00000 418.400000
14842 9424 17483 1 149.00000 418.400000
14842 9425 16221 1 149.00000 418.400000
14843 9426 14915 1 149.00000 418.400000
14844 9427 15549 1 149.00000 418.400000
14845 9428 15088 1 149.00000 418.400000
14845 9429 16987 1 149.00000 418.400000
14846 9430 15273 1 149.00000 418.400000
14847 9431 16371 1 149.00000 418.400000
14848 9432 14934 1 149.00000 418.400000
14848 9433 15599 1 149.00000 418.400000
14849 9434 16973 1 149.00000 418.400000
14850 9435 16420 1 149.00000 418.400000
14850 9436 16943 1 149.00000 418.400000
14851 9437 15035 1 149.00000 418.400000
14853 9438 15413 1 149.00000 418.400000
14853 9439 17003 1 149.00000 418.400000
14854 9440 15626 1 149.00000 418.400000
14855 9441 15876 1 149.00000 418.400000
14856 9442 15806 1 149.00000 418.400000
14856 9443 16563 1 149.00000 418.400000
14857 9444 16496 1 149.00000 418.400000
14858 9445 15233 1 149.00000 418.400000
14858 9446 15880 1 149.00000 418.400000
14858 9447 15228 1 149.00000 418.400000
14859 9448 16192 1 149.00000 418.400000
14859 9449 15301 1 149.00000 418.400000
14859 9450 16560 1 149.00000 418.400000
14860 9451 16872 1 149.00000 418.400000
14285 9452 14885 1 149.00000 418.400000
14861 9453 15918 1 149.00000 418.400000
14861 9454 14981 1 149.00000 418.400000
14862 9455 15608 1 149.00000 418.400000
16890 9456 18884 1 149.00000 418.400000
14863 9457 15502 1 149.00000 418.400000
14864 9458 18803 1 149.00000 418.400000
14865 9459 15968 1 149.00000 418.400000
14865 9460 15359 1 149.00000 418.400000
14866 9461 16690 1 149.00000 418.400000
14866 9462 16468 1 149.00000 418.400000
14866 9463 15436 1 149.00000 418.400000
15308 9464 18794 1 149.00000 418.400000
13083 9465 15150 1 149.00000 418.400000
14868 9466 15377 1 149.00000 418.400000
14869 9467 16162 1 149.00000 418.400000
14869 9468 15237 1 149.00000 418.400000
12804 9469 14870 1 149.00000 418.400000
14870 9470 16526 1 149.00000 418.400000
14870 9471 16211 1 149.00000 418.400000
14872 9472 16154 1 149.00000 418.400000
14873 9473 14999 1 149.00000 418.400000
14873 9474 16701 1 149.00000 418.400000
14874 9475 17001 1 149.00000 418.400000
14874 9476 15500 1 149.00000 418.400000
14874 9477 15440 1 149.00000 418.400000
14875 9478 16494 1 149.00000 418.400000
14876 9479 14910 1 149.00000 418.400000
14876 9480 16364 1 149.00000 418.400000
14877 9481 15238 1 149.00000 418.400000
14878 9482 15874 1 149.00000 418.400000
14879 9483 15839 1 149.00000 418.400000
14880 9484 16937 1 149.00000 418.400000
14816 9485 15164 1 149.00000 418.400000
12616 9486 15653 1 149.00000 418.400000
14881 9487 14938 1 149.00000 418.400000
14882 9488 16851 1 149.00000 418.400000
14882 9489 15566 1 149.00000 418.400000
14883 9490 15372 1 149.00000 418.400000
14883 9491 15162 1 149.00000 418.400000
15397 9492 17217 1 149.00000 418.400000
14884 9493 16090 1 149.00000 418.400000
14885 9494 15025 1 149.00000 418.400000
14886 9495 15756 1 149.00000 418.400000
14887 9496 15309 1 149.00000 418.400000
14888 9497 16020 1 149.00000 418.400000
14888 9498 15437 1 149.00000 418.400000
14889 9499 15971 1 149.00000 418.400000
14890 9500 16431 1 149.00000 418.400000
14892 9501 14911 1 149.00000 418.400000
14892 9502 15399 1 149.00000 418.400000
14894 9503 16876 1 149.00000 418.400000
14895 9504 18929 1 149.00000 418.400000
16678 9505 18980 1 149.00000 418.400000
14896 9506 18980 1 149.00000 418.400000
14897 9507 16070 1 149.00000 418.400000
13813 9508 14897 1 149.00000 418.400000
14898 9509 15531 1 149.00000 418.400000
12773 9510 16104 1 149.00000 418.400000
14899 9511 14966 1 149.00000 418.400000
14899 9512 15986 1 149.00000 418.400000
14901 9513 14939 1 149.00000 418.400000
14901 9514 15472 1 149.00000 418.400000
14901 9515 15382 1 149.00000 418.400000
14901 9516 16937 1 149.00000 418.400000
12300 9517 16090 1 149.00000 418.400000
14903 9518 16249 1 149.00000 418.400000
14904 9519 15064 1 149.00000 418.400000
14905 9520 15534 1 149.00000 418.400000
14906 9521 14997 1 149.00000 418.400000
14907 9522 17013 1 149.00000 418.400000
14908 9523 16864 1 149.00000 418.400000
14908 9524 16805 1 149.00000 418.400000
14909 9525 16255 1 149.00000 418.400000
14910 9526 15674 1 149.00000 418.400000
14912 9527 16014 1 149.00000 418.400000
14912 9528 16261 1 149.00000 418.400000
14913 9529 14992 1 149.00000 418.400000
14913 9530 15071 1 149.00000 418.400000
14913 9531 16055 1 149.00000 418.400000
15638 9532 16180 1 149.00000 418.400000
14914 9533 15638 1 149.00000 418.400000
14914 9534 16962 1 149.00000 418.400000
14915 9535 15419 1 149.00000 418.400000
14916 9536 16466 1 149.00000 418.400000
14916 9537 15894 1 149.00000 418.400000
14917 9538 15112 1 149.00000 418.400000
14917 9539 16843 1 149.00000 418.400000
14918 9540 15054 1 149.00000 418.400000
14919 9541 17603 1 149.00000 418.400000
14919 9542 17287 1 149.00000 418.400000
14919 9543 16439 1 149.00000 418.400000
14919 9544 15357 1 149.00000 418.400000
14920 9545 15670 1 149.00000 418.400000
14921 9546 16839 1 149.00000 418.400000
14922 9547 15391 1 149.00000 418.400000
14922 9548 15050 1 149.00000 418.400000
17273 9549 18953 1 149.00000 418.400000
14925 9550 15689 1 149.00000 418.400000
14925 9551 15764 1 149.00000 418.400000
14926 9552 16545 1 149.00000 418.400000
14926 9553 16465 1 149.00000 418.400000
14926 9554 15486 1 149.00000 418.400000
14927 9555 16029 1 149.00000 418.400000
14928 9556 15014 1 149.00000 418.400000
14928 9557 15077 1 149.00000 418.400000
15666 9558 18557 1 149.00000 418.400000
14929 9559 15428 1 149.00000 418.400000
14929 9560 16131 1 149.00000 418.400000
14930 9561 16383 1 149.00000 418.400000
14930 9562 15631 1 149.00000 418.400000
14931 9563 15313 1 149.00000 418.400000
14932 9564 15325 1 149.00000 418.400000
14933 9565 16813 1 149.00000 418.400000
14933 9566 16614 1 149.00000 418.400000
14848 9567 15888 1 149.00000 418.400000
14233 9568 14935 1 149.00000 418.400000
14936 9569 15958 1 149.00000 418.400000
14936 9570 15458 1 149.00000 418.400000
14937 9571 15419 1 149.00000 418.400000
14939 9572 15564 1 149.00000 418.400000
14940 9573 16355 1 149.00000 418.400000
14941 9574 15836 1 149.00000 418.400000
14941 9575 15709 1 149.00000 418.400000
14942 9576 16697 1 149.00000 418.400000
14942 9577 16914 1 149.00000 418.400000
14943 9578 19058 1 149.00000 418.400000
14944 9579 15480 1 149.00000 418.400000
14945 9580 16960 1 149.00000 418.400000
14946 9581 18926 1 149.00000 418.400000
14946 9582 16222 1 149.00000 418.400000
14946 9583 16483 1 149.00000 418.400000
14949 9584 16735 1 149.00000 418.400000
14949 9585 16208 1 149.00000 418.400000
14950 9586 16780 1 149.00000 418.400000
14951 9587 16498 1 149.00000 418.400000
14952 9588 16694 1 149.00000 418.400000
14952 9589 16693 1 149.00000 418.400000
14952 9590 15861 1 149.00000 418.400000
14954 9591 15299 1 149.00000 418.400000
14954 9592 15357 1 149.00000 418.400000
14955 9593 16222 1 149.00000 418.400000
14955 9594 16077 1 149.00000 418.400000
14956 9595 16381 1 149.00000 418.400000
14956 9596 15038 1 149.00000 418.400000
15622 9597 16381 1 149.00000 418.400000
14957 9598 15060 1 149.00000 418.400000
14957 9599 16500 1 149.00000 418.400000
14958 9600 16226 1 149.00000 418.400000
15210 9601 18797 1 149.00000 418.400000
15679 9602 18797 1 149.00000 418.400000
14959 9603 15349 1 149.00000 418.400000
14960 9604 16449 1 149.00000 418.400000
14960 9605 15112 1 149.00000 418.400000
14961 9606 16200 1 149.00000 418.400000
14962 9607 15996 1 149.00000 418.400000
14962 9608 16283 1 149.00000 418.400000
14963 9609 16553 1 149.00000 418.400000
16553 9610 16575 1 149.00000 418.400000
16456 9611 16553 1 149.00000 418.400000
14964 9612 16640 1 149.00000 418.400000
14964 9613 16025 1 149.00000 418.400000
14965 9614 15694 1 149.00000 418.400000
14965 9615 16054 1 149.00000 418.400000
14967 9616 16037 1 149.00000 418.400000
14967 9617 16873 1 149.00000 418.400000
14969 9618 16230 1 149.00000 418.400000
14970 9619 15717 1 149.00000 418.400000
14971 9620 16907 1 149.00000 418.400000
12977 9621 15391 1 149.00000 418.400000
15686 9622 19145 1 149.00000 418.400000
14975 9623 16607 1 149.00000 418.400000
14975 9624 16590 1 149.00000 418.400000
14975 9625 16404 1 149.00000 418.400000
14977 9626 16644 1 149.00000 418.400000
14977 9627 15789 1 149.00000 418.400000
14977 9628 15823 1 149.00000 418.400000
14977 9629 15065 1 149.00000 418.400000
14978 9630 16552 1 149.00000 418.400000
14978 9631 15304 1 149.00000 418.400000
14979 9632 16096 1 149.00000 418.400000
15908 9633 16096 1 149.00000 418.400000
14979 9634 16943 1 149.00000 418.400000
14980 9635 15384 1 149.00000 418.400000
14980 9636 15460 1 149.00000 418.400000
14981 9637 16082 1 149.00000 418.400000
14982 9638 16858 1 149.00000 418.400000
14982 9639 16945 1 149.00000 418.400000
14983 9640 15567 1 149.00000 418.400000
14984 9641 15303 1 149.00000 418.400000
14985 9642 15709 1 149.00000 418.400000
14985 9643 15358 1 149.00000 418.400000
16753 9644 17507 1 149.00000 418.400000
17507 9645 19016 1 149.00000 418.400000
14986 9646 16429 1 149.00000 418.400000
14986 9647 16259 1 149.00000 418.400000
14987 9648 15479 1 149.00000 418.400000
14989 9649 16165 1 149.00000 418.400000
14989 9650 16431 1 149.00000 418.400000
14989 9651 16625 1 149.00000 418.400000
14990 9652 18935 1 149.00000 418.400000
14991 9653 15649 1 149.00000 418.400000
14994 9654 16310 1 149.00000 418.400000
15943 9655 16147 1 149.00000 418.400000
14995 9656 16147 1 149.00000 418.400000
14996 9657 15704 1 149.00000 418.400000
14997 9658 15971 1 149.00000 418.400000
14997 9659 15630 1 149.00000 418.400000
14997 9660 16634 1 149.00000 418.400000
14998 9661 16270 1 149.00000 418.400000
14998 9662 15439 1 149.00000 418.400000
14998 9663 15086 1 149.00000 418.400000
14999 9664 16475 1 149.00000 418.400000
15000 9665 15095 1 149.00000 418.400000
15000 9666 15398 1 149.00000 418.400000
15001 9667 16394 1 149.00000 418.400000
15001 9668 19031 1 149.00000 418.400000
15001 9669 15161 1 149.00000 418.400000
15001 9670 16050 1 149.00000 418.400000
15002 9671 15212 1 149.00000 418.400000
15003 9672 18023 1 149.00000 418.400000
15004 9673 16812 1 149.00000 418.400000
15005 9674 15308 1 149.00000 418.400000
15006 9675 16414 1 149.00000 418.400000
15007 9676 15152 1 149.00000 418.400000
15008 9677 15852 1 149.00000 418.400000
15008 9678 15528 1 149.00000 418.400000
15008 9679 15787 1 149.00000 418.400000
15009 9680 16845 1 149.00000 418.400000
15009 9681 15413 1 149.00000 418.400000
15009 9682 15553 1 149.00000 418.400000
16905 9683 18803 1 149.00000 418.400000
15010 9684 15418 1 149.00000 418.400000
15011 9685 16131 1 149.00000 418.400000
15011 9686 15865 1 149.00000 418.400000
16140 9687 16938 1 149.00000 418.400000
15012 9688 16938 1 149.00000 418.400000
15013 9689 16615 1 149.00000 418.400000
18806 9690 18983 1 149.00000 418.400000
15014 9691 17245 1 149.00000 418.400000
15015 9692 16565 1 149.00000 418.400000
15016 9693 16924 1 149.00000 418.400000
15017 9694 15241 1 149.00000 418.400000
15017 9695 15869 1 149.00000 418.400000
15018 9696 16903 1 149.00000 418.400000
15018 9697 16032 1 149.00000 418.400000
15019 9698 15439 1 149.00000 418.400000
15020 9699 15963 1 149.00000 418.400000
15020 9700 16625 1 149.00000 418.400000
15020 9701 16510 1 149.00000 418.400000
15021 9702 15039 1 149.00000 418.400000
15021 9703 15748 1 149.00000 418.400000
15021 9704 16366 1 149.00000 418.400000
15022 9705 16405 1 149.00000 418.400000
15022 9706 16279 1 149.00000 418.400000
15195 9707 16405 1 149.00000 418.400000
15023 9708 16299 1 149.00000 418.400000
11881 9709 15024 1 149.00000 418.400000
15025 9710 16092 1 149.00000 418.400000
15025 9711 16034 1 149.00000 418.400000
15026 9712 15438 1 149.00000 418.400000
15026 9713 15609 1 149.00000 418.400000
15027 9714 16332 1 149.00000 418.400000
15027 9715 16057 1 149.00000 418.400000
15028 9716 16987 1 149.00000 418.400000
15028 9717 15284 1 149.00000 418.400000
15029 9718 15035 1 149.00000 418.400000
15030 9719 16187 1 149.00000 418.400000
15030 9720 15605 1 149.00000 418.400000
15030 9721 15225 1 149.00000 418.400000
15032 9722 15560 1 149.00000 418.400000
15032 9723 16338 1 149.00000 418.400000
15034 9724 16200 1 149.00000 418.400000
15035 9725 15299 1 149.00000 418.400000
15036 9726 16420 1 149.00000 418.400000
12043 9727 17639 1 149.00000 418.400000
15037 9728 16092 1 149.00000 418.400000
15683 9729 15990 1 149.00000 418.400000
15038 9730 15990 1 149.00000 418.400000
15040 9731 16061 1 149.00000 418.400000
15041 9732 15877 1 149.00000 418.400000
15041 9733 16459 1 149.00000 418.400000
15041 9734 16136 1 149.00000 418.400000
15041 9735 16830 1 149.00000 418.400000
15042 9736 15333 1 149.00000 418.400000
15042 9737 15814 1 149.00000 418.400000
15042 9738 15862 1 149.00000 418.400000
15043 9739 15994 1 149.00000 418.400000
13194 9740 16239 1 149.00000 418.400000
15045 9741 15921 1 149.00000 418.400000
15046 9742 15722 1 149.00000 418.400000
15046 9743 16245 1 149.00000 418.400000
15047 9744 16305 1 149.00000 418.400000
15047 9745 16550 1 149.00000 418.400000
15048 9746 15970 1 149.00000 418.400000
15048 9747 16159 1 149.00000 418.400000
15049 9748 16918 1 149.00000 418.400000
15050 9749 16925 1 149.00000 418.400000
15050 9750 15166 1 149.00000 418.400000
15051 9751 15787 1 149.00000 418.400000
15051 9752 16007 1 149.00000 418.400000
15051 9753 15752 1 149.00000 418.400000
15052 9754 15448 1 149.00000 418.400000
15053 9755 15069 1 149.00000 418.400000
15053 9756 16503 1 149.00000 418.400000
15057 9757 15499 1 149.00000 418.400000
15057 9758 15362 1 149.00000 418.400000
15183 9759 15831 1 149.00000 418.400000
15059 9760 15183 1 149.00000 418.400000
15060 9761 15083 1 149.00000 418.400000
15061 9762 16808 1 149.00000 418.400000
15061 9763 15672 1 149.00000 418.400000
15090 9764 19150 1 149.00000 418.400000
15788 9765 19150 1 149.00000 418.400000
15063 9766 18923 1 149.00000 418.400000
15064 9767 15555 1 149.00000 418.400000
15064 9768 15697 1 149.00000 418.400000
15065 9769 15146 1 149.00000 418.400000
15065 9770 15919 1 149.00000 418.400000
15066 9771 16957 1 149.00000 418.400000
15066 9772 16224 1 149.00000 418.400000
15068 9773 15851 1 149.00000 418.400000
15069 9774 16336 1 149.00000 418.400000
15070 9775 16210 1 149.00000 418.400000
15071 9776 16909 1 149.00000 418.400000
14814 9777 15592 1 149.00000 418.400000
15072 9778 16387 1 149.00000 418.400000
15072 9779 15890 1 149.00000 418.400000
15073 9780 16637 1 149.00000 418.400000
15074 9781 16452 1 149.00000 418.400000
15074 9782 16789 1 149.00000 418.400000
15075 9783 16797 1 149.00000 418.400000
15075 9784 15227 1 149.00000 418.400000
15075 9785 15944 1 149.00000 418.400000
15076 9786 16417 1 149.00000 418.400000
15078 9787 15145 1 149.00000 418.400000
13474 9788 15078 1 149.00000 418.400000
15079 9789 16217 1 149.00000 418.400000
15080 9790 16647 1 149.00000 418.400000
15080 9791 15827 1 149.00000 418.400000
15080 9792 18842 1 149.00000 418.400000
15083 9793 17009 1 149.00000 418.400000
15084 9794 16442 1 149.00000 418.400000
15084 9795 16091 1 149.00000 418.400000
15085 9796 15441 1 149.00000 418.400000
15085 9797 17119 1 149.00000 418.400000
15087 9798 15657 1 149.00000 418.400000
15087 9799 15922 1 149.00000 418.400000
15089 9800 15386 1 149.00000 418.400000
15089 9801 15902 1 149.00000 418.400000
15090 9802 15496 1 149.00000 418.400000
15090 9803 15663 1 149.00000 418.400000
15092 9804 16039 1 149.00000 418.400000
15094 9805 15245 1 149.00000 418.400000
15095 9806 16985 1 149.00000 418.400000
15096 9807 16944 1 149.00000 418.400000
15097 9808 16712 1 149.00000 418.400000
15098 9809 15182 1 149.00000 418.400000
15098 9810 15854 1 149.00000 418.400000
15099 9811 15140 1 149.00000 418.400000
15099 9812 16920 1 149.00000 418.400000
15100 9813 15108 1 149.00000 418.400000
15100 9814 16839 1 149.00000 418.400000
15100 9815 16100 1 149.00000 418.400000
15101 9816 15235 1 149.00000 418.400000
13791 9817 15102 1 149.00000 418.400000
15102 9818 16595 1 149.00000 418.400000
15103 9819 16217 1 149.00000 418.400000
15103 9820 16386 1 149.00000 418.400000
15105 9821 15514 1 149.00000 418.400000
15106 9822 15258 1 149.00000 418.400000
15106 9823 17483 1 149.00000 418.400000
15417 9824 18821 1 149.00000 418.400000
15107 9825 16660 1 149.00000 418.400000
15108 9826 16624 1 149.00000 418.400000
15109 9827 18995 1 149.00000 418.400000
15109 9828 15679 1 149.00000 418.400000
15110 9829 16263 1 149.00000 418.400000
15110 9830 15497 1 149.00000 418.400000
15111 9831 16695 1 149.00000 418.400000
15111 9832 16290 1 149.00000 418.400000
15111 9833 16823 1 149.00000 418.400000
15112 9834 16056 1 149.00000 418.400000
15113 9835 16672 1 149.00000 418.400000
15114 9836 15289 1 149.00000 418.400000
14088 9837 15114 1 149.00000 418.400000
15114 9838 15670 1 149.00000 418.400000
13218 9839 15116 1 149.00000 418.400000
15116 9840 15772 1 149.00000 418.400000
15117 9841 15503 1 149.00000 418.400000
15117 9842 15205 1 149.00000 418.400000
15119 9843 15301 1 149.00000 418.400000
15119 9844 19073 1 149.00000 418.400000
15121 9845 16805 1 149.00000 418.400000
11790 9846 15121 1 149.00000 418.400000
11609 9847 15121 1 149.00000 418.400000
15122 9848 15431 1 149.00000 418.400000
15123 9849 15961 1 149.00000 418.400000
15123 9850 16886 1 149.00000 418.400000
15124 9851 16278 1 149.00000 418.400000
16185 9852 18143 1 149.00000 418.400000
16911 9853 18143 1 149.00000 418.400000
15126 9854 16973 1 149.00000 418.400000
15128 9855 16355 1 149.00000 418.400000
15128 9856 15243 1 149.00000 418.400000
15129 9857 16659 1 149.00000 418.400000
15130 9858 15181 1 149.00000 418.400000
15130 9859 17855 1 149.00000 418.400000
15131 9860 16059 1 149.00000 418.400000
15131 9861 15861 1 149.00000 418.400000
15132 9862 16592 1 149.00000 418.400000
15132 9863 16596 1 149.00000 418.400000
15133 9864 15312 1 149.00000 418.400000
15134 9865 15377 1 149.00000 418.400000
15134 9866 16119 1 149.00000 418.400000
15135 9867 15847 1 149.00000 418.400000
15135 9868 16863 1 149.00000 418.400000
15135 9869 15971 1 149.00000 418.400000
15136 9870 15340 1 149.00000 418.400000
15137 9871 16382 1 149.00000 418.400000
15137 9872 16555 1 149.00000 418.400000
15138 9873 15763 1 149.00000 418.400000
15138 9874 15310 1 149.00000 418.400000
15139 9875 16866 1 149.00000 418.400000
15139 9876 16153 1 149.00000 418.400000
15140 9877 19190 1 149.00000 418.400000
15140 9878 15875 1 149.00000 418.400000
15141 9879 15903 1 149.00000 418.400000
15143 9880 16893 1 149.00000 418.400000
15143 9881 15920 1 149.00000 418.400000
15144 9882 15950 1 149.00000 418.400000
15144 9883 15849 1 149.00000 418.400000
15145 9884 15307 1 149.00000 418.400000
15148 9885 16974 1 149.00000 418.400000
15152 9886 16971 1 149.00000 418.400000
13260 9887 15742 1 149.00000 418.400000
15154 9888 16522 1 149.00000 418.400000
13260 9889 15154 1 149.00000 418.400000
15155 9890 16615 1 149.00000 418.400000
15155 9891 16772 1 149.00000 418.400000
13041 9892 15155 1 149.00000 418.400000
15156 9893 15430 1 149.00000 418.400000
15156 9894 16382 1 149.00000 418.400000
15157 9895 16713 1 149.00000 418.400000
15158 9896 15566 1 149.00000 418.400000
15159 9897 16972 1 149.00000 418.400000
15159 9898 15683 1 149.00000 418.400000
15160 9899 18986 1 149.00000 418.400000
15162 9900 15780 1 149.00000 418.400000
15162 9901 16271 1 149.00000 418.400000
15162 9902 15190 1 149.00000 418.400000
15163 9903 16748 1 149.00000 418.400000
15163 9904 18872 1 149.00000 418.400000
15163 9905 16182 1 149.00000 418.400000
15164 9906 15605 1 149.00000 418.400000
15164 9907 16585 1 149.00000 418.400000
15165 9908 15665 1 149.00000 418.400000
15165 9909 15796 1 149.00000 418.400000
15166 9910 15482 1 149.00000 418.400000
15168 9911 16190 1 149.00000 418.400000
15169 9912 16782 1 149.00000 418.400000
15170 9913 16433 1 149.00000 418.400000
15173 9914 16078 1 149.00000 418.400000
15173 9915 15380 1 149.00000 418.400000
15174 9916 15369 1 149.00000 418.400000
15175 9917 16622 1 149.00000 418.400000
15175 9918 15410 1 149.00000 418.400000
15176 9919 15746 1 149.00000 418.400000
15176 9920 16394 1 149.00000 418.400000
15177 9921 16396 1 149.00000 418.400000
14491 9922 15178 1 149.00000 418.400000
13076 9923 16975 1 149.00000 418.400000
15179 9924 16876 1 149.00000 418.400000
15179 9925 15427 1 149.00000 418.400000
15180 9926 15875 1 149.00000 418.400000
15181 9927 18977 1 149.00000 418.400000
15182 9928 16533 1 149.00000 418.400000
15186 9929 15848 1 149.00000 418.400000
15187 9930 16452 1 149.00000 418.400000
15188 9931 16649 1 149.00000 418.400000
15188 9932 15893 1 149.00000 418.400000
15189 9933 16521 1 149.00000 418.400000
15190 9934 15522 1 149.00000 418.400000
15191 9935 15243 1 149.00000 418.400000
15192 9936 16019 1 149.00000 418.400000
15192 9937 15913 1 149.00000 418.400000
13788 9938 15193 1 149.00000 418.400000
12571 9939 15194 1 149.00000 418.400000
14423 9940 15525 1 149.00000 418.400000
15195 9941 16569 1 149.00000 418.400000
15195 9942 15286 1 149.00000 418.400000
15197 9943 15517 1 149.00000 418.400000
15198 9944 16029 1 149.00000 418.400000
15199 9945 16400 1 149.00000 418.400000
15199 9946 15658 1 149.00000 418.400000
15200 9947 16255 1 149.00000 418.400000
15200 9948 15688 1 149.00000 418.400000
15201 9949 16014 1 149.00000 418.400000
15201 9950 18992 1 149.00000 418.400000
15202 9951 16126 1 149.00000 418.400000
15202 9952 16027 1 149.00000 418.400000
15202 9953 16013 1 149.00000 418.400000
15202 9954 16117 1 149.00000 418.400000
11761 9955 15853 1 149.00000 418.400000
15205 9956 15293 1 149.00000 418.400000
15206 9957 16231 1 149.00000 418.400000
15207 9958 16195 1 149.00000 418.400000
15208 9959 16658 1 149.00000 418.400000
15208 9960 16752 1 149.00000 418.400000
15209 9961 16079 1 149.00000 418.400000
16639 9962 18830 1 149.00000 418.400000
15258 9963 18830 1 149.00000 418.400000
15210 9964 15975 1 149.00000 418.400000
15211 9965 15229 1 149.00000 418.400000
15211 9966 16718 1 149.00000 418.400000
15212 9967 15444 1 149.00000 418.400000
15213 9968 15529 1 149.00000 418.400000
14963 9969 15213 1 149.00000 418.400000
15214 9970 15783 1 149.00000 418.400000
15216 9971 16992 1 149.00000 418.400000
15216 9972 15526 1 149.00000 418.400000
15217 9973 16068 1 149.00000 418.400000
14033 9974 15218 1 149.00000 418.400000
15218 9975 15567 1 149.00000 418.400000
15219 9976 16308 1 149.00000 418.400000
15220 9977 16153 1 149.00000 418.400000
11863 9978 16739 1 149.00000 418.400000
13952 9979 15222 1 149.00000 418.400000
15222 9980 15402 1 149.00000 418.400000
13512 9981 15331 1 149.00000 418.400000
15224 9982 16648 1 149.00000 418.400000
15225 9983 15703 1 149.00000 418.400000
15226 9984 16070 1 149.00000 418.400000
15226 9985 16282 1 149.00000 418.400000
15227 9986 16947 1 149.00000 418.400000
15230 9987 16012 1 149.00000 418.400000
15231 9988 15717 1 149.00000 418.400000
15231 9989 16243 1 149.00000 418.400000
16109 9990 18836 1 149.00000 418.400000
15232 9991 18917 1 149.00000 418.400000
15232 9992 16149 1 149.00000 418.400000
17807 9993 18938 1 149.00000 418.400000
15826 9994 16197 1 149.00000 418.400000
16197 9995 17807 1 149.00000 418.400000
15233 9996 16409 1 149.00000 418.400000
15236 9997 15931 1 149.00000 418.400000
15236 9998 16316 1 149.00000 418.400000
12984 9999 15237 1 149.00000 418.400000
15237 10000 15328 1 149.00000 418.400000
15237 10001 16238 1 149.00000 418.400000
15239 10002 15864 1 149.00000 418.400000
15239 10003 15983 1 149.00000 418.400000
15239 10004 19058 1 149.00000 418.400000
15240 10005 16624 1 149.00000 418.400000
15240 10006 15693 1 149.00000 418.400000
15241 10007 16881 1 149.00000 418.400000
15242 10008 15807 1 149.00000 418.400000
15243 10009 15750 1 149.00000 418.400000
15244 10010 15337 1 149.00000 418.400000
15244 10011 16902 1 149.00000 418.400000
15246 10012 18857 1 149.00000 418.400000
15247 10013 16309 1 149.00000 418.400000
15247 10014 15845 1 149.00000 418.400000
15248 10015 15579 1 149.00000 418.400000
15249 10016 16418 1 149.00000 418.400000
15249 10017 16631 1 149.00000 418.400000
15250 10018 16400 1 149.00000 418.400000
15250 10019 15873 1 149.00000 418.400000
15250 10020 16344 1 149.00000 418.400000
15251 10021 15350 1 149.00000 418.400000
13427 10022 15252 1 149.00000 418.400000
15252 10023 16739 1 149.00000 418.400000
13427 10024 16901 1 149.00000 418.400000
15253 10025 16260 1 149.00000 418.400000
15254 10026 16652 1 149.00000 418.400000
15255 10027 15569 1 149.00000 418.400000
14286 10028 15255 1 149.00000 418.400000
15257 10029 15878 1 149.00000 418.400000
16583 10030 18839 1 149.00000 418.400000
15259 10031 15482 1 149.00000 418.400000
13640 10032 15729 1 149.00000 418.400000
15260 10033 18911 1 149.00000 418.400000
15264 10034 18893 1 149.00000 418.400000
15264 10035 15843 1 149.00000 418.400000
15264 10036 16992 1 149.00000 418.400000
15265 10037 16991 1 149.00000 418.400000
12710 10038 15265 1 149.00000 418.400000
15266 10039 16849 1 149.00000 418.400000
15267 10040 15463 1 149.00000 418.400000
15268 10041 16581 1 149.00000 418.400000
15269 10042 16257 1 149.00000 418.400000
15269 10043 16741 1 149.00000 418.400000
15271 10044 16789 1 149.00000 418.400000
15271 10045 16284 1 149.00000 418.400000
15272 10046 19013 1 149.00000 418.400000
15272 10047 16616 1 149.00000 418.400000
15273 10048 15473 1 149.00000 418.400000
15274 10049 19004 1 149.00000 418.400000
15274 10050 15966 1 149.00000 418.400000
15713 10051 18842 1 149.00000 418.400000
13319 10052 16920 1 149.00000 418.400000
15276 10053 17315 1 149.00000 418.400000
15277 10054 15453 1 149.00000 418.400000
13299 10055 15391 1 149.00000 418.400000
15279 10056 16931 1 149.00000 418.400000
15280 10057 16650 1 149.00000 418.400000
15280 10058 16297 1 149.00000 418.400000
15282 10059 16998 1 149.00000 418.400000
15282 10060 16171 1 149.00000 418.400000
15282 10061 16487 1 149.00000 418.400000
15858 10062 16834 1 149.00000 418.400000
14167 10063 19180 1 149.00000 418.400000
15285 10064 16504 1 149.00000 418.400000
15287 10065 16776 1 149.00000 418.400000
15287 10066 16130 1 149.00000 418.400000
15288 10067 16401 1 149.00000 418.400000
15292 10068 15782 1 149.00000 418.400000
15292 10069 18353 1 149.00000 418.400000
15293 10070 16529 1 149.00000 418.400000
15294 10071 15382 1 149.00000 418.400000
15295 10072 15651 1 149.00000 418.400000
15295 10073 16578 1 149.00000 418.400000
15296 10074 16318 1 149.00000 418.400000
13195 10075 16724 1 149.00000 418.400000
15297 10076 15813 1 149.00000 418.400000
15298 10077 16738 1 149.00000 418.400000
15298 10078 16795 1 149.00000 418.400000
15298 10079 16829 1 149.00000 418.400000
16155 10080 18587 1 149.00000 418.400000
15300 10081 15851 1 149.00000 418.400000
14812 10082 15984 1 149.00000 418.400000
16944 10083 19160 1 149.00000 418.400000
13072 10084 16296 1 149.00000 418.400000
16528 10085 18845 1 149.00000 418.400000
18845 10086 18881 1 149.00000 418.400000
15304 10087 16838 1 149.00000 418.400000
15305 10088 15448 1 149.00000 418.400000
15306 10089 16184 1 149.00000 418.400000
15307 10090 15561 1 149.00000 418.400000
15309 10091 16467 1 149.00000 418.400000
11840 10092 15309 1 149.00000 418.400000
15310 10093 16897 1 149.00000 418.400000
15310 10094 15351 1 149.00000 418.400000
15311 10095 16589 1 149.00000 418.400000
15311 10096 16618 1 149.00000 418.400000
15312 10097 15541 1 149.00000 418.400000
15317 10098 16726 1 149.00000 418.400000
15317 10099 16024 1 149.00000 418.400000
15317 10100 16072 1 149.00000 418.400000
15318 10101 16904 1 149.00000 418.400000
15319 10102 16859 1 149.00000 418.400000
15319 10103 16817 1 149.00000 418.400000
15539 10104 18848 1 149.00000 418.400000
12915 10105 16060 1 149.00000 418.400000
15322 10106 16884 1 149.00000 418.400000
15323 10107 16856 1 149.00000 418.400000
15324 10108 15995 1 149.00000 418.400000
15324 10109 16400 1 149.00000 418.400000
15325 10110 15345 1 149.00000 418.400000
15325 10111 15969 1 149.00000 418.400000
15326 10112 15435 1 149.00000 418.400000
15326 10113 16332 1 149.00000 418.400000
15327 10114 15347 1 149.00000 418.400000
15328 10115 16892 1 149.00000 418.400000
15328 10116 15385 1 149.00000 418.400000
15329 10117 16736 1 149.00000 418.400000
15329 10118 15346 1 149.00000 418.400000
14259 10119 16549 1 149.00000 418.400000
15331 10120 15378 1 149.00000 418.400000
15818 10121 18851 1 149.00000 418.400000
15333 10122 15942 1 149.00000 418.400000
15334 10123 15882 1 149.00000 418.400000
15336 10124 19034 1 149.00000 418.400000
15337 10125 15600 1 149.00000 418.400000
15337 10126 15946 1 149.00000 418.400000
15338 10127 16810 1 149.00000 418.400000
15339 10128 16340 1 149.00000 418.400000
15341 10129 15385 1 149.00000 418.400000
15341 10130 16338 1 149.00000 418.400000
15342 10131 15821 1 149.00000 418.400000
15343 10132 15947 1 149.00000 418.400000
15343 10133 15492 1 149.00000 418.400000
14393 10134 15343 1 149.00000 418.400000
15343 10135 15511 1 149.00000 418.400000
15344 10136 16441 1 149.00000 418.400000
15345 10137 15478 1 149.00000 418.400000
15346 10138 16223 1 149.00000 418.400000
15348 10139 15813 1 149.00000 418.400000
15349 10140 18932 1 149.00000 418.400000
15352 10141 16316 1 149.00000 418.400000
15353 10142 15817 1 149.00000 418.400000
15354 10143 16493 1 149.00000 418.400000
15355 10144 16481 1 149.00000 418.400000
15356 10145 16139 1 149.00000 418.400000
15356 10146 17891 1 149.00000 418.400000
15356 10147 15810 1 149.00000 418.400000
15359 10148 19082 1 149.00000 418.400000
15359 10149 15663 1 149.00000 418.400000
15680 10150 16231 1 149.00000 418.400000
15360 10151 16231 1 149.00000 418.400000
15361 10152 16964 1 149.00000 418.400000
15363 10153 15585 1 149.00000 418.400000
15363 10154 15971 1 149.00000 418.400000
15364 10155 15872 1 149.00000 418.400000
12942 10156 16871 1 149.00000 418.400000
15365 10157 16987 1 149.00000 418.400000
15366 10158 16748 1 149.00000 418.400000
15367 10159 18881 1 149.00000 418.400000
15368 10160 16585 1 149.00000 418.400000
15370 10161 16070 1 149.00000 418.400000
15370 10162 15520 1 149.00000 418.400000
15371 10163 16449 1 149.00000 418.400000
15371 10164 15548 1 149.00000 418.400000
16484 10165 18857 1 149.00000 418.400000
15373 10166 15689 1 149.00000 418.400000
15374 10167 15596 1 149.00000 418.400000
15375 10168 16978 1 149.00000 418.400000
15375 10169 16446 1 149.00000 418.400000
15377 10170 16655 1 149.00000 418.400000
15378 10171 15713 1 149.00000 418.400000
15379 10172 16756 1 149.00000 418.400000
15379 10173 15759 1 149.00000 418.400000
15380 10174 16983 1 149.00000 418.400000
15381 10175 15889 1 149.00000 418.400000
15381 10176 15484 1 149.00000 418.400000
15382 10177 16478 1 149.00000 418.400000
15383 10178 16126 1 149.00000 418.400000
15383 10179 15889 1 149.00000 418.400000
15383 10180 16979 1 149.00000 418.400000
15385 10181 15560 1 149.00000 418.400000
15385 10182 16488 1 149.00000 418.400000
15386 10183 16978 1 149.00000 418.400000
15386 10184 16170 1 149.00000 418.400000
15387 10185 16508 1 149.00000 418.400000
15388 10186 15882 1 149.00000 418.400000
15389 10187 16435 1 149.00000 418.400000
15389 10188 15808 1 149.00000 418.400000
15391 10189 16056 1 149.00000 418.400000
15392 10190 16561 1 149.00000 418.400000
15392 10191 16664 1 149.00000 418.400000
15393 10192 16120 1 149.00000 418.400000
13779 10193 15393 1 149.00000 418.400000
15394 10194 16612 1 149.00000 418.400000
16612 10195 18359 1 149.00000 418.400000
15395 10196 16995 1 149.00000 418.400000
15395 10197 15416 1 149.00000 418.400000
15396 10198 16674 1 149.00000 418.400000
15397 10199 16502 1 149.00000 418.400000
15398 10200 16061 1 149.00000 418.400000
15399 10201 15550 1 149.00000 418.400000
15399 10202 17010 1 149.00000 418.400000
15400 10203 15565 1 149.00000 418.400000
15401 10204 16414 1 149.00000 418.400000
15402 10205 16346 1 149.00000 418.400000
12184 10206 15404 1 149.00000 418.400000
15404 10207 15680 1 149.00000 418.400000
15404 10208 16464 1 149.00000 418.400000
15405 10209 16148 1 149.00000 418.400000
15405 10210 16529 1 149.00000 418.400000
15406 10211 16221 1 149.00000 418.400000
15406 10212 16156 1 149.00000 418.400000
16155 10213 18860 1 149.00000 418.400000
15407 10214 15575 1 149.00000 418.400000
15407 10215 16873 1 149.00000 418.400000
15408 10216 16630 1 149.00000 418.400000
15409 10217 16297 1 149.00000 418.400000
15410 10218 15936 1 149.00000 418.400000
15410 10219 16307 1 149.00000 418.400000
15411 10220 15652 1 149.00000 418.400000
15411 10221 15568 1 149.00000 418.400000
15411 10222 17579 1 149.00000 418.400000
15412 10223 16328 1 149.00000 418.400000
15413 10224 16019 1 149.00000 418.400000
15414 10225 16781 1 149.00000 418.400000
15414 10226 16990 1 149.00000 418.400000
15414 10227 16560 1 149.00000 418.400000
15415 10228 16635 1 149.00000 418.400000
15416 10229 17012 1 149.00000 418.400000
16540 10230 18863 1 149.00000 418.400000
15417 10231 16073 1 149.00000 418.400000
15418 10232 15586 1 149.00000 418.400000
15418 10233 15745 1 149.00000 418.400000
15419 10234 16894 1 149.00000 418.400000
15419 10235 16703 1 149.00000 418.400000
15420 10236 16499 1 149.00000 418.400000
15420 10237 16029 1 149.00000 418.400000
13476 10238 18866 1 149.00000 418.400000
11705 10239 18866 1 149.00000 418.400000
15422 10240 16183 1 149.00000 418.400000
15422 10241 16163 1 149.00000 418.400000
15423 10242 16317 1 149.00000 418.400000
15423 10243 15734 1 149.00000 418.400000
15424 10244 17013 1 149.00000 418.400000
15426 10245 16895 1 149.00000 418.400000
15427 10246 15894 1 149.00000 418.400000
15428 10247 15951 1 149.00000 418.400000
13881 10248 15429 1 149.00000 418.400000
15429 10249 16677 1 149.00000 418.400000
15430 10250 15581 1 149.00000 418.400000
15431 10251 15794 1 149.00000 418.400000
15431 10252 15734 1 149.00000 418.400000
15433 10253 15504 1 149.00000 418.400000
15433 10254 15564 1 149.00000 418.400000
15435 10255 16965 1 149.00000 418.400000
15436 10256 16993 1 149.00000 418.400000
15436 10257 15795 1 149.00000 418.400000
15438 10258 16977 1 149.00000 418.400000
15026 10259 16066 1 149.00000 418.400000
15440 10260 16456 1 149.00000 418.400000
15440 10261 16822 1 149.00000 418.400000
15441 10262 15761 1 149.00000 418.400000
15442 10263 15571 1 149.00000 418.400000
15442 10264 16751 1 149.00000 418.400000
15523 10265 18869 1 149.00000 418.400000
15126 10266 15443 1 149.00000 418.400000
15443 10267 16119 1 149.00000 418.400000
15444 10268 16087 1 149.00000 418.400000
15444 10269 16243 1 149.00000 418.400000
15446 10270 15539 1 149.00000 418.400000
15446 10271 15588 1 149.00000 418.400000
14276 10272 16901 1 149.00000 418.400000
15447 10273 16539 1 149.00000 418.400000
15450 10274 16976 1 149.00000 418.400000
11598 10275 16426 1 149.00000 418.400000
15451 10276 15834 1 149.00000 418.400000
15453 10277 16266 1 149.00000 418.400000
15453 10278 15600 1 149.00000 418.400000
15455 10279 16604 1 149.00000 418.400000
15455 10280 16988 1 149.00000 418.400000
15456 10281 15500 1 149.00000 418.400000
15458 10282 16225 1 149.00000 418.400000
15458 10283 15505 1 149.00000 418.400000
15459 10284 16768 1 149.00000 418.400000
12805 10285 16655 1 149.00000 418.400000
15461 10286 16121 1 149.00000 418.400000
15463 10287 16889 1 149.00000 418.400000
15464 10288 16692 1 149.00000 418.400000
15466 10289 15681 1 149.00000 418.400000
12107 10290 13231 1 149.00000 418.400000
15467 10291 15601 1 149.00000 418.400000
15470 10292 17008 1 149.00000 418.400000
15471 10293 15553 1 149.00000 418.400000
15471 10294 16649 1 149.00000 418.400000
15472 10295 15738 1 149.00000 418.400000
14300 10296 15473 1 149.00000 418.400000
15478 10297 17015 1 149.00000 418.400000
15478 10298 16988 1 149.00000 418.400000
15481 10299 16801 1 149.00000 418.400000
15485 10300 16138 1 149.00000 418.400000
15485 10301 16454 1 149.00000 418.400000
15936 10302 16138 1 149.00000 418.400000
15486 10303 16528 1 149.00000 418.400000
15487 10304 15725 1 149.00000 418.400000
15488 10305 16471 1 149.00000 418.400000
15664 10306 16549 1 149.00000 418.400000
15489 10307 15664 1 149.00000 418.400000
15491 10308 16506 1 149.00000 418.400000
15492 10309 16988 1 149.00000 418.400000
15492 10310 16604 1 149.00000 418.400000
15493 10311 15595 1 149.00000 418.400000
15493 10312 15778 1 149.00000 418.400000
15494 10313 16524 1 149.00000 418.400000
15760 10314 17343 1 149.00000 418.400000
14603 10315 15495 1 149.00000 418.400000
15495 10316 15762 1 149.00000 418.400000
15496 10317 16951 1 149.00000 418.400000
15498 10318 16472 1 149.00000 418.400000
15498 10319 16458 1 149.00000 418.400000
15498 10320 16289 1 149.00000 418.400000
15499 10321 16189 1 149.00000 418.400000
15499 10322 15937 1 149.00000 418.400000
15500 10323 15800 1 149.00000 418.400000
15503 10324 16059 1 149.00000 418.400000
15504 10325 15929 1 149.00000 418.400000
15504 10326 15983 1 149.00000 418.400000
15505 10327 16011 1 149.00000 418.400000
15506 10328 15848 1 149.00000 418.400000
15507 10329 16629 1 149.00000 418.400000
15508 10330 16684 1 149.00000 418.400000
15509 10331 15690 1 149.00000 418.400000
12490 10332 15509 1 149.00000 418.400000
15512 10333 16375 1 149.00000 418.400000
15513 10334 16261 1 149.00000 418.400000
15513 10335 15566 1 149.00000 418.400000
15515 10336 15861 1 149.00000 418.400000
15516 10337 16281 1 149.00000 418.400000
15516 10338 16451 1 149.00000 418.400000
16108 10339 16568 1 149.00000 418.400000
15518 10340 16108 1 149.00000 418.400000
15519 10341 15942 1 149.00000 418.400000
15520 10342 15819 1 149.00000 418.400000
15520 10343 16527 1 149.00000 418.400000
15521 10344 17016 1 149.00000 418.400000
15521 10345 15603 1 149.00000 418.400000
15522 10346 16462 1 149.00000 418.400000
15523 10347 16934 1 149.00000 418.400000
15524 10348 16308 1 149.00000 418.400000
15525 10349 16153 1 149.00000 418.400000
15526 10350 16994 1 149.00000 418.400000
15529 10351 16822 1 149.00000 418.400000
15529 10352 15903 1 149.00000 418.400000
15529 10353 16900 1 149.00000 418.400000
15530 10354 16571 1 149.00000 418.400000
15531 10355 16617 1 149.00000 418.400000
16896 10356 18548 1 149.00000 418.400000
16556 10357 18881 1 149.00000 418.400000
15534 10358 15593 1 149.00000 418.400000
15534 10359 16837 1 149.00000 418.400000
15536 10360 17006 1 149.00000 418.400000
15536 10361 15828 1 149.00000 418.400000
15536 10362 15985 1 149.00000 418.400000
15537 10363 16799 1 149.00000 418.400000
15537 10364 16459 1 149.00000 418.400000
15537 10365 16337 1 149.00000 418.400000
15538 10366 16670 1 149.00000 418.400000
15538 10367 16353 1 149.00000 418.400000
15540 10368 16912 1 149.00000 418.400000
15540 10369 15896 1 149.00000 418.400000
14143 10370 15541 1 149.00000 418.400000
15541 10371 16883 1 149.00000 418.400000
15542 10372 16455 1 149.00000 418.400000
15542 10373 15711 1 149.00000 418.400000
15542 10374 16935 1 149.00000 418.400000
15542 10375 16909 1 149.00000 418.400000
15545 10376 16247 1 149.00000 418.400000
15546 10377 16832 1 149.00000 418.400000
15547 10378 16546 1 149.00000 418.400000
15547 10379 16581 1 149.00000 418.400000
15547 10380 15739 1 149.00000 418.400000
15548 10381 16157 1 149.00000 418.400000
15548 10382 15796 1 149.00000 418.400000
15549 10383 15639 1 149.00000 418.400000
15550 10384 15884 1 149.00000 418.400000
15551 10385 16629 1 149.00000 418.400000
15551 10386 16835 1 149.00000 418.400000
15552 10387 16515 1 149.00000 418.400000
15552 10388 16337 1 149.00000 418.400000
15558 10389 16548 1 149.00000 418.400000
15558 10390 16178 1 149.00000 418.400000
15562 10391 16979 1 149.00000 418.400000
15563 10392 16100 1 149.00000 418.400000
15563 10393 16664 1 149.00000 418.400000
15563 10394 16755 1 149.00000 418.400000
15565 10395 16362 1 149.00000 418.400000
15569 10396 15948 1 149.00000 418.400000
14227 10397 18884 1 149.00000 418.400000
15570 10398 15705 1 149.00000 418.400000
15572 10399 16030 1 149.00000 418.400000
15573 10400 16050 1 149.00000 418.400000
13772 10401 16564 1 149.00000 418.400000
15575 10402 17012 1 149.00000 418.400000
15576 10403 16206 1 149.00000 418.400000
15576 10404 16064 1 149.00000 418.400000
15577 10405 16114 1 149.00000 418.400000
14328 10406 15577 1 149.00000 418.400000
14325 10407 15657 1 149.00000 418.400000
15579 10408 15590 1 149.00000 418.400000
15580 10409 18914 1 149.00000 418.400000
15581 10410 15585 1 149.00000 418.400000
15582 10411 16600 1 149.00000 418.400000
15583 10412 15938 1 149.00000 418.400000
15584 10413 16748 1 149.00000 418.400000
13928 10414 15584 1 149.00000 418.400000
15585 10415 16663 1 149.00000 418.400000
15587 10416 16194 1 149.00000 418.400000
15587 10417 15867 1 149.00000 418.400000
15588 10418 15897 1 149.00000 418.400000
15590 10419 16818 1 149.00000 418.400000
15590 10420 16801 1 149.00000 418.400000
15591 10421 15612 1 149.00000 418.400000
11798 10422 16547 1 149.00000 418.400000
15595 10423 15909 1 149.00000 418.400000
15597 10424 16656 1 149.00000 418.400000
15598 10425 16083 1 149.00000 418.400000
15599 10426 16256 1 149.00000 418.400000
15601 10427 16404 1 149.00000 418.400000
15602 10428 15676 1 149.00000 418.400000
15602 10429 16592 1 149.00000 418.400000
15603 10430 15802 1 149.00000 418.400000
15603 10431 15885 1 149.00000 418.400000
15604 10432 15816 1 149.00000 418.400000
15609 10433 16167 1 149.00000 418.400000
15611 10434 16395 1 149.00000 418.400000
16435 10435 18887 1 149.00000 418.400000
16852 10436 18887 1 149.00000 418.400000
15616 10437 16161 1 149.00000 418.400000
15616 10438 15637 1 149.00000 418.400000
15616 10439 16213 1 149.00000 418.400000
15616 10440 15993 1 149.00000 418.400000
16062 10441 18890 1 149.00000 418.400000
16469 10442 18890 1 149.00000 418.400000
15617 10443 16274 1 149.00000 418.400000
15618 10444 16375 1 149.00000 418.400000
15618 10445 16671 1 149.00000 418.400000
15619 10446 16868 1 149.00000 418.400000
15620 10447 15707 1 149.00000 418.400000
15621 10448 16057 1 149.00000 418.400000
15622 10449 16967 1 149.00000 418.400000
15622 10450 18938 1 149.00000 418.400000
15623 10451 15685 1 149.00000 418.400000
15623 10452 16495 1 149.00000 418.400000
15623 10453 16251 1 149.00000 418.400000
15625 10454 16880 1 149.00000 418.400000
15625 10455 16891 1 149.00000 418.400000
15627 10456 16297 1 149.00000 418.400000
15628 10457 18998 1 149.00000 418.400000
15629 10458 16468 1 149.00000 418.400000
14632 10459 16164 1 149.00000 418.400000
15630 10460 16385 1 149.00000 418.400000
15631 10461 16033 1 149.00000 418.400000
15631 10462 16481 1 149.00000 418.400000
16483 10463 18893 1 149.00000 418.400000
15633 10464 16179 1 149.00000 418.400000
15635 10465 16952 1 149.00000 418.400000
15636 10466 16437 1 149.00000 418.400000
15023 10467 15636 1 149.00000 418.400000
12535 10468 15637 1 149.00000 418.400000
15638 10469 16402 1 149.00000 418.400000
15640 10470 16125 1 149.00000 418.400000
13187 10471 15641 1 149.00000 418.400000
15641 10472 16065 1 149.00000 418.400000
15642 10473 16512 1 149.00000 418.400000
15642 10474 16016 1 149.00000 418.400000
15643 10475 16306 1 149.00000 418.400000
15644 10476 15866 1 149.00000 418.400000
15646 10477 15847 1 149.00000 418.400000
15648 10478 15775 1 149.00000 418.400000
15649 10479 16078 1 149.00000 418.400000
13619 10480 15653 1 149.00000 418.400000
15653 10481 16626 1 149.00000 418.400000
15654 10482 15714 1 149.00000 418.400000
15655 10483 16474 1 149.00000 418.400000
15656 10484 16430 1 149.00000 418.400000
15657 10485 15822 1 149.00000 418.400000
15658 10486 15738 1 149.00000 418.400000
15660 10487 16259 1 149.00000 418.400000
15660 10488 16252 1 149.00000 418.400000
14303 10489 15661 1 149.00000 418.400000
15661 10490 16470 1 149.00000 418.400000
15662 10491 16099 1 149.00000 418.400000
12630 10492 15663 1 149.00000 418.400000
15667 10493 16275 1 149.00000 418.400000
15670 10494 16351 1 149.00000 418.400000
15671 10495 16505 1 149.00000 418.400000
12148 10496 15672 1 149.00000 418.400000
15674 10497 16918 1 149.00000 418.400000
15675 10498 16474 1 149.00000 418.400000
15676 10499 16082 1 149.00000 418.400000
15677 10500 16121 1 149.00000 418.400000
15680 10501 16565 1 149.00000 418.400000
15684 10502 16667 1 149.00000 418.400000
15684 10503 16885 1 149.00000 418.400000
15687 10504 16268 1 149.00000 418.400000
15688 10505 16572 1 149.00000 418.400000
15688 10506 15752 1 149.00000 418.400000
15689 10507 15937 1 149.00000 418.400000
15691 10508 15774 1 149.00000 418.400000
15693 10509 16846 1 149.00000 418.400000
15693 10510 16839 1 149.00000 418.400000
15693 10511 15892 1 149.00000 418.400000
15695 10512 16742 1 149.00000 418.400000
13928 10513 15698 1 149.00000 418.400000
14142 10514 15698 1 149.00000 418.400000
15699 10515 18908 1 149.00000 418.400000
15699 10516 15727 1 149.00000 418.400000
15700 10517 15989 1 149.00000 418.400000
12765 10518 13560 1 149.00000 418.400000
15702 10519 15796 1 149.00000 418.400000
15703 10520 16478 1 149.00000 418.400000
14996 10521 16051 1 149.00000 418.400000
15705 10522 15849 1 149.00000 418.400000
15705 10523 16437 1 149.00000 418.400000
15707 10524 16579 1 149.00000 418.400000
15707 10525 16767 1 149.00000 418.400000
15708 10526 15805 1 149.00000 418.400000
15711 10527 16304 1 149.00000 418.400000
15712 10528 16602 1 149.00000 418.400000
15714 10529 16537 1 149.00000 418.400000
15715 10530 15773 1 149.00000 418.400000
12804 10531 16382 1 149.00000 418.400000
12804 10532 16236 1 149.00000 418.400000
15718 10533 16687 1 149.00000 418.400000
15719 10534 16160 1 149.00000 418.400000
15719 10535 16421 1 149.00000 418.400000
15720 10536 16369 1 149.00000 418.400000
15721 10537 16837 1 149.00000 418.400000
15722 10538 15841 1 149.00000 418.400000
15723 10539 16157 1 149.00000 418.400000
15724 10540 15843 1 149.00000 418.400000
15725 10541 16063 1 149.00000 418.400000
15725 10542 16765 1 149.00000 418.400000
15726 10543 16436 1 149.00000 418.400000
15727 10544 16583 1 149.00000 418.400000
15729 10545 17315 1 149.00000 418.400000
15730 10546 16080 1 149.00000 418.400000
15730 10547 16040 1 149.00000 418.400000
15731 10548 16885 1 149.00000 418.400000
15732 10549 16033 1 149.00000 418.400000
15733 10550 16770 1 149.00000 418.400000
15733 10551 18968 1 149.00000 418.400000
15733 10552 15829 1 149.00000 418.400000
15735 10553 16543 1 149.00000 418.400000
15736 10554 16949 1 149.00000 418.400000
15736 10555 19076 1 149.00000 418.400000
15737 10556 16775 1 149.00000 418.400000
15737 10557 16727 1 149.00000 418.400000
15737 10558 15749 1 149.00000 418.400000
15739 10559 16947 1 149.00000 418.400000
15740 10560 18191 1 149.00000 418.400000
15740 10561 16577 1 149.00000 418.400000
15741 10562 16685 1 149.00000 418.400000
15741 10563 16429 1 149.00000 418.400000
15741 10564 16117 1 149.00000 418.400000
15742 10565 16324 1 149.00000 418.400000
15743 10566 15779 1 149.00000 418.400000
15744 10567 17663 1 149.00000 418.400000
15745 10568 16635 1 149.00000 418.400000
15746 10569 19031 1 149.00000 418.400000
15746 10570 16250 1 149.00000 418.400000
15748 10571 15913 1 149.00000 418.400000
16687 10572 18902 1 149.00000 418.400000
15751 10573 16995 1 149.00000 418.400000
15752 10574 16667 1 149.00000 418.400000
15753 10575 16177 1 149.00000 418.400000
13041 10576 15753 1 149.00000 418.400000
15753 10577 16720 1 149.00000 418.400000
15755 10578 16019 1 149.00000 418.400000
15757 10579 16865 1 149.00000 418.400000
15757 10580 16694 1 149.00000 418.400000
15758 10581 16228 1 149.00000 418.400000
15758 10582 16778 1 149.00000 418.400000
15760 10583 16667 1 149.00000 418.400000
15761 10584 16012 1 149.00000 418.400000
15761 10585 15793 1 149.00000 418.400000
15762 10586 15846 1 149.00000 418.400000
16681 10587 18905 1 149.00000 418.400000
15763 10588 16087 1 149.00000 418.400000
15766 10589 16691 1 149.00000 418.400000
15768 10590 16940 1 149.00000 418.400000
15791 10591 18908 1 149.00000 418.400000
15770 10592 16347 1 149.00000 418.400000
15770 10593 16911 1 149.00000 418.400000
15771 10594 16548 1 149.00000 418.400000
15772 10595 16627 1 149.00000 418.400000
15773 10596 16884 1 149.00000 418.400000
15774 10597 16226 1 149.00000 418.400000
15775 10598 15953 1 149.00000 418.400000
15776 10599 16407 1 149.00000 418.400000
15777 10600 16938 1 149.00000 418.400000
15777 10601 16841 1 149.00000 418.400000
15781 10602 16923 1 149.00000 418.400000
15782 10603 16697 1 149.00000 418.400000
15782 10604 15839 1 149.00000 418.400000
15783 10605 16047 1 149.00000 418.400000
15784 10606 16910 1 149.00000 418.400000
15785 10607 16469 1 149.00000 418.400000
15790 10608 16588 1 149.00000 418.400000
15790 10609 16754 1 149.00000 418.400000
15791 10610 16762 1 149.00000 418.400000
15791 10611 19010 1 149.00000 418.400000
15793 10612 16399 1 149.00000 418.400000
15793 10613 16527 1 149.00000 418.400000
15795 10614 16936 1 149.00000 418.400000
15797 10615 16708 1 149.00000 418.400000
15800 10616 15965 1 149.00000 418.400000
15801 10617 16215 1 149.00000 418.400000
15801 10618 15968 1 149.00000 418.400000
15802 10619 16531 1 149.00000 418.400000
15806 10620 16657 1 149.00000 418.400000
15806 10621 15982 1 149.00000 418.400000
15807 10622 16384 1 149.00000 418.400000
15808 10623 16735 1 149.00000 418.400000
15808 10624 16827 1 149.00000 418.400000
13656 10625 16049 1 149.00000 418.400000
15809 10626 16966 1 149.00000 418.400000
15810 10627 15819 1 149.00000 418.400000
13009 10628 16736 1 149.00000 418.400000
15811 10629 16246 1 149.00000 418.400000
15811 10630 16562 1 149.00000 418.400000
15812 10631 16322 1 149.00000 418.400000
15816 10632 19079 1 149.00000 418.400000
15817 10633 15954 1 149.00000 418.400000
15819 10634 15962 1 149.00000 418.400000
15821 10635 16396 1 149.00000 418.400000
15821 10636 16273 1 149.00000 418.400000
15823 10637 16700 1 149.00000 418.400000
14337 10638 15824 1 149.00000 418.400000
15825 10639 16832 1 149.00000 418.400000
15825 10640 16314 1 149.00000 418.400000
15825 10641 16379 1 149.00000 418.400000
15825 10642 16575 1 149.00000 418.400000
15826 10643 16381 1 149.00000 418.400000
15827 10644 16182 1 149.00000 418.400000
15830 10645 16539 1 149.00000 418.400000
15830 10646 16688 1 149.00000 418.400000
15808 10647 15831 1 149.00000 418.400000
15832 10648 15852 1 149.00000 418.400000
15834 10649 18350 1 149.00000 418.400000
15835 10650 16716 1 149.00000 418.400000
15837 10651 16796 1 149.00000 418.400000
15837 10652 15926 1 149.00000 418.400000
15838 10653 16639 1 149.00000 418.400000
15839 10654 15940 1 149.00000 418.400000
15840 10655 16475 1 149.00000 418.400000
15840 10656 16398 1 149.00000 418.400000
15840 10657 16259 1 149.00000 418.400000
15841 10658 16128 1 149.00000 418.400000
15844 10659 15900 1 149.00000 418.400000
15845 10660 16541 1 149.00000 418.400000
15547 10661 15845 1 149.00000 418.400000
15846 10662 16384 1 149.00000 418.400000
15847 10663 16385 1 149.00000 418.400000
15848 10664 15921 1 149.00000 418.400000
15849 10665 15981 1 149.00000 418.400000
15851 10666 15967 1 149.00000 418.400000
15853 10667 16064 1 149.00000 418.400000
15855 10668 15869 1 149.00000 418.400000
15857 10669 16368 1 149.00000 418.400000
15857 10670 16838 1 149.00000 418.400000
15857 10671 16363 1 149.00000 418.400000
15284 10672 15858 1 149.00000 418.400000
15863 10673 16203 1 149.00000 418.400000
15864 10674 16053 1 149.00000 418.400000
15865 10675 15951 1 149.00000 418.400000
12271 10676 16356 1 149.00000 418.400000
14450 10677 15867 1 149.00000 418.400000
15868 10678 16330 1 149.00000 418.400000
15868 10679 16498 1 149.00000 418.400000
15017 10680 16829 1 149.00000 418.400000
13041 10681 16276 1 149.00000 418.400000
15872 10682 16582 1 149.00000 418.400000
15873 10683 16286 1 149.00000 418.400000
15874 10684 16744 1 149.00000 418.400000
15877 10685 16502 1 149.00000 418.400000
15877 10686 16313 1 149.00000 418.400000
15878 10687 16235 1 149.00000 418.400000
15879 10688 16970 1 149.00000 418.400000
15879 10689 16956 1 149.00000 418.400000
15879 10690 15999 1 149.00000 418.400000
15880 10691 16637 1 149.00000 418.400000
15881 10692 16371 1 149.00000 418.400000
15881 10693 16485 1 149.00000 418.400000
16354 10694 18914 1 149.00000 418.400000
15883 10695 16928 1 149.00000 418.400000
15884 10696 16640 1 149.00000 418.400000
15888 10697 16450 1 149.00000 418.400000
15381 10698 16164 1 149.00000 418.400000
15891 10699 16842 1 149.00000 418.400000
15891 10700 16571 1 149.00000 418.400000
16110 10701 18920 1 149.00000 418.400000
15894 10702 16533 1 149.00000 418.400000
15900 10703 16912 1 149.00000 418.400000
13757 10704 15902 1 149.00000 418.400000
15904 10705 18989 1 149.00000 418.400000
15905 10706 16765 1 149.00000 418.400000
15907 10707 16760 1 149.00000 418.400000
15907 10708 16122 1 149.00000 418.400000
15908 10709 16850 1 149.00000 418.400000
15910 10710 16115 1 149.00000 418.400000
15910 10711 19067 1 149.00000 418.400000
15912 10712 16248 1 149.00000 418.400000
15912 10713 16941 1 149.00000 418.400000
15914 10714 16224 1 149.00000 418.400000
15914 10715 16285 1 149.00000 418.400000
15916 10716 16716 1 149.00000 418.400000
15917 10717 16593 1 149.00000 418.400000
15918 10718 16176 1 149.00000 418.400000
15920 10719 16659 1 149.00000 418.400000
15921 10720 16081 1 149.00000 418.400000
15922 10721 16524 1 149.00000 418.400000
15928 10722 16563 1 149.00000 418.400000
15928 10723 15982 1 149.00000 418.400000
15932 10724 16375 1 149.00000 418.400000
15932 10725 16063 1 149.00000 418.400000
15934 10726 16651 1 149.00000 418.400000
14369 10727 16390 1 149.00000 418.400000
15935 10728 16507 1 149.00000 418.400000
15938 10729 16333 1 149.00000 418.400000
15940 10730 16457 1 149.00000 418.400000
15941 10731 16116 1 149.00000 418.400000
15942 10732 16263 1 149.00000 418.400000
15943 10733 16868 1 149.00000 418.400000
15943 10734 16815 1 149.00000 418.400000
15944 10735 16408 1 149.00000 418.400000
15945 10736 16348 1 149.00000 418.400000
14790 10737 16266 1 149.00000 418.400000
15946 10738 16388 1 149.00000 418.400000
15947 10739 16448 1 149.00000 418.400000
15950 10740 16022 1 149.00000 418.400000
15636 10741 15951 1 149.00000 418.400000
15952 10742 16910 1 149.00000 418.400000
15952 10743 16953 1 149.00000 418.400000
16335 10744 18926 1 149.00000 418.400000
15954 10745 16533 1 149.00000 418.400000
15954 10746 16524 1 149.00000 418.400000
17795 10747 17903 1 149.00000 418.400000
15955 10748 16988 1 149.00000 418.400000
15956 10749 16164 1 149.00000 418.400000
15957 10750 15979 1 149.00000 418.400000
15960 10751 16480 1 149.00000 418.400000
15963 10752 16017 1 149.00000 418.400000
15964 10753 16156 1 149.00000 418.400000
15964 10754 16709 1 149.00000 418.400000
14689 10755 15970 1 149.00000 418.400000
15972 10756 16453 1 149.00000 418.400000
15972 10757 16945 1 149.00000 418.400000
15974 10758 16431 1 149.00000 418.400000
15975 10759 16242 1 149.00000 418.400000
15978 10760 16547 1 149.00000 418.400000
15979 10761 16520 1 149.00000 418.400000
15980 10762 16679 1 149.00000 418.400000
15982 10763 16346 1 149.00000 418.400000
15987 10764 19043 1 149.00000 418.400000
15987 10765 16003 1 149.00000 418.400000
15987 10766 16672 1 149.00000 418.400000
15988 10767 15990 1 149.00000 418.400000
15989 10768 16159 1 149.00000 418.400000
15990 10769 16349 1 149.00000 418.400000
15992 10770 16475 1 149.00000 418.400000
15994 10771 16158 1 149.00000 418.400000
15995 10772 16188 1 149.00000 418.400000
15996 10773 16114 1 149.00000 418.400000
15997 10774 16162 1 149.00000 418.400000
15998 10775 16374 1 149.00000 418.400000
15999 10776 16803 1 149.00000 418.400000
15999 10777 16519 1 149.00000 418.400000
16001 10778 16537 1 149.00000 418.400000
16002 10779 16206 1 149.00000 418.400000
16002 10780 16362 1 149.00000 418.400000
16007 10781 16926 1 149.00000 418.400000
16011 10782 16020 1 149.00000 418.400000
16011 10783 16026 1 149.00000 418.400000
16014 10784 19064 1 149.00000 418.400000
16017 10785 16097 1 149.00000 418.400000
16017 10786 17469 1 149.00000 418.400000
16020 10787 16102 1 149.00000 418.400000
16024 10788 16780 1 149.00000 418.400000
16026 10789 16889 1 149.00000 418.400000
18941 10790 19046 1 149.00000 418.400000
16027 10791 16692 1 149.00000 418.400000
16028 10792 16881 1 149.00000 418.400000
14170 10793 16028 1 149.00000 418.400000
16029 10794 16532 1 149.00000 418.400000
16678 10795 18944 1 149.00000 418.400000
16030 10796 16846 1 149.00000 418.400000
16032 10797 16229 1 149.00000 418.400000
16032 10798 16589 1 149.00000 418.400000
16034 10799 16536 1 149.00000 418.400000
16037 10800 17012 1 149.00000 418.400000
16037 10801 16269 1 149.00000 418.400000
16039 10802 18959 1 149.00000 418.400000
16043 10803 16570 1 149.00000 418.400000
16974 10804 18947 1 149.00000 418.400000
16044 10805 16933 1 149.00000 418.400000
16046 10806 16334 1 149.00000 418.400000
16049 10807 16610 1 149.00000 418.400000
16050 10808 16826 1 149.00000 418.400000
16051 10809 16844 1 149.00000 418.400000
16051 10810 16512 1 149.00000 418.400000
16055 10811 16300 1 149.00000 418.400000
16057 10812 16873 1 149.00000 418.400000
16060 10813 18956 1 149.00000 418.400000
16062 10814 16239 1 149.00000 418.400000
16066 10815 16167 1 149.00000 418.400000
16067 10816 16391 1 149.00000 418.400000
16069 10817 16939 1 149.00000 418.400000
16069 10818 16679 1 149.00000 418.400000
14979 10819 16071 1 149.00000 418.400000
16073 10820 16404 1 149.00000 418.400000
17189 10821 18953 1 149.00000 418.400000
15597 10822 18953 1 149.00000 418.400000
16077 10823 16661 1 149.00000 418.400000
16077 10824 16335 1 149.00000 418.400000
16078 10825 16318 1 149.00000 418.400000
16079 10826 16526 1 149.00000 418.400000
16877 10827 18956 1 149.00000 418.400000
16166 10828 18959 1 149.00000 418.400000
16090 10829 17203 1 149.00000 418.400000
16093 10830 16959 1 149.00000 418.400000
16096 10831 16481 1 149.00000 418.400000
16097 10832 16222 1 149.00000 418.400000
16099 10833 16750 1 149.00000 418.400000
16101 10834 16264 1 149.00000 418.400000
11981 10835 16101 1 149.00000 418.400000
16103 10836 18887 1 149.00000 418.400000
16103 10837 16948 1 149.00000 418.400000
16104 10838 16387 1 149.00000 418.400000
13779 10839 16120 1 149.00000 418.400000
16106 10840 16609 1 149.00000 418.400000
16106 10841 16425 1 149.00000 418.400000
16107 10842 16324 1 149.00000 418.400000
13187 10843 16107 1 149.00000 418.400000
16111 10844 16760 1 149.00000 418.400000
16112 10845 16706 1 149.00000 418.400000
16112 10846 16633 1 149.00000 418.400000
16113 10847 16862 1 149.00000 418.400000
16115 10848 16869 1 149.00000 418.400000
16118 10849 16928 1 149.00000 418.400000
16124 10850 16840 1 149.00000 418.400000
16124 10851 16657 1 149.00000 418.400000
16128 10852 17245 1 149.00000 418.400000
16130 10853 16956 1 149.00000 418.400000
16131 10854 16201 1 149.00000 418.400000
16132 10855 16205 1 149.00000 418.400000
16135 10856 16482 1 149.00000 418.400000
16135 10857 16306 1 149.00000 418.400000
16600 10858 18971 1 149.00000 418.400000
16137 10859 16140 1 149.00000 418.400000
16138 10860 16307 1 149.00000 418.400000
16138 10861 16597 1 149.00000 418.400000
14406 10862 16141 1 149.00000 418.400000
16144 10863 16276 1 149.00000 418.400000
13829 10864 16152 1 149.00000 418.400000
16148 10865 16199 1 149.00000 418.400000
16149 10866 16365 1 149.00000 418.400000
16152 10867 16214 1 149.00000 418.400000
16197 10868 17077 1 149.00000 418.400000
16984 10869 17077 1 149.00000 418.400000
16153 10870 16198 1 149.00000 418.400000
16160 10871 16467 1 149.00000 418.400000
13940 10872 16801 1 149.00000 418.400000
16161 10873 16953 1 149.00000 418.400000
16161 10874 16361 1 149.00000 418.400000
16162 10875 16283 1 149.00000 418.400000
16163 10876 16235 1 149.00000 418.400000
15956 10877 16690 1 149.00000 418.400000
16169 10878 16280 1 149.00000 418.400000
16169 10879 16495 1 149.00000 418.400000
16170 10880 16935 1 149.00000 418.400000
16171 10881 16986 1 149.00000 418.400000
16174 10882 16181 1 149.00000 418.400000
16175 10883 16490 1 149.00000 418.400000
14415 10884 16220 1 149.00000 418.400000
16175 10885 16515 1 149.00000 418.400000
16176 10886 16985 1 149.00000 418.400000
14896 10887 16865 1 149.00000 418.400000
16182 10888 16916 1 149.00000 418.400000
16183 10889 16218 1 149.00000 418.400000
16184 10890 16492 1 149.00000 418.400000
16779 10891 18983 1 149.00000 418.400000
16187 10892 16755 1 149.00000 418.400000
16187 10893 16478 1 149.00000 418.400000
16187 10894 16937 1 149.00000 418.400000
16188 10895 16597 1 149.00000 418.400000
16192 10896 16990 1 149.00000 418.400000
16196 10897 16859 1 149.00000 418.400000
16198 10898 16665 1 149.00000 418.400000
16198 10899 16879 1 149.00000 418.400000
16199 10900 16309 1 149.00000 418.400000
16131 10901 16689 1 149.00000 418.400000
11968 10902 19031 1 149.00000 418.400000
16205 10903 16234 1 149.00000 418.400000
16207 10904 16608 1 149.00000 418.400000
16207 10905 16439 1 149.00000 418.400000
16208 10906 19028 1 149.00000 418.400000
16209 10907 16835 1 149.00000 418.400000
16210 10908 16251 1 149.00000 418.400000
16212 10909 16872 1 149.00000 418.400000
16212 10910 16757 1 149.00000 418.400000
16213 10911 18992 1 149.00000 418.400000
16214 10912 16967 1 149.00000 418.400000
12342 10913 16632 1 149.00000 418.400000
16218 10914 16797 1 149.00000 418.400000
16221 10915 16460 1 149.00000 418.400000
16222 10916 16510 1 149.00000 418.400000
12128 10917 16223 1 149.00000 418.400000
16226 10918 16614 1 149.00000 418.400000
16233 10919 16350 1 149.00000 418.400000
14711 10920 16632 1 149.00000 418.400000
16237 10921 16855 1 149.00000 418.400000
16237 10922 16710 1 149.00000 418.400000
18989 10923 19019 1 149.00000 418.400000
16243 10924 16520 1 149.00000 418.400000
16247 10925 16432 1 149.00000 418.400000
16250 10926 16422 1 149.00000 418.400000
16251 10927 16444 1 149.00000 418.400000
16253 10928 16422 1 149.00000 418.400000
16253 10929 16821 1 149.00000 418.400000
16254 10930 16448 1 149.00000 418.400000
16261 10931 16908 1 149.00000 418.400000
16265 10932 16766 1 149.00000 418.400000
16268 10933 16586 1 149.00000 418.400000
16271 10934 17000 1 149.00000 418.400000
16276 10935 16615 1 149.00000 418.400000
16285 10936 16455 1 149.00000 418.400000
16287 10937 16651 1 149.00000 418.400000
16288 10938 16870 1 149.00000 418.400000
16292 10939 16989 1 149.00000 418.400000
16293 10940 17975 1 149.00000 418.400000
16294 10941 16658 1 149.00000 418.400000
16759 10942 18998 1 149.00000 418.400000
16298 10943 16588 1 149.00000 418.400000
14233 10944 16298 1 149.00000 418.400000
16300 10945 16899 1 149.00000 418.400000
16301 10946 16511 1 149.00000 418.400000
16302 10947 17002 1 149.00000 418.400000
16303 10948 16588 1 149.00000 418.400000
16325 10949 19004 1 149.00000 418.400000
16434 10950 19004 1 149.00000 418.400000
16307 10951 16377 1 149.00000 418.400000
16307 10952 16450 1 149.00000 418.400000
16308 10953 16923 1 149.00000 418.400000
16311 10954 16741 1 149.00000 418.400000
16312 10955 16430 1 149.00000 418.400000
16315 10956 16364 1 149.00000 418.400000
17203 10957 18035 1 149.00000 418.400000
16323 10958 16509 1 149.00000 418.400000
16326 10959 16934 1 149.00000 418.400000
16326 10960 16821 1 149.00000 418.400000
16326 10961 16990 1 149.00000 418.400000
16327 10962 16423 1 149.00000 418.400000
16329 10963 16520 1 149.00000 418.400000
16330 10964 16352 1 149.00000 418.400000
16330 10965 16824 1 149.00000 418.400000
16331 10966 16460 1 149.00000 418.400000
16333 10967 16711 1 149.00000 418.400000
16334 10968 16595 1 149.00000 418.400000
16335 10969 16433 1 149.00000 418.400000
16336 10970 16392 1 149.00000 418.400000
16337 10971 16502 1 149.00000 418.400000
16338 10972 16783 1 149.00000 418.400000
16341 10973 16828 1 149.00000 418.400000
12047 10974 16724 1 149.00000 418.400000
16344 10975 16597 1 149.00000 418.400000
16347 10976 16578 1 149.00000 418.400000
16350 10977 16406 1 149.00000 418.400000
16350 10978 16846 1 149.00000 418.400000
16351 10979 16679 1 149.00000 418.400000
16445 10980 16717 1 149.00000 418.400000
16352 10981 16717 1 149.00000 418.400000
16353 10982 16372 1 149.00000 418.400000
16357 10983 16691 1 149.00000 418.400000
16357 10984 16819 1 149.00000 418.400000
16357 10985 16908 1 149.00000 418.400000
16358 10986 16773 1 149.00000 418.400000
16362 10987 16613 1 149.00000 418.400000
16363 10988 16953 1 149.00000 418.400000
16364 10989 16870 1 149.00000 418.400000
16370 10990 16701 1 149.00000 418.400000
16373 10991 16911 1 149.00000 418.400000
16385 10992 16742 1 149.00000 418.400000
16388 10993 16902 1 149.00000 418.400000
16390 10994 16608 1 149.00000 418.400000
16397 10995 19013 1 149.00000 418.400000
16401 10996 17014 1 149.00000 418.400000
16402 10997 16711 1 149.00000 418.400000
11940 10998 16408 1 149.00000 418.400000
16410 10999 16486 1 149.00000 418.400000
16410 11000 16605 1 149.00000 418.400000
16411 11001 16764 1 149.00000 418.400000
16411 11002 16690 1 149.00000 418.400000
16413 11003 19022 1 149.00000 418.400000
16413 11004 16494 1 149.00000 418.400000
16421 11005 16802 1 149.00000 418.400000
14494 11006 16560 1 149.00000 418.400000
16428 11007 16890 1 149.00000 418.400000
16428 11008 16551 1 149.00000 418.400000
19010 11009 19040 1 149.00000 418.400000
16437 11010 16820 1 149.00000 418.400000
16440 11011 16701 1 149.00000 418.400000
16443 11012 16479 1 149.00000 418.400000
16444 11013 16813 1 149.00000 418.400000
16445 11014 16636 1 149.00000 418.400000
16446 11015 16995 1 149.00000 418.400000
16447 11016 16956 1 149.00000 418.400000
16254 11017 16860 1 149.00000 418.400000
16449 11018 16843 1 149.00000 418.400000
16449 11019 16983 1 149.00000 418.400000
16457 11020 16548 1 149.00000 418.400000
16548 11021 16746 1 149.00000 418.400000
15394 11022 16458 1 149.00000 418.400000
16459 11023 16547 1 149.00000 418.400000
16465 11024 16946 1 149.00000 418.400000
16465 11025 16641 1 149.00000 418.400000
16466 11026 16773 1 149.00000 418.400000
16470 11027 16760 1 149.00000 418.400000
16472 11028 16602 1 149.00000 418.400000
16473 11029 16793 1 149.00000 418.400000
16473 11030 16768 1 149.00000 418.400000
16474 11031 16862 1 149.00000 418.400000
17579 11032 19016 1 149.00000 418.400000
16479 11033 16998 1 149.00000 418.400000
16489 11034 16704 1 149.00000 418.400000
16495 11035 16614 1 149.00000 418.400000
16497 11036 17004 1 149.00000 418.400000
16499 11037 16559 1 149.00000 418.400000
16501 11038 16558 1 149.00000 418.400000
16509 11039 16945 1 149.00000 418.400000
13369 11040 16517 1 149.00000 418.400000
16521 11041 16718 1 149.00000 418.400000
16521 11042 16753 1 149.00000 418.400000
16525 11043 16951 1 149.00000 418.400000
19025 11044 19067 1 149.00000 418.400000
16528 11045 16641 1 149.00000 418.400000
16531 11046 16752 1 149.00000 418.400000
16531 11047 16941 1 149.00000 418.400000
16533 11048 16876 1 149.00000 418.400000
16534 11049 16777 1 149.00000 418.400000
16536 11050 16587 1 149.00000 418.400000
16543 11051 16661 1 149.00000 418.400000
16549 11052 19040 1 149.00000 418.400000
16550 11053 16829 1 149.00000 418.400000
14963 11054 16832 1 149.00000 418.400000
14963 11055 16814 1 149.00000 418.400000
16554 11056 16926 1 149.00000 418.400000
16562 11057 16683 1 149.00000 418.400000
16564 11058 16936 1 149.00000 418.400000
16566 11059 16976 1 149.00000 418.400000
16567 11060 16772 1 149.00000 418.400000
16567 11061 16666 1 149.00000 418.400000
12319 11062 19034 1 149.00000 418.400000
16569 11063 16780 1 149.00000 418.400000
16574 11064 16920 1 149.00000 418.400000
16576 11065 16841 1 149.00000 418.400000
16578 11066 16870 1 149.00000 418.400000
12931 11067 16765 1 149.00000 418.400000
16581 11068 16971 1 149.00000 418.400000
16583 11069 16785 1 149.00000 418.400000
16584 11070 16798 1 149.00000 418.400000
16585 11071 16620 1 149.00000 418.400000
16440 11072 16586 1 149.00000 418.400000
16586 11073 16738 1 149.00000 418.400000
16591 11074 16730 1 149.00000 418.400000
16600 11075 19037 1 149.00000 418.400000
16598 11076 16815 1 149.00000 418.400000
16606 11077 16625 1 149.00000 418.400000
12230 11078 16616 1 149.00000 418.400000
16620 11079 16886 1 149.00000 418.400000
16620 11080 16628 1 149.00000 418.400000
16623 11081 16672 1 149.00000 418.400000
16627 11082 16844 1 149.00000 418.400000
16634 11083 16742 1 149.00000 418.400000
16643 11084 16887 1 149.00000 418.400000
16646 11085 16905 1 149.00000 418.400000
16650 11086 16694 1 149.00000 418.400000
16652 11087 16825 1 149.00000 418.400000
16657 11088 16982 1 149.00000 418.400000
16659 11089 16906 1 149.00000 418.400000
12951 11090 16659 1 149.00000 418.400000
16660 11091 16918 1 149.00000 418.400000
16766 11092 17147 1 149.00000 418.400000
16668 11093 16786 1 149.00000 418.400000
16685 11094 16930 1 149.00000 418.400000
16693 11095 16865 1 149.00000 418.400000
16699 11096 16880 1 149.00000 418.400000
16865 11097 19185 1 149.00000 418.400000
16713 11098 16746 1 149.00000 418.400000
16725 11099 16998 1 149.00000 418.400000
16726 11100 16869 1 149.00000 418.400000
16728 11101 16917 1 149.00000 418.400000
16728 11102 16795 1 149.00000 418.400000
16729 11103 16761 1 149.00000 418.400000
16730 11104 16749 1 149.00000 418.400000
16732 11105 16984 1 149.00000 418.400000
16733 11106 16771 1 149.00000 418.400000
16735 11107 16744 1 149.00000 418.400000
16743 11108 16941 1 149.00000 418.400000
16751 11109 16810 1 149.00000 418.400000
16753 11110 16788 1 149.00000 418.400000
16760 11111 16950 1 149.00000 418.400000
16765 11112 16973 1 149.00000 418.400000
16766 11113 16868 1 149.00000 418.400000
16767 11114 16864 1 149.00000 418.400000
16776 11115 16832 1 149.00000 418.400000
16777 11116 16955 1 149.00000 418.400000
16782 11117 16960 1 149.00000 418.400000
16787 11118 16978 1 149.00000 418.400000
16792 11119 17013 1 149.00000 418.400000
16795 11120 16904 1 149.00000 418.400000
16798 11121 16929 1 149.00000 418.400000
16814 11122 16900 1 149.00000 418.400000
16817 11123 16882 1 149.00000 418.400000
16831 11124 16917 1 149.00000 418.400000
16910 11125 18119 1 149.00000 418.400000
16852 11126 16897 1 149.00000 418.400000
16856 11127 16874 1 149.00000 418.400000
16858 11128 16954 1 149.00000 418.400000
16860 11129 16894 1 149.00000 418.400000
16867 11130 16887 1 149.00000 418.400000
16877 11131 16991 1 149.00000 418.400000
16889 11132 16991 1 149.00000 418.400000
16909 11133 16969 1 149.00000 418.400000
16920 11134 17000 1 149.00000 418.400000
16922 11135 16983 1 149.00000 418.400000
16952 11136 17010 1 149.00000 418.400000
16957 11137 16981 1 149.00000 418.400000
12118 11138 15246 1 149.00000 418.400000
14166 11139 18650 1 149.00000 418.400000
12340 11140 17651 1 149.00000 418.400000
12948 11141 16121 1 149.00000 418.400000
11782 11142 12785 1 149.00000 418.400000
13713 11143 16599 1 149.00000 418.400000
12113 11144 13689 1 149.00000 418.400000
14893 11145 18374 1 149.00000 418.400000
14106 11146 14961 1 149.00000 418.400000
15262 11147 15613 1 149.00000 418.400000
16453 11148 18602 1 149.00000 418.400000
12509 11149 14817 1 149.00000 418.400000
12013 11150 14597 1 149.00000 418.400000
14891 11151 18944 1 149.00000 418.400000
16741 11152 18605 1 149.00000 418.400000
12099 11153 18884 1 149.00000 418.400000
14910 11154 15107 1 149.00000 418.400000
12868 11155 13495 1 149.00000 418.400000
13200 11156 15906 1 149.00000 418.400000
14341 11157 16680 1 149.00000 418.400000
12244 11158 18218 1 149.00000 418.400000
11907 11159 13081 1 149.00000 418.400000
13884 11160 16239 1 149.00000 418.400000
13770 11161 18746 1 149.00000 418.400000
13978 11162 16293 1 149.00000 418.400000
12343 11163 12872 1 149.00000 418.400000
12143 11164 15033 1 149.00000 418.400000
13859 11165 14931 1 149.00000 418.400000
13421 11166 14991 1 149.00000 418.400000
15185 11167 16109 1 149.00000 418.400000
12055 11168 13324 1 149.00000 418.400000
12600 11169 18791 1 149.00000 418.400000
11542 11170 18179 1 149.00000 418.400000
13570 11171 16981 1 149.00000 418.400000
14799 11172 18596 1 149.00000 418.400000
16245 11173 16383 1 149.00000 418.400000
14030 11174 14922 1 149.00000 418.400000
13266 11175 13309 1 149.00000 418.400000
11795 11176 18653 1 149.00000 418.400000
15631 11177 15732 1 149.00000 418.400000
14935 11178 15167 1 149.00000 418.400000
12299 11179 18287 1 149.00000 418.400000
15451 11180 16342 1 149.00000 418.400000
12189 11181 12309 1 149.00000 418.400000
16129 11182 16542 1 149.00000 418.400000
11677 11183 18278 1 149.00000 418.400000
12265 11184 12328 1 149.00000 418.400000
12886 11185 16542 1 149.00000 418.400000
16227 11186 16697 1 149.00000 418.400000
16583 11187 17939 1 149.00000 418.400000
11719 11188 17855 1 149.00000 418.400000
12429 11189 18233 1 149.00000 418.400000
12870 11190 14573 1 149.00000 418.400000
12839 11191 15283 1 149.00000 418.400000
12819 11192 14740 1 149.00000 418.400000
14556 11193 18362 1 149.00000 418.400000
15358 11194 15709 1 149.00000 418.400000
13092 11195 15062 1 149.00000 418.400000
12657 11196 13473 1 149.00000 418.400000
15251 11197 15728 1 149.00000 418.400000
13321 11198 18281 1 149.00000 418.400000
13301 11199 15778 1 149.00000 418.400000
11928 11200 13627 1 149.00000 418.400000
11634 11201 13706 1 149.00000 418.400000
13098 11202 18023 1 149.00000 418.400000
16503 11203 18269 1 149.00000 418.400000
14924 11204 15086 1 149.00000 418.400000
16932 11205 17999 1 149.00000 418.400000
14015 11206 15091 1 149.00000 418.400000
13640 11207 15686 1 149.00000 418.400000
14738 11208 15744 1 149.00000 418.400000
14213 11209 18380 1 149.00000 418.400000
15107 11210 18341 1 149.00000 418.400000
12212 11211 15451 1 149.00000 418.400000
15584 11212 17543 1 149.00000 418.400000
15663 11213 15788 1 149.00000 418.400000
11683 11214 13047 1 149.00000 418.400000
11928 11215 15507 1 149.00000 418.400000
12899 11216 15662 1 149.00000 418.400000
13645 11217 15747 1 149.00000 418.400000
15664 11218 16185 1 149.00000 418.400000
15349 11219 18755 1 149.00000 418.400000
14180 11220 16826 1 149.00000 418.400000
14426 11221 18395 1 149.00000 418.400000
12179 11222 13620 1 149.00000 418.400000
13408 11223 13495 1 149.00000 418.400000
12375 11224 15833 1 149.00000 418.400000
14867 11225 16777 1 149.00000 418.400000
12013 11226 18854 1 149.00000 418.400000
12876 11227 13767 1 149.00000 418.400000
12396 11228 15945 1 149.00000 418.400000
13222 11229 19025 1 149.00000 418.400000
13107 11230 18779 1 149.00000 418.400000
14544 11231 16031 1 149.00000 418.400000
13130 11232 18656 1 149.00000 418.400000
12210 11233 18932 1 149.00000 418.400000
12020 11234 18698 1 149.00000 418.400000
12875 11235 18794 1 149.00000 418.400000
12723 11236 13548 1 149.00000 418.400000
12414 11237 14519 1 149.00000 418.400000
13297 11238 14642 1 149.00000 418.400000
15416 11239 16645 1 149.00000 418.400000
12515 11240 15666 1 149.00000 418.400000
16788 11241 17507 1 149.00000 418.400000
16645 11242 18479 1 149.00000 418.400000
11560 11243 16216 1 149.00000 418.400000
14518 11244 19052 1 149.00000 418.400000
15354 11245 16023 1 149.00000 418.400000
15276 11246 18719 1 149.00000 418.400000
14554 11247 18482 1 149.00000 418.400000
12212 11248 14493 1 149.00000 418.400000
15568 11249 17579 1 149.00000 418.400000
12063 11250 18725 1 149.00000 418.400000
15507 11251 18353 1 149.00000 418.400000
11645 11252 16968 1 149.00000 418.400000
14265 11253 18962 1 149.00000 418.400000
16425 11254 18965 1 149.00000 418.400000
13999 11255 18647 1 149.00000 418.400000
12441 11256 14550 1 149.00000 418.400000
14846 11257 15473 1 149.00000 418.400000
14987 11258 18812 1 149.00000 418.400000
14580 11259 15069 1 149.00000 418.400000
13044 11260 16397 1 149.00000 418.400000
13489 11261 15125 1 149.00000 418.400000
15539 11262 15673 1 149.00000 418.400000
11905 11263 13884 1 149.00000 418.400000
13117 11264 13309 1 149.00000 418.400000
13737 11265 16216 1 149.00000 418.400000
15283 11266 15508 1 149.00000 418.400000
12213 11267 18365 1 149.00000 418.400000
11614 11268 13824 1 149.00000 418.400000
12990 11269 14335 1 149.00000 418.400000
16143 11270 18428 1 149.00000 418.400000
13721 11271 18512 1 149.00000 418.400000
14671 11272 17555 1 149.00000 418.400000
12491 11273 18608 1 149.00000 418.400000
13379 11274 13569 1 149.00000 418.400000
14341 11275 17987 1 149.00000 418.400000
14680 11276 18920 1 149.00000 418.400000
12428 11277 18644 1 149.00000 418.400000
14493 11278 16325 1 149.00000 418.400000
13126 11279 16484 1 149.00000 418.400000
12814 11280 18314 1 149.00000 418.400000
12138 11281 17819 1 149.00000 418.400000
15993 11282 16161 1 149.00000 418.400000
13072 11283 17615 1 149.00000 418.400000
12697 11284 13064 1 149.00000 418.400000
14743 11285 15187 1 149.00000 418.400000
15432 11286 16778 1 149.00000 418.400000
13250 11287 15189 1 149.00000 418.400000
14470 11288 18047 1 149.00000 418.400000
13394 11289 18242 1 149.00000 418.400000
16330 11290 19064 1 149.00000 418.400000
15799 11291 19055 1 149.00000 418.400000
11606 11292 17963 1 149.00000 418.400000
13421 11293 18677 1 149.00000 418.400000
12514 11294 14357 1 149.00000 418.400000
15181 11295 18425 1 149.00000 418.400000
11582 11296 16803 1 149.00000 418.400000
13737 11297 14699 1 149.00000 418.400000
13363 11298 15264 1 149.00000 418.400000
11707 11299 15924 1 149.00000 418.400000
15732 11300 19070 1 149.00000 418.400000
11582 11301 18305 1 149.00000 418.400000
13063 11302 14754 1 149.00000 418.400000
14514 11303 18740 1 149.00000 418.400000
14106 11304 17759 1 149.00000 418.400000
13044 11305 19034 1 149.00000 418.400000
15686 11306 16167 1 149.00000 418.400000
16167 11307 18320 1 149.00000 418.400000
13048 11308 16031 1 149.00000 418.400000
16291 11309 18035 1 149.00000 418.400000
14012 11310 16770 1 149.00000 418.400000
14357 11311 16740 1 149.00000 418.400000
13185 11312 14600 1 149.00000 418.400000
14745 11313 18749 1 149.00000 418.400000
12727 11314 14232 1 149.00000 418.400000
12870 11315 18836 1 149.00000 418.400000
11571 11316 14384 1 149.00000 418.400000
15062 11317 17735 1 149.00000 418.400000
12343 11318 18659 1 149.00000 418.400000
14864 11319 17747 1 149.00000 418.400000
15081 11320 16293 1 149.00000 418.400000
13220 11321 14699 1 149.00000 418.400000
15014 11322 18335 1 149.00000 418.400000
13517 11323 16155 1 149.00000 418.400000
16227 11324 18620 1 149.00000 418.400000
15454 11325 18167 1 149.00000 418.400000
13277 11326 18986 1 149.00000 418.400000
12911 11327 17831 1 149.00000 418.400000
13428 11328 18662 1 149.00000 418.400000
14384 11329 16617 1 149.00000 418.400000
13363 11330 17927 1 149.00000 418.400000
14212 11331 18917 1 149.00000 418.400000
14738 11332 18488 1 149.00000 418.400000
13279 11333 16483 1 149.00000 418.400000
14350 11334 16617 1 149.00000 418.400000
15166 11335 18455 1 149.00000 418.400000
11651 11336 15803 1 149.00000 418.400000
12755 11337 13689 1 149.00000 418.400000
12985 11338 16724 1 149.00000 418.400000
13814 11339 14624 1 149.00000 418.400000
14391 11340 17663 1 149.00000 418.400000
11976 11341 13824 1 149.00000 418.400000
14994 11342 15479 1 149.00000 418.400000
15106 11343 18638 1 149.00000 418.400000
12136 11344 15489 1 149.00000 418.400000
12886 11345 13677 1 149.00000 418.400000
16269 11346 18386 1 149.00000 418.400000
12755 11347 18473 1 149.00000 418.400000
14740 11348 18527 1 149.00000 418.400000
12602 11349 13376 1 149.00000 418.400000
12179 11350 17495 1 149.00000 418.400000
13502 11351 18833 1 149.00000 418.400000
15976 11352 17591 1 149.00000 418.400000
14890 11353 15974 1 149.00000 418.400000
12265 11354 18764 1 149.00000 418.400000
14314 11355 18323 1 149.00000 418.400000
13517 11356 16086 1 149.00000 418.400000
12094 11357 16793 1 149.00000 418.400000
15201 11358 18524 1 149.00000 418.400000
16740 11359 18911 1 149.00000 418.400000
12452 11360 18446 1 149.00000 418.400000
12135 11361 14227 1 149.00000 418.400000
11894 11362 18443 1 149.00000 418.400000
11603 11363 11648 1 149.00000 418.400000
12509 11364 17699 1 149.00000 418.400000
16383 11365 18539 1 149.00000 418.400000
11959 11366 15320 1 149.00000 418.400000
12628 11367 18263 1 149.00000 418.400000
11959 11368 13727 1 149.00000 418.400000
13250 11369 14512 1 149.00000 418.400000
12143 11370 16681 1 149.00000 418.400000
13836 11371 14587 1 149.00000 418.400000
15184 11372 16152 1 149.00000 418.400000
12769 11373 13969 1 149.00000 418.400000
14646 11374 16826 1 149.00000 418.400000
15229 11375 18422 1 149.00000 418.400000
12602 11376 18221 1 149.00000 418.400000
11627 11377 13901 1 149.00000 418.400000
12929 11378 12985 1 149.00000 418.400000
15221 11379 18521 1 149.00000 418.400000
15354 11380 18914 1 149.00000 418.400000
12217 11381 12877 1 149.00000 418.400000
11738 11382 13117 1 149.00000 418.400000
13064 11383 19019 1 149.00000 418.400000
13377 11384 18494 1 149.00000 418.400000
13081 11385 14190 1 149.00000 418.400000
15184 11386 15984 1 149.00000 418.400000
12893 11387 16347 1 149.00000 418.400000
16616 11388 18572 1 149.00000 418.400000
15077 11389 18710 1 149.00000 418.400000
15003 11390 17567 1 149.00000 418.400000
15767 11391 17675 1 149.00000 418.400000
15358 11392 15836 1 149.00000 418.400000
15397 11393 16313 1 149.00000 418.400000
12632 11394 13048 1 149.00000 418.400000
14221 11395 15300 1 149.00000 418.400000
11651 11396 15666 1 149.00000 418.400000
12396 11397 15376 1 149.00000 418.400000
12367 11398 16794 1 149.00000 418.400000
12893 11399 15770 1 149.00000 418.400000
11850 11400 13071 1 149.00000 418.400000
15067 11401 15211 1 149.00000 418.400000
11968 11402 16250 1 149.00000 418.400000
14015 11403 15643 1 149.00000 418.400000
15877 11404 16136 1 149.00000 418.400000
15004 11405 16681 1 149.00000 418.400000
15390 11406 15904 1 149.00000 418.400000
14068 11407 16009 1 149.00000 418.400000
15528 11408 15787 1 149.00000 418.400000
16899 11409 16981 1 149.00000 418.400000
16883 11410 16944 1 149.00000 418.400000
15901 11411 16621 1 149.00000 418.400000
14512 11412 14548 1 149.00000 418.400000
14148 11413 14232 1 149.00000 418.400000
12876 11414 14646 1 149.00000 418.400000
11953 11415 13112 1 149.00000 418.400000
13177 11416 15906 1 149.00000 418.400000
12189 11417 13671 1 149.00000 418.400000
13933 11418 16018 1 149.00000 418.400000
13121 11419 15097 1 149.00000 418.400000
13191 11420 13473 1 149.00000 418.400000
15142 11421 16106 1 149.00000 418.400000
14620 11422 16770 1 149.00000 418.400000
14249 11423 15972 1 149.00000 418.400000
14331 11424 16707 1 149.00000 418.400000
15387 11425 16951 1 149.00000 418.400000
13836 11426 14931 1 149.00000 418.400000
13559 11427 16838 1 149.00000 418.400000
11797 11428 16719 1 149.00000 418.400000
16483 11429 16510 1 149.00000 418.400000
13049 11430 14080 1 149.00000 418.400000
13150 11431 14142 1 149.00000 418.400000
13334 11432 15081 1 149.00000 418.400000
11986 11433 13185 1 149.00000 418.400000
14330 11434 16252 1 149.00000 418.400000
13814 11435 15868 1 149.00000 418.400000
12022 11436 13010 1 149.00000 418.400000
11888 11437 14527 1 149.00000 418.400000
14525 11438 16992 1 149.00000 418.400000
14138 11439 16636 1 149.00000 418.400000
15993 11440 16213 1 149.00000 418.400000
12058 11441 13489 1 149.00000 418.400000
13875 11442 15740 1 149.00000 418.400000
13219 11443 16365 1 149.00000 418.400000
12098 11444 14795 1 149.00000 418.400000
11683 11445 12386 1 149.00000 418.400000
12317 11446 12714 1 149.00000 418.400000
13281 11447 15163 1 149.00000 418.400000
16325 11448 16434 1 149.00000 418.400000
15292 11449 16209 1 149.00000 418.400000
11665 11450 14867 1 149.00000 418.400000
15359 11451 15788 1 149.00000 418.400000
15613 11452 16242 1 149.00000 418.400000
11648 11453 14402 1 149.00000 418.400000
11875 11454 16484 1 149.00000 418.400000
15952 11455 16363 1 149.00000 418.400000
13653 11456 15924 1 149.00000 418.400000
14608 11457 14924 1 149.00000 418.400000
13683 11458 14743 1 149.00000 418.400000
16185 11459 16373 1 149.00000 418.400000
14227 11460 16369 1 149.00000 418.400000
11705 11461 12915 1 149.00000 418.400000
16133 11462 16748 1 149.00000 418.400000
11634 11463 15813 1 149.00000 418.400000
15149 11464 15352 1 149.00000 418.400000
12172 11465 15679 1 149.00000 418.400000
13677 11466 14519 1 149.00000 418.400000
13901 11467 16619 1 149.00000 418.400000
12079 11468 15876 1 149.00000 418.400000
11645 11469 13713 1 149.00000 418.400000
12470 11470 16039 1 149.00000 418.400000
13340 11471 13867 1 149.00000 418.400000
14896 11472 16611 1 149.00000 418.400000
12933 11473 16896 1 149.00000 418.400000
13270 11474 15510 1 149.00000 418.400000
12375 11475 15647 1 149.00000 418.400000
15508 11476 15673 1 149.00000 418.400000
13272 11477 14580 1 149.00000 418.400000
12995 11478 16083 1 149.00000 418.400000
11956 11479 13452 1 149.00000 418.400000
13520 11480 16191 1 149.00000 418.400000
12655 11481 14550 1 149.00000 418.400000
13241 11482 14846 1 149.00000 418.400000
13633 11483 15272 1 149.00000 418.400000
15432 11484 15758 1 149.00000 418.400000
15185 11485 15984 1 149.00000 418.400000
12877 11486 16004 1 149.00000 418.400000
11958 11487 13727 1 149.00000 418.400000
14350 11488 15697 1 149.00000 418.400000
13866 11489 15095 1 149.00000 418.400000
11984 11490 13811 1 149.00000 418.400000
12783 11491 13220 1 149.00000 418.400000
14190 11492 14410 1 149.00000 418.400000
13017 11493 15479 1 149.00000 418.400000
13312 11494 14601 1 149.00000 418.400000
12187 11495 15747 1 149.00000 418.400000
13364 11496 14697 1 149.00000 418.400000
12929 11497 14905 1 149.00000 418.400000
12903 11498 13934 1 149.00000 418.400000
11544 11499 12785 1 149.00000 418.400000
12899 11500 15691 1 149.00000 418.400000
12990 11501 14968 1 149.00000 418.400000
11666 11502 14890 1 149.00000 418.400000
11736 11503 12118 1 149.00000 418.400000
13422 11504 13437 1 149.00000 418.400000
13476 11505 14119 1 149.00000 418.400000
12948 11506 16053 1 149.00000 418.400000
15809 11507 16415 1 149.00000 418.400000
12329 11508 15698 1 149.00000 418.400000
11596 11509 14478 1 149.00000 418.400000
15785 11510 16062 1 149.00000 418.400000
12062 11511 12723 1 149.00000 418.400000
12016 11512 12430 1 149.00000 418.400000
11738 11513 13736 1 149.00000 418.400000
13301 11514 16149 1 149.00000 418.400000
13587 11515 16428 1 149.00000 418.400000
12977 11516 14922 1 149.00000 418.400000
13425 11517 16211 1 149.00000 418.400000
14754 11518 15489 1 149.00000 418.400000
15336 11519 16629 1 149.00000 418.400000
12803 11520 14008 1 149.00000 418.400000
11863 11521 15606 1 149.00000 418.400000
11976 11522 14524 1 149.00000 418.400000
12231 11523 14935 1 149.00000 418.400000
12769 11524 13292 1 149.00000 418.400000
12808 11525 16672 1 149.00000 418.400000
12055 11526 15728 1 149.00000 418.400000
12850 11527 16305 1 149.00000 418.400000
12778 11528 13402 1 149.00000 418.400000
12064 11529 16086 1 149.00000 418.400000
11905 11530 14734 1 149.00000 418.400000
13318 11531 13350 1 149.00000 418.400000
13132 11532 13750 1 149.00000 418.400000
13408 11533 13419 1 149.00000 418.400000
12173 11534 15355 1 149.00000 418.400000
13178 11535 13949 1 149.00000 418.400000
12913 11536 13297 1 149.00000 418.400000
13379 11537 16966 1 149.00000 418.400000
12094 11538 13090 1 149.00000 418.400000
14526 11539 15465 1 149.00000 418.400000
1 11540 2 1 109.50000 418.400000
1 11540 3 1 109.50000 418.400000
1 11540 4 1 109.50000 418.400000
2 11540 3 1 109.50000 418.400000
2 11540 4 1 109.50000 418.400000
3 11540 4 1 109.50000 418.400000
7 11541 8 1 109.50000 418.400000
7 11541 9 1 109.50000 418.400000
7 11541 10 1 109.50000 418.400000
8 11541 9 1 109.50000 418.400000
8 11541 10 1 109.50000 418.400000
9 11541 10 1 109.50000 418.400000
11 11542 12 1 109.50000 418.400000
11 11542 13 1 109.50000 418.400000
11 11542 11170 1 109.50000 418.400000
12 11542 13 1 109.50000 418.400000
12 11542 11170 1 109.50000 418.400000
13 11542 11170 1 109.50000 418.400000
14 11543 15 1 109.50000 418.400000
14 11543 16 1 109.50000 418.400000
14 11543 17 1 109.50000 418.400000
15 11543 16 1 109.50000 418.400000
15 11543 17 1 109.50000 418.400000
16 11543 17 1 109.50000 418.400000
19 11544 20 1 109.50000 418.400000
19 11544 21 1 109.50000 418.400000
19 11544 11499 1 109.50000 418.400000
20 11544 21 1 109.50000 418.400000
20 11544 11499 1 109.50000 418.400000
21 11544 11499 1 109.50000 418.400000
22 11545 23 1 109.50000 418.400000
22 11545 24 1 109.50000 418.400000
22 11545 25 1 109.50000 418.400000
23 11545 24 1 109.50000 418.400000
23 11545 25 1 109.50000 418.400000
24 11545 25 1 109.50000 418.400000
26 11546 27 1 109.50000 418.400000
26 11546 28 1 109.50000 418.400000
26 11546 29 1 109.50000 418.400000
27 11546 28 1 109.50000 418.400000
27 11546 29 1 109.50000 418.400000
28 11546 29 1 109.50000 418.400000
33 11547 34 1 109.50000 418.400000
33 11547 35 1 109.50000 418.400000
33 11547 36 1 109.50000 418.400000
34 11547 35 1 109.50000 418.400000
34 11547 36 1 109.50000 418.400000
35 11547 36 1 109.50000 418.400000
37 11548 38 1 109.50000 418.400000
37 11548 39 1 109.50000 418.400000
37 11548 40 1 109.50000 418.400000
38 11548 39 1 109.50000 418.400000
38 11548 40 1 109.50000 418.400000
39 11548 40 1 109.50000 418.400000
41 11549 42 1 109.50000 418.400000
41 11549 43 1 109.50000 418.400000
41 11549 44 1 109.50000 418.400000
42 11549 43 1 109.50000 418.400000
42 11549 44 1 109.50000 418.400000
43 11549 44 1 109.50000 418.400000
45 11550 46 1 109.50000 418.400000
45 11550 47 1 109.50000 418.400000
45 11550 48 1 109.50000 418.400000
46 11550 47 1 109.50000 418.400000
46 11550 48 1 109.50000 418.400000
47 11550 48 1 109.50000 418.400000
49 11551 50 1 109.50000 418.400000
49 11551 51 1 109.50000 418.400000
49 11551 52 1 109.50000 418.400000
50 11551 51 1 109.50000 418.400000
50 11551 52 1 109.50000 418.400000
51 11551 52 1 109.50000 418.400000
53 11552 54 1 109.50000 418.400000
53 11552 55 1 109.50000 418.400000
53 11552 56 1 109.50000 418.400000
54 11552 55 1 109.50000 418.400000
54 11552 56 1 109.50000 418.400000
55 11552 56 1 109.50000 418.400000
57 11553 58 1 109.50000 418.400000
57 11553 59 1 109.50000 418.400000
57 11553 60 1 109.50000 418.400000
58 11553 59 1 109.50000 418.400000
58 11553 60 1 109.50000 418.400000
59 11553 60 1 109.50000 418.400000
61 11554 62 1 109.50000 418.400000
61 11554 63 1 109.50000 418.400000
61 11554 64 1 109.50000 418.400000
62 11554 63 1 109.50000 418.400000
62 11554 64 1 109.50000 418.400000
63 11554 64 1 109.50000 418.400000
70 11555 71 1 109.50000 418.400000
70 11555 72 1 109.50000 418.400000
70 11555 73 1 109.50000 418.400000
71 11555 72 1 109.50000 418.400000
71 11555 73 1 109.50000 418.400000
72 11555 73 1 109.50000 418.400000
74 11556 75 1 109.50000 418.400000
74 11556 76 1 109.50000 418.400000
74 11556 77 1 109.50000 418.400000
75 11556 76 1 109.50000 418.400000
75 11556 77 1 109.50000 418.400000
76 11556 77 1 109.50000 418.400000
78 11557 79 1 109.50000 418.400000
78 11557 80 1 109.50000 418.400000
78 11557 81 1 109.50000 418.400000
79 11557 80 1 109.50000 418.400000
79 11557 81 1 109.50000 418.400000
80 11557 81 1 109.50000 418.400000
82 11558 83 1 109.50000 418.400000
82 11558 84 1 109.50000 418.400000
82 11558 85 1 109.50000 418.400000
83 11558 84 1 109.50000 418.400000
83 11558 85 1 109.50000 418.400000
84 11558 85 1 109.50000 418.400000
87 11559 88 1 109.50000 418.400000
87 11559 89 1 109.50000 418.400000
87 11559 5157 1 109.50000 418.400000
88 11559 89 1 109.50000 418.400000
88 11559 5157 1 109.50000 418.400000
89 11559 5157 1 109.50000 418.400000
90 11560 91 1 109.50000 418.400000
90 11560 92 1 109.50000 418.400000
90 11560 11243 1 109.50000 418.400000
91 11560 92 1 109.50000 418.400000
91 11560 11243 1 109.50000 418.400000
92 11560 11243 1 109.50000 418.400000
93 11561 94 1 109.50000 418.400000
93 11561 95 1 109.50000 418.400000
93 11561 96 1 109.50000 418.400000
94 11561 95 1 109.50000 418.400000
94 11561 96 1 109.50000 418.400000
95 11561 96 1 109.50000 418.400000
97 11562 98 1 109.50000 418.400000
97 11562 99 1 109.50000 418.400000
97 11562 100 1 109.50000 418.400000
98 11562 99 1 109.50000 418.400000
98 11562 100 1 109.50000 418.400000
99 11562 100 1 109.50000 418.400000
101 11563 102 1 109.50000 418.400000
101 11563 103 1 109.50000 418.400000
101 11563 104 1 109.50000 418.400000
102 11563 103 1 109.50000 418.400000
102 11563 104 1 109.50000 418.400000
103 11563 104 1 109.50000 418.400000
105 11564 106 1 109.50000 418.400000
105 11564 107 1 109.50000 418.400000
105 11564 108 1 109.50000 418.400000
106 11564 107 1 109.50000 418.400000
106 11564 108 1 109.50000 418.400000
107 11564 108 1 109.50000 418.400000
109 11565 110 1 109.50000 418.400000
109 11565 111 1 109.50000 418.400000
109 11565 112 1 109.50000 418.400000
110 11565 111 1 109.50000 418.400000
110 11565 112 1 109.50000 418.400000
111 11565 112 1 109.50000 418.400000
113 11566 114 1 109.50000 418.400000
113 11566 115 1 109.50000 418.400000
113 11566 116 1 109.50000 418.400000
114 11566 115 1 109.50000 418.400000
114 11566 116 1 109.50000 418.400000
115 11566 116 1 109.50000 418.400000
117 11567 118 1 109.50000 418.400000
117 11567 119 1 109.50000 418.400000
117 11567 120 1 109.50000 418.400000
118 11567 119 1 109.50000 418.400000
118 11567 120 1 109.50000 418.400000
119 11567 120 1 109.50000 418.400000
126 11568 127 1 109.50000 418.400000
126 11568 128 1 109.50000 418.400000
126 11568 129 1 109.50000 418.400000
127 11568 128 1 109.50000 418.400000
127 11568 129 1 109.50000 418.400000
128 11568 129 1 109.50000 418.400000
130 11569 131 1 109.50000 418.400000
130 11569 132 1 109.50000 418.400000
130 11569 133 1 109.50000 418.400000
131 11569 132 1 109.50000 418.400000
131 11569 133 1 109.50000 418.400000
132 11569 133 1 109.50000 418.400000
127 11570 134 1 109.50000 418.400000
127 11570 135 1 109.50000 418.400000
127 11570 136 1 109.50000 418.400000
134 11570 135 1 109.50000 418.400000
134 11570 136 1 109.50000 418.400000
135 11570 136 1 109.50000 418.400000
137 11571 138 1 109.50000 418.400000
137 11571 139 1 109.50000 418.400000
137 11571 11316 1 109.50000 418.400000
138 11571 139 1 109.50000 418.400000
138 11571 11316 1 109.50000 418.400000
139 11571 11316 1 109.50000 418.400000
140 11572 141 1 109.50000 418.400000
140 11572 142 1 109.50000 418.400000
140 11572 143 1 109.50000 418.400000
141 11572 142 1 109.50000 418.400000
141 11572 143 1 109.50000 418.400000
142 11572 143 1 109.50000 418.400000
144 11573 145 1 109.50000 418.400000
144 11573 146 1 109.50000 418.400000
144 11573 147 1 109.50000 418.400000
145 11573 146 1 109.50000 418.400000
145 11573 147 1 109.50000 418.400000
146 11573 147 1 109.50000 418.400000
149 11574 150 1 109.50000 418.400000
149 11574 151 1 109.50000 418.400000
149 11574 3054 1 109.50000 418.400000
150 11574 151 1 109.50000 418.400000
150 11574 3054 1 109.50000 418.400000
151 11574 3054 1 109.50000 418.400000
152 11575 153 1 109.50000 418.400000
152 11575 154 1 109.50000 418.400000
152 11575 155 1 109.50000 418.400000
153 11575 154 1 109.50000 418.400000
153 11575 155 1 109.50000 418.400000
154 11575 155 1 109.50000 418.400000
14 11576 156 1 109.50000 418.400000
14 11576 157 1 109.50000 418.400000
14 11576 158 1 109.50000 418.400000
156 11576 157 1 109.50000 418.400000
156 11576 158 1 109.50000 418.400000
157 11576 158 1 109.50000 418.400000
160 11577 161 1 109.50000 418.400000
160 11577 162 1 109.50000 418.400000
160 11577 7368 1 109.50000 418.400000
161 11577 162 1 109.50000 418.400000
161 11577 7368 1 109.50000 418.400000
162 11577 7368 1 109.50000 418.400000
163 11578 164 1 109.50000 418.400000
163 11578 165 1 109.50000 418.400000
163 11578 166 1 109.50000 418.400000
164 11578 165 1 109.50000 418.400000
164 11578 166 1 109.50000 418.400000
165 11578 166 1 109.50000 418.400000
63 11579 167 1 109.50000 418.400000
63 11579 168 1 109.50000 418.400000
63 11579 169 1 109.50000 418.400000
167 11579 168 1 109.50000 418.400000
167 11579 169 1 109.50000 418.400000
168 11579 169 1 109.50000 418.400000
170 11580 171 1 109.50000 418.400000
170 11580 172 1 109.50000 418.400000
170 11580 173 1 109.50000 418.400000
171 11580 172 1 109.50000 418.400000
171 11580 173 1 109.50000 418.400000
172 11580 173 1 109.50000 418.400000
174 11581 175 1 109.50000 418.400000
174 11581 176 1 109.50000 418.400000
174 11581 177 1 109.50000 418.400000
175 11581 176 1 109.50000 418.400000
175 11581 177 1 109.50000 418.400000
176 11581 177 1 109.50000 418.400000
178 11582 179 1 109.50000 418.400000
178 11582 11296 1 109.50000 418.400000
178 11582 11301 1 109.50000 418.400000
179 11582 11296 1 109.50000 418.400000
179 11582 11301 1 109.50000 418.400000
11296 11582 11301 1 109.50000 418.400000
180 11583 181 1 109.50000 418.400000
180 11583 182 1 109.50000 418.400000
180 11583 183 1 109.50000 418.400000
181 11583 182 1 109.50000 418.400000
181 11583 183 1 109.50000 418.400000
182 11583 183 1 109.50000 418.400000
184 11584 185 1 109.50000 418.400000
184 11584 186 1 109.50000 418.400000
184 11584 187 1 109.50000 418.400000
185 11584 186 1 109.50000 418.400000
185 11584 187 1 109.50000 418.400000
186 11584 187 1 109.50000 418.400000
188 11585 189 1 109.50000 418.400000
188 11585 190 1 109.50000 418.400000
188 11585 191 1 109.50000 418.400000
189 11585 190 1 109.50000 418.400000
189 11585 191 1 109.50000 418.400000
190 11585 191 1 109.50000 418.400000
193 11586 194 1 109.50000 418.400000
193 11586 195 1 109.50000 418.400000
193 11586 196 1 109.50000 418.400000
194 11586 195 1 109.50000 418.400000
194 11586 196 1 109.50000 418.400000
195 11586 196 1 109.50000 418.400000
197 11587 198 1 109.50000 418.400000
197 11587 199 1 109.50000 418.400000
197 11587 200 1 109.50000 418.400000
198 11587 199 1 109.50000 418.400000
198 11587 200 1 109.50000 418.400000
199 11587 200 1 109.50000 418.400000
201 11588 202 1 109.50000 418.400000
201 11588 203 1 109.50000 418.400000
201 11588 8675 1 109.50000 418.400000
202 11588 203 1 109.50000 418.400000
202 11588 8675 1 109.50000 418.400000
203 11588 8675 1 109.50000 418.400000
206 11589 207 1 109.50000 418.400000
206 11589 208 1 109.50000 418.400000
206 11589 2442 1 109.50000 418.400000
207 11589 208 1 109.50000 418.400000
207 11589 2442 1 109.50000 418.400000
208 11589 2442 1 109.50000 418.400000
209 11590 210 1 109.50000 418.400000
209 11590 211 1 109.50000 418.400000
209 11590 212 1 109.50000 418.400000
210 11590 211 1 109.50000 418.400000
210 11590 212 1 109.50000 418.400000
211 11590 212 1 109.50000 418.400000
214 11591 215 1 109.50000 418.400000
214 11591 216 1 109.50000 418.400000
214 11591 1197 1 109.50000 418.400000
215 11591 216 1 109.50000 418.400000
215 11591 1197 1 109.50000 418.400000
216 11591 1197 1 109.50000 418.400000
217 11592 218 1 109.50000 418.400000
217 11592 219 1 109.50000 418.400000
217 11592 220 1 109.50000 418.400000
218 11592 219 1 109.50000 418.400000
218 11592 220 1 109.50000 418.400000
219 11592 220 1 109.50000 418.400000
224 11593 225 1 109.50000 418.400000
224 11593 226 1 109.50000 418.400000
224 11593 227 1 109.50000 418.400000
225 11593 226 1 109.50000 418.400000
225 11593 227 1 109.50000 418.400000
226 11593 227 1 109.50000 418.400000
228 11594 229 1 109.50000 418.400000
228 11594 230 1 109.50000 418.400000
228 11594 231 1 109.50000 418.400000
229 11594 230 1 109.50000 418.400000
229 11594 231 1 109.50000 418.400000
230 11594 231 1 109.50000 418.400000
237 11595 8525 1 109.50000 418.400000
237 11595 8526 1 109.50000 418.400000
237 11595 8527 1 109.50000 418.400000
8525 11595 8526 1 109.50000 418.400000
8525 11595 8527 1 109.50000 418.400000
8526 11595 8527 1 109.50000 418.400000
239 11596 240 1 109.50000 418.400000
239 11596 241 1 109.50000 418.400000
239 11596 11509 1 109.50000 418.400000
240 11596 241 1 109.50000 418.400000
240 11596 11509 1 109.50000 418.400000
241 11596 11509 1 109.50000 418.400000
246 11597 247 1 109.50000 418.400000
246 11597 248 1 109.50000 418.400000
246 11597 249 1 109.50000 418.400000
247 11597 248 1 109.50000 418.400000
247 11597 249 1 109.50000 418.400000
248 11597 249 1 109.50000 418.400000
251 11598 252 1 109.50000 418.400000
251 11598 253 1 109.50000 418.400000
251 11598 10275 1 109.50000 418.400000
252 11598 253 1 109.50000 418.400000
252 11598 10275 1 109.50000 418.400000
253 11598 10275 1 109.50000 418.400000
256 11599 257 1 109.50000 418.400000
256 11599 258 1 109.50000 418.400000
256 11599 259 1 109.50000 418.400000
257 11599 258 1 109.50000 418.400000
257 11599 259 1 109.50000 418.400000
258 11599 259 1 109.50000 418.400000
260 11600 261 1 109.50000 418.400000
260 11600 262 1 109.50000 418.400000
260 11600 263 1 109.50000 418.400000
261 11600 262 1 109.50000 418.400000
261 11600 263 1 109.50000 418.400000
262 11600 263 1 109.50000 418.400000
264 11601 265 1 109.50000 418.400000
264 11601 266 1 109.50000 418.400000
264 11601 267 1 109.50000 418.400000
265 11601 266 1 109.50000 418.400000
265 11601 267 1 109.50000 418.400000
266 11601 267 1 109.50000 418.400000
268 11602 269 1 109.50000 418.400000
268 11602 270 1 109.50000 418.400000
268 11602 271 1 109.50000 418.400000
269 11602 270 1 109.50000 418.400000
269 11602 271 1 109.50000 418.400000
270 11602 271 1 109.50000 418.400000
272 11603 273 1 109.50000 418.400000
272 11603 274 1 109.50000 418.400000
272 11603 11363 1 109.50000 418.400000
273 11603 274 1 109.50000 418.400000
273 11603 11363 1 109.50000 418.400000
274 11603 11363 1 109.50000 418.400000
275 11604 276 1 109.50000 418.400000
275 11604 277 1 109.50000 418.400000
275 11604 278 1 109.50000 418.400000
276 11604 277 1 109.50000 418.400000
276 11604 278 1 109.50000 418.400000
277 11604 278 1 109.50000 418.400000
279 11605 280 1 109.50000 418.400000
279 11605 281 1 109.50000 418.400000
279 11605 282 1 109.50000 418.400000
280 11605 281 1 109.50000 418.400000
280 11605 282 1 109.50000 418.400000
281 11605 282 1 109.50000 418.400000
283 11606 284 1 109.50000 418.400000
283 11606 285 1 109.50000 418.400000
283 11606 11292 1 109.50000 418.400000
284 11606 285 1 109.50000 418.400000
284 11606 11292 1 109.50000 418.400000
285 11606 11292 1 109.50000 418.400000
286 11607 287 1 109.50000 418.400000
286 11607 288 1 109.50000 418.400000
286 11607 289 1 109.50000 418.400000
287 11607 288 1 109.50000 418.400000
287 11607 289 1 109.50000 418.400000
288 11607 289 1 109.50000 418.400000
290 11608 291 1 109.50000 418.400000
290 11608 292 1 109.50000 418.400000
290 11608 1212 1 109.50000 418.400000
291 11608 292 1 109.50000 418.400000
291 11608 1212 1 109.50000 418.400000
292 11608 1212 1 109.50000 418.400000
294 11609 295 1 109.50000 418.400000
294 11609 296 1 109.50000 418.400000
294 11609 9847 1 109.50000 418.400000
295 11609 296 1 109.50000 418.400000
295 11609 9847 1 109.50000 418.400000
296 11609 9847 1 109.50000 418.400000
298 11610 299 1 109.50000 418.400000
298 11610 300 1 109.50000 418.400000
298 11610 301 1 109.50000 418.400000
299 11610 300 1 109.50000 418.400000
299 11610 301 1 109.50000 418.400000
300 11610 301 1 109.50000 418.400000
302 11611 303 1 109.50000 418.400000
302 11611 304 1 109.50000 418.400000
302 11611 305 1 109.50000 418.400000
303 11611 304 1 109.50000 418.400000
303 11611 305 1 109.50000 418.400000
304 11611 305 1 109.50000 418.400000
306 11612 307 1 109.50000 418.400000
306 11612 308 1 109.50000 418.400000
306 11612 309 1 109.50000 418.400000
307 11612 308 1 109.50000 418.400000
307 11612 309 1 109.50000 418.400000
308 11612 309 1 109.50000 418.400000
310 11613 311 1 109.50000 418.400000
310 11613 312 1 109.50000 418.400000
310 11613 313 1 109.50000 418.400000
311 11613 312 1 109.50000 418.400000
311 11613 313 1 109.50000 418.400000
312 11613 313 1 109.50000 418.400000
263 11614 314 1 109.50000 418.400000
263 11614 315 1 109.50000 418.400000
263 11614 11268 1 109.50000 418.400000
314 11614 315 1 109.50000 418.400000
314 11614 11268 1 109.50000 418.400000
315 11614 11268 1 109.50000 418.400000
316 11615 317 1 109.50000 418.400000
316 11615 318 1 109.50000 418.400000
316 11615 319 1 109.50000 418.400000
317 11615 318 1 109.50000 418.400000
317 11615 319 1 109.50000 418.400000
318 11615 319 1 109.50000 418.400000
289 11616 321 1 109.50000 418.400000
289 11616 322 1 109.50000 418.400000
289 11616 323 1 109.50000 418.400000
321 11616 322 1 109.50000 418.400000
321 11616 323 1 109.50000 418.400000
322 11616 323 1 109.50000 418.400000
324 11617 325 1 109.50000 418.400000
324 11617 326 1 109.50000 418.400000
324 11617 327 1 109.50000 418.400000
325 11617 326 1 109.50000 418.400000
325 11617 327 1 109.50000 418.400000
326 11617 327 1 109.50000 418.400000
328 11618 329 1 109.50000 418.400000
328 11618 330 1 109.50000 418.400000
328 11618 331 1 109.50000 418.400000
329 11618 330 1 109.50000 418.400000
329 11618 331 1 109.50000 418.400000
330 11618 331 1 109.50000 418.400000
332 11619 333 1 109.50000 418.400000
332 11619 334 1 109.50000 418.400000
332 11619 335 1 109.50000 418.400000
333 11619 334 1 109.50000 418.400000
333 11619 335 1 109.50000 418.400000
334 11619 335 1 109.50000 418.400000
338 11620 770 1 109.50000 418.400000
338 11620 5300 1 109.50000 418.400000
338 11620 5799 1 109.50000 418.400000
770 11620 5300 1 109.50000 418.400000
770 11620 5799 1 109.50000 418.400000
5300 11620 5799 1 109.50000 418.400000
340 11621 341 1 109.50000 418.400000
340 11621 342 1 109.50000 418.400000
340 11621 343 1 109.50000 418.400000
341 11621 342 1 109.50000 418.400000
341 11621 343 1 109.50000 418.400000
342 11621 343 1 109.50000 418.400000
344 11622 345 1 109.50000 418.400000
344 11622 346 1 109.50000 418.400000
344 11622 347 1 109.50000 418.400000
345 11622 346 1 109.50000 418.400000
345 11622 347 1 109.50000 418.400000
346 11622 347 1 109.50000 418.400000
352 11623 353 1 109.50000 418.400000
352 11623 354 1 109.50000 418.400000
352 11623 355 1 109.50000 418.400000
353 11623 354 1 109.50000 418.400000
353 11623 355 1 109.50000 418.400000
354 11623 355 1 109.50000 418.400000
356 11624 357 1 109.50000 418.400000
356 11624 358 1 109.50000 418.400000
356 11624 359 1 109.50000 418.400000
357 11624 358 1 109.50000 418.400000
357 11624 359 1 109.50000 418.400000
358 11624 359 1 109.50000 418.400000
360 11625 361 1 109.50000 418.400000
360 11625 362 1 109.50000 418.400000
360 11625 363 1 109.50000 418.400000
361 11625 362 1 109.50000 418.400000
361 11625 363 1 109.50000 418.400000
362 11625 363 1 109.50000 418.400000
364 11626 365 1 109.50000 418.400000
364 11626 366 1 109.50000 418.400000
364 11626 367 1 109.50000 418.400000
365 11626 366 1 109.50000 418.400000
365 11626 367 1 109.50000 418.400000
366 11626 367 1 109.50000 418.400000
369 11627 8212 1 109.50000 418.400000
369 11627 9394 1 109.50000 418.400000
369 11627 11377 1 109.50000 418.400000
8212 11627 9394 1 109.50000 418.400000
8212 11627 11377 1 109.50000 418.400000
9394 11627 11377 1 109.50000 418.400000
372 11628 374 1 109.50000 418.400000
372 11628 2432 1 109.50000 418.400000
372 11628 6266 1 109.50000 418.400000
374 11628 2432 1 109.50000 418.400000
374 11628 6266 1 109.50000 418.400000
2432 11628 6266 1 109.50000 418.400000
377 11629 378 1 109.50000 418.400000
377 11629 1946 1 109.50000 418.400000
377 11629 1948 1 109.50000 418.400000
378 11629 1946 1 109.50000 418.400000
378 11629 1948 1 109.50000 418.400000
1946 11629 1948 1 109.50000 418.400000
379 11630 380 1 109.50000 418.400000
379 11630 381 1 109.50000 418.400000
379 11630 382 1 109.50000 418.400000
380 11630 381 1 109.50000 418.400000
380 11630 382 1 109.50000 418.400000
381 11630 382 1 109.50000 418.400000
383 11631 384 1 109.50000 418.400000
383 11631 385 1 109.50000 418.400000
383 11631 386 1 109.50000 418.400000
384 11631 385 1 109.50000 418.400000
384 11631 386 1 109.50000 418.400000
385 11631 386 1 109.50000 418.400000
387 11632 388 1 109.50000 418.400000
387 11632 389 1 109.50000 418.400000
387 11632 390 1 109.50000 418.400000
388 11632 389 1 109.50000 418.400000
388 11632 390 1 109.50000 418.400000
389 11632 390 1 109.50000 418.400000
391 11633 392 1 109.50000 418.400000
391 11633 393 1 109.50000 418.400000
391 11633 394 1 109.50000 418.400000
392 11633 393 1 109.50000 418.400000
392 11633 394 1 109.50000 418.400000
393 11633 394 1 109.50000 418.400000
395 11634 396 1 109.50000 418.400000
395 11634 11201 1 109.50000 418.400000
395 11634 11463 1 109.50000 418.400000
396 11634 11201 1 109.50000 418.400000
396 11634 11463 1 109.50000 418.400000
11201 11634 11463 1 109.50000 418.400000
397 11635 399 1 109.50000 418.400000
397 11635 400 1 109.50000 418.400000
397 11635 4444 1 109.50000 418.400000
399 11635 400 1 109.50000 418.400000
399 11635 4444 1 109.50000 418.400000
400 11635 4444 1 109.50000 418.400000
401 11636 402 1 109.50000 418.400000
401 11636 403 1 109.50000 418.400000
401 11636 404 1 109.50000 418.400000
402 11636 403 1 109.50000 418.400000
402 11636 404 1 109.50000 418.400000
403 11636 404 1 109.50000 418.400000
405 11637 406 1 109.50000 418.400000
405 11637 408 1 109.50000 418.400000
405 11637 8729 1 109.50000 418.400000
406 11637 408 1 109.50000 418.400000
406 11637 8729 1 109.50000 418.400000
408 11637 8729 1 109.50000 418.400000
409 11638 410 1 109.50000 418.400000
409 11638 411 1 109.50000 418.400000
409 11638 412 1 109.50000 418.400000
410 11638 411 1 109.50000 418.400000
410 11638 412 1 109.50000 418.400000
411 11638 412 1 109.50000 418.400000
413 11639 414 1 109.50000 418.400000
413 11639 415 1 109.50000 418.400000
413 11639 416 1 109.50000 418.400000
414 11639 415 1 109.50000 418.400000
414 11639 416 1 109.50000 418.400000
415 11639 416 1 109.50000 418.400000
420 11640 421 1 109.50000 418.400000
420 11640 422 1 109.50000 418.400000
420 11640 423 1 109.50000 418.400000
421 11640 422 1 109.50000 418.400000
421 11640 423 1 109.50000 418.400000
422 11640 423 1 109.50000 418.400000
271 11641 424 1 109.50000 418.400000
271 11641 425 1 109.50000 418.400000
271 11641 426 1 109.50000 418.400000
424 11641 425 1 109.50000 418.400000
424 11641 426 1 109.50000 418.400000
425 11641 426 1 109.50000 418.400000
427 11642 428 1 109.50000 418.400000
427 11642 429 1 109.50000 418.400000
427 11642 430 1 109.50000 418.400000
428 11642 429 1 109.50000 418.400000
428 11642 430 1 109.50000 418.400000
429 11642 430 1 109.50000 418.400000
431 11643 432 1 109.50000 418.400000
431 11643 433 1 109.50000 418.400000
431 11643 434 1 109.50000 418.400000
432 11643 433 1 109.50000 418.400000
432 11643 434 1 109.50000 418.400000
433 11643 434 1 109.50000 418.400000
436 11644 437 1 109.50000 418.400000
436 11644 438 1 109.50000 418.400000
436 11644 2817 1 109.50000 418.400000
437 11644 438 1 109.50000 418.400000
437 11644 2817 1 109.50000 418.400000
438 11644 2817 1 109.50000 418.400000
439 11645 440 1 109.50000 418.400000
439 11645 11252 1 109.50000 418.400000
439 11645 11469 1 109.50000 418.400000
440 11645 11252 1 109.50000 418.400000
440 11645 11469 1 109.50000 418.400000
11252 11645 11469 1 109.50000 418.400000
441 11646 442 1 109.50000 418.400000
441 11646 443 1 109.50000 418.400000
441 11646 444 1 109.50000 418.400000
442 11646 443 1 109.50000 418.400000
442 11646 444 1 109.50000 418.400000
443 11646 444 1 109.50000 418.400000
445 11647 446 1 109.50000 418.400000
445 11647 447 1 109.50000 418.400000
445 11647 448 1 109.50000 418.400000
446 11647 447 1 109.50000 418.400000
446 11647 448 1 109.50000 418.400000
447 11647 448 1 109.50000 418.400000
449 11648 450 1 109.50000 418.400000
449 11648 11363 1 109.50000 418.400000
449 11648 11453 1 109.50000 418.400000
450 11648 11363 1 109.50000 418.400000
450 11648 11453 1 109.50000 418.400000
11363 11648 11453 1 109.50000 418.400000
451 11649 452 1 109.50000 418.400000
451 11649 453 1 109.50000 418.400000
451 11649 454 1 109.50000 418.400000
452 11649 453 1 109.50000 418.400000
452 11649 454 1 109.50000 418.400000
453 11649 454 1 109.50000 418.400000
455 11650 456 1 109.50000 418.400000
455 11650 457 1 109.50000 418.400000
455 11650 458 1 109.50000 418.400000
456 11650 457 1 109.50000 418.400000
456 11650 458 1 109.50000 418.400000
457 11650 458 1 109.50000 418.400000
459 11651 460 1 109.50000 418.400000
459 11651 11336 1 109.50000 418.400000
459 11651 11396 1 109.50000 418.400000
460 11651 11336 1 109.50000 418.400000
460 11651 11396 1 109.50000 418.400000
11336 11651 11396 1 109.50000 418.400000
461 11652 462 1 109.50000 418.400000
461 11652 463 1 109.50000 418.400000
461 11652 464 1 109.50000 418.400000
462 11652 463 1 109.50000 418.400000
462 11652 464 1 109.50000 418.400000
463 11652 464 1 109.50000 418.400000
465 11653 466 1 109.50000 418.400000
465 11653 467 1 109.50000 418.400000
465 11653 468 1 109.50000 418.400000
466 11653 467 1 109.50000 418.400000
466 11653 468 1 109.50000 418.400000
467 11653 468 1 109.50000 418.400000
469 11654 470 1 109.50000 418.400000
469 11654 471 1 109.50000 418.400000
469 11654 472 1 109.50000 418.400000
470 11654 471 1 109.50000 418.400000
470 11654 472 1 109.50000 418.400000
471 11654 472 1 109.50000 418.400000
475 11655 476 1 109.50000 418.400000
475 11655 477 1 109.50000 418.400000
475 11655 478 1 109.50000 418.400000
476 11655 477 1 109.50000 418.400000
476 11655 478 1 109.50000 418.400000
477 11655 478 1 109.50000 418.400000
479 11656 482 1 109.50000 418.400000
479 11656 4167 1 109.50000 418.400000
479 11656 4168 1 109.50000 418.400000
482 11656 4167 1 109.50000 418.400000
482 11656 4168 1 109.50000 418.400000
4167 11656 4168 1 109.50000 418.400000
483 11657 484 1 109.50000 418.400000
483 11657 485 1 109.50000 418.400000
483 11657 486 1 109.50000 418.400000
484 11657 485 1 109.50000 418.400000
484 11657 486 1 109.50000 418.400000
485 11657 486 1 109.50000 418.400000
487 11658 488 1 109.50000 418.400000
487 11658 489 1 109.50000 418.400000
487 11658 490 1 109.50000 418.400000
488 11658 489 1 109.50000 418.400000
488 11658 490 1 109.50000 418.400000
489 11658 490 1 109.50000 418.400000
491 11659 492 1 109.50000 418.400000
491 11659 493 1 109.50000 418.400000
491 11659 494 1 109.50000 418.400000
492 11659 493 1 109.50000 418.400000
492 11659 494 1 109.50000 418.400000
493 11659 494 1 109.50000 418.400000
496 11660 497 1 109.50000 418.400000
496 11660 498 1 109.50000 418.400000
496 11660 7669 1 109.50000 418.400000
497 11660 498 1 109.50000 418.400000
497 11660 7669 1 109.50000 418.400000
498 11660 7669 1 109.50000 418.400000
500 11661 501 1 109.50000 418.400000
500 11661 502 1 109.50000 418.400000
500 11661 503 1 109.50000 418.400000
501 11661 502 1 109.50000 418.400000
501 11661 503 1 109.50000 418.400000
502 11661 503 1 109.50000 418.400000
504 11662 505 1 109.50000 418.400000
504 11662 506 1 109.50000 418.400000
504 11662 507 1 109.50000 418.400000
505 11662 506 1 109.50000 418.400000
505 11662 507 1 109.50000 418.400000
506 11662 507 1 109.50000 418.400000
508 11663 509 1 109.50000 418.400000
508 11663 510 1 109.50000 418.400000
508 11663 511 1 109.50000 418.400000
509 11663 510 1 109.50000 418.400000
509 11663 511 1 109.50000 418.400000
510 11663 511 1 109.50000 418.400000
123 11664 512 1 109.50000 418.400000
123 11664 513 1 109.50000 418.400000
123 11664 514 1 109.50000 418.400000
512 11664 513 1 109.50000 418.400000
512 11664 514 1 109.50000 418.400000
513 11664 514 1 109.50000 418.400000
515 11665 516 1 109.50000 418.400000
515 11665 517 1 109.50000 418.400000
515 11665 11450 1 109.50000 418.400000
516 11665 517 1 109.50000 418.400000
516 11665 11450 1 109.50000 418.400000
517 11665 11450 1 109.50000 418.400000
518 11666 519 1 109.50000 418.400000
518 11666 520 1 109.50000 418.400000
518 11666 11502 1 109.50000 418.400000
519 11666 520 1 109.50000 418.400000
519 11666 11502 1 109.50000 418.400000
520 11666 11502 1 109.50000 418.400000
521 11667 522 1 109.50000 418.400000
521 11667 524 1 109.50000 418.400000
521 11667 4624 1 109.50000 418.400000
522 11667 524 1 109.50000 418.400000
522 11667 4624 1 109.50000 418.400000
524 11667 4624 1 109.50000 418.400000
525 11668 526 1 109.50000 418.400000
525 11668 527 1 109.50000 418.400000
525 11668 528 1 109.50000 418.400000
526 11668 527 1 109.50000 418.400000
526 11668 528 1 109.50000 418.400000
527 11668 528 1 109.50000 418.400000
529 11669 530 1 109.50000 418.400000
529 11669 531 1 109.50000 418.400000
529 11669 532 1 109.50000 418.400000
530 11669 531 1 109.50000 418.400000
530 11669 532 1 109.50000 418.400000
531 11669 532 1 109.50000 418.400000
503 11670 533 1 109.50000 418.400000
503 11670 534 1 109.50000 418.400000
503 11670 535 1 109.50000 418.400000
533 11670 534 1 109.50000 418.400000
533 11670 535 1 109.50000 418.400000
534 11670 535 1 109.50000 418.400000
5 11671 536 1 109.50000 418.400000
5 11671 537 1 109.50000 418.400000
5 11671 538 1 109.50000 418.400000
536 11671 537 1 109.50000 418.400000
536 11671 538 1 109.50000 418.400000
537 11671 538 1 109.50000 418.400000
539 11672 540 1 109.50000 418.400000
539 11672 541 1 109.50000 418.400000
539 11672 542 1 109.50000 418.400000
540 11672 541 1 109.50000 418.400000
540 11672 542 1 109.50000 418.400000
541 11672 542 1 109.50000 418.400000
545 11673 1597 1 109.50000 418.400000
545 11673 4639 1 109.50000 418.400000
545 11673 4640 1 109.50000 418.400000
1597 11673 4639 1 109.50000 418.400000
1597 11673 4640 1 109.50000 418.400000
4639 11673 4640 1 109.50000 418.400000
249 11674 426 1 109.50000 418.400000
249 11674 546 1 109.50000 418.400000
249 11674 547 1 109.50000 418.400000
426 11674 546 1 109.50000 418.400000
426 11674 547 1 109.50000 418.400000
546 11674 547 1 109.50000 418.400000
548 11675 549 1 109.50000 418.400000
548 11675 550 1 109.50000 418.400000
548 11675 551 1 109.50000 418.400000
549 11675 550 1 109.50000 418.400000
549 11675 551 1 109.50000 418.400000
550 11675 551 1 109.50000 418.400000
552 11676 553 1 109.50000 418.400000
552 11676 554 1 109.50000 418.400000
552 11676 1131 1 109.50000 418.400000
553 11676 554 1 109.50000 418.400000
553 11676 1131 1 109.50000 418.400000
554 11676 1131 1 109.50000 418.400000
559 11677 560 1 109.50000 418.400000
559 11677 561 1 109.50000 418.400000
559 11677 11183 1 109.50000 418.400000
560 11677 561 1 109.50000 418.400000
560 11677 11183 1 109.50000 418.400000
561 11677 11183 1 109.50000 418.400000
562 11678 563 1 109.50000 418.400000
562 11678 564 1 109.50000 418.400000
562 11678 565 1 109.50000 418.400000
563 11678 564 1 109.50000 418.400000
563 11678 565 1 109.50000 418.400000
564 11678 565 1 109.50000 418.400000
566 11679 567 1 109.50000 418.400000
566 11679 568 1 109.50000 418.400000
566 11679 569 1 109.50000 418.400000
567 11679 568 1 109.50000 418.400000
567 11679 569 1 109.50000 418.400000
568 11679 569 1 109.50000 418.400000
570 11680 571 1 109.50000 418.400000
570 11680 572 1 109.50000 418.400000
570 11680 573 1 109.50000 418.400000
571 11680 572 1 109.50000 418.400000
571 11680 573 1 109.50000 418.400000
572 11680 573 1 109.50000 418.400000
574 11681 575 1 109.50000 418.400000
574 11681 576 1 109.50000 418.400000
574 11681 577 1 109.50000 418.400000
575 11681 576 1 109.50000 418.400000
575 11681 577 1 109.50000 418.400000
576 11681 577 1 109.50000 418.400000
347 11682 580 1 109.50000 418.400000
347 11682 581 1 109.50000 418.400000
347 11682 582 1 109.50000 418.400000
580 11682 581 1 109.50000 418.400000
580 11682 582 1 109.50000 418.400000
581 11682 582 1 109.50000 418.400000
583 11683 584 1 109.50000 418.400000
583 11683 11214 1 109.50000 418.400000
583 11683 11445 1 109.50000 418.400000
584 11683 11214 1 109.50000 418.400000
584 11683 11445 1 109.50000 418.400000
11214 11683 11445 1 109.50000 418.400000
585 11684 586 1 109.50000 418.400000
585 11684 587 1 109.50000 418.400000
585 11684 588 1 109.50000 418.400000
586 11684 587 1 109.50000 418.400000
586 11684 588 1 109.50000 418.400000
587 11684 588 1 109.50000 418.400000
589 11685 590 1 109.50000 418.400000
589 11685 591 1 109.50000 418.400000
589 11685 592 1 109.50000 418.400000
590 11685 591 1 109.50000 418.400000
590 11685 592 1 109.50000 418.400000
591 11685 592 1 109.50000 418.400000
593 11686 594 1 109.50000 418.400000
593 11686 595 1 109.50000 418.400000
593 11686 596 1 109.50000 418.400000
594 11686 595 1 109.50000 418.400000
594 11686 596 1 109.50000 418.400000
595 11686 596 1 109.50000 418.400000
597 11687 598 1 109.50000 418.400000
597 11687 599 1 109.50000 418.400000
597 11687 600 1 109.50000 418.400000
598 11687 599 1 109.50000 418.400000
598 11687 600 1 109.50000 418.400000
599 11687 600 1 109.50000 418.400000
604 11688 605 1 109.50000 418.400000
604 11688 606 1 109.50000 418.400000
604 11688 607 1 109.50000 418.400000
605 11688 606 1 109.50000 418.400000
605 11688 607 1 109.50000 418.400000
606 11688 607 1 109.50000 418.400000
606 11689 608 1 109.50000 418.400000
606 11689 609 1 109.50000 418.400000
606 11689 610 1 109.50000 418.400000
608 11689 609 1 109.50000 418.400000
608 11689 610 1 109.50000 418.400000
609 11689 610 1 109.50000 418.400000
611 11690 612 1 109.50000 418.400000
611 11690 613 1 109.50000 418.400000
611 11690 614 1 109.50000 418.400000
612 11690 613 1 109.50000 418.400000
612 11690 614 1 109.50000 418.400000
613 11690 614 1 109.50000 418.400000
615 11691 616 1 109.50000 418.400000
615 11691 617 1 109.50000 418.400000
615 11691 618 1 109.50000 418.400000
616 11691 617 1 109.50000 418.400000
616 11691 618 1 109.50000 418.400000
617 11691 618 1 109.50000 418.400000
622 11692 623 1 109.50000 418.400000
622 11692 624 1 109.50000 418.400000
622 11692 625 1 109.50000 418.400000
623 11692 624 1 109.50000 418.400000
623 11692 625 1 109.50000 418.400000
624 11692 625 1 109.50000 418.400000
375 11693 626 1 109.50000 418.400000
375 11693 627 1 109.50000 418.400000
375 11693 628 1 109.50000 418.400000
626 11693 627 1 109.50000 418.400000
626 11693 628 1 109.50000 418.400000
627 11693 628 1 109.50000 418.400000
292 11694 629 1 109.50000 418.400000
292 11694 630 1 109.50000 418.400000
292 11694 631 1 109.50000 418.400000
629 11694 630 1 109.50000 418.400000
629 11694 631 1 109.50000 418.400000
630 11694 631 1 109.50000 418.400000
632 11695 633 1 109.50000 418.400000
632 11695 634 1 109.50000 418.400000
632 11695 635 1 109.50000 418.400000
633 11695 634 1 109.50000 418.400000
633 11695 635 1 109.50000 418.400000
634 11695 635 1 109.50000 418.400000
636 11696 637 1 109.50000 418.400000
636 11696 638 1 109.50000 418.400000
636 11696 639 1 109.50000 418.400000
637 11696 638 1 109.50000 418.400000
637 11696 639 1 109.50000 418.400000
638 11696 639 1 109.50000 418.400000
640 11697 641 1 109.50000 418.400000
640 11697 642 1 109.50000 418.400000
640 11697 643 1 109.50000 418.400000
641 11697 642 1 109.50000 418.400000
641 11697 643 1 109.50000 418.400000
642 11697 643 1 109.50000 418.400000
445 11698 644 1 109.50000 418.400000
445 11698 645 1 109.50000 418.400000
445 11698 646 1 109.50000 418.400000
644 11698 645 1 109.50000 418.400000
644 11698 646 1 109.50000 418.400000
645 11698 646 1 109.50000 418.400000
647 11699 648 1 109.50000 418.400000
647 11699 649 1 109.50000 418.400000
647 11699 650 1 109.50000 418.400000
648 11699 649 1 109.50000 418.400000
648 11699 650 1 109.50000 418.400000
649 11699 650 1 109.50000 418.400000
651 11700 652 1 109.50000 418.400000
651 11700 653 1 109.50000 418.400000
651 11700 654 1 109.50000 418.400000
652 11700 653 1 109.50000 418.400000
652 11700 654 1 109.50000 418.400000
653 11700 654 1 109.50000 418.400000
388 11701 629 1 109.50000 418.400000
388 11701 655 1 109.50000 418.400000
388 11701 656 1 109.50000 418.400000
629 11701 655 1 109.50000 418.400000
629 11701 656 1 109.50000 418.400000
655 11701 656 1 109.50000 418.400000
657 11702 658 1 109.50000 418.400000
657 11702 659 1 109.50000 418.400000
657 11702 4295 1 109.50000 418.400000
658 11702 659 1 109.50000 418.400000
658 11702 4295 1 109.50000 418.400000
659 11702 4295 1 109.50000 418.400000
661 11703 662 1 109.50000 418.400000
661 11703 664 1 109.50000 418.400000
661 11703 6555 1 109.50000 418.400000
662 11703 664 1 109.50000 418.400000
662 11703 6555 1 109.50000 418.400000
664 11703 6555 1 109.50000 418.400000
665 11704 667 1 109.50000 418.400000
665 11704 668 1 109.50000 418.400000
665 11704 3695 1 109.50000 418.400000
667 11704 668 1 109.50000 418.400000
667 11704 3695 1 109.50000 418.400000
668 11704 3695 1 109.50000 418.400000
669 11705 670 1 109.50000 418.400000
669 11705 10239 1 109.50000 418.400000
669 11705 11461 1 109.50000 418.400000
670 11705 10239 1 109.50000 418.400000
670 11705 11461 1 109.50000 418.400000
10239 11705 11461 1 109.50000 418.400000
671 11706 672 1 109.50000 418.400000
671 11706 674 1 109.50000 418.400000
671 11706 8622 1 109.50000 418.400000
672 11706 674 1 109.50000 418.400000
672 11706 8622 1 109.50000 418.400000
674 11706 8622 1 109.50000 418.400000
675 11707 676 1 109.50000 418.400000
675 11707 677 1 109.50000 418.400000
675 11707 11299 1 109.50000 418.400000
676 11707 677 1 109.50000 418.400000
676 11707 11299 1 109.50000 418.400000
677 11707 11299 1 109.50000 418.400000
678 11708 679 1 109.50000 418.400000
678 11708 680 1 109.50000 418.400000
678 11708 850 1 109.50000 418.400000
679 11708 680 1 109.50000 418.400000
679 11708 850 1 109.50000 418.400000
680 11708 850 1 109.50000 418.400000
682 11709 684 1 109.50000 418.400000
682 11709 685 1 109.50000 418.400000
682 11709 760 1 109.50000 418.400000
684 11709 685 1 109.50000 418.400000
684 11709 760 1 109.50000 418.400000
685 11709 760 1 109.50000 418.400000
686 11710 687 1 109.50000 418.400000
686 11710 688 1 109.50000 418.400000
686 11710 689 1 109.50000 418.400000
687 11710 688 1 109.50000 418.400000
687 11710 689 1 109.50000 418.400000
688 11710 689 1 109.50000 418.400000
401 11711 690 1 109.50000 418.400000
401 11711 692 1 109.50000 418.400000
401 11711 1749 1 109.50000 418.400000
690 11711 692 1 109.50000 418.400000
690 11711 1749 1 109.50000 418.400000
692 11711 1749 1 109.50000 418.400000
693 11712 694 1 109.50000 418.400000
693 11712 695 1 109.50000 418.400000
693 11712 696 1 109.50000 418.400000
694 11712 695 1 109.50000 418.400000
694 11712 696 1 109.50000 418.400000
695 11712 696 1 109.50000 418.400000
697 11713 698 1 109.50000 418.400000
697 11713 699 1 109.50000 418.400000
697 11713 700 1 109.50000 418.400000
698 11713 699 1 109.50000 418.400000
698 11713 700 1 109.50000 418.400000
699 11713 700 1 109.50000 418.400000
176 11714 701 1 109.50000 418.400000
176 11714 702 1 109.50000 418.400000
176 11714 703 1 109.50000 418.400000
701 11714 702 1 109.50000 418.400000
701 11714 703 1 109.50000 418.400000
702 11714 703 1 109.50000 418.400000
704 11715 705 1 109.50000 418.400000
704 11715 706 1 109.50000 418.400000
704 11715 707 1 109.50000 418.400000
705 11715 706 1 109.50000 418.400000
705 11715 707 1 109.50000 418.400000
706 11715 707 1 109.50000 418.400000
708 11716 709 1 109.50000 418.400000
708 11716 710 1 109.50000 418.400000
708 11716 711 1 109.50000 418.400000
709 11716 710 1 109.50000 418.400000
709 11716 711 1 109.50000 418.400000
710 11716 711 1 109.50000 418.400000
712 11717 713 1 109.50000 418.400000
712 11717 714 1 109.50000 418.400000
712 11717 7002 1 109.50000 418.400000
713 11717 714 1 109.50000 418.400000
713 11717 7002 1 109.50000 418.400000
714 11717 7002 1 109.50000 418.400000
717 11718 718 1 109.50000 418.400000
717 11718 3464 1 109.50000 418.400000
717 11718 7773 1 109.50000 418.400000
718 11718 3464 1 109.50000 418.400000
718 11718 7773 1 109.50000 418.400000
3464 11718 7773 1 109.50000 418.400000
719 11719 720 1 109.50000 418.400000
719 11719 721 1 109.50000 418.400000
719 11719 11188 1 109.50000 418.400000
720 11719 721 1 109.50000 418.400000
720 11719 11188 1 109.50000 418.400000
721 11719 11188 1 109.50000 418.400000
725 11720 726 1 109.50000 418.400000
725 11720 727 1 109.50000 418.400000
725 11720 728 1 109.50000 418.400000
726 11720 727 1 109.50000 418.400000
726 11720 728 1 109.50000 418.400000
727 11720 728 1 109.50000 418.400000
729 11721 730 1 109.50000 418.400000
729 11721 731 1 109.50000 418.400000
729 11721 732 1 109.50000 418.400000
730 11721 731 1 109.50000 418.400000
730 11721 732 1 109.50000 418.400000
731 11721 732 1 109.50000 418.400000
733 11722 734 1 109.50000 418.400000
733 11722 735 1 109.50000 418.400000
733 11722 736 1 109.50000 418.400000
734 11722 735 1 109.50000 418.400000
734 11722 736 1 109.50000 418.400000
735 11722 736 1 109.50000 418.400000
737 11723 738 1 109.50000 418.400000
737 11723 739 1 109.50000 418.400000
737 11723 740 1 109.50000 418.400000
738 11723 739 1 109.50000 418.400000
738 11723 740 1 109.50000 418.400000
739 11723 740 1 109.50000 418.400000
741 11724 742 1 109.50000 418.400000
741 11724 743 1 109.50000 418.400000
741 11724 744 1 109.50000 418.400000
742 11724 743 1 109.50000 418.400000
742 11724 744 1 109.50000 418.400000
743 11724 744 1 109.50000 418.400000
745 11725 746 1 109.50000 418.400000
745 11725 747 1 109.50000 418.400000
745 11725 748 1 109.50000 418.400000
746 11725 747 1 109.50000 418.400000
746 11725 748 1 109.50000 418.400000
747 11725 748 1 109.50000 418.400000
749 11726 750 1 109.50000 418.400000
749 11726 751 1 109.50000 418.400000
749 11726 752 1 109.50000 418.400000
750 11726 751 1 109.50000 418.400000
750 11726 752 1 109.50000 418.400000
751 11726 752 1 109.50000 418.400000
753 11727 754 1 109.50000 418.400000
753 11727 755 1 109.50000 418.400000
753 11727 756 1 109.50000 418.400000
754 11727 755 1 109.50000 418.400000
754 11727 756 1 109.50000 418.400000
755 11727 756 1 109.50000 418.400000
757 11728 758 1 109.50000 418.400000
757 11728 759 1 109.50000 418.400000
757 11728 760 1 109.50000 418.400000
758 11728 759 1 109.50000 418.400000
758 11728 760 1 109.50000 418.400000
759 11728 760 1 109.50000 418.400000
761 11729 762 1 109.50000 418.400000
761 11729 763 1 109.50000 418.400000
761 11729 764 1 109.50000 418.400000
762 11729 763 1 109.50000 418.400000
762 11729 764 1 109.50000 418.400000
763 11729 764 1 109.50000 418.400000
765 11730 766 1 109.50000 418.400000
765 11730 767 1 109.50000 418.400000
765 11730 768 1 109.50000 418.400000
766 11730 767 1 109.50000 418.400000
766 11730 768 1 109.50000 418.400000
767 11730 768 1 109.50000 418.400000
769 11731 770 1 109.50000 418.400000
769 11731 771 1 109.50000 418.400000
769 11731 772 1 109.50000 418.400000
770 11731 771 1 109.50000 418.400000
770 11731 772 1 109.50000 418.400000
771 11731 772 1 109.50000 418.400000
65 11732 773 1 109.50000 418.400000
65 11732 774 1 109.50000 418.400000
65 11732 775 1 109.50000 418.400000
773 11732 774 1 109.50000 418.400000
773 11732 775 1 109.50000 418.400000
774 11732 775 1 109.50000 418.400000
362 11733 776 1 109.50000 418.400000
362 11733 777 1 109.50000 418.400000
362 11733 2574 1 109.50000 418.400000
776 11733 777 1 109.50000 418.400000
776 11733 2574 1 109.50000 418.400000
777 11733 2574 1 109.50000 418.400000
779 11734 780 1 109.50000 418.400000
779 11734 781 1 109.50000 418.400000
779 11734 782 1 109.50000 418.400000
780 11734 781 1 109.50000 418.400000
780 11734 782 1 109.50000 418.400000
781 11734 782 1 109.50000 418.400000
786 11735 787 1 109.50000 418.400000
786 11735 788 1 109.50000 418.400000
786 11735 789 1 109.50000 418.400000
787 11735 788 1 109.50000 418.400000
787 11735 789 1 109.50000 418.400000
788 11735 789 1 109.50000 418.400000
790 11736 791 1 109.50000 418.400000
790 11736 792 1 109.50000 418.400000
790 11736 11503 1 109.50000 418.400000
791 11736 792 1 109.50000 418.400000
791 11736 11503 1 109.50000 418.400000
792 11736 11503 1 109.50000 418.400000
599 11737 794 1 109.50000 418.400000
599 11737 795 1 109.50000 418.400000
599 11737 796 1 109.50000 418.400000
794 11737 795 1 109.50000 418.400000
794 11737 796 1 109.50000 418.400000
795 11737 796 1 109.50000 418.400000
800 11738 801 1 109.50000 418.400000
800 11738 11382 1 109.50000 418.400000
800 11738 11513 1 109.50000 418.400000
801 11738 11382 1 109.50000 418.400000
801 11738 11513 1 109.50000 418.400000
11382 11738 11513 1 109.50000 418.400000
802 11739 803 1 109.50000 418.400000
802 11739 804 1 109.50000 418.400000
802 11739 805 1 109.50000 418.400000
803 11739 804 1 109.50000 418.400000
803 11739 805 1 109.50000 418.400000
804 11739 805 1 109.50000 418.400000
806 11740 807 1 109.50000 418.400000
806 11740 808 1 109.50000 418.400000
806 11740 2074 1 109.50000 418.400000
807 11740 808 1 109.50000 418.400000
807 11740 2074 1 109.50000 418.400000
808 11740 2074 1 109.50000 418.400000
813 11741 843 1 109.50000 418.400000
813 11741 5920 1 109.50000 418.400000
813 11741 7740 1 109.50000 418.400000
843 11741 5920 1 109.50000 418.400000
843 11741 7740 1 109.50000 418.400000
5920 11741 7740 1 109.50000 418.400000
814 11742 815 1 109.50000 418.400000
814 11742 816 1 109.50000 418.400000
814 11742 817 1 109.50000 418.400000
815 11742 816 1 109.50000 418.400000
815 11742 817 1 109.50000 418.400000
816 11742 817 1 109.50000 418.400000
818 11743 819 1 109.50000 418.400000
818 11743 820 1 109.50000 418.400000
818 11743 821 1 109.50000 418.400000
819 11743 820 1 109.50000 418.400000
819 11743 821 1 109.50000 418.400000
820 11743 821 1 109.50000 418.400000
404 11744 822 1 109.50000 418.400000
404 11744 823 1 109.50000 418.400000
404 11744 824 1 109.50000 418.400000
822 11744 823 1 109.50000 418.400000
822 11744 824 1 109.50000 418.400000
823 11744 824 1 109.50000 418.400000
825 11745 827 1 109.50000 418.400000
825 11745 828 1 109.50000 418.400000
825 11745 6852 1 109.50000 418.400000
827 11745 828 1 109.50000 418.400000
827 11745 6852 1 109.50000 418.400000
828 11745 6852 1 109.50000 418.400000
829 11746 830 1 109.50000 418.400000
829 11746 831 1 109.50000 418.400000
829 11746 832 1 109.50000 418.400000
830 11746 831 1 109.50000 418.400000
830 11746 832 1 109.50000 418.400000
831 11746 832 1 109.50000 418.400000
833 11747 834 1 109.50000 418.400000
833 11747 835 1 109.50000 418.400000
833 11747 836 1 109.50000 418.400000
834 11747 835 1 109.50000 418.400000
834 11747 836 1 109.50000 418.400000
835 11747 836 1 109.50000 418.400000
841 11748 842 1 109.50000 418.400000
841 11748 843 1 109.50000 418.400000
841 11748 844 1 109.50000 418.400000
842 11748 843 1 109.50000 418.400000
842 11748 844 1 109.50000 418.400000
843 11748 844 1 109.50000 418.400000
430 11749 846 1 109.50000 418.400000
430 11749 847 1 109.50000 418.400000
430 11749 848 1 109.50000 418.400000
846 11749 847 1 109.50000 418.400000
846 11749 848 1 109.50000 418.400000
847 11749 848 1 109.50000 418.400000
678 11750 681 1 109.50000 418.400000
678 11750 849 1 109.50000 418.400000
678 11750 851 1 109.50000 418.400000
681 11750 849 1 109.50000 418.400000
681 11750 851 1 109.50000 418.400000
849 11750 851 1 109.50000 418.400000
852 11751 853 1 109.50000 418.400000
852 11751 854 1 109.50000 418.400000
852 11751 855 1 109.50000 418.400000
853 11751 854 1 109.50000 418.400000
853 11751 855 1 109.50000 418.400000
854 11751 855 1 109.50000 418.400000
856 11752 857 1 109.50000 418.400000
856 11752 858 1 109.50000 418.400000
856 11752 859 1 109.50000 418.400000
857 11752 858 1 109.50000 418.400000
857 11752 859 1 109.50000 418.400000
858 11752 859 1 109.50000 418.400000
860 11753 861 1 109.50000 418.400000
860 11753 862 1 109.50000 418.400000
860 11753 863 1 109.50000 418.400000
861 11753 862 1 109.50000 418.400000
861 11753 863 1 109.50000 418.400000
862 11753 863 1 109.50000 418.400000
864 11754 865 1 109.50000 418.400000
864 11754 867 1 109.50000 418.400000
864 11754 986 1 109.50000 418.400000
865 11754 867 1 109.50000 418.400000
865 11754 986 1 109.50000 418.400000
867 11754 986 1 109.50000 418.400000
723 11755 868 1 109.50000 418.400000
723 11755 869 1 109.50000 418.400000
723 11755 870 1 109.50000 418.400000
868 11755 869 1 109.50000 418.400000
868 11755 870 1 109.50000 418.400000
869 11755 870 1 109.50000 418.400000
871 11756 872 1 109.50000 418.400000
871 11756 873 1 109.50000 418.400000
871 11756 874 1 109.50000 418.400000
872 11756 873 1 109.50000 418.400000
872 11756 874 1 109.50000 418.400000
873 11756 874 1 109.50000 418.400000
875 11757 876 1 109.50000 418.400000
875 11757 877 1 109.50000 418.400000
875 11757 878 1 109.50000 418.400000
876 11757 877 1 109.50000 418.400000
876 11757 878 1 109.50000 418.400000
877 11757 878 1 109.50000 418.400000
879 11758 880 1 109.50000 418.400000
879 11758 881 1 109.50000 418.400000
879 11758 882 1 109.50000 418.400000
880 11758 881 1 109.50000 418.400000
880 11758 882 1 109.50000 418.400000
881 11758 882 1 109.50000 418.400000
883 11759 884 1 109.50000 418.400000
883 11759 885 1 109.50000 418.400000
883 11759 886 1 109.50000 418.400000
884 11759 885 1 109.50000 418.400000
884 11759 886 1 109.50000 418.400000
885 11759 886 1 109.50000 418.400000
890 11760 891 1 109.50000 418.400000
890 11760 892 1 109.50000 418.400000
890 11760 893 1 109.50000 418.400000
891 11760 892 1 109.50000 418.400000
891 11760 893 1 109.50000 418.400000
892 11760 893 1 109.50000 418.400000
894 11761 1220 1 109.50000 418.400000
894 11761 4030 1 109.50000 418.400000
894 11761 9955 1 109.50000 418.400000
1220 11761 4030 1 109.50000 418.400000
1220 11761 9955 1 109.50000 418.400000
4030 11761 9955 1 109.50000 418.400000
898 11762 899 1 109.50000 418.400000
898 11762 900 1 109.50000 418.400000
898 11762 901 1 109.50000 418.400000
899 11762 900 1 109.50000 418.400000
899 11762 901 1 109.50000 418.400000
900 11762 901 1 109.50000 418.400000
904 11763 1030 1 109.50000 418.400000
904 11763 4463 1 109.50000 418.400000
904 11763 5476 1 109.50000 418.400000
1030 11763 4463 1 109.50000 418.400000
1030 11763 5476 1 109.50000 418.400000
4463 11763 5476 1 109.50000 418.400000
907 11764 908 1 109.50000 418.400000
907 11764 909 1 109.50000 418.400000
907 11764 5450 1 109.50000 418.400000
908 11764 909 1 109.50000 418.400000
908 11764 5450 1 109.50000 418.400000
909 11764 5450 1 109.50000 418.400000
910 11765 911 1 109.50000 418.400000
910 11765 912 1 109.50000 418.400000
910 11765 913 1 109.50000 418.400000
911 11765 912 1 109.50000 418.400000
911 11765 913 1 109.50000 418.400000
912 11765 913 1 109.50000 418.400000
914 11766 915 1 109.50000 418.400000
914 11766 916 1 109.50000 418.400000
914 11766 917 1 109.50000 418.400000
915 11766 916 1 109.50000 418.400000
915 11766 917 1 109.50000 418.400000
916 11766 917 1 109.50000 418.400000
488 11767 918 1 109.50000 418.400000
488 11767 919 1 109.50000 418.400000
488 11767 920 1 109.50000 418.400000
918 11767 919 1 109.50000 418.400000
918 11767 920 1 109.50000 418.400000
919 11767 920 1 109.50000 418.400000
921 11768 922 1 109.50000 418.400000
921 11768 923 1 109.50000 418.400000
921 11768 924 1 109.50000 418.400000
922 11768 923 1 109.50000 418.400000
922 11768 924 1 109.50000 418.400000
923 11768 924 1 109.50000 418.400000
925 11769 926 1 109.50000 418.400000
925 11769 927 1 109.50000 418.400000
925 11769 928 1 109.50000 418.400000
926 11769 927 1 109.50000 418.400000
926 11769 928 1 109.50000 418.400000
927 11769 928 1 109.50000 418.400000
929 11770 930 1 109.50000 418.400000
929 11770 931 1 109.50000 418.400000
929 11770 932 1 109.50000 418.400000
930 11770 931 1 109.50000 418.400000
930 11770 932 1 109.50000 418.400000
931 11770 932 1 109.50000 418.400000
933 11771 934 1 109.50000 418.400000
933 11771 935 1 109.50000 418.400000
933 11771 936 1 109.50000 418.400000
934 11771 935 1 109.50000 418.400000
934 11771 936 1 109.50000 418.400000
935 11771 936 1 109.50000 418.400000
937 11772 938 1 109.50000 418.400000
937 11772 939 1 109.50000 418.400000
937 11772 940 1 109.50000 418.400000
938 11772 939 1 109.50000 418.400000
938 11772 940 1 109.50000 418.400000
939 11772 940 1 109.50000 418.400000
941 11773 942 1 109.50000 418.400000
941 11773 943 1 109.50000 418.400000
941 11773 944 1 109.50000 418.400000
942 11773 943 1 109.50000 418.400000
942 11773 944 1 109.50000 418.400000
943 11773 944 1 109.50000 418.400000
945 11774 946 1 109.50000 418.400000
945 11774 947 1 109.50000 418.400000
945 11774 948 1 109.50000 418.400000
946 11774 947 1 109.50000 418.400000
946 11774 948 1 109.50000 418.400000
947 11774 948 1 109.50000 418.400000
950 11775 951 1 109.50000 418.400000
950 11775 952 1 109.50000 418.400000
950 11775 8456 1 109.50000 418.400000
951 11775 952 1 109.50000 418.400000
951 11775 8456 1 109.50000 418.400000
952 11775 8456 1 109.50000 418.400000
953 11776 954 1 109.50000 418.400000
953 11776 955 1 109.50000 418.400000
953 11776 956 1 109.50000 418.400000
954 11776 955 1 109.50000 418.400000
954 11776 956 1 109.50000 418.400000
955 11776 956 1 109.50000 418.400000
957 11777 958 1 109.50000 418.400000
957 11777 1203 1 109.50000 418.400000
957 11777 3770 1 109.50000 418.400000
958 11777 1203 1 109.50000 418.400000
958 11777 3770 1 109.50000 418.400000
1203 11777 3770 1 109.50000 418.400000
925 11778 961 1 109.50000 418.400000
925 11778 962 1 109.50000 418.400000
925 11778 963 1 109.50000 418.400000
961 11778 962 1 109.50000 418.400000
961 11778 963 1 109.50000 418.400000
962 11778 963 1 109.50000 418.400000
966 11779 967 1 109.50000 418.400000
966 11779 968 1 109.50000 418.400000
966 11779 969 1 109.50000 418.400000
967 11779 968 1 109.50000 418.400000
967 11779 969 1 109.50000 418.400000
968 11779 969 1 109.50000 418.400000
970 11780 971 1 109.50000 418.400000
970 11780 972 1 109.50000 418.400000
970 11780 973 1 109.50000 418.400000
971 11780 972 1 109.50000 418.400000
971 11780 973 1 109.50000 418.400000
972 11780 973 1 109.50000 418.400000
974 11781 975 1 109.50000 418.400000
974 11781 976 1 109.50000 418.400000
974 11781 977 1 109.50000 418.400000
975 11781 976 1 109.50000 418.400000
975 11781 977 1 109.50000 418.400000
976 11781 977 1 109.50000 418.400000
978 11782 979 1 109.50000 418.400000
978 11782 980 1 109.50000 418.400000
978 11782 11142 1 109.50000 418.400000
979 11782 980 1 109.50000 418.400000
979 11782 11142 1 109.50000 418.400000
980 11782 11142 1 109.50000 418.400000
981 11783 983 1 109.50000 418.400000
981 11783 984 1 109.50000 418.400000
981 11783 5879 1 109.50000 418.400000
983 11783 984 1 109.50000 418.400000
983 11783 5879 1 109.50000 418.400000
984 11783 5879 1 109.50000 418.400000
865 11784 866 1 109.50000 418.400000
865 11784 987 1 109.50000 418.400000
865 11784 988 1 109.50000 418.400000
866 11784 987 1 109.50000 418.400000
866 11784 988 1 109.50000 418.400000
987 11784 988 1 109.50000 418.400000
989 11785 990 1 109.50000 418.400000
989 11785 991 1 109.50000 418.400000
989 11785 992 1 109.50000 418.400000
990 11785 991 1 109.50000 418.400000
990 11785 992 1 109.50000 418.400000
991 11785 992 1 109.50000 418.400000
331 11786 993 1 109.50000 418.400000
331 11786 994 1 109.50000 418.400000
331 11786 995 1 109.50000 418.400000
993 11786 994 1 109.50000 418.400000
993 11786 995 1 109.50000 418.400000
994 11786 995 1 109.50000 418.400000
996 11787 997 1 109.50000 418.400000
996 11787 998 1 109.50000 418.400000
996 11787 999 1 109.50000 418.400000
997 11787 998 1 109.50000 418.400000
997 11787 999 1 109.50000 418.400000
998 11787 999 1 109.50000 418.400000
1000 11788 1001 1 109.50000 418.400000
1000 11788 1002 1 109.50000 418.400000
1000 11788 1003 1 109.50000 418.400000
1001 11788 1002 1 109.50000 418.400000
1001 11788 1003 1 109.50000 418.400000
1002 11788 1003 1 109.50000 418.400000
1004 11789 1005 1 109.50000 418.400000
1004 11789 1006 1 109.50000 418.400000
1004 11789 1007 1 109.50000 418.400000
1005 11789 1006 1 109.50000 418.400000
1005 11789 1007 1 109.50000 418.400000
1006 11789 1007 1 109.50000 418.400000
1008 11790 1009 1 109.50000 418.400000
1008 11790 1011 1 109.50000 418.400000
1008 11790 9846 1 109.50000 418.400000
1009 11790 1011 1 109.50000 418.400000
1009 11790 9846 1 109.50000 418.400000
1011 11790 9846 1 109.50000 418.400000
1012 11791 1013 1 109.50000 418.400000
1012 11791 1014 1 109.50000 418.400000
1012 11791 1015 1 109.50000 418.400000
1013 11791 1014 1 109.50000 418.400000
1013 11791 1015 1 109.50000 418.400000
1014 11791 1015 1 109.50000 418.400000
1016 11792 1017 1 109.50000 418.400000
1016 11792 1018 1 109.50000 418.400000
1016 11792 1019 1 109.50000 418.400000
1017 11792 1018 1 109.50000 418.400000
1017 11792 1019 1 109.50000 418.400000
1018 11792 1019 1 109.50000 418.400000
953 11793 1020 1 109.50000 418.400000
953 11793 1021 1 109.50000 418.400000
953 11793 1022 1 109.50000 418.400000
1020 11793 1021 1 109.50000 418.400000
1020 11793 1022 1 109.50000 418.400000
1021 11793 1022 1 109.50000 418.400000
1023 11794 1024 1 109.50000 418.400000
1023 11794 1025 1 109.50000 418.400000
1023 11794 1026 1 109.50000 418.400000
1024 11794 1025 1 109.50000 418.400000
1024 11794 1026 1 109.50000 418.400000
1025 11794 1026 1 109.50000 418.400000
1027 11795 1028 1 109.50000 418.400000
1027 11795 1029 1 109.50000 418.400000
1027 11795 11176 1 109.50000 418.400000
1028 11795 1029 1 109.50000 418.400000
1028 11795 11176 1 109.50000 418.400000
1029 11795 11176 1 109.50000 418.400000
1030 11796 1031 1 109.50000 418.400000
1030 11796 1032 1 109.50000 418.400000
1030 11796 1033 1 109.50000 418.400000
1031 11796 1032 1 109.50000 418.400000
1031 11796 1033 1 109.50000 418.400000
1032 11796 1033 1 109.50000 418.400000
1034 11797 1035 1 109.50000 418.400000
1034 11797 5178 1 109.50000 418.400000
1034 11797 11428 1 109.50000 418.400000
1035 11797 5178 1 109.50000 418.400000
1035 11797 11428 1 109.50000 418.400000
5178 11797 11428 1 109.50000 418.400000
1039 11798 1312 1 109.50000 418.400000
1039 11798 2942 1 109.50000 418.400000
1039 11798 10422 1 109.50000 418.400000
1312 11798 2942 1 109.50000 418.400000
1312 11798 10422 1 109.50000 418.400000
2942 11798 10422 1 109.50000 418.400000
869 11799 1040 1 109.50000 418.400000
869 11799 1041 1 109.50000 418.400000
869 11799 1042 1 109.50000 418.400000
1040 11799 1041 1 109.50000 418.400000
1040 11799 1042 1 109.50000 418.400000
1041 11799 1042 1 109.50000 418.400000
1045 11800 1046 1 109.50000 418.400000
1045 11800 1047 1 109.50000 418.400000
1045 11800 1048 1 109.50000 418.400000
1046 11800 1047 1 109.50000 418.400000
1046 11800 1048 1 109.50000 418.400000
1047 11800 1048 1 109.50000 418.400000
398 11801 1049 1 109.50000 418.400000
398 11801 1050 1 109.50000 418.400000
398 11801 1051 1 109.50000 418.400000
1049 11801 1050 1 109.50000 418.400000
1049 11801 1051 1 109.50000 418.400000
1050 11801 1051 1 109.50000 418.400000
1052 11802 1053 1 109.50000 418.400000
1052 11802 1054 1 109.50000 418.400000
1052 11802 1055 1 109.50000 418.400000
1053 11802 1054 1 109.50000 418.400000
1053 11802 1055 1 109.50000 418.400000
1054 11802 1055 1 109.50000 418.400000
1056 11803 1057 1 109.50000 418.400000
1056 11803 1058 1 109.50000 418.400000
1056 11803 1059 1 109.50000 418.400000
1057 11803 1058 1 109.50000 418.400000
1057 11803 1059 1 109.50000 418.400000
1058 11803 1059 1 109.50000 418.400000
856 11804 1060 1 109.50000 418.400000
856 11804 1061 1 109.50000 418.400000
856 11804 8585 1 109.50000 418.400000
1060 11804 1061 1 109.50000 418.400000
1060 11804 8585 1 109.50000 418.400000
1061 11804 8585 1 109.50000 418.400000
1064 11805 6547 1 109.50000 418.400000
1064 11805 6548 1 109.50000 418.400000
1064 11805 6549 1 109.50000 418.400000
6547 11805 6548 1 109.50000 418.400000
6547 11805 6549 1 109.50000 418.400000
6548 11805 6549 1 109.50000 418.400000
1066 11806 1067 1 109.50000 418.400000
1066 11806 1068 1 109.50000 418.400000
1066 11806 1069 1 109.50000 418.400000
1067 11806 1068 1 109.50000 418.400000
1067 11806 1069 1 109.50000 418.400000
1068 11806 1069 1 109.50000 418.400000
570 11807 1070 1 109.50000 418.400000
570 11807 1071 1 109.50000 418.400000
570 11807 1072 1 109.50000 418.400000
1070 11807 1071 1 109.50000 418.400000
1070 11807 1072 1 109.50000 418.400000
1071 11807 1072 1 109.50000 418.400000
1073 11808 1074 1 109.50000 418.400000
1073 11808 1075 1 109.50000 418.400000
1073 11808 1076 1 109.50000 418.400000
1074 11808 1075 1 109.50000 418.400000
1074 11808 1076 1 109.50000 418.400000
1075 11808 1076 1 109.50000 418.400000
1077 11809 1078 1 109.50000 418.400000
1077 11809 1079 1 109.50000 418.400000
1077 11809 1080 1 109.50000 418.400000
1078 11809 1079 1 109.50000 418.400000
1078 11809 1080 1 109.50000 418.400000
1079 11809 1080 1 109.50000 418.400000
1081 11810 1082 1 109.50000 418.400000
1081 11810 1083 1 109.50000 418.400000
1081 11810 1084 1 109.50000 418.400000
1082 11810 1083 1 109.50000 418.400000
1082 11810 1084 1 109.50000 418.400000
1083 11810 1084 1 109.50000 418.400000
1085 11811 1086 1 109.50000 418.400000
1085 11811 1087 1 109.50000 418.400000
1085 11811 1088 1 109.50000 418.400000
1086 11811 1087 1 109.50000 418.400000
1086 11811 1088 1 109.50000 418.400000
1087 11811 1088 1 109.50000 418.400000
1089 11812 1090 1 109.50000 418.400000
1089 11812 1091 1 109.50000 418.400000
1089 11812 1092 1 109.50000 418.400000
1090 11812 1091 1 109.50000 418.400000
1090 11812 1092 1 109.50000 418.400000
1091 11812 1092 1 109.50000 418.400000
609 11813 1093 1 109.50000 418.400000
609 11813 1094 1 109.50000 418.400000
609 11813 1095 1 109.50000 418.400000
1093 11813 1094 1 109.50000 418.400000
1093 11813 1095 1 109.50000 418.400000
1094 11813 1095 1 109.50000 418.400000
1096 11814 1097 1 109.50000 418.400000
1096 11814 1098 1 109.50000 418.400000
1096 11814 1099 1 109.50000 418.400000
1097 11814 1098 1 109.50000 418.400000
1097 11814 1099 1 109.50000 418.400000
1098 11814 1099 1 109.50000 418.400000
1100 11815 1101 1 109.50000 418.400000
1100 11815 1102 1 109.50000 418.400000
1100 11815 1103 1 109.50000 418.400000
1101 11815 1102 1 109.50000 418.400000
1101 11815 1103 1 109.50000 418.400000
1102 11815 1103 1 109.50000 418.400000
101 11816 1104 1 109.50000 418.400000
101 11816 1105 1 109.50000 418.400000
101 11816 1106 1 109.50000 418.400000
1104 11816 1105 1 109.50000 418.400000
1104 11816 1106 1 109.50000 418.400000
1105 11816 1106 1 109.50000 418.400000
1107 11817 1647 1 109.50000 418.400000
1107 11817 1649 1 109.50000 418.400000
1107 11817 3057 1 109.50000 418.400000
1647 11817 1649 1 109.50000 418.400000
1647 11817 3057 1 109.50000 418.400000
1649 11817 3057 1 109.50000 418.400000
1113 11818 1115 1 109.50000 418.400000
1113 11818 1116 1 109.50000 418.400000
1113 11818 4528 1 109.50000 418.400000
1115 11818 1116 1 109.50000 418.400000
1115 11818 4528 1 109.50000 418.400000
1116 11818 4528 1 109.50000 418.400000
1117 11819 1118 1 109.50000 418.400000
1117 11819 1119 1 109.50000 418.400000
1117 11819 1120 1 109.50000 418.400000
1118 11819 1119 1 109.50000 418.400000
1118 11819 1120 1 109.50000 418.400000
1119 11819 1120 1 109.50000 418.400000
1121 11820 1122 1 109.50000 418.400000
1121 11820 1123 1 109.50000 418.400000
1121 11820 1124 1 109.50000 418.400000
1122 11820 1123 1 109.50000 418.400000
1122 11820 1124 1 109.50000 418.400000
1123 11820 1124 1 109.50000 418.400000
1008 11821 1125 1 109.50000 418.400000
1008 11821 1126 1 109.50000 418.400000
1008 11821 1127 1 109.50000 418.400000
1125 11821 1126 1 109.50000 418.400000
1125 11821 1127 1 109.50000 418.400000
1126 11821 1127 1 109.50000 418.400000
758 11822 992 1 109.50000 418.400000
758 11822 1128 1 109.50000 418.400000
758 11822 1129 1 109.50000 418.400000
992 11822 1128 1 109.50000 418.400000
992 11822 1129 1 109.50000 418.400000
1128 11822 1129 1 109.50000 418.400000
553 11823 555 1 109.50000 418.400000
553 11823 1130 1 109.50000 418.400000
553 11823 1132 1 109.50000 418.400000
555 11823 1130 1 109.50000 418.400000
555 11823 1132 1 109.50000 418.400000
1130 11823 1132 1 109.50000 418.400000
1133 11824 1134 1 109.50000 418.400000
1133 11824 1135 1 109.50000 418.400000
1133 11824 1136 1 109.50000 418.400000
1134 11824 1135 1 109.50000 418.400000
1134 11824 1136 1 109.50000 418.400000
1135 11824 1136 1 109.50000 418.400000
1138 11825 1139 1 109.50000 418.400000
1138 11825 1140 1 109.50000 418.400000
1138 11825 1141 1 109.50000 418.400000
1139 11825 1140 1 109.50000 418.400000
1139 11825 1141 1 109.50000 418.400000
1140 11825 1141 1 109.50000 418.400000
1142 11826 1143 1 109.50000 418.400000
1142 11826 1144 1 109.50000 418.400000
1142 11826 1145 1 109.50000 418.400000
1143 11826 1144 1 109.50000 418.400000
1143 11826 1145 1 109.50000 418.400000
1144 11826 1145 1 109.50000 418.400000
1146 11827 1147 1 109.50000 418.400000
1146 11827 1148 1 109.50000 418.400000
1146 11827 1149 1 109.50000 418.400000
1147 11827 1148 1 109.50000 418.400000
1147 11827 1149 1 109.50000 418.400000
1148 11827 1149 1 109.50000 418.400000
151 11828 1150 1 109.50000 418.400000
151 11828 1152 1 109.50000 418.400000
151 11828 7371 1 109.50000 418.400000
1150 11828 1152 1 109.50000 418.400000
1150 11828 7371 1 109.50000 418.400000
1152 11828 7371 1 109.50000 418.400000
1153 11829 1154 1 109.50000 418.400000
1153 11829 1155 1 109.50000 418.400000
1153 11829 1156 1 109.50000 418.400000
1154 11829 1155 1 109.50000 418.400000
1154 11829 1156 1 109.50000 418.400000
1155 11829 1156 1 109.50000 418.400000
941 11830 1157 1 109.50000 418.400000
941 11830 1158 1 109.50000 418.400000
941 11830 1159 1 109.50000 418.400000
1157 11830 1158 1 109.50000 418.400000
1157 11830 1159 1 109.50000 418.400000
1158 11830 1159 1 109.50000 418.400000
1161 11831 1162 1 109.50000 418.400000
1161 11831 6020 1 109.50000 418.400000
1161 11831 6021 1 109.50000 418.400000
1162 11831 6020 1 109.50000 418.400000
1162 11831 6021 1 109.50000 418.400000
6020 11831 6021 1 109.50000 418.400000
1164 11832 1165 1 109.50000 418.400000
1164 11832 1166 1 109.50000 418.400000
1164 11832 1167 1 109.50000 418.400000
1165 11832 1166 1 109.50000 418.400000
1165 11832 1167 1 109.50000 418.400000
1166 11832 1167 1 109.50000 418.400000
1168 11833 1169 1 109.50000 418.400000
1168 11833 1170 1 109.50000 418.400000
1168 11833 1171 1 109.50000 418.400000
1169 11833 1170 1 109.50000 418.400000
1169 11833 1171 1 109.50000 418.400000
1170 11833 1171 1 109.50000 418.400000
1172 11834 1173 1 109.50000 418.400000
1172 11834 1174 1 109.50000 418.400000
1172 11834 1175 1 109.50000 418.400000
1173 11834 1174 1 109.50000 418.400000
1173 11834 1175 1 109.50000 418.400000
1174 11834 1175 1 109.50000 418.400000
531 11835 1176 1 109.50000 418.400000
531 11835 1177 1 109.50000 418.400000
531 11835 1178 1 109.50000 418.400000
1176 11835 1177 1 109.50000 418.400000
1176 11835 1178 1 109.50000 418.400000
1177 11835 1178 1 109.50000 418.400000
1181 11836 1182 1 109.50000 418.400000
1181 11836 1183 1 109.50000 418.400000
1181 11836 1184 1 109.50000 418.400000
1182 11836 1183 1 109.50000 418.400000
1182 11836 1184 1 109.50000 418.400000
1183 11836 1184 1 109.50000 418.400000
1185 11837 1186 1 109.50000 418.400000
1185 11837 1187 1 109.50000 418.400000
1185 11837 1188 1 109.50000 418.400000
1186 11837 1187 1 109.50000 418.400000
1186 11837 1188 1 109.50000 418.400000
1187 11837 1188 1 109.50000 418.400000
1189 11838 1190 1 109.50000 418.400000
1189 11838 1191 1 109.50000 418.400000
1189 11838 5161 1 109.50000 418.400000
1190 11838 1191 1 109.50000 418.400000
1190 11838 5161 1 109.50000 418.400000
1191 11838 5161 1 109.50000 418.400000
1193 11839 1194 1 109.50000 418.400000
1193 11839 1195 1 109.50000 418.400000
1193 11839 1196 1 109.50000 418.400000
1194 11839 1195 1 109.50000 418.400000
1194 11839 1196 1 109.50000 418.400000
1195 11839 1196 1 109.50000 418.400000
1143 11840 1197 1 109.50000 418.400000
1143 11840 1198 1 109.50000 418.400000
1143 11840 10092 1 109.50000 418.400000
1197 11840 1198 1 109.50000 418.400000
1197 11840 10092 1 109.50000 418.400000
1198 11840 10092 1 109.50000 418.400000
1200 11841 1201 1 109.50000 418.400000
1200 11841 1202 1 109.50000 418.400000
1200 11841 7373 1 109.50000 418.400000
1201 11841 1202 1 109.50000 418.400000
1201 11841 7373 1 109.50000 418.400000
1202 11841 7373 1 109.50000 418.400000
957 11842 959 1 109.50000 418.400000
957 11842 1204 1 109.50000 418.400000
957 11842 1205 1 109.50000 418.400000
959 11842 1204 1 109.50000 418.400000
959 11842 1205 1 109.50000 418.400000
1204 11842 1205 1 109.50000 418.400000
316 11843 1208 1 109.50000 418.400000
316 11843 1209 1 109.50000 418.400000
316 11843 1210 1 109.50000 418.400000
1208 11843 1209 1 109.50000 418.400000
1208 11843 1210 1 109.50000 418.400000
1209 11843 1210 1 109.50000 418.400000
1211 11844 1212 1 109.50000 418.400000
1211 11844 1213 1 109.50000 418.400000
1211 11844 1214 1 109.50000 418.400000
1212 11844 1213 1 109.50000 418.400000
1212 11844 1214 1 109.50000 418.400000
1213 11844 1214 1 109.50000 418.400000
1215 11845 1216 1 109.50000 418.400000
1215 11845 1217 1 109.50000 418.400000
1215 11845 1218 1 109.50000 418.400000
1216 11845 1217 1 109.50000 418.400000
1216 11845 1218 1 109.50000 418.400000
1217 11845 1218 1 109.50000 418.400000
894 11846 896 1 109.50000 418.400000
894 11846 1219 1 109.50000 418.400000
894 11846 1221 1 109.50000 418.400000
896 11846 1219 1 109.50000 418.400000
896 11846 1221 1 109.50000 418.400000
1219 11846 1221 1 109.50000 418.400000
1225 11847 1226 1 109.50000 418.400000
1225 11847 1227 1 109.50000 418.400000
1225 11847 1228 1 109.50000 418.400000
1226 11847 1227 1 109.50000 418.400000
1226 11847 1228 1 109.50000 418.400000
1227 11847 1228 1 109.50000 418.400000
1229 11848 1230 1 109.50000 418.400000
1229 11848 1231 1 109.50000 418.400000
1229 11848 1232 1 109.50000 418.400000
1230 11848 1231 1 109.50000 418.400000
1230 11848 1232 1 109.50000 418.400000
1231 11848 1232 1 109.50000 418.400000
1233 11849 1234 1 109.50000 418.400000
1233 11849 1235 1 109.50000 418.400000
1233 11849 1236 1 109.50000 418.400000
1234 11849 1235 1 109.50000 418.400000
1234 11849 1236 1 109.50000 418.400000
1235 11849 1236 1 109.50000 418.400000
1237 11850 1238 1 109.50000 418.400000
1237 11850 1239 1 109.50000 418.400000
1237 11850 11400 1 109.50000 418.400000
1238 11850 1239 1 109.50000 418.400000
1238 11850 11400 1 109.50000 418.400000
1239 11850 11400 1 109.50000 418.400000
687 11851 1240 1 109.50000 418.400000
687 11851 1241 1 109.50000 418.400000
687 11851 1242 1 109.50000 418.400000
1240 11851 1241 1 109.50000 418.400000
1240 11851 1242 1 109.50000 418.400000
1241 11851 1242 1 109.50000 418.400000
390 11852 1243 1 109.50000 418.400000
390 11852 1244 1 109.50000 418.400000
390 11852 1245 1 109.50000 418.400000
1243 11852 1244 1 109.50000 418.400000
1243 11852 1245 1 109.50000 418.400000
1244 11852 1245 1 109.50000 418.400000
1246 11853 1247 1 109.50000 418.400000
1246 11853 1248 1 109.50000 418.400000
1246 11853 1249 1 109.50000 418.400000
1247 11853 1248 1 109.50000 418.400000
1247 11853 1249 1 109.50000 418.400000
1248 11853 1249 1 109.50000 418.400000
1250 11854 1251 1 109.50000 418.400000
1250 11854 1252 1 109.50000 418.400000
1250 11854 1253 1 109.50000 418.400000
1251 11854 1252 1 109.50000 418.400000
1251 11854 1253 1 109.50000 418.400000
1252 11854 1253 1 109.50000 418.400000
1254 11855 1255 1 109.50000 418.400000
1254 11855 1256 1 109.50000 418.400000
1254 11855 1257 1 109.50000 418.400000
1255 11855 1256 1 109.50000 418.400000
1255 11855 1257 1 109.50000 418.400000
1256 11855 1257 1 109.50000 418.400000
1259 11856 1260 1 109.50000 418.400000
1259 11856 1261 1 109.50000 418.400000
1259 11856 1262 1 109.50000 418.400000
1260 11856 1261 1 109.50000 418.400000
1260 11856 1262 1 109.50000 418.400000
1261 11856 1262 1 109.50000 418.400000
160 11857 1263 1 109.50000 418.400000
160 11857 1264 1 109.50000 418.400000
160 11857 1265 1 109.50000 418.400000
1263 11857 1264 1 109.50000 418.400000
1263 11857 1265 1 109.50000 418.400000
1264 11857 1265 1 109.50000 418.400000
1266 11858 1267 1 109.50000 418.400000
1266 11858 1268 1 109.50000 418.400000
1266 11858 1269 1 109.50000 418.400000
1267 11858 1268 1 109.50000 418.400000
1267 11858 1269 1 109.50000 418.400000
1268 11858 1269 1 109.50000 418.400000
1270 11859 1271 1 109.50000 418.400000
1270 11859 1272 1 109.50000 418.400000
1270 11859 1273 1 109.50000 418.400000
1271 11859 1272 1 109.50000 418.400000
1271 11859 1273 1 109.50000 418.400000
1272 11859 1273 1 109.50000 418.400000
1274 11860 1275 1 109.50000 418.400000
1274 11860 1276 1 109.50000 418.400000
1274 11860 1277 1 109.50000 418.400000
1275 11860 1276 1 109.50000 418.400000
1275 11860 1277 1 109.50000 418.400000
1276 11860 1277 1 109.50000 418.400000
1278 11861 1279 1 109.50000 418.400000
1278 11861 1280 1 109.50000 418.400000
1278 11861 1281 1 109.50000 418.400000
1279 11861 1280 1 109.50000 418.400000
1279 11861 1281 1 109.50000 418.400000
1280 11861 1281 1 109.50000 418.400000
1282 11862 1283 1 109.50000 418.400000
1282 11862 1285 1 109.50000 418.400000
1282 11862 8383 1 109.50000 418.400000
1283 11862 1285 1 109.50000 418.400000
1283 11862 8383 1 109.50000 418.400000
1285 11862 8383 1 109.50000 418.400000
1286 11863 1288 1 109.50000 418.400000
1286 11863 9978 1 109.50000 418.400000
1286 11863 11521 1 109.50000 418.400000
1288 11863 9978 1 109.50000 418.400000
1288 11863 11521 1 109.50000 418.400000
9978 11863 11521 1 109.50000 418.400000
949 11864 1289 1 109.50000 418.400000
949 11864 1290 1 109.50000 418.400000
949 11864 1291 1 109.50000 418.400000
1289 11864 1290 1 109.50000 418.400000
1289 11864 1291 1 109.50000 418.400000
1290 11864 1291 1 109.50000 418.400000
1292 11865 1293 1 109.50000 418.400000
1292 11865 1294 1 109.50000 418.400000
1292 11865 1295 1 109.50000 418.400000
1293 11865 1294 1 109.50000 418.400000
1293 11865 1295 1 109.50000 418.400000
1294 11865 1295 1 109.50000 418.400000
668 11866 1296 1 109.50000 418.400000
668 11866 1297 1 109.50000 418.400000
668 11866 1298 1 109.50000 418.400000
1296 11866 1297 1 109.50000 418.400000
1296 11866 1298 1 109.50000 418.400000
1297 11866 1298 1 109.50000 418.400000
1299 11867 1300 1 109.50000 418.400000
1299 11867 1301 1 109.50000 418.400000
1299 11867 1302 1 109.50000 418.400000
1300 11867 1301 1 109.50000 418.400000
1300 11867 1302 1 109.50000 418.400000
1301 11867 1302 1 109.50000 418.400000
1303 11868 1305 1 109.50000 418.400000
1303 11868 1306 1 109.50000 418.400000
1303 11868 8986 1 109.50000 418.400000
1305 11868 1306 1 109.50000 418.400000
1305 11868 8986 1 109.50000 418.400000
1306 11868 8986 1 109.50000 418.400000
1047 11869 1307 1 109.50000 418.400000
1047 11869 1308 1 109.50000 418.400000
1047 11869 1309 1 109.50000 418.400000
1307 11869 1308 1 109.50000 418.400000
1307 11869 1309 1 109.50000 418.400000
1308 11869 1309 1 109.50000 418.400000
1225 11870 1310 1 109.50000 418.400000
1225 11870 1311 1 109.50000 418.400000
1225 11870 1312 1 109.50000 418.400000
1310 11870 1311 1 109.50000 418.400000
1310 11870 1312 1 109.50000 418.400000
1311 11870 1312 1 109.50000 418.400000
1313 11871 1314 1 109.50000 418.400000
1313 11871 1315 1 109.50000 418.400000
1313 11871 1316 1 109.50000 418.400000
1314 11871 1315 1 109.50000 418.400000
1314 11871 1316 1 109.50000 418.400000
1315 11871 1316 1 109.50000 418.400000
1317 11872 1318 1 109.50000 418.400000
1317 11872 1319 1 109.50000 418.400000
1317 11872 1320 1 109.50000 418.400000
1318 11872 1319 1 109.50000 418.400000
1318 11872 1320 1 109.50000 418.400000
1319 11872 1320 1 109.50000 418.400000
1321 11873 1322 1 109.50000 418.400000
1321 11873 1323 1 109.50000 418.400000
1321 11873 1324 1 109.50000 418.400000
1322 11873 1323 1 109.50000 418.400000
1322 11873 1324 1 109.50000 418.400000
1323 11873 1324 1 109.50000 418.400000
1325 11874 1326 1 109.50000 418.400000
1325 11874 1327 1 109.50000 418.400000
1325 11874 1328 1 109.50000 418.400000
1326 11874 1327 1 109.50000 418.400000
1326 11874 1328 1 109.50000 418.400000
1327 11874 1328 1 109.50000 418.400000
1329 11875 1331 1 109.50000 418.400000
1329 11875 2429 1 109.50000 418.400000
1329 11875 11454 1 109.50000 418.400000
1331 11875 2429 1 109.50000 418.400000
1331 11875 11454 1 109.50000 418.400000
2429 11875 11454 1 109.50000 418.400000
1332 11876 1333 1 109.50000 418.400000
1332 11876 1334 1 109.50000 418.400000
1332 11876 1335 1 109.50000 418.400000
1333 11876 1334 1 109.50000 418.400000
1333 11876 1335 1 109.50000 418.400000
1334 11876 1335 1 109.50000 418.400000
1336 11877 1337 1 109.50000 418.400000
1336 11877 1338 1 109.50000 418.400000
1336 11877 1339 1 109.50000 418.400000
1337 11877 1338 1 109.50000 418.400000
1337 11877 1339 1 109.50000 418.400000
1338 11877 1339 1 109.50000 418.400000
311 11878 1340 1 109.50000 418.400000
311 11878 1341 1 109.50000 418.400000
311 11878 1342 1 109.50000 418.400000
1340 11878 1341 1 109.50000 418.400000
1340 11878 1342 1 109.50000 418.400000
1341 11878 1342 1 109.50000 418.400000
1345 11879 1346 1 109.50000 418.400000
1345 11879 1347 1 109.50000 418.400000
1345 11879 1348 1 109.50000 418.400000
1346 11879 1347 1 109.50000 418.400000
1346 11879 1348 1 109.50000 418.400000
1347 11879 1348 1 109.50000 418.400000
1351 11880 5197 1 109.50000 418.400000
1351 11880 7319 1 109.50000 418.400000
1351 11880 7320 1 109.50000 418.400000
5197 11880 7319 1 109.50000 418.400000
5197 11880 7320 1 109.50000 418.400000
7319 11880 7320 1 109.50000 418.400000
1353 11881 1355 1 109.50000 418.400000
1353 11881 1356 1 109.50000 418.400000
1353 11881 9709 1 109.50000 418.400000
1355 11881 1356 1 109.50000 418.400000
1355 11881 9709 1 109.50000 418.400000
1356 11881 9709 1 109.50000 418.400000
1358 11882 1360 1 109.50000 418.400000
1358 11882 3234 1 109.50000 418.400000
1358 11882 3235 1 109.50000 418.400000
1360 11882 3234 1 109.50000 418.400000
1360 11882 3235 1 109.50000 418.400000
3234 11882 3235 1 109.50000 418.400000
1361 11883 1362 1 109.50000 418.400000
1361 11883 1363 1 109.50000 418.400000
1361 11883 1364 1 109.50000 418.400000
1362 11883 1363 1 109.50000 418.400000
1362 11883 1364 1 109.50000 418.400000
1363 11883 1364 1 109.50000 418.400000
1365 11884 1366 1 109.50000 418.400000
1365 11884 1367 1 109.50000 418.400000
1365 11884 1368 1 109.50000 418.400000
1366 11884 1367 1 109.50000 418.400000
1366 11884 1368 1 109.50000 418.400000
1367 11884 1368 1 109.50000 418.400000
1369 11885 1370 1 109.50000 418.400000
1369 11885 1371 1 109.50000 418.400000
1369 11885 1372 1 109.50000 418.400000
1370 11885 1371 1 109.50000 418.400000
1370 11885 1372 1 109.50000 418.400000
1371 11885 1372 1 109.50000 418.400000
4 11886 1373 1 109.50000 418.400000
4 11886 1374 1 109.50000 418.400000
4 11886 1375 1 109.50000 418.400000
1373 11886 1374 1 109.50000 418.400000
1373 11886 1375 1 109.50000 418.400000
1374 11886 1375 1 109.50000 418.400000
1376 11887 1377 1 109.50000 418.400000
1376 11887 1378 1 109.50000 418.400000
1376 11887 1379 1 109.50000 418.400000
1377 11887 1378 1 109.50000 418.400000
1377 11887 1379 1 109.50000 418.400000
1378 11887 1379 1 109.50000 418.400000
1380 11888 1381 1 109.50000 418.400000
1380 11888 1382 1 109.50000 418.400000
1380 11888 11437 1 109.50000 418.400000
1381 11888 1382 1 109.50000 418.400000
1381 11888 11437 1 109.50000 418.400000
1382 11888 11437 1 109.50000 418.400000
1383 11889 1384 1 109.50000 418.400000
1383 11889 1385 1 109.50000 418.400000
1383 11889 1386 1 109.50000 418.400000
1384 11889 1385 1 109.50000 418.400000
1384 11889 1386 1 109.50000 418.400000
1385 11889 1386 1 109.50000 418.400000
1390 11890 1391 1 109.50000 418.400000
1390 11890 1392 1 109.50000 418.400000
1390 11890 1393 1 109.50000 418.400000
1391 11890 1392 1 109.50000 418.400000
1391 11890 1393 1 109.50000 418.400000
1392 11890 1393 1 109.50000 418.400000
1394 11891 1395 1 109.50000 418.400000
1394 11891 1396 1 109.50000 418.400000
1394 11891 1397 1 109.50000 418.400000
1395 11891 1396 1 109.50000 418.400000
1395 11891 1397 1 109.50000 418.400000
1396 11891 1397 1 109.50000 418.400000
1398 11892 1399 1 109.50000 418.400000
1398 11892 1400 1 109.50000 418.400000
1398 11892 1401 1 109.50000 418.400000
1399 11892 1400 1 109.50000 418.400000
1399 11892 1401 1 109.50000 418.400000
1400 11892 1401 1 109.50000 418.400000
1402 11893 1404 1 109.50000 418.400000
1402 11893 1405 1 109.50000 418.400000
1402 11893 3796 1 109.50000 418.400000
1404 11893 1405 1 109.50000 418.400000
1404 11893 3796 1 109.50000 418.400000
1405 11893 3796 1 109.50000 418.400000
1406 11894 1407 1 109.50000 418.400000
1406 11894 1408 1 109.50000 418.400000
1406 11894 11362 1 109.50000 418.400000
1407 11894 1408 1 109.50000 418.400000
1407 11894 11362 1 109.50000 418.400000
1408 11894 11362 1 109.50000 418.400000
1410 11895 1411 1 109.50000 418.400000
1410 11895 1412 1 109.50000 418.400000
1410 11895 5204 1 109.50000 418.400000
1411 11895 1412 1 109.50000 418.400000
1411 11895 5204 1 109.50000 418.400000
1412 11895 5204 1 109.50000 418.400000
1218 11896 1415 1 109.50000 418.400000
1218 11896 1416 1 109.50000 418.400000
1218 11896 1417 1 109.50000 418.400000
1415 11896 1416 1 109.50000 418.400000
1415 11896 1417 1 109.50000 418.400000
1416 11896 1417 1 109.50000 418.400000
1418 11897 1419 1 109.50000 418.400000
1418 11897 1420 1 109.50000 418.400000
1418 11897 1421 1 109.50000 418.400000
1419 11897 1420 1 109.50000 418.400000
1419 11897 1421 1 109.50000 418.400000
1420 11897 1421 1 109.50000 418.400000
1422 11898 1423 1 109.50000 418.400000
1422 11898 1424 1 109.50000 418.400000
1422 11898 1425 1 109.50000 418.400000
1423 11898 1424 1 109.50000 418.400000
1423 11898 1425 1 109.50000 418.400000
1424 11898 1425 1 109.50000 418.400000
1426 11899 1427 1 109.50000 418.400000
1426 11899 1428 1 109.50000 418.400000
1426 11899 1429 1 109.50000 418.400000
1427 11899 1428 1 109.50000 418.400000
1427 11899 1429 1 109.50000 418.400000
1428 11899 1429 1 109.50000 418.400000
984 11900 1430 1 109.50000 418.400000
984 11900 1431 1 109.50000 418.400000
984 11900 1432 1 109.50000 418.400000
1430 11900 1431 1 109.50000 418.400000
1430 11900 1432 1 109.50000 418.400000
1431 11900 1432 1 109.50000 418.400000
339 11901 1433 1 109.50000 418.400000
339 11901 1434 1 109.50000 418.400000
339 11901 1435 1 109.50000 418.400000
1433 11901 1434 1 109.50000 418.400000
1433 11901 1435 1 109.50000 418.400000
1434 11901 1435 1 109.50000 418.400000
1436 11902 1437 1 109.50000 418.400000
1436 11902 1438 1 109.50000 418.400000
1436 11902 1439 1 109.50000 418.400000
1437 11902 1438 1 109.50000 418.400000
1437 11902 1439 1 109.50000 418.400000
1438 11902 1439 1 109.50000 418.400000
1440 11903 1441 1 109.50000 418.400000
1440 11903 1442 1 109.50000 418.400000
1440 11903 8166 1 109.50000 418.400000
1441 11903 1442 1 109.50000 418.400000
1441 11903 8166 1 109.50000 418.400000
1442 11903 8166 1 109.50000 418.400000
1445 11904 1446 1 109.50000 418.400000
1445 11904 1447 1 109.50000 418.400000
1445 11904 1448 1 109.50000 418.400000
1446 11904 1447 1 109.50000 418.400000
1446 11904 1448 1 109.50000 418.400000
1447 11904 1448 1 109.50000 418.400000
1449 11905 1450 1 109.50000 418.400000
1449 11905 11263 1 109.50000 418.400000
1449 11905 11530 1 109.50000 418.400000
1450 11905 11263 1 109.50000 418.400000
1450 11905 11530 1 109.50000 418.400000
11263 11905 11530 1 109.50000 418.400000
129 11906 1451 1 109.50000 418.400000
129 11906 1452 1 109.50000 418.400000
129 11906 1453 1 109.50000 418.400000
1451 11906 1452 1 109.50000 418.400000
1451 11906 1453 1 109.50000 418.400000
1452 11906 1453 1 109.50000 418.400000
1454 11907 1455 1 109.50000 418.400000
1454 11907 1456 1 109.50000 418.400000
1454 11907 11159 1 109.50000 418.400000
1455 11907 1456 1 109.50000 418.400000
1455 11907 11159 1 109.50000 418.400000
1456 11907 11159 1 109.50000 418.400000
1256 11908 1457 1 109.50000 418.400000
1256 11908 1458 1 109.50000 418.400000
1256 11908 1459 1 109.50000 418.400000
1457 11908 1458 1 109.50000 418.400000
1457 11908 1459 1 109.50000 418.400000
1458 11908 1459 1 109.50000 418.400000
1461 11909 1462 1 109.50000 418.400000
1461 11909 8161 1 109.50000 418.400000
1461 11909 8162 1 109.50000 418.400000
1462 11909 8161 1 109.50000 418.400000
1462 11909 8162 1 109.50000 418.400000
8161 11909 8162 1 109.50000 418.400000
1464 11910 1465 1 109.50000 418.400000
1464 11910 1466 1 109.50000 418.400000
1464 11910 1467 1 109.50000 418.400000
1465 11910 1466 1 109.50000 418.400000
1465 11910 1467 1 109.50000 418.400000
1466 11910 1467 1 109.50000 418.400000
1472 11911 1473 1 109.50000 418.400000
1472 11911 1474 1 109.50000 418.400000
1472 11911 1475 1 109.50000 418.400000
1473 11911 1474 1 109.50000 418.400000
1473 11911 1475 1 109.50000 418.400000
1474 11911 1475 1 109.50000 418.400000
1478 11912 1479 1 109.50000 418.400000
1478 11912 1480 1 109.50000 418.400000
1478 11912 1481 1 109.50000 418.400000
1479 11912 1480 1 109.50000 418.400000
1479 11912 1481 1 109.50000 418.400000
1480 11912 1481 1 109.50000 418.400000
1482 11913 1483 1 109.50000 418.400000
1482 11913 1484 1 109.50000 418.400000
1482 11913 1485 1 109.50000 418.400000
1483 11913 1484 1 109.50000 418.400000
1483 11913 1485 1 109.50000 418.400000
1484 11913 1485 1 109.50000 418.400000
1486 11914 1487 1 109.50000 418.400000
1486 11914 1488 1 109.50000 418.400000
1486 11914 1489 1 109.50000 418.400000
1487 11914 1488 1 109.50000 418.400000
1487 11914 1489 1 109.50000 418.400000
1488 11914 1489 1 109.50000 418.400000
1490 11915 1491 1 109.50000 418.400000
1490 11915 1492 1 109.50000 418.400000
1490 11915 1493 1 109.50000 418.400000
1491 11915 1492 1 109.50000 418.400000
1491 11915 1493 1 109.50000 418.400000
1492 11915 1493 1 109.50000 418.400000
1494 11916 1495 1 109.50000 418.400000
1494 11916 1496 1 109.50000 418.400000
1494 11916 1497 1 109.50000 418.400000
1495 11916 1496 1 109.50000 418.400000
1495 11916 1497 1 109.50000 418.400000
1496 11916 1497 1 109.50000 418.400000
1498 11917 1500 1 109.50000 418.400000
1498 11917 1501 1 109.50000 418.400000
1498 11917 3617 1 109.50000 418.400000
1500 11917 1501 1 109.50000 418.400000
1500 11917 3617 1 109.50000 418.400000
1501 11917 3617 1 109.50000 418.400000
1502 11918 1503 1 109.50000 418.400000
1502 11918 1504 1 109.50000 418.400000
1502 11918 1505 1 109.50000 418.400000
1503 11918 1504 1 109.50000 418.400000
1503 11918 1505 1 109.50000 418.400000
1504 11918 1505 1 109.50000 418.400000
1506 11919 1507 1 109.50000 418.400000
1506 11919 1508 1 109.50000 418.400000
1506 11919 1509 1 109.50000 418.400000
1507 11919 1508 1 109.50000 418.400000
1507 11919 1509 1 109.50000 418.400000
1508 11919 1509 1 109.50000 418.400000
1510 11920 1511 1 109.50000 418.400000
1510 11920 1512 1 109.50000 418.400000
1510 11920 1513 1 109.50000 418.400000
1511 11920 1512 1 109.50000 418.400000
1511 11920 1513 1 109.50000 418.400000
1512 11920 1513 1 109.50000 418.400000
1514 11921 1515 1 109.50000 418.400000
1514 11921 1516 1 109.50000 418.400000
1514 11921 1517 1 109.50000 418.400000
1515 11921 1516 1 109.50000 418.400000
1515 11921 1517 1 109.50000 418.400000
1516 11921 1517 1 109.50000 418.400000
1518 11922 1519 1 109.50000 418.400000
1518 11922 1520 1 109.50000 418.400000
1518 11922 1521 1 109.50000 418.400000
1519 11922 1520 1 109.50000 418.400000
1519 11922 1521 1 109.50000 418.400000
1520 11922 1521 1 109.50000 418.400000
1522 11923 1523 1 109.50000 418.400000
1522 11923 1524 1 109.50000 418.400000
1522 11923 1525 1 109.50000 418.400000
1523 11923 1524 1 109.50000 418.400000
1523 11923 1525 1 109.50000 418.400000
1524 11923 1525 1 109.50000 418.400000
1526 11924 1527 1 109.50000 418.400000
1526 11924 1528 1 109.50000 418.400000
1526 11924 1529 1 109.50000 418.400000
1527 11924 1528 1 109.50000 418.400000
1527 11924 1529 1 109.50000 418.400000
1528 11924 1529 1 109.50000 418.400000
1530 11925 1531 1 109.50000 418.400000
1530 11925 1532 1 109.50000 418.400000
1530 11925 1533 1 109.50000 418.400000
1531 11925 1532 1 109.50000 418.400000
1531 11925 1533 1 109.50000 418.400000
1532 11925 1533 1 109.50000 418.400000
1534 11926 1535 1 109.50000 418.400000
1534 11926 1536 1 109.50000 418.400000
1534 11926 1537 1 109.50000 418.400000
1535 11926 1536 1 109.50000 418.400000
1535 11926 1537 1 109.50000 418.400000
1536 11926 1537 1 109.50000 418.400000
1308 11927 1538 1 109.50000 418.400000
1308 11927 1539 1 109.50000 418.400000
1308 11927 1540 1 109.50000 418.400000
1538 11927 1539 1 109.50000 418.400000
1538 11927 1540 1 109.50000 418.400000
1539 11927 1540 1 109.50000 418.400000
1541 11928 1542 1 109.50000 418.400000
1541 11928 11200 1 109.50000 418.400000
1541 11928 11215 1 109.50000 418.400000
1542 11928 11200 1 109.50000 418.400000
1542 11928 11215 1 109.50000 418.400000
11200 11928 11215 1 109.50000 418.400000
1543 11929 1544 1 109.50000 418.400000
1543 11929 1545 1 109.50000 418.400000
1543 11929 1546 1 109.50000 418.400000
1544 11929 1545 1 109.50000 418.400000
1544 11929 1546 1 109.50000 418.400000
1545 11929 1546 1 109.50000 418.400000
1547 11930 1548 1 109.50000 418.400000
1547 11930 1549 1 109.50000 418.400000
1547 11930 1550 1 109.50000 418.400000
1548 11930 1549 1 109.50000 418.400000
1548 11930 1550 1 109.50000 418.400000
1549 11930 1550 1 109.50000 418.400000
1551 11931 1552 1 109.50000 418.400000
1551 11931 1553 1 109.50000 418.400000
1551 11931 1554 1 109.50000 418.400000
1552 11931 1553 1 109.50000 418.400000
1552 11931 1554 1 109.50000 418.400000
1553 11931 1554 1 109.50000 418.400000
1555 11932 1556 1 109.50000 418.400000
1555 11932 1557 1 109.50000 418.400000
1555 11932 1558 1 109.50000 418.400000
1556 11932 1557 1 109.50000 418.400000
1556 11932 1558 1 109.50000 418.400000
1557 11932 1558 1 109.50000 418.400000
1559 11933 1560 1 109.50000 418.400000
1559 11933 1561 1 109.50000 418.400000
1559 11933 1562 1 109.50000 418.400000
1560 11933 1561 1 109.50000 418.400000
1560 11933 1562 1 109.50000 418.400000
1561 11933 1562 1 109.50000 418.400000
1563 11934 1564 1 109.50000 418.400000
1563 11934 1565 1 109.50000 418.400000
1563 11934 1566 1 109.50000 418.400000
1564 11934 1565 1 109.50000 418.400000
1564 11934 1566 1 109.50000 418.400000
1565 11934 1566 1 109.50000 418.400000
1567 11935 1569 1 109.50000 418.400000
1567 11935 1570 1 109.50000 418.400000
1567 11935 3972 1 109.50000 418.400000
1569 11935 1570 1 109.50000 418.400000
1569 11935 3972 1 109.50000 418.400000
1570 11935 3972 1 109.50000 418.400000
1571 11936 1572 1 109.50000 418.400000
1571 11936 1573 1 109.50000 418.400000
1571 11936 1574 1 109.50000 418.400000
1572 11936 1573 1 109.50000 418.400000
1572 11936 1574 1 109.50000 418.400000
1573 11936 1574 1 109.50000 418.400000
1116 11937 1575 1 109.50000 418.400000
1116 11937 1577 1 109.50000 418.400000
1116 11937 1578 1 109.50000 418.400000
1575 11937 1577 1 109.50000 418.400000
1575 11937 1578 1 109.50000 418.400000
1577 11937 1578 1 109.50000 418.400000
1579 11938 1580 1 109.50000 418.400000
1579 11938 1581 1 109.50000 418.400000
1579 11938 1582 1 109.50000 418.400000
1580 11938 1581 1 109.50000 418.400000
1580 11938 1582 1 109.50000 418.400000
1581 11938 1582 1 109.50000 418.400000
208 11939 1583 1 109.50000 418.400000
208 11939 1584 1 109.50000 418.400000
208 11939 1585 1 109.50000 418.400000
1583 11939 1584 1 109.50000 418.400000
1583 11939 1585 1 109.50000 418.400000
1584 11939 1585 1 109.50000 418.400000
1052 11940 1586 1 109.50000 418.400000
1052 11940 1587 1 109.50000 418.400000
1052 11940 10998 1 109.50000 418.400000
1586 11940 1587 1 109.50000 418.400000
1586 11940 10998 1 109.50000 418.400000
1587 11940 10998 1 109.50000 418.400000
1589 11941 1590 1 109.50000 418.400000
1589 11941 1591 1 109.50000 418.400000
1589 11941 1592 1 109.50000 418.400000
1590 11941 1591 1 109.50000 418.400000
1590 11941 1592 1 109.50000 418.400000
1591 11941 1592 1 109.50000 418.400000
9 11942 1593 1 109.50000 418.400000
9 11942 1594 1 109.50000 418.400000
9 11942 1595 1 109.50000 418.400000
1593 11942 1594 1 109.50000 418.400000
1593 11942 1595 1 109.50000 418.400000
1594 11942 1595 1 109.50000 418.400000
226 11943 1596 1 109.50000 418.400000
226 11943 1597 1 109.50000 418.400000
226 11943 1598 1 109.50000 418.400000
1596 11943 1597 1 109.50000 418.400000
1596 11943 1598 1 109.50000 418.400000
1597 11943 1598 1 109.50000 418.400000
946 11944 1599 1 109.50000 418.400000
946 11944 1600 1 109.50000 418.400000
946 11944 1601 1 109.50000 418.400000
1599 11944 1600 1 109.50000 418.400000
1599 11944 1601 1 109.50000 418.400000
1600 11944 1601 1 109.50000 418.400000
113 11945 1602 1 109.50000 418.400000
113 11945 1603 1 109.50000 418.400000
113 11945 1604 1 109.50000 418.400000
1602 11945 1603 1 109.50000 418.400000
1602 11945 1604 1 109.50000 418.400000
1603 11945 1604 1 109.50000 418.400000
1605 11946 1606 1 109.50000 418.400000
1605 11946 1607 1 109.50000 418.400000
1605 11946 1608 1 109.50000 418.400000
1606 11946 1607 1 109.50000 418.400000
1606 11946 1608 1 109.50000 418.400000
1607 11946 1608 1 109.50000 418.400000
1609 11947 1610 1 109.50000 418.400000
1609 11947 1611 1 109.50000 418.400000
1609 11947 7765 1 109.50000 418.400000
1610 11947 1611 1 109.50000 418.400000
1610 11947 7765 1 109.50000 418.400000
1611 11947 7765 1 109.50000 418.400000
1187 11948 1613 1 109.50000 418.400000
1187 11948 1614 1 109.50000 418.400000
1187 11948 1615 1 109.50000 418.400000
1613 11948 1614 1 109.50000 418.400000
1613 11948 1615 1 109.50000 418.400000
1614 11948 1615 1 109.50000 418.400000
345 11949 1616 1 109.50000 418.400000
345 11949 1617 1 109.50000 418.400000
345 11949 1618 1 109.50000 418.400000
1616 11949 1617 1 109.50000 418.400000
1616 11949 1618 1 109.50000 418.400000
1617 11949 1618 1 109.50000 418.400000
1620 11950 1621 1 109.50000 418.400000
1620 11950 1622 1 109.50000 418.400000
1620 11950 2338 1 109.50000 418.400000
1621 11950 1622 1 109.50000 418.400000
1621 11950 2338 1 109.50000 418.400000
1622 11950 2338 1 109.50000 418.400000
1626 11951 1627 1 109.50000 418.400000
1626 11951 1628 1 109.50000 418.400000
1626 11951 1629 1 109.50000 418.400000
1627 11951 1628 1 109.50000 418.400000
1627 11951 1629 1 109.50000 418.400000
1628 11951 1629 1 109.50000 418.400000
1630 11952 1631 1 109.50000 418.400000
1630 11952 1632 1 109.50000 418.400000
1630 11952 8057 1 109.50000 418.400000
1631 11952 1632 1 109.50000 418.400000
1631 11952 8057 1 109.50000 418.400000
1632 11952 8057 1 109.50000 418.400000
1634 11953 1635 1 109.50000 418.400000
1634 11953 1636 1 109.50000 418.400000
1634 11953 11415 1 109.50000 418.400000
1635 11953 1636 1 109.50000 418.400000
1635 11953 11415 1 109.50000 418.400000
1636 11953 11415 1 109.50000 418.400000
1637 11954 1638 1 109.50000 418.400000
1637 11954 1639 1 109.50000 418.400000
1637 11954 1640 1 109.50000 418.400000
1638 11954 1639 1 109.50000 418.400000
1638 11954 1640 1 109.50000 418.400000
1639 11954 1640 1 109.50000 418.400000
79 11955 1641 1 109.50000 418.400000
79 11955 1642 1 109.50000 418.400000
79 11955 1643 1 109.50000 418.400000
1641 11955 1642 1 109.50000 418.400000
1641 11955 1643 1 109.50000 418.400000
1642 11955 1643 1 109.50000 418.400000
1644 11956 1645 1 109.50000 418.400000
1644 11956 1646 1 109.50000 418.400000
1644 11956 11479 1 109.50000 418.400000
1645 11956 1646 1 109.50000 418.400000
1645 11956 11479 1 109.50000 418.400000
1646 11956 11479 1 109.50000 418.400000
328 11957 995 1 109.50000 418.400000
328 11957 3056 1 109.50000 418.400000
328 11957 3577 1 109.50000 418.400000
995 11957 3056 1 109.50000 418.400000
995 11957 3577 1 109.50000 418.400000
3056 11957 3577 1 109.50000 418.400000
1652 11958 1653 1 109.50000 418.400000
1652 11958 1654 1 109.50000 418.400000
1652 11958 11487 1 109.50000 418.400000
1653 11958 1654 1 109.50000 418.400000
1653 11958 11487 1 109.50000 418.400000
1654 11958 11487 1 109.50000 418.400000
1652 11959 1655 1 109.50000 418.400000
1652 11959 11366 1 109.50000 418.400000
1652 11959 11368 1 109.50000 418.400000
1655 11959 11366 1 109.50000 418.400000
1655 11959 11368 1 109.50000 418.400000
11366 11959 11368 1 109.50000 418.400000
1656 11960 1657 1 109.50000 418.400000
1656 11960 1658 1 109.50000 418.400000
1656 11960 1659 1 109.50000 418.400000
1657 11960 1658 1 109.50000 418.400000
1657 11960 1659 1 109.50000 418.400000
1658 11960 1659 1 109.50000 418.400000
1660 11961 1661 1 109.50000 418.400000
1660 11961 1662 1 109.50000 418.400000
1660 11961 1663 1 109.50000 418.400000
1661 11961 1662 1 109.50000 418.400000
1661 11961 1663 1 109.50000 418.400000
1662 11961 1663 1 109.50000 418.400000
1664 11962 1665 1 109.50000 418.400000
1664 11962 1666 1 109.50000 418.400000
1664 11962 1667 1 109.50000 418.400000
1665 11962 1666 1 109.50000 418.400000
1665 11962 1667 1 109.50000 418.400000
1666 11962 1667 1 109.50000 418.400000
1668 11963 1669 1 109.50000 418.400000
1668 11963 1670 1 109.50000 418.400000
1668 11963 1671 1 109.50000 418.400000
1669 11963 1670 1 109.50000 418.400000
1669 11963 1671 1 109.50000 418.400000
1670 11963 1671 1 109.50000 418.400000
646 11964 1619 1 109.50000 418.400000
646 11964 1672 1 109.50000 418.400000
646 11964 1673 1 109.50000 418.400000
1619 11964 1672 1 109.50000 418.400000
1619 11964 1673 1 109.50000 418.400000
1672 11964 1673 1 109.50000 418.400000
1674 11965 1675 1 109.50000 418.400000
1674 11965 1676 1 109.50000 418.400000
1674 11965 1677 1 109.50000 418.400000
1675 11965 1676 1 109.50000 418.400000
1675 11965 1677 1 109.50000 418.400000
1676 11965 1677 1 109.50000 418.400000
153 11966 1678 1 109.50000 418.400000
153 11966 1679 1 109.50000 418.400000
153 11966 1680 1 109.50000 418.400000
1678 11966 1679 1 109.50000 418.400000
1678 11966 1680 1 109.50000 418.400000
1679 11966 1680 1 109.50000 418.400000
1344 11967 1681 1 109.50000 418.400000
1344 11967 1682 1 109.50000 418.400000
1344 11967 1683 1 109.50000 418.400000
1681 11967 1682 1 109.50000 418.400000
1681 11967 1683 1 109.50000 418.400000
1682 11967 1683 1 109.50000 418.400000
1685 11968 7198 1 109.50000 418.400000
1685 11968 10902 1 109.50000 418.400000
1685 11968 11402 1 109.50000 418.400000
7198 11968 10902 1 109.50000 418.400000
7198 11968 11402 1 109.50000 418.400000
10902 11968 11402 1 109.50000 418.400000
1692 11969 1693 1 109.50000 418.400000
1692 11969 1694 1 109.50000 418.400000
1692 11969 1695 1 109.50000 418.400000
1693 11969 1694 1 109.50000 418.400000
1693 11969 1695 1 109.50000 418.400000
1694 11969 1695 1 109.50000 418.400000
1697 11970 1698 1 109.50000 418.400000
1697 11970 1699 1 109.50000 418.400000
1697 11970 4081 1 109.50000 418.400000
1698 11970 1699 1 109.50000 418.400000
1698 11970 4081 1 109.50000 418.400000
1699 11970 4081 1 109.50000 418.400000
1700 11971 1701 1 109.50000 418.400000
1700 11971 1702 1 109.50000 418.400000
1700 11971 1703 1 109.50000 418.400000
1701 11971 1702 1 109.50000 418.400000
1701 11971 1703 1 109.50000 418.400000
1702 11971 1703 1 109.50000 418.400000
1704 11972 1705 1 109.50000 418.400000
1704 11972 1706 1 109.50000 418.400000
1704 11972 1707 1 109.50000 418.400000
1705 11972 1706 1 109.50000 418.400000
1705 11972 1707 1 109.50000 418.400000
1706 11972 1707 1 109.50000 418.400000
811 11973 1708 1 109.50000 418.400000
811 11973 1709 1 109.50000 418.400000
811 11973 1710 1 109.50000 418.400000
1708 11973 1709 1 109.50000 418.400000
1708 11973 1710 1 109.50000 418.400000
1709 11973 1710 1 109.50000 418.400000
250 11974 1711 1 109.50000 418.400000
250 11974 1713 1 109.50000 418.400000
250 11974 1714 1 109.50000 418.400000
1711 11974 1713 1 109.50000 418.400000
1711 11974 1714 1 109.50000 418.400000
1713 11974 1714 1 109.50000 418.400000
560 11975 1715 1 109.50000 418.400000
560 11975 1716 1 109.50000 418.400000
560 11975 1717 1 109.50000 418.400000
1715 11975 1716 1 109.50000 418.400000
1715 11975 1717 1 109.50000 418.400000
1716 11975 1717 1 109.50000 418.400000
374 11976 1718 1 109.50000 418.400000
374 11976 11341 1 109.50000 418.400000
374 11976 11522 1 109.50000 418.400000
1718 11976 11341 1 109.50000 418.400000
1718 11976 11522 1 109.50000 418.400000
11341 11976 11522 1 109.50000 418.400000
1719 11977 1722 1 109.50000 418.400000
1719 11977 5451 1 109.50000 418.400000
1719 11977 5452 1 109.50000 418.400000
1722 11977 5451 1 109.50000 418.400000
1722 11977 5452 1 109.50000 418.400000
5451 11977 5452 1 109.50000 418.400000
1723 11978 1724 1 109.50000 418.400000
1723 11978 1725 1 109.50000 418.400000
1723 11978 1726 1 109.50000 418.400000
1724 11978 1725 1 109.50000 418.400000
1724 11978 1726 1 109.50000 418.400000
1725 11978 1726 1 109.50000 418.400000
973 11979 1728 1 109.50000 418.400000
973 11979 1729 1 109.50000 418.400000
973 11979 1730 1 109.50000 418.400000
1728 11979 1729 1 109.50000 418.400000
1728 11979 1730 1 109.50000 418.400000
1729 11979 1730 1 109.50000 418.400000
1731 11980 1732 1 109.50000 418.400000
1731 11980 1733 1 109.50000 418.400000
1731 11980 1734 1 109.50000 418.400000
1732 11980 1733 1 109.50000 418.400000
1732 11980 1734 1 109.50000 418.400000
1733 11980 1734 1 109.50000 418.400000
1738 11981 1739 1 109.50000 418.400000
1738 11981 8581 1 109.50000 418.400000
1738 11981 10835 1 109.50000 418.400000
1739 11981 8581 1 109.50000 418.400000
1739 11981 10835 1 109.50000 418.400000
8581 11981 10835 1 109.50000 418.400000
1743 11982 1744 1 109.50000 418.400000
1743 11982 1745 1 109.50000 418.400000
1743 11982 1746 1 109.50000 418.400000
1744 11982 1745 1 109.50000 418.400000
1744 11982 1746 1 109.50000 418.400000
1745 11982 1746 1 109.50000 418.400000
691 11983 692 1 109.50000 418.400000
691 11983 1747 1 109.50000 418.400000
691 11983 1748 1 109.50000 418.400000
692 11983 1747 1 109.50000 418.400000
692 11983 1748 1 109.50000 418.400000
1747 11983 1748 1 109.50000 418.400000
1751 11984 1752 1 109.50000 418.400000
1751 11984 1753 1 109.50000 418.400000
1751 11984 11490 1 109.50000 418.400000
1752 11984 1753 1 109.50000 418.400000
1752 11984 11490 1 109.50000 418.400000
1753 11984 11490 1 109.50000 418.400000
1754 11985 1755 1 109.50000 418.400000
1754 11985 1756 1 109.50000 418.400000
1754 11985 1757 1 109.50000 418.400000
1755 11985 1756 1 109.50000 418.400000
1755 11985 1757 1 109.50000 418.400000
1756 11985 1757 1 109.50000 418.400000
1758 11986 1759 1 109.50000 418.400000
1758 11986 1760 1 109.50000 418.400000
1758 11986 11433 1 109.50000 418.400000
1759 11986 1760 1 109.50000 418.400000
1759 11986 11433 1 109.50000 418.400000
1760 11986 11433 1 109.50000 418.400000
1299 11987 1761 1 109.50000 418.400000
1299 11987 1762 1 109.50000 418.400000
1299 11987 1763 1 109.50000 418.400000
1761 11987 1762 1 109.50000 418.400000
1761 11987 1763 1 109.50000 418.400000
1762 11987 1763 1 109.50000 418.400000
1764 11988 1765 1 109.50000 418.400000
1764 11988 1766 1 109.50000 418.400000
1764 11988 1767 1 109.50000 418.400000
1765 11988 1766 1 109.50000 418.400000
1765 11988 1767 1 109.50000 418.400000
1766 11988 1767 1 109.50000 418.400000
1768 11989 1769 1 109.50000 418.400000
1768 11989 1770 1 109.50000 418.400000
1768 11989 1771 1 109.50000 418.400000
1769 11989 1770 1 109.50000 418.400000
1769 11989 1771 1 109.50000 418.400000
1770 11989 1771 1 109.50000 418.400000
1772 11990 1773 1 109.50000 418.400000
1772 11990 1774 1 109.50000 418.400000
1772 11990 1775 1 109.50000 418.400000
1773 11990 1774 1 109.50000 418.400000
1773 11990 1775 1 109.50000 418.400000
1774 11990 1775 1 109.50000 418.400000
1601 11991 1778 1 109.50000 418.400000
1601 11991 1779 1 109.50000 418.400000
1601 11991 1780 1 109.50000 418.400000
1778 11991 1779 1 109.50000 418.400000
1778 11991 1780 1 109.50000 418.400000
1779 11991 1780 1 109.50000 418.400000
1781 11992 1782 1 109.50000 418.400000
1781 11992 1783 1 109.50000 418.400000
1781 11992 1784 1 109.50000 418.400000
1782 11992 1783 1 109.50000 418.400000
1782 11992 1784 1 109.50000 418.400000
1783 11992 1784 1 109.50000 418.400000
640 11993 1785 1 109.50000 418.400000
640 11993 1786 1 109.50000 418.400000
640 11993 1787 1 109.50000 418.400000
1785 11993 1786 1 109.50000 418.400000
1785 11993 1787 1 109.50000 418.400000
1786 11993 1787 1 109.50000 418.400000
1788 11994 1789 1 109.50000 418.400000
1788 11994 1790 1 109.50000 418.400000
1788 11994 1791 1 109.50000 418.400000
1789 11994 1790 1 109.50000 418.400000
1789 11994 1791 1 109.50000 418.400000
1790 11994 1791 1 109.50000 418.400000
1056 11995 1792 1 109.50000 418.400000
1056 11995 1793 1 109.50000 418.400000
1056 11995 1794 1 109.50000 418.400000
1792 11995 1793 1 109.50000 418.400000
1792 11995 1794 1 109.50000 418.400000
1793 11995 1794 1 109.50000 418.400000
1795 11996 1796 1 109.50000 418.400000
1795 11996 1797 1 109.50000 418.400000
1795 11996 1798 1 109.50000 418.400000
1796 11996 1797 1 109.50000 418.400000
1796 11996 1798 1 109.50000 418.400000
1797 11996 1798 1 109.50000 418.400000
1799 11997 1800 1 109.50000 418.400000
1799 11997 1801 1 109.50000 418.400000
1799 11997 1802 1 109.50000 418.400000
1800 11997 1801 1 109.50000 418.400000
1800 11997 1802 1 109.50000 418.400000
1801 11997 1802 1 109.50000 418.400000
1803 11998 1804 1 109.50000 418.400000
1803 11998 1805 1 109.50000 418.400000
1803 11998 1806 1 109.50000 418.400000
1804 11998 1805 1 109.50000 418.400000
1804 11998 1806 1 109.50000 418.400000
1805 11998 1806 1 109.50000 418.400000
1141 11999 1809 1 109.50000 418.400000
1141 11999 1810 1 109.50000 418.400000
1141 11999 1811 1 109.50000 418.400000
1809 11999 1810 1 109.50000 418.400000
1809 11999 1811 1 109.50000 418.400000
1810 11999 1811 1 109.50000 418.400000
1567 12000 1812 1 109.50000 418.400000
1567 12000 1813 1 109.50000 418.400000
1567 12000 1814 1 109.50000 418.400000
1812 12000 1813 1 109.50000 418.400000
1812 12000 1814 1 109.50000 418.400000
1813 12000 1814 1 109.50000 418.400000
1815 12001 1816 1 109.50000 418.400000
1815 12001 1817 1 109.50000 418.400000
1815 12001 1818 1 109.50000 418.400000
1816 12001 1817 1 109.50000 418.400000
1816 12001 1818 1 109.50000 418.400000
1817 12001 1818 1 109.50000 418.400000
59 12002 1819 1 109.50000 418.400000
59 12002 1820 1 109.50000 418.400000
59 12002 1821 1 109.50000 418.400000
1819 12002 1820 1 109.50000 418.400000
1819 12002 1821 1 109.50000 418.400000
1820 12002 1821 1 109.50000 418.400000
118 12003 1822 1 109.50000 418.400000
118 12003 1823 1 109.50000 418.400000
118 12003 1824 1 109.50000 418.400000
1822 12003 1823 1 109.50000 418.400000
1822 12003 1824 1 109.50000 418.400000
1823 12003 1824 1 109.50000 418.400000
1825 12004 1826 1 109.50000 418.400000
1825 12004 1827 1 109.50000 418.400000
1825 12004 1828 1 109.50000 418.400000
1826 12004 1827 1 109.50000 418.400000
1826 12004 1828 1 109.50000 418.400000
1827 12004 1828 1 109.50000 418.400000
1832 12005 1833 1 109.50000 418.400000
1832 12005 1834 1 109.50000 418.400000
1832 12005 1835 1 109.50000 418.400000
1833 12005 1834 1 109.50000 418.400000
1833 12005 1835 1 109.50000 418.400000
1834 12005 1835 1 109.50000 418.400000
116 12006 1836 1 109.50000 418.400000
116 12006 1837 1 109.50000 418.400000
116 12006 1838 1 109.50000 418.400000
1836 12006 1837 1 109.50000 418.400000
1836 12006 1838 1 109.50000 418.400000
1837 12006 1838 1 109.50000 418.400000
1839 12007 1840 1 109.50000 418.400000
1839 12007 1841 1 109.50000 418.400000
1839 12007 1842 1 109.50000 418.400000
1840 12007 1841 1 109.50000 418.400000
1840 12007 1842 1 109.50000 418.400000
1841 12007 1842 1 109.50000 418.400000
1843 12008 1844 1 109.50000 418.400000
1843 12008 1845 1 109.50000 418.400000
1843 12008 1846 1 109.50000 418.400000
1844 12008 1845 1 109.50000 418.400000
1844 12008 1846 1 109.50000 418.400000
1845 12008 1846 1 109.50000 418.400000
1847 12009 1848 1 109.50000 418.400000
1847 12009 1849 1 109.50000 418.400000
1847 12009 1850 1 109.50000 418.400000
1848 12009 1849 1 109.50000 418.400000
1848 12009 1850 1 109.50000 418.400000
1849 12009 1850 1 109.50000 418.400000
1851 12010 1852 1 109.50000 418.400000
1851 12010 1853 1 109.50000 418.400000
1851 12010 1854 1 109.50000 418.400000
1852 12010 1853 1 109.50000 418.400000
1852 12010 1854 1 109.50000 418.400000
1853 12010 1854 1 109.50000 418.400000
126 12011 1855 1 109.50000 418.400000
126 12011 1856 1 109.50000 418.400000
126 12011 1857 1 109.50000 418.400000
1855 12011 1856 1 109.50000 418.400000
1855 12011 1857 1 109.50000 418.400000
1856 12011 1857 1 109.50000 418.400000
1859 12012 1860 1 109.50000 418.400000
1859 12012 1861 1 109.50000 418.400000
1859 12012 1862 1 109.50000 418.400000
1860 12012 1861 1 109.50000 418.400000
1860 12012 1862 1 109.50000 418.400000
1861 12012 1862 1 109.50000 418.400000
1866 12013 1867 1 109.50000 418.400000
1866 12013 11150 1 109.50000 418.400000
1866 12013 11226 1 109.50000 418.400000
1867 12013 11150 1 109.50000 418.400000
1867 12013 11226 1 109.50000 418.400000
11150 12013 11226 1 109.50000 418.400000
1868 12014 1869 1 109.50000 418.400000
1868 12014 1870 1 109.50000 418.400000
1868 12014 1871 1 109.50000 418.400000
1869 12014 1870 1 109.50000 418.400000
1869 12014 1871 1 109.50000 418.400000
1870 12014 1871 1 109.50000 418.400000
1872 12015 1873 1 109.50000 418.400000
1872 12015 1874 1 109.50000 418.400000
1872 12015 1875 1 109.50000 418.400000
1873 12015 1874 1 109.50000 418.400000
1873 12015 1875 1 109.50000 418.400000
1874 12015 1875 1 109.50000 418.400000
1876 12016 1877 1 109.50000 418.400000
1876 12016 1878 1 109.50000 418.400000
1876 12016 11512 1 109.50000 418.400000
1877 12016 1878 1 109.50000 418.400000
1877 12016 11512 1 109.50000 418.400000
1878 12016 11512 1 109.50000 418.400000
1879 12017 1880 1 109.50000 418.400000
1879 12017 1881 1 109.50000 418.400000
1879 12017 1882 1 109.50000 418.400000
1880 12017 1881 1 109.50000 418.400000
1880 12017 1882 1 109.50000 418.400000
1881 12017 1882 1 109.50000 418.400000
128 12018 1883 1 109.50000 418.400000
128 12018 1884 1 109.50000 418.400000
128 12018 1885 1 109.50000 418.400000
1883 12018 1884 1 109.50000 418.400000
1883 12018 1885 1 109.50000 418.400000
1884 12018 1885 1 109.50000 418.400000
1247 12019 1886 1 109.50000 418.400000
1247 12019 1887 1 109.50000 418.400000
1247 12019 1888 1 109.50000 418.400000
1886 12019 1887 1 109.50000 418.400000
1886 12019 1888 1 109.50000 418.400000
1887 12019 1888 1 109.50000 418.400000
1889 12020 1890 1 109.50000 418.400000
1889 12020 1891 1 109.50000 418.400000
1889 12020 11234 1 109.50000 418.400000
1890 12020 1891 1 109.50000 418.400000
1890 12020 11234 1 109.50000 418.400000
1891 12020 11234 1 109.50000 418.400000
1892 12021 1893 1 109.50000 418.400000
1892 12021 1895 1 109.50000 418.400000
1892 12021 6178 1 109.50000 418.400000
1893 12021 1895 1 109.50000 418.400000
1893 12021 6178 1 109.50000 418.400000
1895 12021 6178 1 109.50000 418.400000
1896 12022 1897 1 109.50000 418.400000
1896 12022 3832 1 109.50000 418.400000
1896 12022 11436 1 109.50000 418.400000
1897 12022 3832 1 109.50000 418.400000
1897 12022 11436 1 109.50000 418.400000
3832 12022 11436 1 109.50000 418.400000
1898 12023 1899 1 109.50000 418.400000
1898 12023 1900 1 109.50000 418.400000
1898 12023 1901 1 109.50000 418.400000
1899 12023 1900 1 109.50000 418.400000
1899 12023 1901 1 109.50000 418.400000
1900 12023 1901 1 109.50000 418.400000
155 12024 1903 1 109.50000 418.400000
155 12024 1905 1 109.50000 418.400000
155 12024 5359 1 109.50000 418.400000
1903 12024 1905 1 109.50000 418.400000
1903 12024 5359 1 109.50000 418.400000
1905 12024 5359 1 109.50000 418.400000
1906 12025 1907 1 109.50000 418.400000
1906 12025 1908 1 109.50000 418.400000
1906 12025 1909 1 109.50000 418.400000
1907 12025 1908 1 109.50000 418.400000
1907 12025 1909 1 109.50000 418.400000
1908 12025 1909 1 109.50000 418.400000
1910 12026 1911 1 109.50000 418.400000
1910 12026 1913 1 109.50000 418.400000
1910 12026 8612 1 109.50000 418.400000
1911 12026 1913 1 109.50000 418.400000
1911 12026 8612 1 109.50000 418.400000
1913 12026 8612 1 109.50000 418.400000
1914 12027 1915 1 109.50000 418.400000
1914 12027 1916 1 109.50000 418.400000
1914 12027 1917 1 109.50000 418.400000
1915 12027 1916 1 109.50000 418.400000
1915 12027 1917 1 109.50000 418.400000
1916 12027 1917 1 109.50000 418.400000
396 12028 1416 1 109.50000 418.400000
396 12028 1918 1 109.50000 418.400000
396 12028 1919 1 109.50000 418.400000
1416 12028 1918 1 109.50000 418.400000
1416 12028 1919 1 109.50000 418.400000
1918 12028 1919 1 109.50000 418.400000
1920 12029 1921 1 109.50000 418.400000
1920 12029 1922 1 109.50000 418.400000
1920 12029 1923 1 109.50000 418.400000
1921 12029 1922 1 109.50000 418.400000
1921 12029 1923 1 109.50000 418.400000
1922 12029 1923 1 109.50000 418.400000
1925 12030 1926 1 109.50000 418.400000
1925 12030 7663 1 109.50000 418.400000
1925 12030 9010 1 109.50000 418.400000
1926 12030 7663 1 109.50000 418.400000
1926 12030 9010 1 109.50000 418.400000
7663 12030 9010 1 109.50000 418.400000
1929 12031 1931 1 109.50000 418.400000
1929 12031 5694 1 109.50000 418.400000
1929 12031 6737 1 109.50000 418.400000
1931 12031 5694 1 109.50000 418.400000
1931 12031 6737 1 109.50000 418.400000
5694 12031 6737 1 109.50000 418.400000
1932 12032 1933 1 109.50000 418.400000
1932 12032 1934 1 109.50000 418.400000
1932 12032 1935 1 109.50000 418.400000
1933 12032 1934 1 109.50000 418.400000
1933 12032 1935 1 109.50000 418.400000
1934 12032 1935 1 109.50000 418.400000
1364 12033 1936 1 109.50000 418.400000
1364 12033 1937 1 109.50000 418.400000
1364 12033 1938 1 109.50000 418.400000
1936 12033 1937 1 109.50000 418.400000
1936 12033 1938 1 109.50000 418.400000
1937 12033 1938 1 109.50000 418.400000
924 12034 1940 1 109.50000 418.400000
924 12034 1941 1 109.50000 418.400000
924 12034 1942 1 109.50000 418.400000
1940 12034 1941 1 109.50000 418.400000
1940 12034 1942 1 109.50000 418.400000
1941 12034 1942 1 109.50000 418.400000
1943 12035 1944 1 109.50000 418.400000
1943 12035 1945 1 109.50000 418.400000
1943 12035 5107 1 109.50000 418.400000
1944 12035 1945 1 109.50000 418.400000
1944 12035 5107 1 109.50000 418.400000
1945 12035 5107 1 109.50000 418.400000
375 12036 376 1 109.50000 418.400000
375 12036 378 1 109.50000 418.400000
375 12036 1947 1 109.50000 418.400000
376 12036 378 1 109.50000 418.400000
376 12036 1947 1 109.50000 418.400000
378 12036 1947 1 109.50000 418.400000
143 12037 1949 1 109.50000 418.400000
143 12037 1950 1 109.50000 418.400000
143 12037 1951 1 109.50000 418.400000
1949 12037 1950 1 109.50000 418.400000
1949 12037 1951 1 109.50000 418.400000
1950 12037 1951 1 109.50000 418.400000
1952 12038 1953 1 109.50000 418.400000
1952 12038 1954 1 109.50000 418.400000
1952 12038 1955 1 109.50000 418.400000
1953 12038 1954 1 109.50000 418.400000
1953 12038 1955 1 109.50000 418.400000
1954 12038 1955 1 109.50000 418.400000
1956 12039 1957 1 109.50000 418.400000
1956 12039 1958 1 109.50000 418.400000
1956 12039 1959 1 109.50000 418.400000
1957 12039 1958 1 109.50000 418.400000
1957 12039 1959 1 109.50000 418.400000
1958 12039 1959 1 109.50000 418.400000
1960 12040 1961 1 109.50000 418.400000
1960 12040 1962 1 109.50000 418.400000
1960 12040 1963 1 109.50000 418.400000
1961 12040 1962 1 109.50000 418.400000
1961 12040 1963 1 109.50000 418.400000
1962 12040 1963 1 109.50000 418.400000
1964 12041 1965 1 109.50000 418.400000
1964 12041 1966 1 109.50000 418.400000
1964 12041 1967 1 109.50000 418.400000
1965 12041 1966 1 109.50000 418.400000
1965 12041 1967 1 109.50000 418.400000
1966 12041 1967 1 109.50000 418.400000
677 12042 1968 1 109.50000 418.400000
677 12042 1969 1 109.50000 418.400000
677 12042 1970 1 109.50000 418.400000
1968 12042 1969 1 109.50000 418.400000
1968 12042 1970 1 109.50000 418.400000
1969 12042 1970 1 109.50000 418.400000
1971 12043 1972 1 109.50000 418.400000
1971 12043 1973 1 109.50000 418.400000
1971 12043 9727 1 109.50000 418.400000
1972 12043 1973 1 109.50000 418.400000
1972 12043 9727 1 109.50000 418.400000
1973 12043 9727 1 109.50000 418.400000
1976 12044 1977 1 109.50000 418.400000
1976 12044 1978 1 109.50000 418.400000
1976 12044 7177 1 109.50000 418.400000
1977 12044 1978 1 109.50000 418.400000
1977 12044 7177 1 109.50000 418.400000
1978 12044 7177 1 109.50000 418.400000
1979 12045 1980 1 109.50000 418.400000
1979 12045 1981 1 109.50000 418.400000
1979 12045 1982 1 109.50000 418.400000
1980 12045 1981 1 109.50000 418.400000
1980 12045 1982 1 109.50000 418.400000
1981 12045 1982 1 109.50000 418.400000
1983 12046 1984 1 109.50000 418.400000
1983 12046 1985 1 109.50000 418.400000
1983 12046 1986 1 109.50000 418.400000
1984 12046 1985 1 109.50000 418.400000
1984 12046 1986 1 109.50000 418.400000
1985 12046 1986 1 109.50000 418.400000
1987 12047 1988 1 109.50000 418.400000
1987 12047 1990 1 109.50000 418.400000
1987 12047 10974 1 109.50000 418.400000
1988 12047 1990 1 109.50000 418.400000
1988 12047 10974 1 109.50000 418.400000
1990 12047 10974 1 109.50000 418.400000
1991 12048 1992 1 109.50000 418.400000
1991 12048 1993 1 109.50000 418.400000
1991 12048 1994 1 109.50000 418.400000
1992 12048 1993 1 109.50000 418.400000
1992 12048 1994 1 109.50000 418.400000
1993 12048 1994 1 109.50000 418.400000
1995 12049 1996 1 109.50000 418.400000
1995 12049 1997 1 109.50000 418.400000
1995 12049 1998 1 109.50000 418.400000
1996 12049 1997 1 109.50000 418.400000
1996 12049 1998 1 109.50000 418.400000
1997 12049 1998 1 109.50000 418.400000
1999 12050 2000 1 109.50000 418.400000
1999 12050 2001 1 109.50000 418.400000
1999 12050 2002 1 109.50000 418.400000
2000 12050 2001 1 109.50000 418.400000
2000 12050 2002 1 109.50000 418.400000
2001 12050 2002 1 109.50000 418.400000
501 12051 2003 1 109.50000 418.400000
501 12051 2004 1 109.50000 418.400000
501 12051 2005 1 109.50000 418.400000
2003 12051 2004 1 109.50000 418.400000
2003 12051 2005 1 109.50000 418.400000
2004 12051 2005 1 109.50000 418.400000
1873 12052 2006 1 109.50000 418.400000
1873 12052 2007 1 109.50000 418.400000
1873 12052 2008 1 109.50000 418.400000
2006 12052 2007 1 109.50000 418.400000
2006 12052 2008 1 109.50000 418.400000
2007 12052 2008 1 109.50000 418.400000
2010 12053 2011 1 109.50000 418.400000
2010 12053 2012 1 109.50000 418.400000
2010 12053 2013 1 109.50000 418.400000
2011 12053 2012 1 109.50000 418.400000
2011 12053 2013 1 109.50000 418.400000
2012 12053 2013 1 109.50000 418.400000
2014 12054 2015 1 109.50000 418.400000
2014 12054 2016 1 109.50000 418.400000
2014 12054 2017 1 109.50000 418.400000
2015 12054 2016 1 109.50000 418.400000
2015 12054 2017 1 109.50000 418.400000
2016 12054 2017 1 109.50000 418.400000
2018 12055 2019 1 109.50000 418.400000
2018 12055 11168 1 109.50000 418.400000
2018 12055 11526 1 109.50000 418.400000
2019 12055 11168 1 109.50000 418.400000
2019 12055 11526 1 109.50000 418.400000
11168 12055 11526 1 109.50000 418.400000
1343 12056 2020 1 109.50000 418.400000
1343 12056 2021 1 109.50000 418.400000
1343 12056 2022 1 109.50000 418.400000
2020 12056 2021 1 109.50000 418.400000
2020 12056 2022 1 109.50000 418.400000
2021 12056 2022 1 109.50000 418.400000
2023 12057 2024 1 109.50000 418.400000
2023 12057 2025 1 109.50000 418.400000
2023 12057 2026 1 109.50000 418.400000
2024 12057 2025 1 109.50000 418.400000
2024 12057 2026 1 109.50000 418.400000
2025 12057 2026 1 109.50000 418.400000
255 12058 2027 1 109.50000 418.400000
255 12058 2028 1 109.50000 418.400000
255 12058 11441 1 109.50000 418.400000
2027 12058 2028 1 109.50000 418.400000
2027 12058 11441 1 109.50000 418.400000
2028 12058 11441 1 109.50000 418.400000
2029 12059 2030 1 109.50000 418.400000
2029 12059 2031 1 109.50000 418.400000
2029 12059 2032 1 109.50000 418.400000
2030 12059 2031 1 109.50000 418.400000
2030 12059 2032 1 109.50000 418.400000
2031 12059 2032 1 109.50000 418.400000
2033 12060 2034 1 109.50000 418.400000
2033 12060 2035 1 109.50000 418.400000
2033 12060 2036 1 109.50000 418.400000
2034 12060 2035 1 109.50000 418.400000
2034 12060 2036 1 109.50000 418.400000
2035 12060 2036 1 109.50000 418.400000
2037 12061 2038 1 109.50000 418.400000
2037 12061 2039 1 109.50000 418.400000
2037 12061 2040 1 109.50000 418.400000
2038 12061 2039 1 109.50000 418.400000
2038 12061 2040 1 109.50000 418.400000
2039 12061 2040 1 109.50000 418.400000
1372 12062 2041 1 109.50000 418.400000
1372 12062 2042 1 109.50000 418.400000
1372 12062 11511 1 109.50000 418.400000
2041 12062 2042 1 109.50000 418.400000
2041 12062 11511 1 109.50000 418.400000
2042 12062 11511 1 109.50000 418.400000
2043 12063 2044 1 109.50000 418.400000
2043 12063 2045 1 109.50000 418.400000
2043 12063 11250 1 109.50000 418.400000
2044 12063 2045 1 109.50000 418.400000
2044 12063 11250 1 109.50000 418.400000
2045 12063 11250 1 109.50000 418.400000
2046 12064 2047 1 109.50000 418.400000
2046 12064 2048 1 109.50000 418.400000
2046 12064 11529 1 109.50000 418.400000
2047 12064 2048 1 109.50000 418.400000
2047 12064 11529 1 109.50000 418.400000
2048 12064 11529 1 109.50000 418.400000
2049 12065 2050 1 109.50000 418.400000
2049 12065 2051 1 109.50000 418.400000
2049 12065 2052 1 109.50000 418.400000
2050 12065 2051 1 109.50000 418.400000
2050 12065 2052 1 109.50000 418.400000
2051 12065 2052 1 109.50000 418.400000
290 12066 293 1 109.50000 418.400000
290 12066 2053 1 109.50000 418.400000
290 12066 2054 1 109.50000 418.400000
293 12066 2053 1 109.50000 418.400000
293 12066 2054 1 109.50000 418.400000
2053 12066 2054 1 109.50000 418.400000
2055 12067 2056 1 109.50000 418.400000
2055 12067 2057 1 109.50000 418.400000
2055 12067 2058 1 109.50000 418.400000
2056 12067 2057 1 109.50000 418.400000
2056 12067 2058 1 109.50000 418.400000
2057 12067 2058 1 109.50000 418.400000
393 12068 2059 1 109.50000 418.400000
393 12068 2060 1 109.50000 418.400000
393 12068 2061 1 109.50000 418.400000
2059 12068 2060 1 109.50000 418.400000
2059 12068 2061 1 109.50000 418.400000
2060 12068 2061 1 109.50000 418.400000
2062 12069 2063 1 109.50000 418.400000
2062 12069 2064 1 109.50000 418.400000
2062 12069 2065 1 109.50000 418.400000
2063 12069 2064 1 109.50000 418.400000
2063 12069 2065 1 109.50000 418.400000
2064 12069 2065 1 109.50000 418.400000
1813 12070 2067 1 109.50000 418.400000
1813 12070 2068 1 109.50000 418.400000
1813 12070 2069 1 109.50000 418.400000
2067 12070 2068 1 109.50000 418.400000
2067 12070 2069 1 109.50000 418.400000
2068 12070 2069 1 109.50000 418.400000
971 12071 2053 1 109.50000 418.400000
971 12071 2070 1 109.50000 418.400000
971 12071 2071 1 109.50000 418.400000
2053 12071 2070 1 109.50000 418.400000
2053 12071 2071 1 109.50000 418.400000
2070 12071 2071 1 109.50000 418.400000
806 12072 809 1 109.50000 418.400000
806 12072 2072 1 109.50000 418.400000
806 12072 2073 1 109.50000 418.400000
809 12072 2072 1 109.50000 418.400000
809 12072 2073 1 109.50000 418.400000
2072 12072 2073 1 109.50000 418.400000
2075 12073 2076 1 109.50000 418.400000
2075 12073 2077 1 109.50000 418.400000
2075 12073 2078 1 109.50000 418.400000
2076 12073 2077 1 109.50000 418.400000
2076 12073 2078 1 109.50000 418.400000
2077 12073 2078 1 109.50000 418.400000
456 12074 2079 1 109.50000 418.400000
456 12074 2080 1 109.50000 418.400000
456 12074 2081 1 109.50000 418.400000
2079 12074 2080 1 109.50000 418.400000
2079 12074 2081 1 109.50000 418.400000
2080 12074 2081 1 109.50000 418.400000
254 12075 1979 1 109.50000 418.400000
254 12075 2082 1 109.50000 418.400000
254 12075 2083 1 109.50000 418.400000
1979 12075 2082 1 109.50000 418.400000
1979 12075 2083 1 109.50000 418.400000
2082 12075 2083 1 109.50000 418.400000
2084 12076 2085 1 109.50000 418.400000
2084 12076 2086 1 109.50000 418.400000
2084 12076 2087 1 109.50000 418.400000
2085 12076 2086 1 109.50000 418.400000
2085 12076 2087 1 109.50000 418.400000
2086 12076 2087 1 109.50000 418.400000
2088 12077 2089 1 109.50000 418.400000
2088 12077 2090 1 109.50000 418.400000
2088 12077 2091 1 109.50000 418.400000
2089 12077 2090 1 109.50000 418.400000
2089 12077 2091 1 109.50000 418.400000
2090 12077 2091 1 109.50000 418.400000
2092 12078 2093 1 109.50000 418.400000
2092 12078 2094 1 109.50000 418.400000
2092 12078 2095 1 109.50000 418.400000
2093 12078 2094 1 109.50000 418.400000
2093 12078 2095 1 109.50000 418.400000
2094 12078 2095 1 109.50000 418.400000
741 12079 2096 1 109.50000 418.400000
741 12079 2097 1 109.50000 418.400000
741 12079 11468 1 109.50000 418.400000
2096 12079 2097 1 109.50000 418.400000
2096 12079 11468 1 109.50000 418.400000
2097 12079 11468 1 109.50000 418.400000
854 12080 2098 1 109.50000 418.400000
854 12080 2100 1 109.50000 418.400000
854 12080 7646 1 109.50000 418.400000
2098 12080 2100 1 109.50000 418.400000
2098 12080 7646 1 109.50000 418.400000
2100 12080 7646 1 109.50000 418.400000
1854 12081 2101 1 109.50000 418.400000
1854 12081 2102 1 109.50000 418.400000
1854 12081 2103 1 109.50000 418.400000
2101 12081 2102 1 109.50000 418.400000
2101 12081 2103 1 109.50000 418.400000
2102 12081 2103 1 109.50000 418.400000
1016 12082 2104 1 109.50000 418.400000
1016 12082 2105 1 109.50000 418.400000
1016 12082 2106 1 109.50000 418.400000
2104 12082 2105 1 109.50000 418.400000
2104 12082 2106 1 109.50000 418.400000
2105 12082 2106 1 109.50000 418.400000
2109 12083 2110 1 109.50000 418.400000
2109 12083 2111 1 109.50000 418.400000
2109 12083 2112 1 109.50000 418.400000
2110 12083 2111 1 109.50000 418.400000
2110 12083 2112 1 109.50000 418.400000
2111 12083 2112 1 109.50000 418.400000
2113 12084 2114 1 109.50000 418.400000
2113 12084 2115 1 109.50000 418.400000
2113 12084 2116 1 109.50000 418.400000
2114 12084 2115 1 109.50000 418.400000
2114 12084 2116 1 109.50000 418.400000
2115 12084 2116 1 109.50000 418.400000
2118 12085 2119 1 109.50000 418.400000
2118 12085 2120 1 109.50000 418.400000
2118 12085 3655 1 109.50000 418.400000
2119 12085 2120 1 109.50000 418.400000
2119 12085 3655 1 109.50000 418.400000
2120 12085 3655 1 109.50000 418.400000
2121 12086 2122 1 109.50000 418.400000
2121 12086 2123 1 109.50000 418.400000
2121 12086 2124 1 109.50000 418.400000
2122 12086 2123 1 109.50000 418.400000
2122 12086 2124 1 109.50000 418.400000
2123 12086 2124 1 109.50000 418.400000
528 12087 1346 1 109.50000 418.400000
528 12087 2125 1 109.50000 418.400000
528 12087 2126 1 109.50000 418.400000
1346 12087 2125 1 109.50000 418.400000
1346 12087 2126 1 109.50000 418.400000
2125 12087 2126 1 109.50000 418.400000
2127 12088 2128 1 109.50000 418.400000
2127 12088 2129 1 109.50000 418.400000
2127 12088 2130 1 109.50000 418.400000
2128 12088 2129 1 109.50000 418.400000
2128 12088 2130 1 109.50000 418.400000
2129 12088 2130 1 109.50000 418.400000
1195 12089 1940 1 109.50000 418.400000
1195 12089 2131 1 109.50000 418.400000
1195 12089 2132 1 109.50000 418.400000
1940 12089 2131 1 109.50000 418.400000
1940 12089 2132 1 109.50000 418.400000
2131 12089 2132 1 109.50000 418.400000
2133 12090 2134 1 109.50000 418.400000
2133 12090 2135 1 109.50000 418.400000
2133 12090 2136 1 109.50000 418.400000
2134 12090 2135 1 109.50000 418.400000
2134 12090 2136 1 109.50000 418.400000
2135 12090 2136 1 109.50000 418.400000
985 12091 2137 1 109.50000 418.400000
985 12091 2138 1 109.50000 418.400000
985 12091 2139 1 109.50000 418.400000
2137 12091 2138 1 109.50000 418.400000
2137 12091 2139 1 109.50000 418.400000
2138 12091 2139 1 109.50000 418.400000
2140 12092 2141 1 109.50000 418.400000
2140 12092 2142 1 109.50000 418.400000
2140 12092 2143 1 109.50000 418.400000
2141 12092 2142 1 109.50000 418.400000
2141 12092 2143 1 109.50000 418.400000
2142 12092 2143 1 109.50000 418.400000
2144 12093 2145 1 109.50000 418.400000
2144 12093 2146 1 109.50000 418.400000
2144 12093 2147 1 109.50000 418.400000
2145 12093 2146 1 109.50000 418.400000
2145 12093 2147 1 109.50000 418.400000
2146 12093 2147 1 109.50000 418.400000
2148 12094 7897 1 109.50000 418.400000
2148 12094 11357 1 109.50000 418.400000
2148 12094 11538 1 109.50000 418.400000
7897 12094 11357 1 109.50000 418.400000
7897 12094 11538 1 109.50000 418.400000
11357 12094 11538 1 109.50000 418.400000
1625 12095 2149 1 109.50000 418.400000
1625 12095 2150 1 109.50000 418.400000
1625 12095 2151 1 109.50000 418.400000
2149 12095 2150 1 109.50000 418.400000
2149 12095 2151 1 109.50000 418.400000
2150 12095 2151 1 109.50000 418.400000
2152 12096 2153 1 109.50000 418.400000
2152 12096 2154 1 109.50000 418.400000
2152 12096 2155 1 109.50000 418.400000
2153 12096 2154 1 109.50000 418.400000
2153 12096 2155 1 109.50000 418.400000
2154 12096 2155 1 109.50000 418.400000
927 12097 2156 1 109.50000 418.400000
927 12097 2157 1 109.50000 418.400000
927 12097 2158 1 109.50000 418.400000
2156 12097 2157 1 109.50000 418.400000
2156 12097 2158 1 109.50000 418.400000
2157 12097 2158 1 109.50000 418.400000
1566 12098 2159 1 109.50000 418.400000
1566 12098 2160 1 109.50000 418.400000
1566 12098 11444 1 109.50000 418.400000
2159 12098 2160 1 109.50000 418.400000
2159 12098 11444 1 109.50000 418.400000
2160 12098 11444 1 109.50000 418.400000
2161 12099 2162 1 109.50000 418.400000
2161 12099 2164 1 109.50000 418.400000
2161 12099 11153 1 109.50000 418.400000
2162 12099 2164 1 109.50000 418.400000
2162 12099 11153 1 109.50000 418.400000
2164 12099 11153 1 109.50000 418.400000
2167 12100 2168 1 109.50000 418.400000
2167 12100 2169 1 109.50000 418.400000
2167 12100 2170 1 109.50000 418.400000
2168 12100 2169 1 109.50000 418.400000
2168 12100 2170 1 109.50000 418.400000
2169 12100 2170 1 109.50000 418.400000
2171 12101 2172 1 109.50000 418.400000
2171 12101 2173 1 109.50000 418.400000
2171 12101 2174 1 109.50000 418.400000
2172 12101 2173 1 109.50000 418.400000
2172 12101 2174 1 109.50000 418.400000
2173 12101 2174 1 109.50000 418.400000
2175 12102 2177 1 109.50000 418.400000
2175 12102 2178 1 109.50000 418.400000
2175 12102 5138 1 109.50000 418.400000
2177 12102 2178 1 109.50000 418.400000
2177 12102 5138 1 109.50000 418.400000
2178 12102 5138 1 109.50000 418.400000
656 12103 2179 1 109.50000 418.400000
656 12103 2180 1 109.50000 418.400000
656 12103 9174 1 109.50000 418.400000
2179 12103 2180 1 109.50000 418.400000
2179 12103 9174 1 109.50000 418.400000
2180 12103 9174 1 109.50000 418.400000
2101 12104 2181 1 109.50000 418.400000
2101 12104 2182 1 109.50000 418.400000
2101 12104 2183 1 109.50000 418.400000
2181 12104 2182 1 109.50000 418.400000
2181 12104 2183 1 109.50000 418.400000
2182 12104 2183 1 109.50000 418.400000
2184 12105 2185 1 109.50000 418.400000
2184 12105 2186 1 109.50000 418.400000
2184 12105 2187 1 109.50000 418.400000
2185 12105 2186 1 109.50000 418.400000
2185 12105 2187 1 109.50000 418.400000
2186 12105 2187 1 109.50000 418.400000
2188 12106 2189 1 109.50000 418.400000
2188 12106 2190 1 109.50000 418.400000
2188 12106 2191 1 109.50000 418.400000
2189 12106 2190 1 109.50000 418.400000
2189 12106 2191 1 109.50000 418.400000
2190 12106 2191 1 109.50000 418.400000
2192 12107 2193 1 109.50000 418.400000
2192 12107 2195 1 109.50000 418.400000
2192 12107 10290 1 109.50000 418.400000
2193 12107 2195 1 109.50000 418.400000
2193 12107 10290 1 109.50000 418.400000
2195 12107 10290 1 109.50000 418.400000
2196 12108 2197 1 109.50000 418.400000
2196 12108 2198 1 109.50000 418.400000
2196 12108 2199 1 109.50000 418.400000
2197 12108 2198 1 109.50000 418.400000
2197 12108 2199 1 109.50000 418.400000
2198 12108 2199 1 109.50000 418.400000
2202 12109 2203 1 109.50000 418.400000
2202 12109 2204 1 109.50000 418.400000
2202 12109 2205 1 109.50000 418.400000
2203 12109 2204 1 109.50000 418.400000
2203 12109 2205 1 109.50000 418.400000
2204 12109 2205 1 109.50000 418.400000
1988 12110 2206 1 109.50000 418.400000
1988 12110 2207 1 109.50000 418.400000
1988 12110 2208 1 109.50000 418.400000
2206 12110 2207 1 109.50000 418.400000
2206 12110 2208 1 109.50000 418.400000
2207 12110 2208 1 109.50000 418.400000
1698 12111 2209 1 109.50000 418.400000
1698 12111 2210 1 109.50000 418.400000
1698 12111 2211 1 109.50000 418.400000
2209 12111 2210 1 109.50000 418.400000
2209 12111 2211 1 109.50000 418.400000
2210 12111 2211 1 109.50000 418.400000
2212 12112 2213 1 109.50000 418.400000
2212 12112 2214 1 109.50000 418.400000
2212 12112 2215 1 109.50000 418.400000
2213 12112 2214 1 109.50000 418.400000
2213 12112 2215 1 109.50000 418.400000
2214 12112 2215 1 109.50000 418.400000
450 12113 2216 1 109.50000 418.400000
450 12113 2217 1 109.50000 418.400000
450 12113 11144 1 109.50000 418.400000
2216 12113 2217 1 109.50000 418.400000
2216 12113 11144 1 109.50000 418.400000
2217 12113 11144 1 109.50000 418.400000
2218 12114 2219 1 109.50000 418.400000
2218 12114 2220 1 109.50000 418.400000
2218 12114 2221 1 109.50000 418.400000
2219 12114 2220 1 109.50000 418.400000
2219 12114 2221 1 109.50000 418.400000
2220 12114 2221 1 109.50000 418.400000
2222 12115 2223 1 109.50000 418.400000
2222 12115 2224 1 109.50000 418.400000
2222 12115 2225 1 109.50000 418.400000
2223 12115 2224 1 109.50000 418.400000
2223 12115 2225 1 109.50000 418.400000
2224 12115 2225 1 109.50000 418.400000
2226 12116 2227 1 109.50000 418.400000
2226 12116 2228 1 109.50000 418.400000
2226 12116 2229 1 109.50000 418.400000
2227 12116 2228 1 109.50000 418.400000
2227 12116 2229 1 109.50000 418.400000
2228 12116 2229 1 109.50000 418.400000
2208 12117 2230 1 109.50000 418.400000
2208 12117 2231 1 109.50000 418.400000
2208 12117 2232 1 109.50000 418.400000
2230 12117 2231 1 109.50000 418.400000
2230 12117 2232 1 109.50000 418.400000
2231 12117 2232 1 109.50000 418.400000
2233 12118 2234 1 109.50000 418.400000
2233 12118 11138 1 109.50000 418.400000
2233 12118 11503 1 109.50000 418.400000
2234 12118 11138 1 109.50000 418.400000
2234 12118 11503 1 109.50000 418.400000
11138 12118 11503 1 109.50000 418.400000
2235 12119 2236 1 109.50000 418.400000
2235 12119 2237 1 109.50000 418.400000
2235 12119 2238 1 109.50000 418.400000
2236 12119 2237 1 109.50000 418.400000
2236 12119 2238 1 109.50000 418.400000
2237 12119 2238 1 109.50000 418.400000
1654 12120 2239 1 109.50000 418.400000
1654 12120 2240 1 109.50000 418.400000
1654 12120 2241 1 109.50000 418.400000
2239 12120 2240 1 109.50000 418.400000
2239 12120 2241 1 109.50000 418.400000
2240 12120 2241 1 109.50000 418.400000
2242 12121 2243 1 109.50000 418.400000
2242 12121 2244 1 109.50000 418.400000
2242 12121 2245 1 109.50000 418.400000
2243 12121 2244 1 109.50000 418.400000
2243 12121 2245 1 109.50000 418.400000
2244 12121 2245 1 109.50000 418.400000
2246 12122 2247 1 109.50000 418.400000
2246 12122 2248 1 109.50000 418.400000
2246 12122 2249 1 109.50000 418.400000
2247 12122 2248 1 109.50000 418.400000
2247 12122 2249 1 109.50000 418.400000
2248 12122 2249 1 109.50000 418.400000
1501 12123 2250 1 109.50000 418.400000
1501 12123 2251 1 109.50000 418.400000
1501 12123 2252 1 109.50000 418.400000
2250 12123 2251 1 109.50000 418.400000
2250 12123 2252 1 109.50000 418.400000
2251 12123 2252 1 109.50000 418.400000
2253 12124 2254 1 109.50000 418.400000
2253 12124 2255 1 109.50000 418.400000
2253 12124 2256 1 109.50000 418.400000
2254 12124 2255 1 109.50000 418.400000
2254 12124 2256 1 109.50000 418.400000
2255 12124 2256 1 109.50000 418.400000
2257 12125 2258 1 109.50000 418.400000
2257 12125 2259 1 109.50000 418.400000
2257 12125 2260 1 109.50000 418.400000
2258 12125 2259 1 109.50000 418.400000
2258 12125 2260 1 109.50000 418.400000
2259 12125 2260 1 109.50000 418.400000
2261 12126 2262 1 109.50000 418.400000
2261 12126 2263 1 109.50000 418.400000
2261 12126 2264 1 109.50000 418.400000
2262 12126 2263 1 109.50000 418.400000
2262 12126 2264 1 109.50000 418.400000
2263 12126 2264 1 109.50000 418.400000
2265 12127 2266 1 109.50000 418.400000
2265 12127 2267 1 109.50000 418.400000
2265 12127 2268 1 109.50000 418.400000
2266 12127 2267 1 109.50000 418.400000
2266 12127 2268 1 109.50000 418.400000
2267 12127 2268 1 109.50000 418.400000
2270 12128 2271 1 109.50000 418.400000
2270 12128 2272 1 109.50000 418.400000
2270 12128 10917 1 109.50000 418.400000
2271 12128 2272 1 109.50000 418.400000
2271 12128 10917 1 109.50000 418.400000
2272 12128 10917 1 109.50000 418.400000
2070 12129 2273 1 109.50000 418.400000
2070 12129 2274 1 109.50000 418.400000
2070 12129 2275 1 109.50000 418.400000
2273 12129 2274 1 109.50000 418.400000
2273 12129 2275 1 109.50000 418.400000
2274 12129 2275 1 109.50000 418.400000
2276 12130 2277 1 109.50000 418.400000
2276 12130 2278 1 109.50000 418.400000
2276 12130 2279 1 109.50000 418.400000
2277 12130 2278 1 109.50000 418.400000
2277 12130 2279 1 109.50000 418.400000
2278 12130 2279 1 109.50000 418.400000
2280 12131 2281 1 109.50000 418.400000
2280 12131 2282 1 109.50000 418.400000
2280 12131 2283 1 109.50000 418.400000
2281 12131 2282 1 109.50000 418.400000
2281 12131 2283 1 109.50000 418.400000
2282 12131 2283 1 109.50000 418.400000
2284 12132 2285 1 109.50000 418.400000
2284 12132 2286 1 109.50000 418.400000
2284 12132 2287 1 109.50000 418.400000
2285 12132 2286 1 109.50000 418.400000
2285 12132 2287 1 109.50000 418.400000
2286 12132 2287 1 109.50000 418.400000
1158 12133 2288 1 109.50000 418.400000
1158 12133 2289 1 109.50000 418.400000
1158 12133 2290 1 109.50000 418.400000
2288 12133 2289 1 109.50000 418.400000
2288 12133 2290 1 109.50000 418.400000
2289 12133 2290 1 109.50000 418.400000
2291 12134 2292 1 109.50000 418.400000
2291 12134 2293 1 109.50000 418.400000
2291 12134 2294 1 109.50000 418.400000
2292 12134 2293 1 109.50000 418.400000
2292 12134 2294 1 109.50000 418.400000
2293 12134 2294 1 109.50000 418.400000
377 12135 1381 1 109.50000 418.400000
377 12135 2295 1 109.50000 418.400000
377 12135 11361 1 109.50000 418.400000
1381 12135 2295 1 109.50000 418.400000
1381 12135 11361 1 109.50000 418.400000
2295 12135 11361 1 109.50000 418.400000
2296 12136 2297 1 109.50000 418.400000
2296 12136 2298 1 109.50000 418.400000
2296 12136 11344 1 109.50000 418.400000
2297 12136 2298 1 109.50000 418.400000
2297 12136 11344 1 109.50000 418.400000
2298 12136 11344 1 109.50000 418.400000
2300 12137 2301 1 109.50000 418.400000
2300 12137 2302 1 109.50000 418.400000
2300 12137 2303 1 109.50000 418.400000
2301 12137 2302 1 109.50000 418.400000
2301 12137 2303 1 109.50000 418.400000
2302 12137 2303 1 109.50000 418.400000
142 12138 696 1 109.50000 418.400000
142 12138 2304 1 109.50000 418.400000
142 12138 11281 1 109.50000 418.400000
696 12138 2304 1 109.50000 418.400000
696 12138 11281 1 109.50000 418.400000
2304 12138 11281 1 109.50000 418.400000
2305 12139 2306 1 109.50000 418.400000
2305 12139 2307 1 109.50000 418.400000
2305 12139 2308 1 109.50000 418.400000
2306 12139 2307 1 109.50000 418.400000
2306 12139 2308 1 109.50000 418.400000
2307 12139 2308 1 109.50000 418.400000
2309 12140 2310 1 109.50000 418.400000
2309 12140 2311 1 109.50000 418.400000
2309 12140 2312 1 109.50000 418.400000
2310 12140 2311 1 109.50000 418.400000
2310 12140 2312 1 109.50000 418.400000
2311 12140 2312 1 109.50000 418.400000
2313 12141 2314 1 109.50000 418.400000
2313 12141 2315 1 109.50000 418.400000
2313 12141 2316 1 109.50000 418.400000
2314 12141 2315 1 109.50000 418.400000
2314 12141 2316 1 109.50000 418.400000
2315 12141 2316 1 109.50000 418.400000
2317 12142 2318 1 109.50000 418.400000
2317 12142 2319 1 109.50000 418.400000
2317 12142 2320 1 109.50000 418.400000
2318 12142 2319 1 109.50000 418.400000
2318 12142 2320 1 109.50000 418.400000
2319 12142 2320 1 109.50000 418.400000
320 12143 1044 1 109.50000 418.400000
320 12143 11164 1 109.50000 418.400000
320 12143 11370 1 109.50000 418.400000
1044 12143 11164 1 109.50000 418.400000
1044 12143 11370 1 109.50000 418.400000
11164 12143 11370 1 109.50000 418.400000
1548 12144 2321 1 109.50000 418.400000
1548 12144 2322 1 109.50000 418.400000
1548 12144 2323 1 109.50000 418.400000
2321 12144 2322 1 109.50000 418.400000
2321 12144 2323 1 109.50000 418.400000
2322 12144 2323 1 109.50000 418.400000
2326 12145 2327 1 109.50000 418.400000
2326 12145 2328 1 109.50000 418.400000
2326 12145 2329 1 109.50000 418.400000
2327 12145 2328 1 109.50000 418.400000
2327 12145 2329 1 109.50000 418.400000
2328 12145 2329 1 109.50000 418.400000
581 12146 2330 1 109.50000 418.400000
581 12146 2331 1 109.50000 418.400000
581 12146 5410 1 109.50000 418.400000
2330 12146 2331 1 109.50000 418.400000
2330 12146 5410 1 109.50000 418.400000
2331 12146 5410 1 109.50000 418.400000
2333 12147 2334 1 109.50000 418.400000
2333 12147 2335 1 109.50000 418.400000
2333 12147 2336 1 109.50000 418.400000
2334 12147 2335 1 109.50000 418.400000
2334 12147 2336 1 109.50000 418.400000
2335 12147 2336 1 109.50000 418.400000
2338 12148 2340 1 109.50000 418.400000
2338 12148 6853 1 109.50000 418.400000
2338 12148 10496 1 109.50000 418.400000
2340 12148 6853 1 109.50000 418.400000
2340 12148 10496 1 109.50000 418.400000
6853 12148 10496 1 109.50000 418.400000
1128 12149 2341 1 109.50000 418.400000
1128 12149 2343 1 109.50000 418.400000
1128 12149 4533 1 109.50000 418.400000
2341 12149 2343 1 109.50000 418.400000
2341 12149 4533 1 109.50000 418.400000
2343 12149 4533 1 109.50000 418.400000
2344 12150 2345 1 109.50000 418.400000
2344 12150 2346 1 109.50000 418.400000
2344 12150 2347 1 109.50000 418.400000
2345 12150 2346 1 109.50000 418.400000
2345 12150 2347 1 109.50000 418.400000
2346 12150 2347 1 109.50000 418.400000
2133 12151 2348 1 109.50000 418.400000
2133 12151 2349 1 109.50000 418.400000
2133 12151 9098 1 109.50000 418.400000
2348 12151 2349 1 109.50000 418.400000
2348 12151 9098 1 109.50000 418.400000
2349 12151 9098 1 109.50000 418.400000
1930 12152 2350 1 109.50000 418.400000
1930 12152 2351 1 109.50000 418.400000
1930 12152 2353 1 109.50000 418.400000
2350 12152 2351 1 109.50000 418.400000
2350 12152 2353 1 109.50000 418.400000
2351 12152 2353 1 109.50000 418.400000
2354 12153 2355 1 109.50000 418.400000
2354 12153 2356 1 109.50000 418.400000
2354 12153 2357 1 109.50000 418.400000
2355 12153 2356 1 109.50000 418.400000
2355 12153 2357 1 109.50000 418.400000
2356 12153 2357 1 109.50000 418.400000
2358 12154 2359 1 109.50000 418.400000
2358 12154 2360 1 109.50000 418.400000
2358 12154 2361 1 109.50000 418.400000
2359 12154 2360 1 109.50000 418.400000
2359 12154 2361 1 109.50000 418.400000
2360 12154 2361 1 109.50000 418.400000
2362 12155 2363 1 109.50000 418.400000
2362 12155 2364 1 109.50000 418.400000
2362 12155 2365 1 109.50000 418.400000
2363 12155 2364 1 109.50000 418.400000
2363 12155 2365 1 109.50000 418.400000
2364 12155 2365 1 109.50000 418.400000
2366 12156 2367 1 109.50000 418.400000
2366 12156 2368 1 109.50000 418.400000
2366 12156 2369 1 109.50000 418.400000
2367 12156 2368 1 109.50000 418.400000
2367 12156 2369 1 109.50000 418.400000
2368 12156 2369 1 109.50000 418.400000
2370 12157 2371 1 109.50000 418.400000
2370 12157 2372 1 109.50000 418.400000
2370 12157 2373 1 109.50000 418.400000
2371 12157 2372 1 109.50000 418.400000
2371 12157 2373 1 109.50000 418.400000
2372 12157 2373 1 109.50000 418.400000
2374 12158 2375 1 109.50000 418.400000
2374 12158 2376 1 109.50000 418.400000
2374 12158 2377 1 109.50000 418.400000
2375 12158 2376 1 109.50000 418.400000
2375 12158 2377 1 109.50000 418.400000
2376 12158 2377 1 109.50000 418.400000
2378 12159 2379 1 109.50000 418.400000
2378 12159 2380 1 109.50000 418.400000
2378 12159 2381 1 109.50000 418.400000
2379 12159 2380 1 109.50000 418.400000
2379 12159 2381 1 109.50000 418.400000
2380 12159 2381 1 109.50000 418.400000
2382 12160 2383 1 109.50000 418.400000
2382 12160 2384 1 109.50000 418.400000
2382 12160 2385 1 109.50000 418.400000
2383 12160 2384 1 109.50000 418.400000
2383 12160 2385 1 109.50000 418.400000
2384 12160 2385 1 109.50000 418.400000
2386 12161 2387 1 109.50000 418.400000
2386 12161 2388 1 109.50000 418.400000
2386 12161 2389 1 109.50000 418.400000
2387 12161 2388 1 109.50000 418.400000
2387 12161 2389 1 109.50000 418.400000
2388 12161 2389 1 109.50000 418.400000
2390 12162 2391 1 109.50000 418.400000
2390 12162 2392 1 109.50000 418.400000
2390 12162 2393 1 109.50000 418.400000
2391 12162 2392 1 109.50000 418.400000
2391 12162 2393 1 109.50000 418.400000
2392 12162 2393 1 109.50000 418.400000
2378 12163 2394 1 109.50000 418.400000
2378 12163 2395 1 109.50000 418.400000
2378 12163 2396 1 109.50000 418.400000
2394 12163 2395 1 109.50000 418.400000
2394 12163 2396 1 109.50000 418.400000
2395 12163 2396 1 109.50000 418.400000
2398 12164 2399 1 109.50000 418.400000
2398 12164 2400 1 109.50000 418.400000
2398 12164 4067 1 109.50000 418.400000
2399 12164 2400 1 109.50000 418.400000
2399 12164 4067 1 109.50000 418.400000
2400 12164 4067 1 109.50000 418.400000
2402 12165 2403 1 109.50000 418.400000
2402 12165 2404 1 109.50000 418.400000
2402 12165 2405 1 109.50000 418.400000
2403 12165 2404 1 109.50000 418.400000
2403 12165 2405 1 109.50000 418.400000
2404 12165 2405 1 109.50000 418.400000
2406 12166 2407 1 109.50000 418.400000
2406 12166 2408 1 109.50000 418.400000
2406 12166 2409 1 109.50000 418.400000
2407 12166 2408 1 109.50000 418.400000
2407 12166 2409 1 109.50000 418.400000
2408 12166 2409 1 109.50000 418.400000
487 12167 2410 1 109.50000 418.400000
487 12167 2411 1 109.50000 418.400000
487 12167 2412 1 109.50000 418.400000
2410 12167 2411 1 109.50000 418.400000
2410 12167 2412 1 109.50000 418.400000
2411 12167 2412 1 109.50000 418.400000
2413 12168 2414 1 109.50000 418.400000
2413 12168 2415 1 109.50000 418.400000
2413 12168 2416 1 109.50000 418.400000
2414 12168 2415 1 109.50000 418.400000
2414 12168 2416 1 109.50000 418.400000
2415 12168 2416 1 109.50000 418.400000
2417 12169 2418 1 109.50000 418.400000
2417 12169 2419 1 109.50000 418.400000
2417 12169 2420 1 109.50000 418.400000
2418 12169 2419 1 109.50000 418.400000
2418 12169 2420 1 109.50000 418.400000
2419 12169 2420 1 109.50000 418.400000
2421 12170 2422 1 109.50000 418.400000
2421 12170 2423 1 109.50000 418.400000
2421 12170 2424 1 109.50000 418.400000
2422 12170 2423 1 109.50000 418.400000
2422 12170 2424 1 109.50000 418.400000
2423 12170 2424 1 109.50000 418.400000
2425 12171 2426 1 109.50000 418.400000
2425 12171 2427 1 109.50000 418.400000
2425 12171 2428 1 109.50000 418.400000
2426 12171 2427 1 109.50000 418.400000
2426 12171 2428 1 109.50000 418.400000
2427 12171 2428 1 109.50000 418.400000
1022 12172 2429 1 109.50000 418.400000
1022 12172 2430 1 109.50000 418.400000
1022 12172 11465 1 109.50000 418.400000
2429 12172 2430 1 109.50000 418.400000
2429 12172 11465 1 109.50000 418.400000
2430 12172 11465 1 109.50000 418.400000
260 12173 2431 1 109.50000 418.400000
260 12173 2433 1 109.50000 418.400000
260 12173 11534 1 109.50000 418.400000
2431 12173 2433 1 109.50000 418.400000
2431 12173 11534 1 109.50000 418.400000
2433 12173 11534 1 109.50000 418.400000
2434 12174 2435 1 109.50000 418.400000
2434 12174 2436 1 109.50000 418.400000
2434 12174 2437 1 109.50000 418.400000
2435 12174 2436 1 109.50000 418.400000
2435 12174 2437 1 109.50000 418.400000
2436 12174 2437 1 109.50000 418.400000
2438 12175 2439 1 109.50000 418.400000
2438 12175 2440 1 109.50000 418.400000
2438 12175 2441 1 109.50000 418.400000
2439 12175 2440 1 109.50000 418.400000
2439 12175 2441 1 109.50000 418.400000
2440 12175 2441 1 109.50000 418.400000
2442 12176 2443 1 109.50000 418.400000
2442 12176 2444 1 109.50000 418.400000
2442 12176 2445 1 109.50000 418.400000
2443 12176 2444 1 109.50000 418.400000
2443 12176 2445 1 109.50000 418.400000
2444 12176 2445 1 109.50000 418.400000
2446 12177 2447 1 109.50000 418.400000
2446 12177 2448 1 109.50000 418.400000
2446 12177 2449 1 109.50000 418.400000
2447 12177 2448 1 109.50000 418.400000
2447 12177 2449 1 109.50000 418.400000
2448 12177 2449 1 109.50000 418.400000
1576 12178 2453 1 109.50000 418.400000
1576 12178 2454 1 109.50000 418.400000
1576 12178 2455 1 109.50000 418.400000
2453 12178 2454 1 109.50000 418.400000
2453 12178 2455 1 109.50000 418.400000
2454 12178 2455 1 109.50000 418.400000
2456 12179 2457 1 109.50000 418.400000
2456 12179 11222 1 109.50000 418.400000
2456 12179 11350 1 109.50000 418.400000
2457 12179 11222 1 109.50000 418.400000
2457 12179 11350 1 109.50000 418.400000
11222 12179 11350 1 109.50000 418.400000
2458 12180 2459 1 109.50000 418.400000
2458 12180 2460 1 109.50000 418.400000
2458 12180 2461 1 109.50000 418.400000
2459 12180 2460 1 109.50000 418.400000
2459 12180 2461 1 109.50000 418.400000
2460 12180 2461 1 109.50000 418.400000
2464 12181 2465 1 109.50000 418.400000
2464 12181 2466 1 109.50000 418.400000
2464 12181 2467 1 109.50000 418.400000
2465 12181 2466 1 109.50000 418.400000
2465 12181 2467 1 109.50000 418.400000
2466 12181 2467 1 109.50000 418.400000
2468 12182 2469 1 109.50000 418.400000
2468 12182 2470 1 109.50000 418.400000
2468 12182 2471 1 109.50000 418.400000
2469 12182 2470 1 109.50000 418.400000
2469 12182 2471 1 109.50000 418.400000
2470 12182 2471 1 109.50000 418.400000
2472 12183 2473 1 109.50000 418.400000
2472 12183 2474 1 109.50000 418.400000
2472 12183 2475 1 109.50000 418.400000
2473 12183 2474 1 109.50000 418.400000
2473 12183 2475 1 109.50000 418.400000
2474 12183 2475 1 109.50000 418.400000
2476 12184 2477 1 109.50000 418.400000
2476 12184 2478 1 109.50000 418.400000
2476 12184 10206 1 109.50000 418.400000
2477 12184 2478 1 109.50000 418.400000
2477 12184 10206 1 109.50000 418.400000
2478 12184 10206 1 109.50000 418.400000
280 12185 2480 1 109.50000 418.400000
280 12185 2481 1 109.50000 418.400000
280 12185 2482 1 109.50000 418.400000
2480 12185 2481 1 109.50000 418.400000
2480 12185 2482 1 109.50000 418.400000
2481 12185 2482 1 109.50000 418.400000
2486 12186 2487 1 109.50000 418.400000
2486 12186 2488 1 109.50000 418.400000
2486 12186 2489 1 109.50000 418.400000
2487 12186 2488 1 109.50000 418.400000
2487 12186 2489 1 109.50000 418.400000
2488 12186 2489 1 109.50000 418.400000
2493 12187 2494 1 109.50000 418.400000
2493 12187 2495 1 109.50000 418.400000
2493 12187 11495 1 109.50000 418.400000
2494 12187 2495 1 109.50000 418.400000
2494 12187 11495 1 109.50000 418.400000
2495 12187 11495 1 109.50000 418.400000
2496 12188 2497 1 109.50000 418.400000
2496 12188 2498 1 109.50000 418.400000
2496 12188 2499 1 109.50000 418.400000
2497 12188 2498 1 109.50000 418.400000
2497 12188 2499 1 109.50000 418.400000
2498 12188 2499 1 109.50000 418.400000
2500 12189 2501 1 109.50000 418.400000
2500 12189 11181 1 109.50000 418.400000
2500 12189 11417 1 109.50000 418.400000
2501 12189 11181 1 109.50000 418.400000
2501 12189 11417 1 109.50000 418.400000
11181 12189 11417 1 109.50000 418.400000
1324 12190 2502 1 109.50000 418.400000
1324 12190 2503 1 109.50000 418.400000
1324 12190 2504 1 109.50000 418.400000
2502 12190 2503 1 109.50000 418.400000
2502 12190 2504 1 109.50000 418.400000
2503 12190 2504 1 109.50000 418.400000
2508 12191 2509 1 109.50000 418.400000
2508 12191 2510 1 109.50000 418.400000
2508 12191 2511 1 109.50000 418.400000
2509 12191 2510 1 109.50000 418.400000
2509 12191 2511 1 109.50000 418.400000
2510 12191 2511 1 109.50000 418.400000
2512 12192 2513 1 109.50000 418.400000
2512 12192 2514 1 109.50000 418.400000
2512 12192 2515 1 109.50000 418.400000
2513 12192 2514 1 109.50000 418.400000
2513 12192 2515 1 109.50000 418.400000
2514 12192 2515 1 109.50000 418.400000
2516 12193 2517 1 109.50000 418.400000
2516 12193 2518 1 109.50000 418.400000
2516 12193 2519 1 109.50000 418.400000
2517 12193 2518 1 109.50000 418.400000
2517 12193 2519 1 109.50000 418.400000
2518 12193 2519 1 109.50000 418.400000
2520 12194 2521 1 109.50000 418.400000
2520 12194 2522 1 109.50000 418.400000
2520 12194 2523 1 109.50000 418.400000
2521 12194 2522 1 109.50000 418.400000
2521 12194 2523 1 109.50000 418.400000
2522 12194 2523 1 109.50000 418.400000
2524 12195 2525 1 109.50000 418.400000
2524 12195 2526 1 109.50000 418.400000
2524 12195 2527 1 109.50000 418.400000
2525 12195 2526 1 109.50000 418.400000
2525 12195 2527 1 109.50000 418.400000
2526 12195 2527 1 109.50000 418.400000
2528 12196 2529 1 109.50000 418.400000
2528 12196 2530 1 109.50000 418.400000
2528 12196 2531 1 109.50000 418.400000
2529 12196 2530 1 109.50000 418.400000
2529 12196 2531 1 109.50000 418.400000
2530 12196 2531 1 109.50000 418.400000
2532 12197 2533 1 109.50000 418.400000
2532 12197 2534 1 109.50000 418.400000
2532 12197 2535 1 109.50000 418.400000
2533 12197 2534 1 109.50000 418.400000
2533 12197 2535 1 109.50000 418.400000
2534 12197 2535 1 109.50000 418.400000
2468 12198 2536 1 109.50000 418.400000
2468 12198 2537 1 109.50000 418.400000
2468 12198 2538 1 109.50000 418.400000
2536 12198 2537 1 109.50000 418.400000
2536 12198 2538 1 109.50000 418.400000
2537 12198 2538 1 109.50000 418.400000
2328 12199 2539 1 109.50000 418.400000
2328 12199 2540 1 109.50000 418.400000
2328 12199 2541 1 109.50000 418.400000
2539 12199 2540 1 109.50000 418.400000
2539 12199 2541 1 109.50000 418.400000
2540 12199 2541 1 109.50000 418.400000
230 12200 2542 1 109.50000 418.400000
230 12200 2543 1 109.50000 418.400000
230 12200 2544 1 109.50000 418.400000
2542 12200 2543 1 109.50000 418.400000
2542 12200 2544 1 109.50000 418.400000
2543 12200 2544 1 109.50000 418.400000
2545 12201 2546 1 109.50000 418.400000
2545 12201 2547 1 109.50000 418.400000
2545 12201 2548 1 109.50000 418.400000
2546 12201 2547 1 109.50000 418.400000
2546 12201 2548 1 109.50000 418.400000
2547 12201 2548 1 109.50000 418.400000
2549 12202 2550 1 109.50000 418.400000
2549 12202 2551 1 109.50000 418.400000
2549 12202 2552 1 109.50000 418.400000
2550 12202 2551 1 109.50000 418.400000
2550 12202 2552 1 109.50000 418.400000
2551 12202 2552 1 109.50000 418.400000
2553 12203 2554 1 109.50000 418.400000
2553 12203 2555 1 109.50000 418.400000
2553 12203 2556 1 109.50000 418.400000
2554 12203 2555 1 109.50000 418.400000
2554 12203 2556 1 109.50000 418.400000
2555 12203 2556 1 109.50000 418.400000
1964 12204 2561 1 109.50000 418.400000
1964 12204 2562 1 109.50000 418.400000
1964 12204 2563 1 109.50000 418.400000
2561 12204 2562 1 109.50000 418.400000
2561 12204 2563 1 109.50000 418.400000
2562 12204 2563 1 109.50000 418.400000
690 12205 2564 1 109.50000 418.400000
690 12205 2565 1 109.50000 418.400000
690 12205 2566 1 109.50000 418.400000
2564 12205 2565 1 109.50000 418.400000
2564 12205 2566 1 109.50000 418.400000
2565 12205 2566 1 109.50000 418.400000
2567 12206 2568 1 109.50000 418.400000
2567 12206 2569 1 109.50000 418.400000
2567 12206 2570 1 109.50000 418.400000
2568 12206 2569 1 109.50000 418.400000
2568 12206 2570 1 109.50000 418.400000
2569 12206 2570 1 109.50000 418.400000
2400 12207 2571 1 109.50000 418.400000
2400 12207 2572 1 109.50000 418.400000
2400 12207 3759 1 109.50000 418.400000
2571 12207 2572 1 109.50000 418.400000
2571 12207 3759 1 109.50000 418.400000
2572 12207 3759 1 109.50000 418.400000
2574 12208 2575 1 109.50000 418.400000
2574 12208 2576 1 109.50000 418.400000
2574 12208 2577 1 109.50000 418.400000
2575 12208 2576 1 109.50000 418.400000
2575 12208 2577 1 109.50000 418.400000
2576 12208 2577 1 109.50000 418.400000
1898 12209 2578 1 109.50000 418.400000
1898 12209 2579 1 109.50000 418.400000
1898 12209 2580 1 109.50000 418.400000
2578 12209 2579 1 109.50000 418.400000
2578 12209 2580 1 109.50000 418.400000
2579 12209 2580 1 109.50000 418.400000
1325 12210 2581 1 109.50000 418.400000
1325 12210 2582 1 109.50000 418.400000
1325 12210 11233 1 109.50000 418.400000
2581 12210 2582 1 109.50000 418.400000
2581 12210 11233 1 109.50000 418.400000
2582 12210 11233 1 109.50000 418.400000
2584 12211 2585 1 109.50000 418.400000
2584 12211 2586 1 109.50000 418.400000
2584 12211 6496 1 109.50000 418.400000
2585 12211 2586 1 109.50000 418.400000
2585 12211 6496 1 109.50000 418.400000
2586 12211 6496 1 109.50000 418.400000
2587 12212 2588 1 109.50000 418.400000
2587 12212 11211 1 109.50000 418.400000
2587 12212 11248 1 109.50000 418.400000
2588 12212 11211 1 109.50000 418.400000
2588 12212 11248 1 109.50000 418.400000
11211 12212 11248 1 109.50000 418.400000
2589 12213 2590 1 109.50000 418.400000
2589 12213 2591 1 109.50000 418.400000
2589 12213 11267 1 109.50000 418.400000
2590 12213 2591 1 109.50000 418.400000
2590 12213 11267 1 109.50000 418.400000
2591 12213 11267 1 109.50000 418.400000
847 12214 2592 1 109.50000 418.400000
847 12214 2593 1 109.50000 418.400000
847 12214 2594 1 109.50000 418.400000
2592 12214 2593 1 109.50000 418.400000
2592 12214 2594 1 109.50000 418.400000
2593 12214 2594 1 109.50000 418.400000
628 12215 2595 1 109.50000 418.400000
628 12215 2596 1 109.50000 418.400000
628 12215 2597 1 109.50000 418.400000
2595 12215 2596 1 109.50000 418.400000
2595 12215 2597 1 109.50000 418.400000
2596 12215 2597 1 109.50000 418.400000
2598 12216 2599 1 109.50000 418.400000
2598 12216 2600 1 109.50000 418.400000
2598 12216 2601 1 109.50000 418.400000
2599 12216 2600 1 109.50000 418.400000
2599 12216 2601 1 109.50000 418.400000
2600 12216 2601 1 109.50000 418.400000
895 12217 2602 1 109.50000 418.400000
895 12217 2603 1 109.50000 418.400000
895 12217 11381 1 109.50000 418.400000
2602 12217 2603 1 109.50000 418.400000
2602 12217 11381 1 109.50000 418.400000
2603 12217 11381 1 109.50000 418.400000
2604 12218 2989 1 109.50000 418.400000
2604 12218 2990 1 109.50000 418.400000
2604 12218 9329 1 109.50000 418.400000
2989 12218 2990 1 109.50000 418.400000
2989 12218 9329 1 109.50000 418.400000
2990 12218 9329 1 109.50000 418.400000
2606 12219 2608 1 109.50000 418.400000
2606 12219 2609 1 109.50000 418.400000
2606 12219 9020 1 109.50000 418.400000
2608 12219 2609 1 109.50000 418.400000
2608 12219 9020 1 109.50000 418.400000
2609 12219 9020 1 109.50000 418.400000
2610 12220 2611 1 109.50000 418.400000
2610 12220 2612 1 109.50000 418.400000
2610 12220 7265 1 109.50000 418.400000
2611 12220 2612 1 109.50000 418.400000
2611 12220 7265 1 109.50000 418.400000
2612 12220 7265 1 109.50000 418.400000
1298 12221 2613 1 109.50000 418.400000
1298 12221 2614 1 109.50000 418.400000
1298 12221 2615 1 109.50000 418.400000
2613 12221 2614 1 109.50000 418.400000
2613 12221 2615 1 109.50000 418.400000
2614 12221 2615 1 109.50000 418.400000
1313 12222 2616 1 109.50000 418.400000
1313 12222 2617 1 109.50000 418.400000
1313 12222 2618 1 109.50000 418.400000
2616 12222 2617 1 109.50000 418.400000
2616 12222 2618 1 109.50000 418.400000
2617 12222 2618 1 109.50000 418.400000
2619 12223 2620 1 109.50000 418.400000
2619 12223 2621 1 109.50000 418.400000
2619 12223 2622 1 109.50000 418.400000
2620 12223 2621 1 109.50000 418.400000
2620 12223 2622 1 109.50000 418.400000
2621 12223 2622 1 109.50000 418.400000
2626 12224 2627 1 109.50000 418.400000
2626 12224 2628 1 109.50000 418.400000
2626 12224 6785 1 109.50000 418.400000
2627 12224 2628 1 109.50000 418.400000
2627 12224 6785 1 109.50000 418.400000
2628 12224 6785 1 109.50000 418.400000
2496 12225 2629 1 109.50000 418.400000
2496 12225 2630 1 109.50000 418.400000
2496 12225 2631 1 109.50000 418.400000
2629 12225 2630 1 109.50000 418.400000
2629 12225 2631 1 109.50000 418.400000
2630 12225 2631 1 109.50000 418.400000
2632 12226 2633 1 109.50000 418.400000
2632 12226 2634 1 109.50000 418.400000
2632 12226 2635 1 109.50000 418.400000
2633 12226 2634 1 109.50000 418.400000
2633 12226 2635 1 109.50000 418.400000
2634 12226 2635 1 109.50000 418.400000
2636 12227 2637 1 109.50000 418.400000
2636 12227 2638 1 109.50000 418.400000
2636 12227 2639 1 109.50000 418.400000
2637 12227 2638 1 109.50000 418.400000
2637 12227 2639 1 109.50000 418.400000
2638 12227 2639 1 109.50000 418.400000
2640 12228 2641 1 109.50000 418.400000
2640 12228 2642 1 109.50000 418.400000
2640 12228 2643 1 109.50000 418.400000
2641 12228 2642 1 109.50000 418.400000
2641 12228 2643 1 109.50000 418.400000
2642 12228 2643 1 109.50000 418.400000
1434 12229 2644 1 109.50000 418.400000
1434 12229 2645 1 109.50000 418.400000
1434 12229 2646 1 109.50000 418.400000
2644 12229 2645 1 109.50000 418.400000
2644 12229 2646 1 109.50000 418.400000
2645 12229 2646 1 109.50000 418.400000
2647 12230 2648 1 109.50000 418.400000
2647 12230 2650 1 109.50000 418.400000
2647 12230 11078 1 109.50000 418.400000
2648 12230 2650 1 109.50000 418.400000
2648 12230 11078 1 109.50000 418.400000
2650 12230 11078 1 109.50000 418.400000
2651 12231 2652 1 109.50000 418.400000
2651 12231 2653 1 109.50000 418.400000
2651 12231 11523 1 109.50000 418.400000
2652 12231 2653 1 109.50000 418.400000
2652 12231 11523 1 109.50000 418.400000
2653 12231 11523 1 109.50000 418.400000
2654 12232 2655 1 109.50000 418.400000
2654 12232 2656 1 109.50000 418.400000
2654 12232 2657 1 109.50000 418.400000
2655 12232 2656 1 109.50000 418.400000
2655 12232 2657 1 109.50000 418.400000
2656 12232 2657 1 109.50000 418.400000
875 12233 1005 1 109.50000 418.400000
875 12233 2658 1 109.50000 418.400000
875 12233 2659 1 109.50000 418.400000
1005 12233 2658 1 109.50000 418.400000
1005 12233 2659 1 109.50000 418.400000
2658 12233 2659 1 109.50000 418.400000
2660 12234 2661 1 109.50000 418.400000
2660 12234 2662 1 109.50000 418.400000
2660 12234 2663 1 109.50000 418.400000
2661 12234 2662 1 109.50000 418.400000
2661 12234 2663 1 109.50000 418.400000
2662 12234 2663 1 109.50000 418.400000
756 12235 1161 1 109.50000 418.400000
756 12235 2664 1 109.50000 418.400000
756 12235 2665 1 109.50000 418.400000
1161 12235 2664 1 109.50000 418.400000
1161 12235 2665 1 109.50000 418.400000
2664 12235 2665 1 109.50000 418.400000
695 12236 769 1 109.50000 418.400000
695 12236 2666 1 109.50000 418.400000
695 12236 2667 1 109.50000 418.400000
769 12236 2666 1 109.50000 418.400000
769 12236 2667 1 109.50000 418.400000
2666 12236 2667 1 109.50000 418.400000
2668 12237 2669 1 109.50000 418.400000
2668 12237 2670 1 109.50000 418.400000
2668 12237 2671 1 109.50000 418.400000
2669 12237 2670 1 109.50000 418.400000
2669 12237 2671 1 109.50000 418.400000
2670 12237 2671 1 109.50000 418.400000
2672 12238 2673 1 109.50000 418.400000
2672 12238 2674 1 109.50000 418.400000
2672 12238 2675 1 109.50000 418.400000
2673 12238 2674 1 109.50000 418.400000
2673 12238 2675 1 109.50000 418.400000
2674 12238 2675 1 109.50000 418.400000
2676 12239 2677 1 109.50000 418.400000
2676 12239 2678 1 109.50000 418.400000
2676 12239 2679 1 109.50000 418.400000
2677 12239 2678 1 109.50000 418.400000
2677 12239 2679 1 109.50000 418.400000
2678 12239 2679 1 109.50000 418.400000
2680 12240 2681 1 109.50000 418.400000
2680 12240 2682 1 109.50000 418.400000
2680 12240 3309 1 109.50000 418.400000
2681 12240 2682 1 109.50000 418.400000
2681 12240 3309 1 109.50000 418.400000
2682 12240 3309 1 109.50000 418.400000
2684 12241 2685 1 109.50000 418.400000
2684 12241 2686 1 109.50000 418.400000
2684 12241 2687 1 109.50000 418.400000
2685 12241 2686 1 109.50000 418.400000
2685 12241 2687 1 109.50000 418.400000
2686 12241 2687 1 109.50000 418.400000
2688 12242 2689 1 109.50000 418.400000
2688 12242 2690 1 109.50000 418.400000
2688 12242 2691 1 109.50000 418.400000
2689 12242 2690 1 109.50000 418.400000
2689 12242 2691 1 109.50000 418.400000
2690 12242 2691 1 109.50000 418.400000
2692 12243 2693 1 109.50000 418.400000
2692 12243 2694 1 109.50000 418.400000
2692 12243 2695 1 109.50000 418.400000
2693 12243 2694 1 109.50000 418.400000
2693 12243 2695 1 109.50000 418.400000
2694 12243 2695 1 109.50000 418.400000
2696 12244 2697 1 109.50000 418.400000
2696 12244 2698 1 109.50000 418.400000
2696 12244 11158 1 109.50000 418.400000
2697 12244 2698 1 109.50000 418.400000
2697 12244 11158 1 109.50000 418.400000
2698 12244 11158 1 109.50000 418.400000
2583 12245 2699 1 109.50000 418.400000
2583 12245 2700 1 109.50000 418.400000
2583 12245 2701 1 109.50000 418.400000
2699 12245 2700 1 109.50000 418.400000
2699 12245 2701 1 109.50000 418.400000
2700 12245 2701 1 109.50000 418.400000
2702 12246 2703 1 109.50000 418.400000
2702 12246 2704 1 109.50000 418.400000
2702 12246 2705 1 109.50000 418.400000
2703 12246 2704 1 109.50000 418.400000
2703 12246 2705 1 109.50000 418.400000
2704 12246 2705 1 109.50000 418.400000
2428 12247 2706 1 109.50000 418.400000
2428 12247 2707 1 109.50000 418.400000
2428 12247 2708 1 109.50000 418.400000
2706 12247 2707 1 109.50000 418.400000
2706 12247 2708 1 109.50000 418.400000
2707 12247 2708 1 109.50000 418.400000
2709 12248 2710 1 109.50000 418.400000
2709 12248 2711 1 109.50000 418.400000
2709 12248 2712 1 109.50000 418.400000
2710 12248 2711 1 109.50000 418.400000
2710 12248 2712 1 109.50000 418.400000
2711 12248 2712 1 109.50000 418.400000
2713 12249 2714 1 109.50000 418.400000
2713 12249 2715 1 109.50000 418.400000
2713 12249 2716 1 109.50000 418.400000
2714 12249 2715 1 109.50000 418.400000
2714 12249 2716 1 109.50000 418.400000
2715 12249 2716 1 109.50000 418.400000
2717 12250 2718 1 109.50000 418.400000
2717 12250 2719 1 109.50000 418.400000
2717 12250 2720 1 109.50000 418.400000
2718 12250 2719 1 109.50000 418.400000
2718 12250 2720 1 109.50000 418.400000
2719 12250 2720 1 109.50000 418.400000
2721 12251 2722 1 109.50000 418.400000
2721 12251 2723 1 109.50000 418.400000
2721 12251 2724 1 109.50000 418.400000
2722 12251 2723 1 109.50000 418.400000
2722 12251 2724 1 109.50000 418.400000
2723 12251 2724 1 109.50000 418.400000
2725 12252 2726 1 109.50000 418.400000
2725 12252 2727 1 109.50000 418.400000
2725 12252 2728 1 109.50000 418.400000
2726 12252 2727 1 109.50000 418.400000
2726 12252 2728 1 109.50000 418.400000
2727 12252 2728 1 109.50000 418.400000
828 12253 2732 1 109.50000 418.400000
828 12253 2733 1 109.50000 418.400000
828 12253 2734 1 109.50000 418.400000
2732 12253 2733 1 109.50000 418.400000
2732 12253 2734 1 109.50000 418.400000
2733 12253 2734 1 109.50000 418.400000
982 12254 2735 1 109.50000 418.400000
982 12254 2736 1 109.50000 418.400000
982 12254 2737 1 109.50000 418.400000
2735 12254 2736 1 109.50000 418.400000
2735 12254 2737 1 109.50000 418.400000
2736 12254 2737 1 109.50000 418.400000
2738 12255 2739 1 109.50000 418.400000
2738 12255 2740 1 109.50000 418.400000
2738 12255 2741 1 109.50000 418.400000
2739 12255 2740 1 109.50000 418.400000
2739 12255 2741 1 109.50000 418.400000
2740 12255 2741 1 109.50000 418.400000
2742 12256 2743 1 109.50000 418.400000
2742 12256 2744 1 109.50000 418.400000
2742 12256 2745 1 109.50000 418.400000
2743 12256 2744 1 109.50000 418.400000
2743 12256 2745 1 109.50000 418.400000
2744 12256 2745 1 109.50000 418.400000
1520 12257 2746 1 109.50000 418.400000
1520 12257 2747 1 109.50000 418.400000
1520 12257 2748 1 109.50000 418.400000
2746 12257 2747 1 109.50000 418.400000
2746 12257 2748 1 109.50000 418.400000
2747 12257 2748 1 109.50000 418.400000
2749 12258 2750 1 109.50000 418.400000
2749 12258 2751 1 109.50000 418.400000
2749 12258 2752 1 109.50000 418.400000
2750 12258 2751 1 109.50000 418.400000
2750 12258 2752 1 109.50000 418.400000
2751 12258 2752 1 109.50000 418.400000
2753 12259 2755 1 109.50000 418.400000
2753 12259 2756 1 109.50000 418.400000
2753 12259 5577 1 109.50000 418.400000
2755 12259 2756 1 109.50000 418.400000
2755 12259 5577 1 109.50000 418.400000
2756 12259 5577 1 109.50000 418.400000
2757 12260 2758 1 109.50000 418.400000
2757 12260 2759 1 109.50000 418.400000
2757 12260 2760 1 109.50000 418.400000
2758 12260 2759 1 109.50000 418.400000
2758 12260 2760 1 109.50000 418.400000
2759 12260 2760 1 109.50000 418.400000
1819 12261 2761 1 109.50000 418.400000
1819 12261 2762 1 109.50000 418.400000
1819 12261 2763 1 109.50000 418.400000
2761 12261 2762 1 109.50000 418.400000
2761 12261 2763 1 109.50000 418.400000
2762 12261 2763 1 109.50000 418.400000
2764 12262 2765 1 109.50000 418.400000
2764 12262 2766 1 109.50000 418.400000
2764 12262 2767 1 109.50000 418.400000
2765 12262 2766 1 109.50000 418.400000
2765 12262 2767 1 109.50000 418.400000
2766 12262 2767 1 109.50000 418.400000
171 12263 2768 1 109.50000 418.400000
171 12263 2769 1 109.50000 418.400000
171 12263 2770 1 109.50000 418.400000
2768 12263 2769 1 109.50000 418.400000
2768 12263 2770 1 109.50000 418.400000
2769 12263 2770 1 109.50000 418.400000
2771 12264 2773 1 109.50000 418.400000
2771 12264 2774 1 109.50000 418.400000
2771 12264 6883 1 109.50000 418.400000
2773 12264 2774 1 109.50000 418.400000
2773 12264 6883 1 109.50000 418.400000
2774 12264 6883 1 109.50000 418.400000
2775 12265 2776 1 109.50000 418.400000
2775 12265 11184 1 109.50000 418.400000
2775 12265 11354 1 109.50000 418.400000
2776 12265 11184 1 109.50000 418.400000
2776 12265 11354 1 109.50000 418.400000
11184 12265 11354 1 109.50000 418.400000
734 12266 2777 1 109.50000 418.400000
734 12266 2778 1 109.50000 418.400000
734 12266 2779 1 109.50000 418.400000
2777 12266 2778 1 109.50000 418.400000
2777 12266 2779 1 109.50000 418.400000
2778 12266 2779 1 109.50000 418.400000
2780 12267 2781 1 109.50000 418.400000
2780 12267 2782 1 109.50000 418.400000
2780 12267 2783 1 109.50000 418.400000
2781 12267 2782 1 109.50000 418.400000
2781 12267 2783 1 109.50000 418.400000
2782 12267 2783 1 109.50000 418.400000
2784 12268 2785 1 109.50000 418.400000
2784 12268 2786 1 109.50000 418.400000
2784 12268 2787 1 109.50000 418.400000
2785 12268 2786 1 109.50000 418.400000
2785 12268 2787 1 109.50000 418.400000
2786 12268 2787 1 109.50000 418.400000
911 12269 2788 1 109.50000 418.400000
911 12269 2789 1 109.50000 418.400000
911 12269 2790 1 109.50000 418.400000
2788 12269 2789 1 109.50000 418.400000
2788 12269 2790 1 109.50000 418.400000
2789 12269 2790 1 109.50000 418.400000
301 12270 2791 1 109.50000 418.400000
301 12270 2792 1 109.50000 418.400000
301 12270 4806 1 109.50000 418.400000
2791 12270 2792 1 109.50000 418.400000
2791 12270 4806 1 109.50000 418.400000
2792 12270 4806 1 109.50000 418.400000
2794 12271 2795 1 109.50000 418.400000
2794 12271 2796 1 109.50000 418.400000
2794 12271 10676 1 109.50000 418.400000
2795 12271 2796 1 109.50000 418.400000
2795 12271 10676 1 109.50000 418.400000
2796 12271 10676 1 109.50000 418.400000
191 12272 322 1 109.50000 418.400000
191 12272 2798 1 109.50000 418.400000
191 12272 2799 1 109.50000 418.400000
322 12272 2798 1 109.50000 418.400000
322 12272 2799 1 109.50000 418.400000
2798 12272 2799 1 109.50000 418.400000
699 12273 2800 1 109.50000 418.400000
699 12273 2801 1 109.50000 418.400000
699 12273 8976 1 109.50000 418.400000
2800 12273 2801 1 109.50000 418.400000
2800 12273 8976 1 109.50000 418.400000
2801 12273 8976 1 109.50000 418.400000
2058 12274 2803 1 109.50000 418.400000
2058 12274 2804 1 109.50000 418.400000
2058 12274 2805 1 109.50000 418.400000
2803 12274 2804 1 109.50000 418.400000
2803 12274 2805 1 109.50000 418.400000
2804 12274 2805 1 109.50000 418.400000
2806 12275 2807 1 109.50000 418.400000
2806 12275 2808 1 109.50000 418.400000
2806 12275 2809 1 109.50000 418.400000
2807 12275 2808 1 109.50000 418.400000
2807 12275 2809 1 109.50000 418.400000
2808 12275 2809 1 109.50000 418.400000
2810 12276 2811 1 109.50000 418.400000
2810 12276 2812 1 109.50000 418.400000
2810 12276 2813 1 109.50000 418.400000
2811 12276 2812 1 109.50000 418.400000
2811 12276 2813 1 109.50000 418.400000
2812 12276 2813 1 109.50000 418.400000
435 12277 436 1 109.50000 418.400000
435 12277 2814 1 109.50000 418.400000
435 12277 2816 1 109.50000 418.400000
436 12277 2814 1 109.50000 418.400000
436 12277 2816 1 109.50000 418.400000
2814 12277 2816 1 109.50000 418.400000
2818 12278 2819 1 109.50000 418.400000
2818 12278 2820 1 109.50000 418.400000
2818 12278 2821 1 109.50000 418.400000
2819 12278 2820 1 109.50000 418.400000
2819 12278 2821 1 109.50000 418.400000
2820 12278 2821 1 109.50000 418.400000
1494 12279 2822 1 109.50000 418.400000
1494 12279 2823 1 109.50000 418.400000
1494 12279 2824 1 109.50000 418.400000
2822 12279 2823 1 109.50000 418.400000
2822 12279 2824 1 109.50000 418.400000
2823 12279 2824 1 109.50000 418.400000
2825 12280 2826 1 109.50000 418.400000
2825 12280 2827 1 109.50000 418.400000
2825 12280 2828 1 109.50000 418.400000
2826 12280 2827 1 109.50000 418.400000
2826 12280 2828 1 109.50000 418.400000
2827 12280 2828 1 109.50000 418.400000
1803 12281 2829 1 109.50000 418.400000
1803 12281 2830 1 109.50000 418.400000
1803 12281 2831 1 109.50000 418.400000
2829 12281 2830 1 109.50000 418.400000
2829 12281 2831 1 109.50000 418.400000
2830 12281 2831 1 109.50000 418.400000
1186 12282 1994 1 109.50000 418.400000
1186 12282 2832 1 109.50000 418.400000
1186 12282 2833 1 109.50000 418.400000
1994 12282 2832 1 109.50000 418.400000
1994 12282 2833 1 109.50000 418.400000
2832 12282 2833 1 109.50000 418.400000
635 12283 2834 1 109.50000 418.400000
635 12283 2835 1 109.50000 418.400000
635 12283 2836 1 109.50000 418.400000
2834 12283 2835 1 109.50000 418.400000
2834 12283 2836 1 109.50000 418.400000
2835 12283 2836 1 109.50000 418.400000
1027 12284 2837 1 109.50000 418.400000
1027 12284 2838 1 109.50000 418.400000
1027 12284 2839 1 109.50000 418.400000
2837 12284 2838 1 109.50000 418.400000
2837 12284 2839 1 109.50000 418.400000
2838 12284 2839 1 109.50000 418.400000
2840 12285 2841 1 109.50000 418.400000
2840 12285 2842 1 109.50000 418.400000
2840 12285 2843 1 109.50000 418.400000
2841 12285 2842 1 109.50000 418.400000
2841 12285 2843 1 109.50000 418.400000
2842 12285 2843 1 109.50000 418.400000
2844 12286 2845 1 109.50000 418.400000
2844 12286 2846 1 109.50000 418.400000
2844 12286 2847 1 109.50000 418.400000
2845 12286 2846 1 109.50000 418.400000
2845 12286 2847 1 109.50000 418.400000
2846 12286 2847 1 109.50000 418.400000
300 12287 2848 1 109.50000 418.400000
300 12287 2849 1 109.50000 418.400000
300 12287 2850 1 109.50000 418.400000
2848 12287 2849 1 109.50000 418.400000
2848 12287 2850 1 109.50000 418.400000
2849 12287 2850 1 109.50000 418.400000
1763 12288 2851 1 109.50000 418.400000
1763 12288 2852 1 109.50000 418.400000
1763 12288 2853 1 109.50000 418.400000
2851 12288 2852 1 109.50000 418.400000
2851 12288 2853 1 109.50000 418.400000
2852 12288 2853 1 109.50000 418.400000
105 12289 2854 1 109.50000 418.400000
105 12289 2855 1 109.50000 418.400000
105 12289 2856 1 109.50000 418.400000
2854 12289 2855 1 109.50000 418.400000
2854 12289 2856 1 109.50000 418.400000
2855 12289 2856 1 109.50000 418.400000
2858 12290 2859 1 109.50000 418.400000
2858 12290 2860 1 109.50000 418.400000
2858 12290 7512 1 109.50000 418.400000
2859 12290 2860 1 109.50000 418.400000
2859 12290 7512 1 109.50000 418.400000
2860 12290 7512 1 109.50000 418.400000
261 12291 470 1 109.50000 418.400000
261 12291 2862 1 109.50000 418.400000
261 12291 2863 1 109.50000 418.400000
470 12291 2862 1 109.50000 418.400000
470 12291 2863 1 109.50000 418.400000
2862 12291 2863 1 109.50000 418.400000
2550 12292 2864 1 109.50000 418.400000
2550 12292 2865 1 109.50000 418.400000
2550 12292 4860 1 109.50000 418.400000
2864 12292 2865 1 109.50000 418.400000
2864 12292 4860 1 109.50000 418.400000
2865 12292 4860 1 109.50000 418.400000
2867 12293 2868 1 109.50000 418.400000
2867 12293 2869 1 109.50000 418.400000
2867 12293 2870 1 109.50000 418.400000
2868 12293 2869 1 109.50000 418.400000
2868 12293 2870 1 109.50000 418.400000
2869 12293 2870 1 109.50000 418.400000
1142 12294 2871 1 109.50000 418.400000
1142 12294 2872 1 109.50000 418.400000
1142 12294 2873 1 109.50000 418.400000
2871 12294 2872 1 109.50000 418.400000
2871 12294 2873 1 109.50000 418.400000
2872 12294 2873 1 109.50000 418.400000
1206 12295 2874 1 109.50000 418.400000
1206 12295 2875 1 109.50000 418.400000
1206 12295 2876 1 109.50000 418.400000
2874 12295 2875 1 109.50000 418.400000
2874 12295 2876 1 109.50000 418.400000
2875 12295 2876 1 109.50000 418.400000
2040 12296 2877 1 109.50000 418.400000
2040 12296 2878 1 109.50000 418.400000
2040 12296 2879 1 109.50000 418.400000
2877 12296 2878 1 109.50000 418.400000
2877 12296 2879 1 109.50000 418.400000
2878 12296 2879 1 109.50000 418.400000
2880 12297 2881 1 109.50000 418.400000
2880 12297 2882 1 109.50000 418.400000
2880 12297 2883 1 109.50000 418.400000
2881 12297 2882 1 109.50000 418.400000
2881 12297 2883 1 109.50000 418.400000
2882 12297 2883 1 109.50000 418.400000
1937 12298 2886 1 109.50000 418.400000
1937 12298 2887 1 109.50000 418.400000
1937 12298 2888 1 109.50000 418.400000
2886 12298 2887 1 109.50000 418.400000
2886 12298 2888 1 109.50000 418.400000
2887 12298 2888 1 109.50000 418.400000
2889 12299 2890 1 109.50000 418.400000
2889 12299 2891 1 109.50000 418.400000
2889 12299 11179 1 109.50000 418.400000
2890 12299 2891 1 109.50000 418.400000
2890 12299 11179 1 109.50000 418.400000
2891 12299 11179 1 109.50000 418.400000
2892 12300 2893 1 109.50000 418.400000
2892 12300 2895 1 109.50000 418.400000
2892 12300 9517 1 109.50000 418.400000
2893 12300 2895 1 109.50000 418.400000
2893 12300 9517 1 109.50000 418.400000
2895 12300 9517 1 109.50000 418.400000
2896 12301 2897 1 109.50000 418.400000
2896 12301 2898 1 109.50000 418.400000
2896 12301 2899 1 109.50000 418.400000
2897 12301 2898 1 109.50000 418.400000
2897 12301 2899 1 109.50000 418.400000
2898 12301 2899 1 109.50000 418.400000
1810 12302 2900 1 109.50000 418.400000
1810 12302 2901 1 109.50000 418.400000
1810 12302 2902 1 109.50000 418.400000
2900 12302 2901 1 109.50000 418.400000
2900 12302 2902 1 109.50000 418.400000
2901 12302 2902 1 109.50000 418.400000
156 12303 2903 1 109.50000 418.400000
156 12303 2904 1 109.50000 418.400000
156 12303 2905 1 109.50000 418.400000
2903 12303 2904 1 109.50000 418.400000
2903 12303 2905 1 109.50000 418.400000
2904 12303 2905 1 109.50000 418.400000
580 12304 906 1 109.50000 418.400000
580 12304 2906 1 109.50000 418.400000
580 12304 2908 1 109.50000 418.400000
906 12304 2906 1 109.50000 418.400000
906 12304 2908 1 109.50000 418.400000
2906 12304 2908 1 109.50000 418.400000
334 12305 2909 1 109.50000 418.400000
334 12305 2910 1 109.50000 418.400000
334 12305 2911 1 109.50000 418.400000
2909 12305 2910 1 109.50000 418.400000
2909 12305 2911 1 109.50000 418.400000
2910 12305 2911 1 109.50000 418.400000
2770 12306 2912 1 109.50000 418.400000
2770 12306 2913 1 109.50000 418.400000
2770 12306 2914 1 109.50000 418.400000
2912 12306 2913 1 109.50000 418.400000
2912 12306 2914 1 109.50000 418.400000
2913 12306 2914 1 109.50000 418.400000
2915 12307 2916 1 109.50000 418.400000
2915 12307 2917 1 109.50000 418.400000
2915 12307 3432 1 109.50000 418.400000
2916 12307 2917 1 109.50000 418.400000
2916 12307 3432 1 109.50000 418.400000
2917 12307 3432 1 109.50000 418.400000
2834 12308 2918 1 109.50000 418.400000
2834 12308 2919 1 109.50000 418.400000
2834 12308 2920 1 109.50000 418.400000
2918 12308 2919 1 109.50000 418.400000
2918 12308 2920 1 109.50000 418.400000
2919 12308 2920 1 109.50000 418.400000
2506 12309 2921 1 109.50000 418.400000
2506 12309 2922 1 109.50000 418.400000
2506 12309 11181 1 109.50000 418.400000
2921 12309 2922 1 109.50000 418.400000
2921 12309 11181 1 109.50000 418.400000
2922 12309 11181 1 109.50000 418.400000
566 12310 1468 1 109.50000 418.400000
566 12310 1470 1 109.50000 418.400000
566 12310 2623 1 109.50000 418.400000
1468 12310 1470 1 109.50000 418.400000
1468 12310 2623 1 109.50000 418.400000
1470 12310 2623 1 109.50000 418.400000
2923 12311 2924 1 109.50000 418.400000
2923 12311 2925 1 109.50000 418.400000
2923 12311 2926 1 109.50000 418.400000
2924 12311 2925 1 109.50000 418.400000
2924 12311 2926 1 109.50000 418.400000
2925 12311 2926 1 109.50000 418.400000
2927 12312 2928 1 109.50000 418.400000
2927 12312 2929 1 109.50000 418.400000
2927 12312 2930 1 109.50000 418.400000
2928 12312 2929 1 109.50000 418.400000
2928 12312 2930 1 109.50000 418.400000
2929 12312 2930 1 109.50000 418.400000
2003 12313 2931 1 109.50000 418.400000
2003 12313 2932 1 109.50000 418.400000
2003 12313 2933 1 109.50000 418.400000
2931 12313 2932 1 109.50000 418.400000
2931 12313 2933 1 109.50000 418.400000
2932 12313 2933 1 109.50000 418.400000
876 12314 2934 1 109.50000 418.400000
876 12314 2935 1 109.50000 418.400000
876 12314 2936 1 109.50000 418.400000
2934 12314 2935 1 109.50000 418.400000
2934 12314 2936 1 109.50000 418.400000
2935 12314 2936 1 109.50000 418.400000
655 12315 2937 1 109.50000 418.400000
655 12315 2938 1 109.50000 418.400000
655 12315 2939 1 109.50000 418.400000
2937 12315 2938 1 109.50000 418.400000
2937 12315 2939 1 109.50000 418.400000
2938 12315 2939 1 109.50000 418.400000
2940 12316 2941 1 109.50000 418.400000
2940 12316 2942 1 109.50000 418.400000
2940 12316 6129 1 109.50000 418.400000
2941 12316 2942 1 109.50000 418.400000
2941 12316 6129 1 109.50000 418.400000
2942 12316 6129 1 109.50000 418.400000
2944 12317 2945 1 109.50000 418.400000
2944 12317 2946 1 109.50000 418.400000
2944 12317 11446 1 109.50000 418.400000
2945 12317 2946 1 109.50000 418.400000
2945 12317 11446 1 109.50000 418.400000
2946 12317 11446 1 109.50000 418.400000
2947 12318 2948 1 109.50000 418.400000
2947 12318 2949 1 109.50000 418.400000
2947 12318 2950 1 109.50000 418.400000
2948 12318 2949 1 109.50000 418.400000
2948 12318 2950 1 109.50000 418.400000
2949 12318 2950 1 109.50000 418.400000
2953 12319 7431 1 109.50000 418.400000
2953 12319 8330 1 109.50000 418.400000
2953 12319 11062 1 109.50000 418.400000
7431 12319 8330 1 109.50000 418.400000
7431 12319 11062 1 109.50000 418.400000
8330 12319 11062 1 109.50000 418.400000
2269 12320 2955 1 109.50000 418.400000
2269 12320 2956 1 109.50000 418.400000
2269 12320 2957 1 109.50000 418.400000
2955 12320 2956 1 109.50000 418.400000
2955 12320 2957 1 109.50000 418.400000
2956 12320 2957 1 109.50000 418.400000
2958 12321 2959 1 109.50000 418.400000
2958 12321 2960 1 109.50000 418.400000
2958 12321 2961 1 109.50000 418.400000
2959 12321 2960 1 109.50000 418.400000
2959 12321 2961 1 109.50000 418.400000
2960 12321 2961 1 109.50000 418.400000
2962 12322 2963 1 109.50000 418.400000
2962 12322 2964 1 109.50000 418.400000
2962 12322 2965 1 109.50000 418.400000
2963 12322 2964 1 109.50000 418.400000
2963 12322 2965 1 109.50000 418.400000
2964 12322 2965 1 109.50000 418.400000
2966 12323 2967 1 109.50000 418.400000
2966 12323 2968 1 109.50000 418.400000
2966 12323 2969 1 109.50000 418.400000
2967 12323 2968 1 109.50000 418.400000
2967 12323 2969 1 109.50000 418.400000
2968 12323 2969 1 109.50000 418.400000
2970 12324 2971 1 109.50000 418.400000
2970 12324 2973 1 109.50000 418.400000
2970 12324 4010 1 109.50000 418.400000
2971 12324 2973 1 109.50000 418.400000
2971 12324 4010 1 109.50000 418.400000
2973 12324 4010 1 109.50000 418.400000
2974 12325 2975 1 109.50000 418.400000
2974 12325 2976 1 109.50000 418.400000
2974 12325 2977 1 109.50000 418.400000
2975 12325 2976 1 109.50000 418.400000
2975 12325 2977 1 109.50000 418.400000
2976 12325 2977 1 109.50000 418.400000
2978 12326 2979 1 109.50000 418.400000
2978 12326 2980 1 109.50000 418.400000
2978 12326 2981 1 109.50000 418.400000
2979 12326 2980 1 109.50000 418.400000
2979 12326 2981 1 109.50000 418.400000
2980 12326 2981 1 109.50000 418.400000
2982 12327 2983 1 109.50000 418.400000
2982 12327 2984 1 109.50000 418.400000
2982 12327 2985 1 109.50000 418.400000
2983 12327 2984 1 109.50000 418.400000
2983 12327 2985 1 109.50000 418.400000
2984 12327 2985 1 109.50000 418.400000
2986 12328 2987 1 109.50000 418.400000
2986 12328 2988 1 109.50000 418.400000
2986 12328 11184 1 109.50000 418.400000
2987 12328 2988 1 109.50000 418.400000
2987 12328 11184 1 109.50000 418.400000
2988 12328 11184 1 109.50000 418.400000
1583 12329 2996 1 109.50000 418.400000
1583 12329 2997 1 109.50000 418.400000
1583 12329 11508 1 109.50000 418.400000
2996 12329 2997 1 109.50000 418.400000
2996 12329 11508 1 109.50000 418.400000
2997 12329 11508 1 109.50000 418.400000
2998 12330 2999 1 109.50000 418.400000
2998 12330 3000 1 109.50000 418.400000
2998 12330 3001 1 109.50000 418.400000
2999 12330 3000 1 109.50000 418.400000
2999 12330 3001 1 109.50000 418.400000
3000 12330 3001 1 109.50000 418.400000
902 12331 2488 1 109.50000 418.400000
902 12331 3002 1 109.50000 418.400000
902 12331 3003 1 109.50000 418.400000
2488 12331 3002 1 109.50000 418.400000
2488 12331 3003 1 109.50000 418.400000
3002 12331 3003 1 109.50000 418.400000
1373 12332 3004 1 109.50000 418.400000
1373 12332 3005 1 109.50000 418.400000
1373 12332 3006 1 109.50000 418.400000
3004 12332 3005 1 109.50000 418.400000
3004 12332 3006 1 109.50000 418.400000
3005 12332 3006 1 109.50000 418.400000
3007 12333 3009 1 109.50000 418.400000
3007 12333 3010 1 109.50000 418.400000
3007 12333 8894 1 109.50000 418.400000
3009 12333 3010 1 109.50000 418.400000
3009 12333 8894 1 109.50000 418.400000
3010 12333 8894 1 109.50000 418.400000
3011 12334 3012 1 109.50000 418.400000
3011 12334 3013 1 109.50000 418.400000
3011 12334 3014 1 109.50000 418.400000
3012 12334 3013 1 109.50000 418.400000
3012 12334 3014 1 109.50000 418.400000
3013 12334 3014 1 109.50000 418.400000
2504 12335 3015 1 109.50000 418.400000
2504 12335 3016 1 109.50000 418.400000
2504 12335 3017 1 109.50000 418.400000
3015 12335 3016 1 109.50000 418.400000
3015 12335 3017 1 109.50000 418.400000
3016 12335 3017 1 109.50000 418.400000
3018 12336 3019 1 109.50000 418.400000
3018 12336 3020 1 109.50000 418.400000
3018 12336 3021 1 109.50000 418.400000
3019 12336 3020 1 109.50000 418.400000
3019 12336 3021 1 109.50000 418.400000
3020 12336 3021 1 109.50000 418.400000
2117 12337 3022 1 109.50000 418.400000
2117 12337 3023 1 109.50000 418.400000
2117 12337 3024 1 109.50000 418.400000
3022 12337 3023 1 109.50000 418.400000
3022 12337 3024 1 109.50000 418.400000
3023 12337 3024 1 109.50000 418.400000
3025 12338 3026 1 109.50000 418.400000
3025 12338 3027 1 109.50000 418.400000
3025 12338 3028 1 109.50000 418.400000
3026 12338 3027 1 109.50000 418.400000
3026 12338 3028 1 109.50000 418.400000
3027 12338 3028 1 109.50000 418.400000
3029 12339 3030 1 109.50000 418.400000
3029 12339 3031 1 109.50000 418.400000
3029 12339 3032 1 109.50000 418.400000
3030 12339 3031 1 109.50000 418.400000
3030 12339 3032 1 109.50000 418.400000
3031 12339 3032 1 109.50000 418.400000
3033 12340 3034 1 109.50000 418.400000
3033 12340 3035 1 109.50000 418.400000
3033 12340 11140 1 109.50000 418.400000
3034 12340 3035 1 109.50000 418.400000
3034 12340 11140 1 109.50000 418.400000
3035 12340 11140 1 109.50000 418.400000
2597 12341 3036 1 109.50000 418.400000
2597 12341 3037 1 109.50000 418.400000
2597 12341 3038 1 109.50000 418.400000
3036 12341 3037 1 109.50000 418.400000
3036 12341 3038 1 109.50000 418.400000
3037 12341 3038 1 109.50000 418.400000
3039 12342 3040 1 109.50000 418.400000
3039 12342 3041 1 109.50000 418.400000
3039 12342 10913 1 109.50000 418.400000
3040 12342 3041 1 109.50000 418.400000
3040 12342 10913 1 109.50000 418.400000
3041 12342 10913 1 109.50000 418.400000
2027 12343 3042 1 109.50000 418.400000
2027 12343 11163 1 109.50000 418.400000
2027 12343 11318 1 109.50000 418.400000
3042 12343 11163 1 109.50000 418.400000
3042 12343 11318 1 109.50000 418.400000
11163 12343 11318 1 109.50000 418.400000
3043 12344 3044 1 109.50000 418.400000
3043 12344 3045 1 109.50000 418.400000
3043 12344 5380 1 109.50000 418.400000
3044 12344 3045 1 109.50000 418.400000
3044 12344 5380 1 109.50000 418.400000
3045 12344 5380 1 109.50000 418.400000
3049 12345 3050 1 109.50000 418.400000
3049 12345 3051 1 109.50000 418.400000
3049 12345 3052 1 109.50000 418.400000
3050 12345 3051 1 109.50000 418.400000
3050 12345 3052 1 109.50000 418.400000
3051 12345 3052 1 109.50000 418.400000
303 12346 3053 1 109.50000 418.400000
303 12346 3054 1 109.50000 418.400000
303 12346 3055 1 109.50000 418.400000
3053 12346 3054 1 109.50000 418.400000
3053 12346 3055 1 109.50000 418.400000
3054 12346 3055 1 109.50000 418.400000
918 12347 1107 1 109.50000 418.400000
918 12347 1108 1 109.50000 418.400000
918 12347 1109 1 109.50000 418.400000
1107 12347 1108 1 109.50000 418.400000
1107 12347 1109 1 109.50000 418.400000
1108 12347 1109 1 109.50000 418.400000
3058 12348 3059 1 109.50000 418.400000
3058 12348 3060 1 109.50000 418.400000
3058 12348 8970 1 109.50000 418.400000
3059 12348 3060 1 109.50000 418.400000
3059 12348 8970 1 109.50000 418.400000
3060 12348 8970 1 109.50000 418.400000
637 12349 1730 1 109.50000 418.400000
637 12349 3061 1 109.50000 418.400000
637 12349 3062 1 109.50000 418.400000
1730 12349 3061 1 109.50000 418.400000
1730 12349 3062 1 109.50000 418.400000
3061 12349 3062 1 109.50000 418.400000
3063 12350 3064 1 109.50000 418.400000
3063 12350 3065 1 109.50000 418.400000
3063 12350 3066 1 109.50000 418.400000
3064 12350 3065 1 109.50000 418.400000
3064 12350 3066 1 109.50000 418.400000
3065 12350 3066 1 109.50000 418.400000
533 12351 3067 1 109.50000 418.400000
533 12351 3068 1 109.50000 418.400000
533 12351 3069 1 109.50000 418.400000
3067 12351 3068 1 109.50000 418.400000
3067 12351 3069 1 109.50000 418.400000
3068 12351 3069 1 109.50000 418.400000
3070 12352 3071 1 109.50000 418.400000
3070 12352 3072 1 109.50000 418.400000
3070 12352 3073 1 109.50000 418.400000
3071 12352 3072 1 109.50000 418.400000
3071 12352 3073 1 109.50000 418.400000
3072 12352 3073 1 109.50000 418.400000
1917 12353 3074 1 109.50000 418.400000
1917 12353 3075 1 109.50000 418.400000
1917 12353 3076 1 109.50000 418.400000
3074 12353 3075 1 109.50000 418.400000
3074 12353 3076 1 109.50000 418.400000
3075 12353 3076 1 109.50000 418.400000
2675 12354 3077 1 109.50000 418.400000
2675 12354 3078 1 109.50000 418.400000
2675 12354 3079 1 109.50000 418.400000
3077 12354 3078 1 109.50000 418.400000
3077 12354 3079 1 109.50000 418.400000
3078 12354 3079 1 109.50000 418.400000
1316 12355 2055 1 109.50000 418.400000
1316 12355 3080 1 109.50000 418.400000
1316 12355 3081 1 109.50000 418.400000
2055 12355 3080 1 109.50000 418.400000
2055 12355 3081 1 109.50000 418.400000
3080 12355 3081 1 109.50000 418.400000
1484 12356 2302 1 109.50000 418.400000
1484 12356 3082 1 109.50000 418.400000
1484 12356 3083 1 109.50000 418.400000
2302 12356 3082 1 109.50000 418.400000
2302 12356 3083 1 109.50000 418.400000
3082 12356 3083 1 109.50000 418.400000
2060 12357 3085 1 109.50000 418.400000
2060 12357 3086 1 109.50000 418.400000
2060 12357 5909 1 109.50000 418.400000
3085 12357 3086 1 109.50000 418.400000
3085 12357 5909 1 109.50000 418.400000
3086 12357 5909 1 109.50000 418.400000
1956 12358 3087 1 109.50000 418.400000
1956 12358 3088 1 109.50000 418.400000
1956 12358 3089 1 109.50000 418.400000
3087 12358 3088 1 109.50000 418.400000
3087 12358 3089 1 109.50000 418.400000
3088 12358 3089 1 109.50000 418.400000
3090 12359 3091 1 109.50000 418.400000
3090 12359 3092 1 109.50000 418.400000
3090 12359 3093 1 109.50000 418.400000
3091 12359 3092 1 109.50000 418.400000
3091 12359 3093 1 109.50000 418.400000
3092 12359 3093 1 109.50000 418.400000
1279 12360 3094 1 109.50000 418.400000
1279 12360 3095 1 109.50000 418.400000
1279 12360 3096 1 109.50000 418.400000
3094 12360 3095 1 109.50000 418.400000
3094 12360 3096 1 109.50000 418.400000
3095 12360 3096 1 109.50000 418.400000
277 12361 3097 1 109.50000 418.400000
277 12361 3098 1 109.50000 418.400000
277 12361 3099 1 109.50000 418.400000
3097 12361 3098 1 109.50000 418.400000
3097 12361 3099 1 109.50000 418.400000
3098 12361 3099 1 109.50000 418.400000
64 12362 3100 1 109.50000 418.400000
64 12362 3101 1 109.50000 418.400000
64 12362 9283 1 109.50000 418.400000
3100 12362 3101 1 109.50000 418.400000
3100 12362 9283 1 109.50000 418.400000
3101 12362 9283 1 109.50000 418.400000
2272 12363 2878 1 109.50000 418.400000
2272 12363 3102 1 109.50000 418.400000
2272 12363 3103 1 109.50000 418.400000
2878 12363 3102 1 109.50000 418.400000
2878 12363 3103 1 109.50000 418.400000
3102 12363 3103 1 109.50000 418.400000
1366 12364 3110 1 109.50000 418.400000
1366 12364 3111 1 109.50000 418.400000
1366 12364 3112 1 109.50000 418.400000
3110 12364 3111 1 109.50000 418.400000
3110 12364 3112 1 109.50000 418.400000
3111 12364 3112 1 109.50000 418.400000
3113 12365 3114 1 109.50000 418.400000
3113 12365 3115 1 109.50000 418.400000
3113 12365 3116 1 109.50000 418.400000
3114 12365 3115 1 109.50000 418.400000
3114 12365 3116 1 109.50000 418.400000
3115 12365 3116 1 109.50000 418.400000
2659 12366 2935 1 109.50000 418.400000
2659 12366 3117 1 109.50000 418.400000
2659 12366 3118 1 109.50000 418.400000
2935 12366 3117 1 109.50000 418.400000
2935 12366 3118 1 109.50000 418.400000
3117 12366 3118 1 109.50000 418.400000
3119 12367 3120 1 109.50000 418.400000
3119 12367 3121 1 109.50000 418.400000
3119 12367 11398 1 109.50000 418.400000
3120 12367 3121 1 109.50000 418.400000
3120 12367 11398 1 109.50000 418.400000
3121 12367 11398 1 109.50000 418.400000
3122 12368 3123 1 109.50000 418.400000
3122 12368 3124 1 109.50000 418.400000
3122 12368 3125 1 109.50000 418.400000
3123 12368 3124 1 109.50000 418.400000
3123 12368 3125 1 109.50000 418.400000
3124 12368 3125 1 109.50000 418.400000
3126 12369 3127 1 109.50000 418.400000
3126 12369 3128 1 109.50000 418.400000
3126 12369 3129 1 109.50000 418.400000
3127 12369 3128 1 109.50000 418.400000
3127 12369 3129 1 109.50000 418.400000
3128 12369 3129 1 109.50000 418.400000
1909 12370 3130 1 109.50000 418.400000
1909 12370 3131 1 109.50000 418.400000
1909 12370 3132 1 109.50000 418.400000
3130 12370 3131 1 109.50000 418.400000
3130 12370 3132 1 109.50000 418.400000
3131 12370 3132 1 109.50000 418.400000
3134 12371 3136 1 109.50000 418.400000
3134 12371 8505 1 109.50000 418.400000
3134 12371 8506 1 109.50000 418.400000
3136 12371 8505 1 109.50000 418.400000
3136 12371 8506 1 109.50000 418.400000
8505 12371 8506 1 109.50000 418.400000
900 12372 3137 1 109.50000 418.400000
900 12372 3138 1 109.50000 418.400000
900 12372 3139 1 109.50000 418.400000
3137 12372 3138 1 109.50000 418.400000
3137 12372 3139 1 109.50000 418.400000
3138 12372 3139 1 109.50000 418.400000
3140 12373 3141 1 109.50000 418.400000
3140 12373 3142 1 109.50000 418.400000
3140 12373 3143 1 109.50000 418.400000
3141 12373 3142 1 109.50000 418.400000
3141 12373 3143 1 109.50000 418.400000
3142 12373 3143 1 109.50000 418.400000
2294 12374 3144 1 109.50000 418.400000
2294 12374 3145 1 109.50000 418.400000
2294 12374 3146 1 109.50000 418.400000
3144 12374 3145 1 109.50000 418.400000
3144 12374 3146 1 109.50000 418.400000
3145 12374 3146 1 109.50000 418.400000
3148 12375 3149 1 109.50000 418.400000
3148 12375 11224 1 109.50000 418.400000
3148 12375 11475 1 109.50000 418.400000
3149 12375 11224 1 109.50000 418.400000
3149 12375 11475 1 109.50000 418.400000
11224 12375 11475 1 109.50000 418.400000
3150 12376 3151 1 109.50000 418.400000
3150 12376 3152 1 109.50000 418.400000
3150 12376 3153 1 109.50000 418.400000
3151 12376 3152 1 109.50000 418.400000
3151 12376 3153 1 109.50000 418.400000
3152 12376 3153 1 109.50000 418.400000
2396 12377 3154 1 109.50000 418.400000
2396 12377 3155 1 109.50000 418.400000
2396 12377 3156 1 109.50000 418.400000
3154 12377 3155 1 109.50000 418.400000
3154 12377 3156 1 109.50000 418.400000
3155 12377 3156 1 109.50000 418.400000
3157 12378 3158 1 109.50000 418.400000
3157 12378 3159 1 109.50000 418.400000
3157 12378 3160 1 109.50000 418.400000
3158 12378 3159 1 109.50000 418.400000
3158 12378 3160 1 109.50000 418.400000
3159 12378 3160 1 109.50000 418.400000
2404 12379 3162 1 109.50000 418.400000
2404 12379 3163 1 109.50000 418.400000
2404 12379 3164 1 109.50000 418.400000
3162 12379 3163 1 109.50000 418.400000
3162 12379 3164 1 109.50000 418.400000
3163 12379 3164 1 109.50000 418.400000
3165 12380 3166 1 109.50000 418.400000
3165 12380 3167 1 109.50000 418.400000
3165 12380 3168 1 109.50000 418.400000
3166 12380 3167 1 109.50000 418.400000
3166 12380 3168 1 109.50000 418.400000
3167 12380 3168 1 109.50000 418.400000
3169 12381 3170 1 109.50000 418.400000
3169 12381 3171 1 109.50000 418.400000
3169 12381 3172 1 109.50000 418.400000
3170 12381 3171 1 109.50000 418.400000
3170 12381 3172 1 109.50000 418.400000
3171 12381 3172 1 109.50000 418.400000
3173 12382 3174 1 109.50000 418.400000
3173 12382 3175 1 109.50000 418.400000
3173 12382 3176 1 109.50000 418.400000
3174 12382 3175 1 109.50000 418.400000
3174 12382 3176 1 109.50000 418.400000
3175 12382 3176 1 109.50000 418.400000
3177 12383 3178 1 109.50000 418.400000
3177 12383 3179 1 109.50000 418.400000
3177 12383 3180 1 109.50000 418.400000
3178 12383 3179 1 109.50000 418.400000
3178 12383 3180 1 109.50000 418.400000
3179 12383 3180 1 109.50000 418.400000
52 12384 3181 1 109.50000 418.400000
52 12384 3182 1 109.50000 418.400000
52 12384 3183 1 109.50000 418.400000
3181 12384 3182 1 109.50000 418.400000
3181 12384 3183 1 109.50000 418.400000
3182 12384 3183 1 109.50000 418.400000
593 12385 3185 1 109.50000 418.400000
593 12385 3186 1 109.50000 418.400000
593 12385 3187 1 109.50000 418.400000
3185 12385 3186 1 109.50000 418.400000
3185 12385 3187 1 109.50000 418.400000
3186 12385 3187 1 109.50000 418.400000
3188 12386 3189 1 109.50000 418.400000
3188 12386 3248 1 109.50000 418.400000
3188 12386 11445 1 109.50000 418.400000
3189 12386 3248 1 109.50000 418.400000
3189 12386 11445 1 109.50000 418.400000
3248 12386 11445 1 109.50000 418.400000
3190 12387 3191 1 109.50000 418.400000
3190 12387 3192 1 109.50000 418.400000
3190 12387 3193 1 109.50000 418.400000
3191 12387 3192 1 109.50000 418.400000
3191 12387 3193 1 109.50000 418.400000
3192 12387 3193 1 109.50000 418.400000
1028 12388 3194 1 109.50000 418.400000
1028 12388 3195 1 109.50000 418.400000
1028 12388 3197 1 109.50000 418.400000
3194 12388 3195 1 109.50000 418.400000
3194 12388 3197 1 109.50000 418.400000
3195 12388 3197 1 109.50000 418.400000
3198 12389 3199 1 109.50000 418.400000
3198 12389 3200 1 109.50000 418.400000
3198 12389 3201 1 109.50000 418.400000
3199 12389 3200 1 109.50000 418.400000
3199 12389 3201 1 109.50000 418.400000
3200 12389 3201 1 109.50000 418.400000
3202 12390 3203 1 109.50000 418.400000
3202 12390 3204 1 109.50000 418.400000
3202 12390 3205 1 109.50000 418.400000
3203 12390 3204 1 109.50000 418.400000
3203 12390 3205 1 109.50000 418.400000
3204 12390 3205 1 109.50000 418.400000
2022 12391 3206 1 109.50000 418.400000
2022 12391 3207 1 109.50000 418.400000
2022 12391 3208 1 109.50000 418.400000
3206 12391 3207 1 109.50000 418.400000
3206 12391 3208 1 109.50000 418.400000
3207 12391 3208 1 109.50000 418.400000
3209 12392 3210 1 109.50000 418.400000
3209 12392 3211 1 109.50000 418.400000
3209 12392 3212 1 109.50000 418.400000
3210 12392 3211 1 109.50000 418.400000
3210 12392 3212 1 109.50000 418.400000
3211 12392 3212 1 109.50000 418.400000
2880 12393 3213 1 109.50000 418.400000
2880 12393 3215 1 109.50000 418.400000
2880 12393 3450 1 109.50000 418.400000
3213 12393 3215 1 109.50000 418.400000
3213 12393 3450 1 109.50000 418.400000
3215 12393 3450 1 109.50000 418.400000
1602 12394 3216 1 109.50000 418.400000
1602 12394 3217 1 109.50000 418.400000
1602 12394 3218 1 109.50000 418.400000
3216 12394 3217 1 109.50000 418.400000
3216 12394 3218 1 109.50000 418.400000
3217 12394 3218 1 109.50000 418.400000
3219 12395 3220 1 109.50000 418.400000
3219 12395 3221 1 109.50000 418.400000
3219 12395 3222 1 109.50000 418.400000
3220 12395 3221 1 109.50000 418.400000
3220 12395 3222 1 109.50000 418.400000
3221 12395 3222 1 109.50000 418.400000
3223 12396 3224 1 109.50000 418.400000
3223 12396 11228 1 109.50000 418.400000
3223 12396 11397 1 109.50000 418.400000
3224 12396 11228 1 109.50000 418.400000
3224 12396 11397 1 109.50000 418.400000
11228 12396 11397 1 109.50000 418.400000
3225 12397 3226 1 109.50000 418.400000
3225 12397 3227 1 109.50000 418.400000
3225 12397 3228 1 109.50000 418.400000
3226 12397 3227 1 109.50000 418.400000
3226 12397 3228 1 109.50000 418.400000
3227 12397 3228 1 109.50000 418.400000
3229 12398 3230 1 109.50000 418.400000
3229 12398 3231 1 109.50000 418.400000
3229 12398 3232 1 109.50000 418.400000
3230 12398 3231 1 109.50000 418.400000
3230 12398 3232 1 109.50000 418.400000
3231 12398 3232 1 109.50000 418.400000
1357 12399 1359 1 109.50000 418.400000
1357 12399 1360 1 109.50000 418.400000
1357 12399 3233 1 109.50000 418.400000
1359 12399 1360 1 109.50000 418.400000
1359 12399 3233 1 109.50000 418.400000
1360 12399 3233 1 109.50000 418.400000
3236 12400 3237 1 109.50000 418.400000
3236 12400 3238 1 109.50000 418.400000
3236 12400 3239 1 109.50000 418.400000
3237 12400 3238 1 109.50000 418.400000
3237 12400 3239 1 109.50000 418.400000
3238 12400 3239 1 109.50000 418.400000
3240 12401 3241 1 109.50000 418.400000
3240 12401 3242 1 109.50000 418.400000
3240 12401 8115 1 109.50000 418.400000
3241 12401 3242 1 109.50000 418.400000
3241 12401 8115 1 109.50000 418.400000
3242 12401 8115 1 109.50000 418.400000
3093 12402 3243 1 109.50000 418.400000
3093 12402 3244 1 109.50000 418.400000
3093 12402 3245 1 109.50000 418.400000
3243 12402 3244 1 109.50000 418.400000
3243 12402 3245 1 109.50000 418.400000
3244 12402 3245 1 109.50000 418.400000
3246 12403 3247 1 109.50000 418.400000
3246 12403 3248 1 109.50000 418.400000
3246 12403 3249 1 109.50000 418.400000
3247 12403 3248 1 109.50000 418.400000
3247 12403 3249 1 109.50000 418.400000
3248 12403 3249 1 109.50000 418.400000
1492 12404 3250 1 109.50000 418.400000
1492 12404 3251 1 109.50000 418.400000
1492 12404 3252 1 109.50000 418.400000
3250 12404 3251 1 109.50000 418.400000
3250 12404 3252 1 109.50000 418.400000
3251 12404 3252 1 109.50000 418.400000
139 12405 3253 1 109.50000 418.400000
139 12405 3254 1 109.50000 418.400000
139 12405 3255 1 109.50000 418.400000
3253 12405 3254 1 109.50000 418.400000
3253 12405 3255 1 109.50000 418.400000
3254 12405 3255 1 109.50000 418.400000
3256 12406 3257 1 109.50000 418.400000
3256 12406 3258 1 109.50000 418.400000
3256 12406 3259 1 109.50000 418.400000
3257 12406 3258 1 109.50000 418.400000
3257 12406 3259 1 109.50000 418.400000
3258 12406 3259 1 109.50000 418.400000
3260 12407 3261 1 109.50000 418.400000
3260 12407 3262 1 109.50000 418.400000
3260 12407 3263 1 109.50000 418.400000
3261 12407 3262 1 109.50000 418.400000
3261 12407 3263 1 109.50000 418.400000
3262 12407 3263 1 109.50000 418.400000
2707 12408 3217 1 109.50000 418.400000
2707 12408 3222 1 109.50000 418.400000
2707 12408 3264 1 109.50000 418.400000
3217 12408 3222 1 109.50000 418.400000
3217 12408 3264 1 109.50000 418.400000
3222 12408 3264 1 109.50000 418.400000
3265 12409 3266 1 109.50000 418.400000
3265 12409 3267 1 109.50000 418.400000
3265 12409 3268 1 109.50000 418.400000
3266 12409 3267 1 109.50000 418.400000
3266 12409 3268 1 109.50000 418.400000
3267 12409 3268 1 109.50000 418.400000
3269 12410 3270 1 109.50000 418.400000
3269 12410 3271 1 109.50000 418.400000
3269 12410 3272 1 109.50000 418.400000
3270 12410 3271 1 109.50000 418.400000
3270 12410 3272 1 109.50000 418.400000
3271 12410 3272 1 109.50000 418.400000
3273 12411 3274 1 109.50000 418.400000
3273 12411 3275 1 109.50000 418.400000
3273 12411 3276 1 109.50000 418.400000
3274 12411 3275 1 109.50000 418.400000
3274 12411 3276 1 109.50000 418.400000
3275 12411 3276 1 109.50000 418.400000
983 12412 2334 1 109.50000 418.400000
983 12412 3277 1 109.50000 418.400000
983 12412 3278 1 109.50000 418.400000
2334 12412 3277 1 109.50000 418.400000
2334 12412 3278 1 109.50000 418.400000
3277 12412 3278 1 109.50000 418.400000
1301 12413 3279 1 109.50000 418.400000
1301 12413 3280 1 109.50000 418.400000
1301 12413 3281 1 109.50000 418.400000
3279 12413 3280 1 109.50000 418.400000
3279 12413 3281 1 109.50000 418.400000
3280 12413 3281 1 109.50000 418.400000
146 12414 3282 1 109.50000 418.400000
146 12414 3283 1 109.50000 418.400000
146 12414 11237 1 109.50000 418.400000
3282 12414 3283 1 109.50000 418.400000
3282 12414 11237 1 109.50000 418.400000
3283 12414 11237 1 109.50000 418.400000
1671 12415 1764 1 109.50000 418.400000
1671 12415 3286 1 109.50000 418.400000
1671 12415 3287 1 109.50000 418.400000
1764 12415 3286 1 109.50000 418.400000
1764 12415 3287 1 109.50000 418.400000
3286 12415 3287 1 109.50000 418.400000
1409 12416 3288 1 109.50000 418.400000
1409 12416 3289 1 109.50000 418.400000
1409 12416 3290 1 109.50000 418.400000
3288 12416 3289 1 109.50000 418.400000
3288 12416 3290 1 109.50000 418.400000
3289 12416 3290 1 109.50000 418.400000
3292 12417 3293 1 109.50000 418.400000
3292 12417 3294 1 109.50000 418.400000
3292 12417 5550 1 109.50000 418.400000
3293 12417 3294 1 109.50000 418.400000
3293 12417 5550 1 109.50000 418.400000
3294 12417 5550 1 109.50000 418.400000
3167 12418 3295 1 109.50000 418.400000
3167 12418 3296 1 109.50000 418.400000
3167 12418 3297 1 109.50000 418.400000
3295 12418 3296 1 109.50000 418.400000
3295 12418 3297 1 109.50000 418.400000
3296 12418 3297 1 109.50000 418.400000
3299 12419 3300 1 109.50000 418.400000
3299 12419 3301 1 109.50000 418.400000
3299 12419 6492 1 109.50000 418.400000
3300 12419 3301 1 109.50000 418.400000
3300 12419 6492 1 109.50000 418.400000
3301 12419 6492 1 109.50000 418.400000
3305 12420 3306 1 109.50000 418.400000
3305 12420 3307 1 109.50000 418.400000
3305 12420 3308 1 109.50000 418.400000
3306 12420 3307 1 109.50000 418.400000
3306 12420 3308 1 109.50000 418.400000
3307 12420 3308 1 109.50000 418.400000
3309 12421 3310 1 109.50000 418.400000
3309 12421 3311 1 109.50000 418.400000
3309 12421 3312 1 109.50000 418.400000
3310 12421 3311 1 109.50000 418.400000
3310 12421 3312 1 109.50000 418.400000
3311 12421 3312 1 109.50000 418.400000
3313 12422 3314 1 109.50000 418.400000
3313 12422 3315 1 109.50000 418.400000
3313 12422 3316 1 109.50000 418.400000
3314 12422 3315 1 109.50000 418.400000
3314 12422 3316 1 109.50000 418.400000
3315 12422 3316 1 109.50000 418.400000
333 12423 3317 1 109.50000 418.400000
333 12423 3318 1 109.50000 418.400000
333 12423 3319 1 109.50000 418.400000
3317 12423 3318 1 109.50000 418.400000
3317 12423 3319 1 109.50000 418.400000
3318 12423 3319 1 109.50000 418.400000
3152 12424 3320 1 109.50000 418.400000
3152 12424 3321 1 109.50000 418.400000
3152 12424 3322 1 109.50000 418.400000
3320 12424 3321 1 109.50000 418.400000
3320 12424 3322 1 109.50000 418.400000
3321 12424 3322 1 109.50000 418.400000
291 12425 972 1 109.50000 418.400000
291 12425 3323 1 109.50000 418.400000
291 12425 3324 1 109.50000 418.400000
972 12425 3323 1 109.50000 418.400000
972 12425 3324 1 109.50000 418.400000
3323 12425 3324 1 109.50000 418.400000
3325 12426 3326 1 109.50000 418.400000
3325 12426 3327 1 109.50000 418.400000
3325 12426 9134 1 109.50000 418.400000
3326 12426 3327 1 109.50000 418.400000
3326 12426 9134 1 109.50000 418.400000
3327 12426 9134 1 109.50000 418.400000
3329 12427 3330 1 109.50000 418.400000
3329 12427 3331 1 109.50000 418.400000
3329 12427 3332 1 109.50000 418.400000
3330 12427 3331 1 109.50000 418.400000
3330 12427 3332 1 109.50000 418.400000
3331 12427 3332 1 109.50000 418.400000
3333 12428 3334 1 109.50000 418.400000
3333 12428 3335 1 109.50000 418.400000
3333 12428 11277 1 109.50000 418.400000
3334 12428 3335 1 109.50000 418.400000
3334 12428 11277 1 109.50000 418.400000
3335 12428 11277 1 109.50000 418.400000
1980 12429 3336 1 109.50000 418.400000
1980 12429 3337 1 109.50000 418.400000
1980 12429 11189 1 109.50000 418.400000
3336 12429 3337 1 109.50000 418.400000
3336 12429 11189 1 109.50000 418.400000
3337 12429 11189 1 109.50000 418.400000
801 12430 3338 1 109.50000 418.400000
801 12430 3339 1 109.50000 418.400000
801 12430 11512 1 109.50000 418.400000
3338 12430 3339 1 109.50000 418.400000
3338 12430 11512 1 109.50000 418.400000
3339 12430 11512 1 109.50000 418.400000
3340 12431 3341 1 109.50000 418.400000
3340 12431 3342 1 109.50000 418.400000
3340 12431 3343 1 109.50000 418.400000
3341 12431 3342 1 109.50000 418.400000
3341 12431 3343 1 109.50000 418.400000
3342 12431 3343 1 109.50000 418.400000
3344 12432 3345 1 109.50000 418.400000
3344 12432 3346 1 109.50000 418.400000
3344 12432 3347 1 109.50000 418.400000
3345 12432 3346 1 109.50000 418.400000
3345 12432 3347 1 109.50000 418.400000
3346 12432 3347 1 109.50000 418.400000
1502 12433 3348 1 109.50000 418.400000
1502 12433 3349 1 109.50000 418.400000
1502 12433 3350 1 109.50000 418.400000
3348 12433 3349 1 109.50000 418.400000
3348 12433 3350 1 109.50000 418.400000
3349 12433 3350 1 109.50000 418.400000
2919 12434 3354 1 109.50000 418.400000
2919 12434 3355 1 109.50000 418.400000
2919 12434 3356 1 109.50000 418.400000
3354 12434 3355 1 109.50000 418.400000
3354 12434 3356 1 109.50000 418.400000
3355 12434 3356 1 109.50000 418.400000
3358 12435 3359 1 109.50000 418.400000
3358 12435 3360 1 109.50000 418.400000
3358 12435 3739 1 109.50000 418.400000
3359 12435 3360 1 109.50000 418.400000
3359 12435 3739 1 109.50000 418.400000
3360 12435 3739 1 109.50000 418.400000
3038 12436 3361 1 109.50000 418.400000
3038 12436 3362 1 109.50000 418.400000
3038 12436 3363 1 109.50000 418.400000
3361 12436 3362 1 109.50000 418.400000
3361 12436 3363 1 109.50000 418.400000
3362 12436 3363 1 109.50000 418.400000
1406 12437 3364 1 109.50000 418.400000
1406 12437 3365 1 109.50000 418.400000
1406 12437 3367 1 109.50000 418.400000
3364 12437 3365 1 109.50000 418.400000
3364 12437 3367 1 109.50000 418.400000
3365 12437 3367 1 109.50000 418.400000
1574 12438 3368 1 109.50000 418.400000
1574 12438 3369 1 109.50000 418.400000
1574 12438 3370 1 109.50000 418.400000
3368 12438 3369 1 109.50000 418.400000
3368 12438 3370 1 109.50000 418.400000
3369 12438 3370 1 109.50000 418.400000
3372 12439 3373 1 109.50000 418.400000
3372 12439 3374 1 109.50000 418.400000
3372 12439 3375 1 109.50000 418.400000
3373 12439 3374 1 109.50000 418.400000
3373 12439 3375 1 109.50000 418.400000
3374 12439 3375 1 109.50000 418.400000
3381 12440 3382 1 109.50000 418.400000
3381 12440 3383 1 109.50000 418.400000
3381 12440 3384 1 109.50000 418.400000
3382 12440 3383 1 109.50000 418.400000
3382 12440 3384 1 109.50000 418.400000
3383 12440 3384 1 109.50000 418.400000
3385 12441 3386 1 109.50000 418.400000
3385 12441 3387 1 109.50000 418.400000
3385 12441 11256 1 109.50000 418.400000
3386 12441 3387 1 109.50000 418.400000
3386 12441 11256 1 109.50000 418.400000
3387 12441 11256 1 109.50000 418.400000
3388 12442 3389 1 109.50000 418.400000
3388 12442 3390 1 109.50000 418.400000
3388 12442 3391 1 109.50000 418.400000
3389 12442 3390 1 109.50000 418.400000
3389 12442 3391 1 109.50000 418.400000
3390 12442 3391 1 109.50000 418.400000
3392 12443 3393 1 109.50000 418.400000
3392 12443 3394 1 109.50000 418.400000
3392 12443 3395 1 109.50000 418.400000
3393 12443 3394 1 109.50000 418.400000
3393 12443 3395 1 109.50000 418.400000
3394 12443 3395 1 109.50000 418.400000
513 12444 3396 1 109.50000 418.400000
513 12444 3397 1 109.50000 418.400000
513 12444 3398 1 109.50000 418.400000
3396 12444 3397 1 109.50000 418.400000
3396 12444 3398 1 109.50000 418.400000
3397 12444 3398 1 109.50000 418.400000
588 12445 3399 1 109.50000 418.400000
588 12445 3400 1 109.50000 418.400000
588 12445 3401 1 109.50000 418.400000
3399 12445 3400 1 109.50000 418.400000
3399 12445 3401 1 109.50000 418.400000
3400 12445 3401 1 109.50000 418.400000
3402 12446 3403 1 109.50000 418.400000
3402 12446 3404 1 109.50000 418.400000
3402 12446 3405 1 109.50000 418.400000
3403 12446 3404 1 109.50000 418.400000
3403 12446 3405 1 109.50000 418.400000
3404 12446 3405 1 109.50000 418.400000
26 12447 2286 1 109.50000 418.400000
26 12447 3213 1 109.50000 418.400000
26 12447 3406 1 109.50000 418.400000
2286 12447 3213 1 109.50000 418.400000
2286 12447 3406 1 109.50000 418.400000
3213 12447 3406 1 109.50000 418.400000
524 12448 3408 1 109.50000 418.400000
524 12448 3409 1 109.50000 418.400000
524 12448 4419 1 109.50000 418.400000
3408 12448 3409 1 109.50000 418.400000
3408 12448 4419 1 109.50000 418.400000
3409 12448 4419 1 109.50000 418.400000
3410 12449 3411 1 109.50000 418.400000
3410 12449 3412 1 109.50000 418.400000
3410 12449 3413 1 109.50000 418.400000
3411 12449 3412 1 109.50000 418.400000
3411 12449 3413 1 109.50000 418.400000
3412 12449 3413 1 109.50000 418.400000
1284 12450 3414 1 109.50000 418.400000
1284 12450 3416 1 109.50000 418.400000
1284 12450 5927 1 109.50000 418.400000
3414 12450 3416 1 109.50000 418.400000
3414 12450 5927 1 109.50000 418.400000
3416 12450 5927 1 109.50000 418.400000
3420 12451 3421 1 109.50000 418.400000
3420 12451 3422 1 109.50000 418.400000
3420 12451 3423 1 109.50000 418.400000
3421 12451 3422 1 109.50000 418.400000
3421 12451 3423 1 109.50000 418.400000
3422 12451 3423 1 109.50000 418.400000
11 12452 3424 1 109.50000 418.400000
11 12452 3425 1 109.50000 418.400000
11 12452 11360 1 109.50000 418.400000
3424 12452 3425 1 109.50000 418.400000
3424 12452 11360 1 109.50000 418.400000
3425 12452 11360 1 109.50000 418.400000
3426 12453 3427 1 109.50000 418.400000
3426 12453 3428 1 109.50000 418.400000
3426 12453 3429 1 109.50000 418.400000
3427 12453 3428 1 109.50000 418.400000
3427 12453 3429 1 109.50000 418.400000
3428 12453 3429 1 109.50000 418.400000
3023 12454 3132 1 109.50000 418.400000
3023 12454 3432 1 109.50000 418.400000
3023 12454 3433 1 109.50000 418.400000
3132 12454 3432 1 109.50000 418.400000
3132 12454 3433 1 109.50000 418.400000
3432 12454 3433 1 109.50000 418.400000
3435 12455 3436 1 109.50000 418.400000
3435 12455 3437 1 109.50000 418.400000
3435 12455 3438 1 109.50000 418.400000
3436 12455 3437 1 109.50000 418.400000
3436 12455 3438 1 109.50000 418.400000
3437 12455 3438 1 109.50000 418.400000
3439 12456 3440 1 109.50000 418.400000
3439 12456 3441 1 109.50000 418.400000
3439 12456 3442 1 109.50000 418.400000
3440 12456 3441 1 109.50000 418.400000
3440 12456 3442 1 109.50000 418.400000
3441 12456 3442 1 109.50000 418.400000
2513 12457 2832 1 109.50000 418.400000
2513 12457 3374 1 109.50000 418.400000
2513 12457 3443 1 109.50000 418.400000
2832 12457 3374 1 109.50000 418.400000
2832 12457 3443 1 109.50000 418.400000
3374 12457 3443 1 109.50000 418.400000
3444 12458 3445 1 109.50000 418.400000
3444 12458 3446 1 109.50000 418.400000
3444 12458 3447 1 109.50000 418.400000
3445 12458 3446 1 109.50000 418.400000
3445 12458 3447 1 109.50000 418.400000
3446 12458 3447 1 109.50000 418.400000
3448 12459 3449 1 109.50000 418.400000
3448 12459 3450 1 109.50000 418.400000
3448 12459 3451 1 109.50000 418.400000
3449 12459 3450 1 109.50000 418.400000
3449 12459 3451 1 109.50000 418.400000
3450 12459 3451 1 109.50000 418.400000
56 12460 2671 1 109.50000 418.400000
56 12460 3452 1 109.50000 418.400000
56 12460 3453 1 109.50000 418.400000
2671 12460 3452 1 109.50000 418.400000
2671 12460 3453 1 109.50000 418.400000
3452 12460 3453 1 109.50000 418.400000
1571 12461 3454 1 109.50000 418.400000
1571 12461 3455 1 109.50000 418.400000
1571 12461 3456 1 109.50000 418.400000
3454 12461 3455 1 109.50000 418.400000
3454 12461 3456 1 109.50000 418.400000
3455 12461 3456 1 109.50000 418.400000
1439 12462 1472 1 109.50000 418.400000
1439 12462 3457 1 109.50000 418.400000
1439 12462 3459 1 109.50000 418.400000
1472 12462 3457 1 109.50000 418.400000
1472 12462 3459 1 109.50000 418.400000
3457 12462 3459 1 109.50000 418.400000
3460 12463 3461 1 109.50000 418.400000
3460 12463 3462 1 109.50000 418.400000
3460 12463 3463 1 109.50000 418.400000
3461 12463 3462 1 109.50000 418.400000
3461 12463 3463 1 109.50000 418.400000
3462 12463 3463 1 109.50000 418.400000
3464 12464 3465 1 109.50000 418.400000
3464 12464 3466 1 109.50000 418.400000
3464 12464 3467 1 109.50000 418.400000
3465 12464 3466 1 109.50000 418.400000
3465 12464 3467 1 109.50000 418.400000
3466 12464 3467 1 109.50000 418.400000
2460 12465 3468 1 109.50000 418.400000
2460 12465 3469 1 109.50000 418.400000
2460 12465 3470 1 109.50000 418.400000
3468 12465 3469 1 109.50000 418.400000
3468 12465 3470 1 109.50000 418.400000
3469 12465 3470 1 109.50000 418.400000
3471 12466 3472 1 109.50000 418.400000
3471 12466 3473 1 109.50000 418.400000
3471 12466 3474 1 109.50000 418.400000
3472 12466 3473 1 109.50000 418.400000
3472 12466 3474 1 109.50000 418.400000
3473 12466 3474 1 109.50000 418.400000
2365 12467 3434 1 109.50000 418.400000
2365 12467 3475 1 109.50000 418.400000
2365 12467 3476 1 109.50000 418.400000
3434 12467 3475 1 109.50000 418.400000
3434 12467 3476 1 109.50000 418.400000
3475 12467 3476 1 109.50000 418.400000
3480 12468 3481 1 109.50000 418.400000
3480 12468 3482 1 109.50000 418.400000
3480 12468 3483 1 109.50000 418.400000
3481 12468 3482 1 109.50000 418.400000
3481 12468 3483 1 109.50000 418.400000
3482 12468 3483 1 109.50000 418.400000
784 12469 2738 1 109.50000 418.400000
784 12469 3484 1 109.50000 418.400000
784 12469 3485 1 109.50000 418.400000
2738 12469 3484 1 109.50000 418.400000
2738 12469 3485 1 109.50000 418.400000
3484 12469 3485 1 109.50000 418.400000
3486 12470 3487 1 109.50000 418.400000
3486 12470 3488 1 109.50000 418.400000
3486 12470 11470 1 109.50000 418.400000
3487 12470 3488 1 109.50000 418.400000
3487 12470 11470 1 109.50000 418.400000
3488 12470 11470 1 109.50000 418.400000
729 12471 3489 1 109.50000 418.400000
729 12471 3490 1 109.50000 418.400000
729 12471 3491 1 109.50000 418.400000
3489 12471 3490 1 109.50000 418.400000
3489 12471 3491 1 109.50000 418.400000
3490 12471 3491 1 109.50000 418.400000
3495 12472 3496 1 109.50000 418.400000
3495 12472 3497 1 109.50000 418.400000
3495 12472 3498 1 109.50000 418.400000
3496 12472 3497 1 109.50000 418.400000
3496 12472 3498 1 109.50000 418.400000
3497 12472 3498 1 109.50000 418.400000
3499 12473 3500 1 109.50000 418.400000
3499 12473 3501 1 109.50000 418.400000
3499 12473 3502 1 109.50000 418.400000
3500 12473 3501 1 109.50000 418.400000
3500 12473 3502 1 109.50000 418.400000
3501 12473 3502 1 109.50000 418.400000
1565 12474 3503 1 109.50000 418.400000
1565 12474 3504 1 109.50000 418.400000
1565 12474 3505 1 109.50000 418.400000
3503 12474 3504 1 109.50000 418.400000
3503 12474 3505 1 109.50000 418.400000
3504 12474 3505 1 109.50000 418.400000
3506 12475 3507 1 109.50000 418.400000
3506 12475 3508 1 109.50000 418.400000
3506 12475 3509 1 109.50000 418.400000
3507 12475 3508 1 109.50000 418.400000
3507 12475 3509 1 109.50000 418.400000
3508 12475 3509 1 109.50000 418.400000
3510 12476 3511 1 109.50000 418.400000
3510 12476 3512 1 109.50000 418.400000
3510 12476 3513 1 109.50000 418.400000
3511 12476 3512 1 109.50000 418.400000
3511 12476 3513 1 109.50000 418.400000
3512 12476 3513 1 109.50000 418.400000
3214 12477 3215 1 109.50000 418.400000
3214 12477 3514 1 109.50000 418.400000
3214 12477 3515 1 109.50000 418.400000
3215 12477 3514 1 109.50000 418.400000
3215 12477 3515 1 109.50000 418.400000
3514 12477 3515 1 109.50000 418.400000
267 12478 3516 1 109.50000 418.400000
267 12478 3517 1 109.50000 418.400000
267 12478 9304 1 109.50000 418.400000
3516 12478 3517 1 109.50000 418.400000
3516 12478 9304 1 109.50000 418.400000
3517 12478 9304 1 109.50000 418.400000
903 12479 3518 1 109.50000 418.400000
903 12479 3519 1 109.50000 418.400000
903 12479 3520 1 109.50000 418.400000
3518 12479 3519 1 109.50000 418.400000
3518 12479 3520 1 109.50000 418.400000
3519 12479 3520 1 109.50000 418.400000
3521 12480 3522 1 109.50000 418.400000
3521 12480 3523 1 109.50000 418.400000
3521 12480 3524 1 109.50000 418.400000
3522 12480 3523 1 109.50000 418.400000
3522 12480 3524 1 109.50000 418.400000
3523 12480 3524 1 109.50000 418.400000
219 12481 3528 1 109.50000 418.400000
219 12481 3529 1 109.50000 418.400000
219 12481 3530 1 109.50000 418.400000
3528 12481 3529 1 109.50000 418.400000
3528 12481 3530 1 109.50000 418.400000
3529 12481 3530 1 109.50000 418.400000
3531 12482 3532 1 109.50000 418.400000
3531 12482 3533 1 109.50000 418.400000
3531 12482 3534 1 109.50000 418.400000
3532 12482 3533 1 109.50000 418.400000
3532 12482 3534 1 109.50000 418.400000
3533 12482 3534 1 109.50000 418.400000
720 12483 3535 1 109.50000 418.400000
720 12483 3536 1 109.50000 418.400000
720 12483 3537 1 109.50000 418.400000
3535 12483 3536 1 109.50000 418.400000
3535 12483 3537 1 109.50000 418.400000
3536 12483 3537 1 109.50000 418.400000
3538 12484 3539 1 109.50000 418.400000
3538 12484 3540 1 109.50000 418.400000
3538 12484 3541 1 109.50000 418.400000
3539 12484 3540 1 109.50000 418.400000
3539 12484 3541 1 109.50000 418.400000
3540 12484 3541 1 109.50000 418.400000
3542 12485 3543 1 109.50000 418.400000
3542 12485 3544 1 109.50000 418.400000
3542 12485 3545 1 109.50000 418.400000
3543 12485 3544 1 109.50000 418.400000
3543 12485 3545 1 109.50000 418.400000
3544 12485 3545 1 109.50000 418.400000
1743 12486 3546 1 109.50000 418.400000
1743 12486 3547 1 109.50000 418.400000
1743 12486 3548 1 109.50000 418.400000
3546 12486 3547 1 109.50000 418.400000
3546 12486 3548 1 109.50000 418.400000
3547 12486 3548 1 109.50000 418.400000
3549 12487 3550 1 109.50000 418.400000
3549 12487 3551 1 109.50000 418.400000
3549 12487 3552 1 109.50000 418.400000
3550 12487 3551 1 109.50000 418.400000
3550 12487 3552 1 109.50000 418.400000
3551 12487 3552 1 109.50000 418.400000
1886 12488 2850 1 109.50000 418.400000
1886 12488 3553 1 109.50000 418.400000
1886 12488 3554 1 109.50000 418.400000
2850 12488 3553 1 109.50000 418.400000
2850 12488 3554 1 109.50000 418.400000
3553 12488 3554 1 109.50000 418.400000
3555 12489 3556 1 109.50000 418.400000
3555 12489 3557 1 109.50000 418.400000
3555 12489 3558 1 109.50000 418.400000
3556 12489 3557 1 109.50000 418.400000
3556 12489 3558 1 109.50000 418.400000
3557 12489 3558 1 109.50000 418.400000
3563 12490 3564 1 109.50000 418.400000
3563 12490 6283 1 109.50000 418.400000
3563 12490 10332 1 109.50000 418.400000
3564 12490 6283 1 109.50000 418.400000
3564 12490 10332 1 109.50000 418.400000
6283 12490 10332 1 109.50000 418.400000
3566 12491 3567 1 109.50000 418.400000
3566 12491 3568 1 109.50000 418.400000
3566 12491 11273 1 109.50000 418.400000
3567 12491 3568 1 109.50000 418.400000
3567 12491 11273 1 109.50000 418.400000
3568 12491 11273 1 109.50000 418.400000
3571 12492 3572 1 109.50000 418.400000
3571 12492 3573 1 109.50000 418.400000
3571 12492 3574 1 109.50000 418.400000
3572 12492 3573 1 109.50000 418.400000
3572 12492 3574 1 109.50000 418.400000
3573 12492 3574 1 109.50000 418.400000
745 12493 3455 1 109.50000 418.400000
745 12493 3575 1 109.50000 418.400000
745 12493 3576 1 109.50000 418.400000
3455 12493 3575 1 109.50000 418.400000
3455 12493 3576 1 109.50000 418.400000
3575 12493 3576 1 109.50000 418.400000
1648 12494 1649 1 109.50000 418.400000
1648 12494 3578 1 109.50000 418.400000
1648 12494 3579 1 109.50000 418.400000
1649 12494 3578 1 109.50000 418.400000
1649 12494 3579 1 109.50000 418.400000
3578 12494 3579 1 109.50000 418.400000
3002 12495 3580 1 109.50000 418.400000
3002 12495 3581 1 109.50000 418.400000
3002 12495 3582 1 109.50000 418.400000
3580 12495 3581 1 109.50000 418.400000
3580 12495 3582 1 109.50000 418.400000
3581 12495 3582 1 109.50000 418.400000
755 12496 2127 1 109.50000 418.400000
755 12496 3436 1 109.50000 418.400000
755 12496 3583 1 109.50000 418.400000
2127 12496 3436 1 109.50000 418.400000
2127 12496 3583 1 109.50000 418.400000
3436 12496 3583 1 109.50000 418.400000
286 12497 3584 1 109.50000 418.400000
286 12497 3585 1 109.50000 418.400000
286 12497 3586 1 109.50000 418.400000
3584 12497 3585 1 109.50000 418.400000
3584 12497 3586 1 109.50000 418.400000
3585 12497 3586 1 109.50000 418.400000
3588 12498 3589 1 109.50000 418.400000
3588 12498 3590 1 109.50000 418.400000
3588 12498 5393 1 109.50000 418.400000
3589 12498 3590 1 109.50000 418.400000
3589 12498 5393 1 109.50000 418.400000
3590 12498 5393 1 109.50000 418.400000
3591 12499 3592 1 109.50000 418.400000
3591 12499 3593 1 109.50000 418.400000
3591 12499 3594 1 109.50000 418.400000
3592 12499 3593 1 109.50000 418.400000
3592 12499 3594 1 109.50000 418.400000
3593 12499 3594 1 109.50000 418.400000
2446 12500 3595 1 109.50000 418.400000
2446 12500 3596 1 109.50000 418.400000
2446 12500 3597 1 109.50000 418.400000
3595 12500 3596 1 109.50000 418.400000
3595 12500 3597 1 109.50000 418.400000
3596 12500 3597 1 109.50000 418.400000
644 12501 3598 1 109.50000 418.400000
644 12501 3599 1 109.50000 418.400000
644 12501 3600 1 109.50000 418.400000
3598 12501 3599 1 109.50000 418.400000
3598 12501 3600 1 109.50000 418.400000
3599 12501 3600 1 109.50000 418.400000
612 12502 3602 1 109.50000 418.400000
612 12502 3603 1 109.50000 418.400000
612 12502 3604 1 109.50000 418.400000
3602 12502 3603 1 109.50000 418.400000
3602 12502 3604 1 109.50000 418.400000
3603 12502 3604 1 109.50000 418.400000
3605 12503 3606 1 109.50000 418.400000
3605 12503 3607 1 109.50000 418.400000
3605 12503 3608 1 109.50000 418.400000
3606 12503 3607 1 109.50000 418.400000
3606 12503 3608 1 109.50000 418.400000
3607 12503 3608 1 109.50000 418.400000
3609 12504 3610 1 109.50000 418.400000
3609 12504 3611 1 109.50000 418.400000
3609 12504 3612 1 109.50000 418.400000
3610 12504 3611 1 109.50000 418.400000
3610 12504 3612 1 109.50000 418.400000
3611 12504 3612 1 109.50000 418.400000
3613 12505 3614 1 109.50000 418.400000
3613 12505 3615 1 109.50000 418.400000
3613 12505 3616 1 109.50000 418.400000
3614 12505 3615 1 109.50000 418.400000
3614 12505 3616 1 109.50000 418.400000
3615 12505 3616 1 109.50000 418.400000
1499 12506 1500 1 109.50000 418.400000
1499 12506 3618 1 109.50000 418.400000
1499 12506 3619 1 109.50000 418.400000
1500 12506 3618 1 109.50000 418.400000
1500 12506 3619 1 109.50000 418.400000
3618 12506 3619 1 109.50000 418.400000
855 12507 3620 1 109.50000 418.400000
855 12507 3621 1 109.50000 418.400000
855 12507 3622 1 109.50000 418.400000
3620 12507 3621 1 109.50000 418.400000
3620 12507 3622 1 109.50000 418.400000
3621 12507 3622 1 109.50000 418.400000
3623 12508 3624 1 109.50000 418.400000
3623 12508 3626 1 109.50000 418.400000
3623 12508 6768 1 109.50000 418.400000
3624 12508 3626 1 109.50000 418.400000
3624 12508 6768 1 109.50000 418.400000
3626 12508 6768 1 109.50000 418.400000
1939 12509 3627 1 109.50000 418.400000
1939 12509 11149 1 109.50000 418.400000
1939 12509 11364 1 109.50000 418.400000
3627 12509 11149 1 109.50000 418.400000
3627 12509 11364 1 109.50000 418.400000
11149 12509 11364 1 109.50000 418.400000
543 12510 3629 1 109.50000 418.400000
543 12510 3631 1 109.50000 418.400000
543 12510 7820 1 109.50000 418.400000
3629 12510 3631 1 109.50000 418.400000
3629 12510 7820 1 109.50000 418.400000
3631 12510 7820 1 109.50000 418.400000
669 12511 3632 1 109.50000 418.400000
669 12511 3633 1 109.50000 418.400000
669 12511 3634 1 109.50000 418.400000
3632 12511 3633 1 109.50000 418.400000
3632 12511 3634 1 109.50000 418.400000
3633 12511 3634 1 109.50000 418.400000
641 12512 1555 1 109.50000 418.400000
641 12512 3636 1 109.50000 418.400000
641 12512 3637 1 109.50000 418.400000
1555 12512 3636 1 109.50000 418.400000
1555 12512 3637 1 109.50000 418.400000
3636 12512 3637 1 109.50000 418.400000
3638 12513 3639 1 109.50000 418.400000
3638 12513 3640 1 109.50000 418.400000
3638 12513 3641 1 109.50000 418.400000
3639 12513 3640 1 109.50000 418.400000
3639 12513 3641 1 109.50000 418.400000
3640 12513 3641 1 109.50000 418.400000
1118 12514 3642 1 109.50000 418.400000
1118 12514 3643 1 109.50000 418.400000
1118 12514 11294 1 109.50000 418.400000
3642 12514 3643 1 109.50000 418.400000
3642 12514 11294 1 109.50000 418.400000
3643 12514 11294 1 109.50000 418.400000
2584 12515 3644 1 109.50000 418.400000
2584 12515 3645 1 109.50000 418.400000
2584 12515 11240 1 109.50000 418.400000
3644 12515 3645 1 109.50000 418.400000
3644 12515 11240 1 109.50000 418.400000
3645 12515 11240 1 109.50000 418.400000
1766 12516 3646 1 109.50000 418.400000
1766 12516 3647 1 109.50000 418.400000
1766 12516 3648 1 109.50000 418.400000
3646 12516 3647 1 109.50000 418.400000
3646 12516 3648 1 109.50000 418.400000
3647 12516 3648 1 109.50000 418.400000
2436 12517 3259 1 109.50000 418.400000
2436 12517 3649 1 109.50000 418.400000
2436 12517 3650 1 109.50000 418.400000
3259 12517 3649 1 109.50000 418.400000
3259 12517 3650 1 109.50000 418.400000
3649 12517 3650 1 109.50000 418.400000
2845 12518 3651 1 109.50000 418.400000
2845 12518 3652 1 109.50000 418.400000
2845 12518 3653 1 109.50000 418.400000
3651 12518 3652 1 109.50000 418.400000
3651 12518 3653 1 109.50000 418.400000
3652 12518 3653 1 109.50000 418.400000
3654 12519 3656 1 109.50000 418.400000
3654 12519 3657 1 109.50000 418.400000
3654 12519 4332 1 109.50000 418.400000
3656 12519 3657 1 109.50000 418.400000
3656 12519 4332 1 109.50000 418.400000
3657 12519 4332 1 109.50000 418.400000
1744 12520 3658 1 109.50000 418.400000
1744 12520 3659 1 109.50000 418.400000
1744 12520 3660 1 109.50000 418.400000
3658 12520 3659 1 109.50000 418.400000
3658 12520 3660 1 109.50000 418.400000
3659 12520 3660 1 109.50000 418.400000
3032 12521 3661 1 109.50000 418.400000
3032 12521 3662 1 109.50000 418.400000
3032 12521 3663 1 109.50000 418.400000
3661 12521 3662 1 109.50000 418.400000
3661 12521 3663 1 109.50000 418.400000
3662 12521 3663 1 109.50000 418.400000
3664 12522 3665 1 109.50000 418.400000
3664 12522 3666 1 109.50000 418.400000
3664 12522 3667 1 109.50000 418.400000
3665 12522 3666 1 109.50000 418.400000
3665 12522 3667 1 109.50000 418.400000
3666 12522 3667 1 109.50000 418.400000
3668 12523 3669 1 109.50000 418.400000
3668 12523 3670 1 109.50000 418.400000
3668 12523 3671 1 109.50000 418.400000
3669 12523 3670 1 109.50000 418.400000
3669 12523 3671 1 109.50000 418.400000
3670 12523 3671 1 109.50000 418.400000
3672 12524 3673 1 109.50000 418.400000
3672 12524 3674 1 109.50000 418.400000
3672 12524 3675 1 109.50000 418.400000
3673 12524 3674 1 109.50000 418.400000
3673 12524 3675 1 109.50000 418.400000
3674 12524 3675 1 109.50000 418.400000
2216 12525 3678 1 109.50000 418.400000
2216 12525 3679 1 109.50000 418.400000
2216 12525 3680 1 109.50000 418.400000
3678 12525 3679 1 109.50000 418.400000
3678 12525 3680 1 109.50000 418.400000
3679 12525 3680 1 109.50000 418.400000
1802 12526 3274 1 109.50000 418.400000
1802 12526 3681 1 109.50000 418.400000
1802 12526 3682 1 109.50000 418.400000
3274 12526 3681 1 109.50000 418.400000
3274 12526 3682 1 109.50000 418.400000
3681 12526 3682 1 109.50000 418.400000
822 12527 3683 1 109.50000 418.400000
822 12527 3684 1 109.50000 418.400000
822 12527 3685 1 109.50000 418.400000
3683 12527 3684 1 109.50000 418.400000
3683 12527 3685 1 109.50000 418.400000
3684 12527 3685 1 109.50000 418.400000
2082 12528 2857 1 109.50000 418.400000
2082 12528 3686 1 109.50000 418.400000
2082 12528 3687 1 109.50000 418.400000
2857 12528 3686 1 109.50000 418.400000
2857 12528 3687 1 109.50000 418.400000
3686 12528 3687 1 109.50000 418.400000
2088 12529 3688 1 109.50000 418.400000
2088 12529 3689 1 109.50000 418.400000
2088 12529 3690 1 109.50000 418.400000
3688 12529 3689 1 109.50000 418.400000
3688 12529 3690 1 109.50000 418.400000
3689 12529 3690 1 109.50000 418.400000
1845 12530 3691 1 109.50000 418.400000
1845 12530 3692 1 109.50000 418.400000
1845 12530 3693 1 109.50000 418.400000
3691 12530 3692 1 109.50000 418.400000
3691 12530 3693 1 109.50000 418.400000
3692 12530 3693 1 109.50000 418.400000
3694 12531 3695 1 109.50000 418.400000
3694 12531 3696 1 109.50000 418.400000
3694 12531 3697 1 109.50000 418.400000
3695 12531 3696 1 109.50000 418.400000
3695 12531 3697 1 109.50000 418.400000
3696 12531 3697 1 109.50000 418.400000
3698 12532 3699 1 109.50000 418.400000
3698 12532 3700 1 109.50000 418.400000
3698 12532 3701 1 109.50000 418.400000
3699 12532 3700 1 109.50000 418.400000
3699 12532 3701 1 109.50000 418.400000
3700 12532 3701 1 109.50000 418.400000
950 12533 1396 1 109.50000 418.400000
950 12533 3702 1 109.50000 418.400000
950 12533 3703 1 109.50000 418.400000
1396 12533 3702 1 109.50000 418.400000
1396 12533 3703 1 109.50000 418.400000
3702 12533 3703 1 109.50000 418.400000
3704 12534 3705 1 109.50000 418.400000
3704 12534 3706 1 109.50000 418.400000
3704 12534 3707 1 109.50000 418.400000
3705 12534 3706 1 109.50000 418.400000
3705 12534 3707 1 109.50000 418.400000
3706 12534 3707 1 109.50000 418.400000
3709 12535 3710 1 109.50000 418.400000
3709 12535 3711 1 109.50000 418.400000
3709 12535 10468 1 109.50000 418.400000
3710 12535 3711 1 109.50000 418.400000
3710 12535 10468 1 109.50000 418.400000
3711 12535 10468 1 109.50000 418.400000
3712 12536 3713 1 109.50000 418.400000
3712 12536 3715 1 109.50000 418.400000
3712 12536 6794 1 109.50000 418.400000
3713 12536 3715 1 109.50000 418.400000
3713 12536 6794 1 109.50000 418.400000
3715 12536 6794 1 109.50000 418.400000
3716 12537 3717 1 109.50000 418.400000
3716 12537 3718 1 109.50000 418.400000
3716 12537 3719 1 109.50000 418.400000
3717 12537 3718 1 109.50000 418.400000
3717 12537 3719 1 109.50000 418.400000
3718 12537 3719 1 109.50000 418.400000
1004 12538 3720 1 109.50000 418.400000
1004 12538 3721 1 109.50000 418.400000
1004 12538 3722 1 109.50000 418.400000
3720 12538 3721 1 109.50000 418.400000
3720 12538 3722 1 109.50000 418.400000
3721 12538 3722 1 109.50000 418.400000
673 12539 3723 1 109.50000 418.400000
673 12539 3724 1 109.50000 418.400000
673 12539 3725 1 109.50000 418.400000
3723 12539 3724 1 109.50000 418.400000
3723 12539 3725 1 109.50000 418.400000
3724 12539 3725 1 109.50000 418.400000
2064 12540 2697 1 109.50000 418.400000
2064 12540 3726 1 109.50000 418.400000
2064 12540 3727 1 109.50000 418.400000
2697 12540 3726 1 109.50000 418.400000
2697 12540 3727 1 109.50000 418.400000
3726 12540 3727 1 109.50000 418.400000
3728 12541 3730 1 109.50000 418.400000
3728 12541 3731 1 109.50000 418.400000
3728 12541 6971 1 109.50000 418.400000
3730 12541 3731 1 109.50000 418.400000
3730 12541 6971 1 109.50000 418.400000
3731 12541 6971 1 109.50000 418.400000
3732 12542 3733 1 109.50000 418.400000
3732 12542 3734 1 109.50000 418.400000
3732 12542 3735 1 109.50000 418.400000
3733 12542 3734 1 109.50000 418.400000
3733 12542 3735 1 109.50000 418.400000
3734 12542 3735 1 109.50000 418.400000
18 12543 3738 1 109.50000 418.400000
18 12543 3739 1 109.50000 418.400000
18 12543 3740 1 109.50000 418.400000
3738 12543 3739 1 109.50000 418.400000
3738 12543 3740 1 109.50000 418.400000
3739 12543 3740 1 109.50000 418.400000
3741 12544 3742 1 109.50000 418.400000
3741 12544 3743 1 109.50000 418.400000
3741 12544 3744 1 109.50000 418.400000
3742 12544 3743 1 109.50000 418.400000
3742 12544 3744 1 109.50000 418.400000
3743 12544 3744 1 109.50000 418.400000
3745 12545 3746 1 109.50000 418.400000
3745 12545 3747 1 109.50000 418.400000
3745 12545 3748 1 109.50000 418.400000
3746 12545 3747 1 109.50000 418.400000
3746 12545 3748 1 109.50000 418.400000
3747 12545 3748 1 109.50000 418.400000
1265 12546 3477 1 109.50000 418.400000
1265 12546 3749 1 109.50000 418.400000
1265 12546 3750 1 109.50000 418.400000
3477 12546 3749 1 109.50000 418.400000
3477 12546 3750 1 109.50000 418.400000
3749 12546 3750 1 109.50000 418.400000
3751 12547 3752 1 109.50000 418.400000
3751 12547 3753 1 109.50000 418.400000
3751 12547 3754 1 109.50000 418.400000
3752 12547 3753 1 109.50000 418.400000
3752 12547 3754 1 109.50000 418.400000
3753 12547 3754 1 109.50000 418.400000
3755 12548 3756 1 109.50000 418.400000
3755 12548 3757 1 109.50000 418.400000
3755 12548 3758 1 109.50000 418.400000
3756 12548 3757 1 109.50000 418.400000
3756 12548 3758 1 109.50000 418.400000
3757 12548 3758 1 109.50000 418.400000
2572 12549 2573 1 109.50000 418.400000
2572 12549 3760 1 109.50000 418.400000
2572 12549 3761 1 109.50000 418.400000
2573 12549 3760 1 109.50000 418.400000
2573 12549 3761 1 109.50000 418.400000
3760 12549 3761 1 109.50000 418.400000
2524 12550 3315 1 109.50000 418.400000
2524 12550 3762 1 109.50000 418.400000
2524 12550 3763 1 109.50000 418.400000
3315 12550 3762 1 109.50000 418.400000
3315 12550 3763 1 109.50000 418.400000
3762 12550 3763 1 109.50000 418.400000
1134 12551 1152 1 109.50000 418.400000
1134 12551 3764 1 109.50000 418.400000
1134 12551 3765 1 109.50000 418.400000
1152 12551 3764 1 109.50000 418.400000
1152 12551 3765 1 109.50000 418.400000
3764 12551 3765 1 109.50000 418.400000
3766 12552 3767 1 109.50000 418.400000
3766 12552 3768 1 109.50000 418.400000
3766 12552 3769 1 109.50000 418.400000
3767 12552 3768 1 109.50000 418.400000
3767 12552 3769 1 109.50000 418.400000
3768 12552 3769 1 109.50000 418.400000
958 12553 960 1 109.50000 418.400000
958 12553 2190 1 109.50000 418.400000
958 12553 2818 1 109.50000 418.400000
960 12553 2190 1 109.50000 418.400000
960 12553 2818 1 109.50000 418.400000
2190 12553 2818 1 109.50000 418.400000
1069 12554 3773 1 109.50000 418.400000
1069 12554 3774 1 109.50000 418.400000
1069 12554 3775 1 109.50000 418.400000
3773 12554 3774 1 109.50000 418.400000
3773 12554 3775 1 109.50000 418.400000
3774 12554 3775 1 109.50000 418.400000
3776 12555 3777 1 109.50000 418.400000
3776 12555 3778 1 109.50000 418.400000
3776 12555 3779 1 109.50000 418.400000
3777 12555 3778 1 109.50000 418.400000
3777 12555 3779 1 109.50000 418.400000
3778 12555 3779 1 109.50000 418.400000
3780 12556 3781 1 109.50000 418.400000
3780 12556 3782 1 109.50000 418.400000
3780 12556 3783 1 109.50000 418.400000
3781 12556 3782 1 109.50000 418.400000
3781 12556 3783 1 109.50000 418.400000
3782 12556 3783 1 109.50000 418.400000
2972 12557 3784 1 109.50000 418.400000
2972 12557 3785 1 109.50000 418.400000
2972 12557 3786 1 109.50000 418.400000
3784 12557 3785 1 109.50000 418.400000
3784 12557 3786 1 109.50000 418.400000
3785 12557 3786 1 109.50000 418.400000
3787 12558 3788 1 109.50000 418.400000
3787 12558 3789 1 109.50000 418.400000
3787 12558 3805 1 109.50000 418.400000
3788 12558 3789 1 109.50000 418.400000
3788 12558 3805 1 109.50000 418.400000
3789 12558 3805 1 109.50000 418.400000
2268 12559 3790 1 109.50000 418.400000
2268 12559 3791 1 109.50000 418.400000
2268 12559 3792 1 109.50000 418.400000
3790 12559 3791 1 109.50000 418.400000
3790 12559 3792 1 109.50000 418.400000
3791 12559 3792 1 109.50000 418.400000
3793 12560 3794 1 109.50000 418.400000
3793 12560 3795 1 109.50000 418.400000
3793 12560 3796 1 109.50000 418.400000
3794 12560 3795 1 109.50000 418.400000
3794 12560 3796 1 109.50000 418.400000
3795 12560 3796 1 109.50000 418.400000
3797 12561 3798 1 109.50000 418.400000
3797 12561 3799 1 109.50000 418.400000
3797 12561 3800 1 109.50000 418.400000
3798 12561 3799 1 109.50000 418.400000
3798 12561 3800 1 109.50000 418.400000
3799 12561 3800 1 109.50000 418.400000
3801 12562 3802 1 109.50000 418.400000
3801 12562 3803 1 109.50000 418.400000
3801 12562 3804 1 109.50000 418.400000
3802 12562 3803 1 109.50000 418.400000
3802 12562 3804 1 109.50000 418.400000
3803 12562 3804 1 109.50000 418.400000
3196 12563 3788 1 109.50000 418.400000
3196 12563 3806 1 109.50000 418.400000
3196 12563 3807 1 109.50000 418.400000
3788 12563 3806 1 109.50000 418.400000
3788 12563 3807 1 109.50000 418.400000
3806 12563 3807 1 109.50000 418.400000
3808 12564 3809 1 109.50000 418.400000
3808 12564 3810 1 109.50000 418.400000
3808 12564 3811 1 109.50000 418.400000
3809 12564 3810 1 109.50000 418.400000
3809 12564 3811 1 109.50000 418.400000
3810 12564 3811 1 109.50000 418.400000
3813 12565 3814 1 109.50000 418.400000
3813 12565 3815 1 109.50000 418.400000
3813 12565 9228 1 109.50000 418.400000
3814 12565 3815 1 109.50000 418.400000
3814 12565 9228 1 109.50000 418.400000
3815 12565 9228 1 109.50000 418.400000
1627 12566 3816 1 109.50000 418.400000
1627 12566 3817 1 109.50000 418.400000
1627 12566 3818 1 109.50000 418.400000
3816 12566 3817 1 109.50000 418.400000
3816 12566 3818 1 109.50000 418.400000
3817 12566 3818 1 109.50000 418.400000
3819 12567 3820 1 109.50000 418.400000
3819 12567 3821 1 109.50000 418.400000
3819 12567 3822 1 109.50000 418.400000
3820 12567 3821 1 109.50000 418.400000
3820 12567 3822 1 109.50000 418.400000
3821 12567 3822 1 109.50000 418.400000
2479 12568 3823 1 109.50000 418.400000
2479 12568 3824 1 109.50000 418.400000
2479 12568 3825 1 109.50000 418.400000
3823 12568 3824 1 109.50000 418.400000
3823 12568 3825 1 109.50000 418.400000
3824 12568 3825 1 109.50000 418.400000
591 12569 3826 1 109.50000 418.400000
591 12569 3827 1 109.50000 418.400000
591 12569 3828 1 109.50000 418.400000
3826 12569 3827 1 109.50000 418.400000
3826 12569 3828 1 109.50000 418.400000
3827 12569 3828 1 109.50000 418.400000
2974 12570 3829 1 109.50000 418.400000
2974 12570 3830 1 109.50000 418.400000
2974 12570 3831 1 109.50000 418.400000
3829 12570 3830 1 109.50000 418.400000
3829 12570 3831 1 109.50000 418.400000
3830 12570 3831 1 109.50000 418.400000
3832 12571 3834 1 109.50000 418.400000
3832 12571 4789 1 109.50000 418.400000
3832 12571 9939 1 109.50000 418.400000
3834 12571 4789 1 109.50000 418.400000
3834 12571 9939 1 109.50000 418.400000
4789 12571 9939 1 109.50000 418.400000
2723 12572 3835 1 109.50000 418.400000
2723 12572 3836 1 109.50000 418.400000
2723 12572 3837 1 109.50000 418.400000
3835 12572 3836 1 109.50000 418.400000
3835 12572 3837 1 109.50000 418.400000
3836 12572 3837 1 109.50000 418.400000
3838 12573 3839 1 109.50000 418.400000
3838 12573 3840 1 109.50000 418.400000
3838 12573 3841 1 109.50000 418.400000
3839 12573 3840 1 109.50000 418.400000
3839 12573 3841 1 109.50000 418.400000
3840 12573 3841 1 109.50000 418.400000
3063 12574 3842 1 109.50000 418.400000
3063 12574 3843 1 109.50000 418.400000
3063 12574 3844 1 109.50000 418.400000
3842 12574 3843 1 109.50000 418.400000
3842 12574 3844 1 109.50000 418.400000
3843 12574 3844 1 109.50000 418.400000
3845 12575 3846 1 109.50000 418.400000
3845 12575 3847 1 109.50000 418.400000
3845 12575 3848 1 109.50000 418.400000
3846 12575 3847 1 109.50000 418.400000
3846 12575 3848 1 109.50000 418.400000
3847 12575 3848 1 109.50000 418.400000
1588 12576 3849 1 109.50000 418.400000
1588 12576 3850 1 109.50000 418.400000
1588 12576 3851 1 109.50000 418.400000
3849 12576 3850 1 109.50000 418.400000
3849 12576 3851 1 109.50000 418.400000
3850 12576 3851 1 109.50000 418.400000
1659 12577 3852 1 109.50000 418.400000
1659 12577 3853 1 109.50000 418.400000
1659 12577 3854 1 109.50000 418.400000
3852 12577 3853 1 109.50000 418.400000
3852 12577 3854 1 109.50000 418.400000
3853 12577 3854 1 109.50000 418.400000
3855 12578 3856 1 109.50000 418.400000
3855 12578 3857 1 109.50000 418.400000
3855 12578 3858 1 109.50000 418.400000
3856 12578 3857 1 109.50000 418.400000
3856 12578 3858 1 109.50000 418.400000
3857 12578 3858 1 109.50000 418.400000
3859 12579 3860 1 109.50000 418.400000
3859 12579 3861 1 109.50000 418.400000
3859 12579 3862 1 109.50000 418.400000
3860 12579 3861 1 109.50000 418.400000
3860 12579 3862 1 109.50000 418.400000
3861 12579 3862 1 109.50000 418.400000
3863 12580 3864 1 109.50000 418.400000
3863 12580 3865 1 109.50000 418.400000
3863 12580 3866 1 109.50000 418.400000
3864 12580 3865 1 109.50000 418.400000
3864 12580 3866 1 109.50000 418.400000
3865 12580 3866 1 109.50000 418.400000
1608 12581 2333 1 109.50000 418.400000
1608 12581 3867 1 109.50000 418.400000
1608 12581 3868 1 109.50000 418.400000
2333 12581 3867 1 109.50000 418.400000
2333 12581 3868 1 109.50000 418.400000
3867 12581 3868 1 109.50000 418.400000
739 12582 1767 1 109.50000 418.400000
739 12582 3563 1 109.50000 418.400000
739 12582 3869 1 109.50000 418.400000
1767 12582 3563 1 109.50000 418.400000
1767 12582 3869 1 109.50000 418.400000
3563 12582 3869 1 109.50000 418.400000
3805 12583 3870 1 109.50000 418.400000
3805 12583 3871 1 109.50000 418.400000
3805 12583 3872 1 109.50000 418.400000
3870 12583 3871 1 109.50000 418.400000
3870 12583 3872 1 109.50000 418.400000
3871 12583 3872 1 109.50000 418.400000
3873 12584 3874 1 109.50000 418.400000
3873 12584 3875 1 109.50000 418.400000
3873 12584 3876 1 109.50000 418.400000
3874 12584 3875 1 109.50000 418.400000
3874 12584 3876 1 109.50000 418.400000
3875 12584 3876 1 109.50000 418.400000
3882 12585 3883 1 109.50000 418.400000
3882 12585 3884 1 109.50000 418.400000
3882 12585 3885 1 109.50000 418.400000
3883 12585 3884 1 109.50000 418.400000
3883 12585 3885 1 109.50000 418.400000
3884 12585 3885 1 109.50000 418.400000
200 12586 3886 1 109.50000 418.400000
200 12586 3887 1 109.50000 418.400000
200 12586 3888 1 109.50000 418.400000
3886 12586 3887 1 109.50000 418.400000
3886 12586 3888 1 109.50000 418.400000
3887 12586 3888 1 109.50000 418.400000
738 12587 3889 1 109.50000 418.400000
738 12587 3890 1 109.50000 418.400000
738 12587 3891 1 109.50000 418.400000
3889 12587 3890 1 109.50000 418.400000
3889 12587 3891 1 109.50000 418.400000
3890 12587 3891 1 109.50000 418.400000
3250 12588 3892 1 109.50000 418.400000
3250 12588 3893 1 109.50000 418.400000
3250 12588 3894 1 109.50000 418.400000
3892 12588 3893 1 109.50000 418.400000
3892 12588 3894 1 109.50000 418.400000
3893 12588 3894 1 109.50000 418.400000
3895 12589 3896 1 109.50000 418.400000
3895 12589 3897 1 109.50000 418.400000
3895 12589 3898 1 109.50000 418.400000
3896 12589 3897 1 109.50000 418.400000
3896 12589 3898 1 109.50000 418.400000
3897 12589 3898 1 109.50000 418.400000
457 12590 3899 1 109.50000 418.400000
457 12590 3900 1 109.50000 418.400000
457 12590 3901 1 109.50000 418.400000
3899 12590 3900 1 109.50000 418.400000
3899 12590 3901 1 109.50000 418.400000
3900 12590 3901 1 109.50000 418.400000
3902 12591 3903 1 109.50000 418.400000
3902 12591 3904 1 109.50000 418.400000
3902 12591 3905 1 109.50000 418.400000
3903 12591 3904 1 109.50000 418.400000
3903 12591 3905 1 109.50000 418.400000
3904 12591 3905 1 109.50000 418.400000
3906 12592 3907 1 109.50000 418.400000
3906 12592 3908 1 109.50000 418.400000
3906 12592 3909 1 109.50000 418.400000
3907 12592 3908 1 109.50000 418.400000
3907 12592 3909 1 109.50000 418.400000
3908 12592 3909 1 109.50000 418.400000
3600 12593 3910 1 109.50000 418.400000
3600 12593 3911 1 109.50000 418.400000
3600 12593 3912 1 109.50000 418.400000
3910 12593 3911 1 109.50000 418.400000
3910 12593 3912 1 109.50000 418.400000
3911 12593 3912 1 109.50000 418.400000
370 12594 3754 1 109.50000 418.400000
370 12594 3913 1 109.50000 418.400000
370 12594 3914 1 109.50000 418.400000
3754 12594 3913 1 109.50000 418.400000
3754 12594 3914 1 109.50000 418.400000
3913 12594 3914 1 109.50000 418.400000
3915 12595 3916 1 109.50000 418.400000
3915 12595 3917 1 109.50000 418.400000
3915 12595 3918 1 109.50000 418.400000
3916 12595 3917 1 109.50000 418.400000
3916 12595 3918 1 109.50000 418.400000
3917 12595 3918 1 109.50000 418.400000
3920 12596 3921 1 109.50000 418.400000
3920 12596 7085 1 109.50000 418.400000
3920 12596 8211 1 109.50000 418.400000
3921 12596 7085 1 109.50000 418.400000
3921 12596 8211 1 109.50000 418.400000
7085 12596 8211 1 109.50000 418.400000
537 12597 727 1 109.50000 418.400000
537 12597 2894 1 109.50000 418.400000
537 12597 3923 1 109.50000 418.400000
727 12597 2894 1 109.50000 418.400000
727 12597 3923 1 109.50000 418.400000
2894 12597 3923 1 109.50000 418.400000
3706 12598 3924 1 109.50000 418.400000
3706 12598 3925 1 109.50000 418.400000
3706 12598 3926 1 109.50000 418.400000
3924 12598 3925 1 109.50000 418.400000
3924 12598 3926 1 109.50000 418.400000
3925 12598 3926 1 109.50000 418.400000
563 12599 2993 1 109.50000 418.400000
563 12599 3927 1 109.50000 418.400000
563 12599 3928 1 109.50000 418.400000
2993 12599 3927 1 109.50000 418.400000
2993 12599 3928 1 109.50000 418.400000
3927 12599 3928 1 109.50000 418.400000
1929 12600 3929 1 109.50000 418.400000
1929 12600 3930 1 109.50000 418.400000
1929 12600 11169 1 109.50000 418.400000
3929 12600 3930 1 109.50000 418.400000
3929 12600 11169 1 109.50000 418.400000
3930 12600 11169 1 109.50000 418.400000
3931 12601 3932 1 109.50000 418.400000
3931 12601 3933 1 109.50000 418.400000
3931 12601 3934 1 109.50000 418.400000
3932 12601 3933 1 109.50000 418.400000
3932 12601 3934 1 109.50000 418.400000
3933 12601 3934 1 109.50000 418.400000
986 12602 3936 1 109.50000 418.400000
986 12602 11349 1 109.50000 418.400000
986 12602 11376 1 109.50000 418.400000
3936 12602 11349 1 109.50000 418.400000
3936 12602 11376 1 109.50000 418.400000
11349 12602 11376 1 109.50000 418.400000
1741 12603 3937 1 109.50000 418.400000
1741 12603 3938 1 109.50000 418.400000
1741 12603 6861 1 109.50000 418.400000
3937 12603 3938 1 109.50000 418.400000
3937 12603 6861 1 109.50000 418.400000
3938 12603 6861 1 109.50000 418.400000
3939 12604 3940 1 109.50000 418.400000
3939 12604 3941 1 109.50000 418.400000
3939 12604 3942 1 109.50000 418.400000
3940 12604 3941 1 109.50000 418.400000
3940 12604 3942 1 109.50000 418.400000
3941 12604 3942 1 109.50000 418.400000
3279 12605 3943 1 109.50000 418.400000
3279 12605 3944 1 109.50000 418.400000
3279 12605 3945 1 109.50000 418.400000
3943 12605 3944 1 109.50000 418.400000
3943 12605 3945 1 109.50000 418.400000
3944 12605 3945 1 109.50000 418.400000
1423 12606 1957 1 109.50000 418.400000
1423 12606 3249 1 109.50000 418.400000
1423 12606 3946 1 109.50000 418.400000
1957 12606 3249 1 109.50000 418.400000
1957 12606 3946 1 109.50000 418.400000
3249 12606 3946 1 109.50000 418.400000
103 12607 3947 1 109.50000 418.400000
103 12607 3948 1 109.50000 418.400000
103 12607 3949 1 109.50000 418.400000
3947 12607 3948 1 109.50000 418.400000
3947 12607 3949 1 109.50000 418.400000
3948 12607 3949 1 109.50000 418.400000
3950 12608 3951 1 109.50000 418.400000
3950 12608 3952 1 109.50000 418.400000
3950 12608 3953 1 109.50000 418.400000
3951 12608 3952 1 109.50000 418.400000
3951 12608 3953 1 109.50000 418.400000
3952 12608 3953 1 109.50000 418.400000
3954 12609 3955 1 109.50000 418.400000
3954 12609 3957 1 109.50000 418.400000
3954 12609 7409 1 109.50000 418.400000
3955 12609 3957 1 109.50000 418.400000
3955 12609 7409 1 109.50000 418.400000
3957 12609 7409 1 109.50000 418.400000
2526 12610 3670 1 109.50000 418.400000
2526 12610 3958 1 109.50000 418.400000
2526 12610 3959 1 109.50000 418.400000
3670 12610 3958 1 109.50000 418.400000
3670 12610 3959 1 109.50000 418.400000
3958 12610 3959 1 109.50000 418.400000
882 12611 1547 1 109.50000 418.400000
882 12611 3960 1 109.50000 418.400000
882 12611 3961 1 109.50000 418.400000
1547 12611 3960 1 109.50000 418.400000
1547 12611 3961 1 109.50000 418.400000
3960 12611 3961 1 109.50000 418.400000
3962 12612 3963 1 109.50000 418.400000
3962 12612 3964 1 109.50000 418.400000
3962 12612 3965 1 109.50000 418.400000
3963 12612 3964 1 109.50000 418.400000
3963 12612 3965 1 109.50000 418.400000
3964 12612 3965 1 109.50000 418.400000
3966 12613 3967 1 109.50000 418.400000
3966 12613 3968 1 109.50000 418.400000
3966 12613 3969 1 109.50000 418.400000
3967 12613 3968 1 109.50000 418.400000
3967 12613 3969 1 109.50000 418.400000
3968 12613 3969 1 109.50000 418.400000
1568 12614 1569 1 109.50000 418.400000
1568 12614 3970 1 109.50000 418.400000
1568 12614 3971 1 109.50000 418.400000
1569 12614 3970 1 109.50000 418.400000
1569 12614 3971 1 109.50000 418.400000
3970 12614 3971 1 109.50000 418.400000
3973 12615 3974 1 109.50000 418.400000
3973 12615 3975 1 109.50000 418.400000
3973 12615 3976 1 109.50000 418.400000
3974 12615 3975 1 109.50000 418.400000
3974 12615 3976 1 109.50000 418.400000
3975 12615 3976 1 109.50000 418.400000
634 12616 3977 1 109.50000 418.400000
634 12616 3978 1 109.50000 418.400000
634 12616 9486 1 109.50000 418.400000
3977 12616 3978 1 109.50000 418.400000
3977 12616 9486 1 109.50000 418.400000
3978 12616 9486 1 109.50000 418.400000
1345 12617 3979 1 109.50000 418.400000
1345 12617 3980 1 109.50000 418.400000
1345 12617 3981 1 109.50000 418.400000
3979 12617 3980 1 109.50000 418.400000
3979 12617 3981 1 109.50000 418.400000
3980 12617 3981 1 109.50000 418.400000
3905 12618 3982 1 109.50000 418.400000
3905 12618 3983 1 109.50000 418.400000
3905 12618 3984 1 109.50000 418.400000
3982 12618 3983 1 109.50000 418.400000
3982 12618 3984 1 109.50000 418.400000
3983 12618 3984 1 109.50000 418.400000
3985 12619 3986 1 109.50000 418.400000
3985 12619 3987 1 109.50000 418.400000
3985 12619 3988 1 109.50000 418.400000
3986 12619 3987 1 109.50000 418.400000
3986 12619 3988 1 109.50000 418.400000
3987 12619 3988 1 109.50000 418.400000
3989 12620 3990 1 109.50000 418.400000
3989 12620 3991 1 109.50000 418.400000
3989 12620 3992 1 109.50000 418.400000
3990 12620 3991 1 109.50000 418.400000
3990 12620 3992 1 109.50000 418.400000
3991 12620 3992 1 109.50000 418.400000
3993 12621 3994 1 109.50000 418.400000
3993 12621 3995 1 109.50000 418.400000
3993 12621 3996 1 109.50000 418.400000
3994 12621 3995 1 109.50000 418.400000
3994 12621 3996 1 109.50000 418.400000
3995 12621 3996 1 109.50000 418.400000
2075 12622 3997 1 109.50000 418.400000
2075 12622 3998 1 109.50000 418.400000
2075 12622 3999 1 109.50000 418.400000
3997 12622 3998 1 109.50000 418.400000
3997 12622 3999 1 109.50000 418.400000
3998 12622 3999 1 109.50000 418.400000
1019 12623 4000 1 109.50000 418.400000
1019 12623 4001 1 109.50000 418.400000
1019 12623 4002 1 109.50000 418.400000
4000 12623 4001 1 109.50000 418.400000
4000 12623 4002 1 109.50000 418.400000
4001 12623 4002 1 109.50000 418.400000
577 12624 1841 1 109.50000 418.400000
577 12624 4003 1 109.50000 418.400000
577 12624 4004 1 109.50000 418.400000
1841 12624 4003 1 109.50000 418.400000
1841 12624 4004 1 109.50000 418.400000
4003 12624 4004 1 109.50000 418.400000
4005 12625 4006 1 109.50000 418.400000
4005 12625 4007 1 109.50000 418.400000
4005 12625 4008 1 109.50000 418.400000
4006 12625 4007 1 109.50000 418.400000
4006 12625 4008 1 109.50000 418.400000
4007 12625 4008 1 109.50000 418.400000
1273 12626 4009 1 109.50000 418.400000
1273 12626 4010 1 109.50000 418.400000
1273 12626 4011 1 109.50000 418.400000
4009 12626 4010 1 109.50000 418.400000
4009 12626 4011 1 109.50000 418.400000
4010 12626 4011 1 109.50000 418.400000
1773 12627 3971 1 109.50000 418.400000
1773 12627 4012 1 109.50000 418.400000
1773 12627 4013 1 109.50000 418.400000
3971 12627 4012 1 109.50000 418.400000
3971 12627 4013 1 109.50000 418.400000
4012 12627 4013 1 109.50000 418.400000
4014 12628 4015 1 109.50000 418.400000
4014 12628 4016 1 109.50000 418.400000
4014 12628 11367 1 109.50000 418.400000
4015 12628 4016 1 109.50000 418.400000
4015 12628 11367 1 109.50000 418.400000
4016 12628 11367 1 109.50000 418.400000
2531 12629 4019 1 109.50000 418.400000
2531 12629 4020 1 109.50000 418.400000
2531 12629 4021 1 109.50000 418.400000
4019 12629 4020 1 109.50000 418.400000
4019 12629 4021 1 109.50000 418.400000
4020 12629 4021 1 109.50000 418.400000
4023 12630 4024 1 109.50000 418.400000
4023 12630 4025 1 109.50000 418.400000
4023 12630 10492 1 109.50000 418.400000
4024 12630 4025 1 109.50000 418.400000
4024 12630 10492 1 109.50000 418.400000
4025 12630 10492 1 109.50000 418.400000
3308 12631 4026 1 109.50000 418.400000
3308 12631 6468 1 109.50000 418.400000
3308 12631 6470 1 109.50000 418.400000
4026 12631 6468 1 109.50000 418.400000
4026 12631 6470 1 109.50000 418.400000
6468 12631 6470 1 109.50000 418.400000
718 12632 4028 1 109.50000 418.400000
718 12632 4029 1 109.50000 418.400000
718 12632 11394 1 109.50000 418.400000
4028 12632 4029 1 109.50000 418.400000
4028 12632 11394 1 109.50000 418.400000
4029 12632 11394 1 109.50000 418.400000
895 12633 897 1 109.50000 418.400000
895 12633 4031 1 109.50000 418.400000
895 12633 4032 1 109.50000 418.400000
897 12633 4031 1 109.50000 418.400000
897 12633 4032 1 109.50000 418.400000
4031 12633 4032 1 109.50000 418.400000
4035 12634 4037 1 109.50000 418.400000
4035 12634 4038 1 109.50000 418.400000
4035 12634 9062 1 109.50000 418.400000
4037 12634 4038 1 109.50000 418.400000
4037 12634 9062 1 109.50000 418.400000
4038 12634 9062 1 109.50000 418.400000
10 12635 507 1 109.50000 418.400000
10 12635 4039 1 109.50000 418.400000
10 12635 4040 1 109.50000 418.400000
507 12635 4039 1 109.50000 418.400000
507 12635 4040 1 109.50000 418.400000
4039 12635 4040 1 109.50000 418.400000
1708 12636 4043 1 109.50000 418.400000
1708 12636 4044 1 109.50000 418.400000
1708 12636 4045 1 109.50000 418.400000
4043 12636 4044 1 109.50000 418.400000
4043 12636 4045 1 109.50000 418.400000
4044 12636 4045 1 109.50000 418.400000
3026 12637 4046 1 109.50000 418.400000
3026 12637 4047 1 109.50000 418.400000
3026 12637 4048 1 109.50000 418.400000
4046 12637 4047 1 109.50000 418.400000
4046 12637 4048 1 109.50000 418.400000
4047 12637 4048 1 109.50000 418.400000
4049 12638 4050 1 109.50000 418.400000
4049 12638 4051 1 109.50000 418.400000
4049 12638 4052 1 109.50000 418.400000
4050 12638 4051 1 109.50000 418.400000
4050 12638 4052 1 109.50000 418.400000
4051 12638 4052 1 109.50000 418.400000
62 12639 4053 1 109.50000 418.400000
62 12639 4054 1 109.50000 418.400000
62 12639 4055 1 109.50000 418.400000
4053 12639 4054 1 109.50000 418.400000
4053 12639 4055 1 109.50000 418.400000
4054 12639 4055 1 109.50000 418.400000
2032 12640 4056 1 109.50000 418.400000
2032 12640 4057 1 109.50000 418.400000
2032 12640 4058 1 109.50000 418.400000
4056 12640 4057 1 109.50000 418.400000
4056 12640 4058 1 109.50000 418.400000
4057 12640 4058 1 109.50000 418.400000
78 12641 4059 1 109.50000 418.400000
78 12641 4060 1 109.50000 418.400000
78 12641 4061 1 109.50000 418.400000
4059 12641 4060 1 109.50000 418.400000
4059 12641 4061 1 109.50000 418.400000
4060 12641 4061 1 109.50000 418.400000
4062 12642 4063 1 109.50000 418.400000
4062 12642 4064 1 109.50000 418.400000
4062 12642 4065 1 109.50000 418.400000
4063 12642 4064 1 109.50000 418.400000
4063 12642 4065 1 109.50000 418.400000
4064 12642 4065 1 109.50000 418.400000
3193 12643 4066 1 109.50000 418.400000
3193 12643 4068 1 109.50000 418.400000
3193 12643 5893 1 109.50000 418.400000
4066 12643 4068 1 109.50000 418.400000
4066 12643 5893 1 109.50000 418.400000
4068 12643 5893 1 109.50000 418.400000
2941 12644 2943 1 109.50000 418.400000
2941 12644 3652 1 109.50000 418.400000
2941 12644 4069 1 109.50000 418.400000
2943 12644 3652 1 109.50000 418.400000
2943 12644 4069 1 109.50000 418.400000
3652 12644 4069 1 109.50000 418.400000
4070 12645 4071 1 109.50000 418.400000
4070 12645 4072 1 109.50000 418.400000
4070 12645 4073 1 109.50000 418.400000
4071 12645 4072 1 109.50000 418.400000
4071 12645 4073 1 109.50000 418.400000
4072 12645 4073 1 109.50000 418.400000
2715 12646 4074 1 109.50000 418.400000
2715 12646 4075 1 109.50000 418.400000
2715 12646 4076 1 109.50000 418.400000
4074 12646 4075 1 109.50000 418.400000
4074 12646 4076 1 109.50000 418.400000
4075 12646 4076 1 109.50000 418.400000
4077 12647 4078 1 109.50000 418.400000
4077 12647 4079 1 109.50000 418.400000
4077 12647 4080 1 109.50000 418.400000
4078 12647 4079 1 109.50000 418.400000
4078 12647 4080 1 109.50000 418.400000
4079 12647 4080 1 109.50000 418.400000
1696 12648 1697 1 109.50000 418.400000
1696 12648 4082 1 109.50000 418.400000
1696 12648 4083 1 109.50000 418.400000
1697 12648 4082 1 109.50000 418.400000
1697 12648 4083 1 109.50000 418.400000
4082 12648 4083 1 109.50000 418.400000
2233 12649 2342 1 109.50000 418.400000
2233 12649 4084 1 109.50000 418.400000
2233 12649 4085 1 109.50000 418.400000
2342 12649 4084 1 109.50000 418.400000
2342 12649 4085 1 109.50000 418.400000
4084 12649 4085 1 109.50000 418.400000
1331 12650 4086 1 109.50000 418.400000
1331 12650 4087 1 109.50000 418.400000
1331 12650 4088 1 109.50000 418.400000
4086 12650 4087 1 109.50000 418.400000
4086 12650 4088 1 109.50000 418.400000
4087 12650 4088 1 109.50000 418.400000
3360 12651 4089 1 109.50000 418.400000
3360 12651 4090 1 109.50000 418.400000
3360 12651 4091 1 109.50000 418.400000
4089 12651 4090 1 109.50000 418.400000
4089 12651 4091 1 109.50000 418.400000
4090 12651 4091 1 109.50000 418.400000
4092 12652 4093 1 109.50000 418.400000
4092 12652 4094 1 109.50000 418.400000
4092 12652 4095 1 109.50000 418.400000
4093 12652 4094 1 109.50000 418.400000
4093 12652 4095 1 109.50000 418.400000
4094 12652 4095 1 109.50000 418.400000
4096 12653 4097 1 109.50000 418.400000
4096 12653 4098 1 109.50000 418.400000
4096 12653 4099 1 109.50000 418.400000
4097 12653 4098 1 109.50000 418.400000
4097 12653 4099 1 109.50000 418.400000
4098 12653 4099 1 109.50000 418.400000
409 12654 1379 1 109.50000 418.400000
409 12654 4100 1 109.50000 418.400000
409 12654 6959 1 109.50000 418.400000
1379 12654 4100 1 109.50000 418.400000
1379 12654 6959 1 109.50000 418.400000
4100 12654 6959 1 109.50000 418.400000
168 12655 4102 1 109.50000 418.400000
168 12655 4103 1 109.50000 418.400000
168 12655 11481 1 109.50000 418.400000
4102 12655 4103 1 109.50000 418.400000
4102 12655 11481 1 109.50000 418.400000
4103 12655 11481 1 109.50000 418.400000
4044 12656 4104 1 109.50000 418.400000
4044 12656 4105 1 109.50000 418.400000
4044 12656 4106 1 109.50000 418.400000
4104 12656 4105 1 109.50000 418.400000
4104 12656 4106 1 109.50000 418.400000
4105 12656 4106 1 109.50000 418.400000
4108 12657 4109 1 109.50000 418.400000
4108 12657 4110 1 109.50000 418.400000
4108 12657 11196 1 109.50000 418.400000
4109 12657 4110 1 109.50000 418.400000
4109 12657 11196 1 109.50000 418.400000
4110 12657 11196 1 109.50000 418.400000
1252 12658 1278 1 109.50000 418.400000
1252 12658 4112 1 109.50000 418.400000
1252 12658 4113 1 109.50000 418.400000
1278 12658 4112 1 109.50000 418.400000
1278 12658 4113 1 109.50000 418.400000
4112 12658 4113 1 109.50000 418.400000
4114 12659 4115 1 109.50000 418.400000
4114 12659 4116 1 109.50000 418.400000
4114 12659 4117 1 109.50000 418.400000
4115 12659 4116 1 109.50000 418.400000
4115 12659 4117 1 109.50000 418.400000
4116 12659 4117 1 109.50000 418.400000
1469 12660 1471 1 109.50000 418.400000
1469 12660 4118 1 109.50000 418.400000
1469 12660 4119 1 109.50000 418.400000
1471 12660 4118 1 109.50000 418.400000
1471 12660 4119 1 109.50000 418.400000
4118 12660 4119 1 109.50000 418.400000
4120 12661 4121 1 109.50000 418.400000
4120 12661 4122 1 109.50000 418.400000
4120 12661 4123 1 109.50000 418.400000
4121 12661 4122 1 109.50000 418.400000
4121 12661 4123 1 109.50000 418.400000
4122 12661 4123 1 109.50000 418.400000
4124 12662 4125 1 109.50000 418.400000
4124 12662 4126 1 109.50000 418.400000
4124 12662 4127 1 109.50000 418.400000
4125 12662 4126 1 109.50000 418.400000
4125 12662 4127 1 109.50000 418.400000
4126 12662 4127 1 109.50000 418.400000
1086 12663 1586 1 109.50000 418.400000
1086 12663 4128 1 109.50000 418.400000
1086 12663 4129 1 109.50000 418.400000
1586 12663 4128 1 109.50000 418.400000
1586 12663 4129 1 109.50000 418.400000
4128 12663 4129 1 109.50000 418.400000
1214 12664 2757 1 109.50000 418.400000
1214 12664 4130 1 109.50000 418.400000
1214 12664 4131 1 109.50000 418.400000
2757 12664 4130 1 109.50000 418.400000
2757 12664 4131 1 109.50000 418.400000
4130 12664 4131 1 109.50000 418.400000
1809 12665 4132 1 109.50000 418.400000
1809 12665 4133 1 109.50000 418.400000
1809 12665 4134 1 109.50000 418.400000
4132 12665 4133 1 109.50000 418.400000
4132 12665 4134 1 109.50000 418.400000
4133 12665 4134 1 109.50000 418.400000
3168 12666 4135 1 109.50000 418.400000
3168 12666 4136 1 109.50000 418.400000
3168 12666 4137 1 109.50000 418.400000
4135 12666 4136 1 109.50000 418.400000
4135 12666 4137 1 109.50000 418.400000
4136 12666 4137 1 109.50000 418.400000
196 12667 4138 1 109.50000 418.400000
196 12667 4139 1 109.50000 418.400000
196 12667 4140 1 109.50000 418.400000
4138 12667 4139 1 109.50000 418.400000
4138 12667 4140 1 109.50000 418.400000
4139 12667 4140 1 109.50000 418.400000
4141 12668 4142 1 109.50000 418.400000
4141 12668 4143 1 109.50000 418.400000
4141 12668 4144 1 109.50000 418.400000
4142 12668 4143 1 109.50000 418.400000
4142 12668 4144 1 109.50000 418.400000
4143 12668 4144 1 109.50000 418.400000
4145 12669 4146 1 109.50000 418.400000
4145 12669 4147 1 109.50000 418.400000
4145 12669 4148 1 109.50000 418.400000
4146 12669 4147 1 109.50000 418.400000
4146 12669 4148 1 109.50000 418.400000
4147 12669 4148 1 109.50000 418.400000
2453 12670 3542 1 109.50000 418.400000
2453 12670 4149 1 109.50000 418.400000
2453 12670 4150 1 109.50000 418.400000
3542 12670 4149 1 109.50000 418.400000
3542 12670 4150 1 109.50000 418.400000
4149 12670 4150 1 109.50000 418.400000
781 12671 4151 1 109.50000 418.400000
781 12671 4152 1 109.50000 418.400000
781 12671 4153 1 109.50000 418.400000
4151 12671 4152 1 109.50000 418.400000
4151 12671 4153 1 109.50000 418.400000
4152 12671 4153 1 109.50000 418.400000
4154 12672 4155 1 109.50000 418.400000
4154 12672 4156 1 109.50000 418.400000
4154 12672 4157 1 109.50000 418.400000
4155 12672 4156 1 109.50000 418.400000
4155 12672 4157 1 109.50000 418.400000
4156 12672 4157 1 109.50000 418.400000
1882 12673 3232 1 109.50000 418.400000
1882 12673 4158 1 109.50000 418.400000
1882 12673 4159 1 109.50000 418.400000
3232 12673 4158 1 109.50000 418.400000
3232 12673 4159 1 109.50000 418.400000
4158 12673 4159 1 109.50000 418.400000
2309 12674 4160 1 109.50000 418.400000
2309 12674 4161 1 109.50000 418.400000
2309 12674 4162 1 109.50000 418.400000
4160 12674 4161 1 109.50000 418.400000
4160 12674 4162 1 109.50000 418.400000
4161 12674 4162 1 109.50000 418.400000
4163 12675 4164 1 109.50000 418.400000
4163 12675 4165 1 109.50000 418.400000
4163 12675 4166 1 109.50000 418.400000
4164 12675 4165 1 109.50000 418.400000
4164 12675 4166 1 109.50000 418.400000
4165 12675 4166 1 109.50000 418.400000
547 12676 4169 1 109.50000 418.400000
547 12676 4170 1 109.50000 418.400000
547 12676 4171 1 109.50000 418.400000
4169 12676 4170 1 109.50000 418.400000
4169 12676 4171 1 109.50000 418.400000
4170 12676 4171 1 109.50000 418.400000
4173 12677 4174 1 109.50000 418.400000
4173 12677 4175 1 109.50000 418.400000
4173 12677 9352 1 109.50000 418.400000
4174 12677 4175 1 109.50000 418.400000
4174 12677 9352 1 109.50000 418.400000
4175 12677 9352 1 109.50000 418.400000
2241 12678 4176 1 109.50000 418.400000
2241 12678 4177 1 109.50000 418.400000
2241 12678 4178 1 109.50000 418.400000
4176 12678 4177 1 109.50000 418.400000
4176 12678 4178 1 109.50000 418.400000
4177 12678 4178 1 109.50000 418.400000
4179 12679 4180 1 109.50000 418.400000
4179 12679 4181 1 109.50000 418.400000
4179 12679 4625 1 109.50000 418.400000
4180 12679 4181 1 109.50000 418.400000
4180 12679 4625 1 109.50000 418.400000
4181 12679 4625 1 109.50000 418.400000
2590 12680 3284 1 109.50000 418.400000
2590 12680 4182 1 109.50000 418.400000
2590 12680 4183 1 109.50000 418.400000
3284 12680 4182 1 109.50000 418.400000
3284 12680 4183 1 109.50000 418.400000
4182 12680 4183 1 109.50000 418.400000
204 12681 2463 1 109.50000 418.400000
204 12681 4184 1 109.50000 418.400000
204 12681 4185 1 109.50000 418.400000
2463 12681 4184 1 109.50000 418.400000
2463 12681 4185 1 109.50000 418.400000
4184 12681 4185 1 109.50000 418.400000
4175 12682 4186 1 109.50000 418.400000
4175 12682 4187 1 109.50000 418.400000
4175 12682 4188 1 109.50000 418.400000
4186 12682 4187 1 109.50000 418.400000
4186 12682 4188 1 109.50000 418.400000
4187 12682 4188 1 109.50000 418.400000
3234 12683 3364 1 109.50000 418.400000
3234 12683 4189 1 109.50000 418.400000
3234 12683 4190 1 109.50000 418.400000
3364 12683 4189 1 109.50000 418.400000
3364 12683 4190 1 109.50000 418.400000
4189 12683 4190 1 109.50000 418.400000
3599 12684 4191 1 109.50000 418.400000
3599 12684 4192 1 109.50000 418.400000
3599 12684 4193 1 109.50000 418.400000
4191 12684 4192 1 109.50000 418.400000
4191 12684 4193 1 109.50000 418.400000
4192 12684 4193 1 109.50000 418.400000
4065 12685 4194 1 109.50000 418.400000
4065 12685 4195 1 109.50000 418.400000
4065 12685 4196 1 109.50000 418.400000
4194 12685 4195 1 109.50000 418.400000
4194 12685 4196 1 109.50000 418.400000
4195 12685 4196 1 109.50000 418.400000
4197 12686 4198 1 109.50000 418.400000
4197 12686 4199 1 109.50000 418.400000
4197 12686 4200 1 109.50000 418.400000
4198 12686 4199 1 109.50000 418.400000
4198 12686 4200 1 109.50000 418.400000
4199 12686 4200 1 109.50000 418.400000
4201 12687 4202 1 109.50000 418.400000
4201 12687 4203 1 109.50000 418.400000
4201 12687 4204 1 109.50000 418.400000
4202 12687 4203 1 109.50000 418.400000
4202 12687 4204 1 109.50000 418.400000
4203 12687 4204 1 109.50000 418.400000
1223 12688 4205 1 109.50000 418.400000
1223 12688 4206 1 109.50000 418.400000
1223 12688 4207 1 109.50000 418.400000
4205 12688 4206 1 109.50000 418.400000
4205 12688 4207 1 109.50000 418.400000
4206 12688 4207 1 109.50000 418.400000
4210 12689 4211 1 109.50000 418.400000
4210 12689 4212 1 109.50000 418.400000
4210 12689 6234 1 109.50000 418.400000
4211 12689 4212 1 109.50000 418.400000
4211 12689 6234 1 109.50000 418.400000
4212 12689 6234 1 109.50000 418.400000
4213 12690 4214 1 109.50000 418.400000
4213 12690 4215 1 109.50000 418.400000
4213 12690 4216 1 109.50000 418.400000
4214 12690 4215 1 109.50000 418.400000
4214 12690 4216 1 109.50000 418.400000
4215 12690 4216 1 109.50000 418.400000
4217 12691 4218 1 109.50000 418.400000
4217 12691 4219 1 109.50000 418.400000
4217 12691 4220 1 109.50000 418.400000
4218 12691 4219 1 109.50000 418.400000
4218 12691 4220 1 109.50000 418.400000
4219 12691 4220 1 109.50000 418.400000
4221 12692 4222 1 109.50000 418.400000
4221 12692 4223 1 109.50000 418.400000
4221 12692 4224 1 109.50000 418.400000
4222 12692 4223 1 109.50000 418.400000
4222 12692 4224 1 109.50000 418.400000
4223 12692 4224 1 109.50000 418.400000
4225 12693 4226 1 109.50000 418.400000
4225 12693 4227 1 109.50000 418.400000
4225 12693 4228 1 109.50000 418.400000
4226 12693 4227 1 109.50000 418.400000
4226 12693 4228 1 109.50000 418.400000
4227 12693 4228 1 109.50000 418.400000
4229 12694 4230 1 109.50000 418.400000
4229 12694 4231 1 109.50000 418.400000
4229 12694 7658 1 109.50000 418.400000
4230 12694 4231 1 109.50000 418.400000
4230 12694 7658 1 109.50000 418.400000
4231 12694 7658 1 109.50000 418.400000
4232 12695 4233 1 109.50000 418.400000
4232 12695 4234 1 109.50000 418.400000
4232 12695 4235 1 109.50000 418.400000
4233 12695 4234 1 109.50000 418.400000
4233 12695 4235 1 109.50000 418.400000
4234 12695 4235 1 109.50000 418.400000
4237 12696 4238 1 109.50000 418.400000
4237 12696 4239 1 109.50000 418.400000
4237 12696 4240 1 109.50000 418.400000
4238 12696 4239 1 109.50000 418.400000
4238 12696 4240 1 109.50000 418.400000
4239 12696 4240 1 109.50000 418.400000
4241 12697 4242 1 109.50000 418.400000
4241 12697 4243 1 109.50000 418.400000
4241 12697 11284 1 109.50000 418.400000
4242 12697 4243 1 109.50000 418.400000
4242 12697 11284 1 109.50000 418.400000
4243 12697 11284 1 109.50000 418.400000
4244 12698 4245 1 109.50000 418.400000
4244 12698 4246 1 109.50000 418.400000
4244 12698 4247 1 109.50000 418.400000
4245 12698 4246 1 109.50000 418.400000
4245 12698 4247 1 109.50000 418.400000
4246 12698 4247 1 109.50000 418.400000
4248 12699 4249 1 109.50000 418.400000
4248 12699 4250 1 109.50000 418.400000
4248 12699 4251 1 109.50000 418.400000
4249 12699 4250 1 109.50000 418.400000
4249 12699 4251 1 109.50000 418.400000
4250 12699 4251 1 109.50000 418.400000
704 12700 4252 1 109.50000 418.400000
704 12700 4253 1 109.50000 418.400000
704 12700 4254 1 109.50000 418.400000
4252 12700 4253 1 109.50000 418.400000
4252 12700 4254 1 109.50000 418.400000
4253 12700 4254 1 109.50000 418.400000
4255 12701 4256 1 109.50000 418.400000
4255 12701 4257 1 109.50000 418.400000
4255 12701 4258 1 109.50000 418.400000
4256 12701 4257 1 109.50000 418.400000
4256 12701 4258 1 109.50000 418.400000
4257 12701 4258 1 109.50000 418.400000
1848 12702 4259 1 109.50000 418.400000
1848 12702 4260 1 109.50000 418.400000
1848 12702 4261 1 109.50000 418.400000
4259 12702 4260 1 109.50000 418.400000
4259 12702 4261 1 109.50000 418.400000
4260 12702 4261 1 109.50000 418.400000
4262 12703 4263 1 109.50000 418.400000
4262 12703 4264 1 109.50000 418.400000
4262 12703 4265 1 109.50000 418.400000
4263 12703 4264 1 109.50000 418.400000
4263 12703 4265 1 109.50000 418.400000
4264 12703 4265 1 109.50000 418.400000
4266 12704 4267 1 109.50000 418.400000
4266 12704 4268 1 109.50000 418.400000
4266 12704 4269 1 109.50000 418.400000
4267 12704 4268 1 109.50000 418.400000
4267 12704 4269 1 109.50000 418.400000
4268 12704 4269 1 109.50000 418.400000
3108 12705 3893 1 109.50000 418.400000
3108 12705 4270 1 109.50000 418.400000
3108 12705 4271 1 109.50000 418.400000
3893 12705 4270 1 109.50000 418.400000
3893 12705 4271 1 109.50000 418.400000
4270 12705 4271 1 109.50000 418.400000
4272 12706 4273 1 109.50000 418.400000
4272 12706 4274 1 109.50000 418.400000
4272 12706 4275 1 109.50000 418.400000
4273 12706 4274 1 109.50000 418.400000
4273 12706 4275 1 109.50000 418.400000
4274 12706 4275 1 109.50000 418.400000
1460 12707 3687 1 109.50000 418.400000
1460 12707 4276 1 109.50000 418.400000
1460 12707 4277 1 109.50000 418.400000
3687 12707 4276 1 109.50000 418.400000
3687 12707 4277 1 109.50000 418.400000
4276 12707 4277 1 109.50000 418.400000
4278 12708 4279 1 109.50000 418.400000
4278 12708 4280 1 109.50000 418.400000
4278 12708 4281 1 109.50000 418.400000
4279 12708 4280 1 109.50000 418.400000
4279 12708 4281 1 109.50000 418.400000
4280 12708 4281 1 109.50000 418.400000
363 12709 1544 1 109.50000 418.400000
363 12709 4282 1 109.50000 418.400000
363 12709 4283 1 109.50000 418.400000
1544 12709 4282 1 109.50000 418.400000
1544 12709 4283 1 109.50000 418.400000
4282 12709 4283 1 109.50000 418.400000
3396 12710 4284 1 109.50000 418.400000
3396 12710 4286 1 109.50000 418.400000
3396 12710 10038 1 109.50000 418.400000
4284 12710 4286 1 109.50000 418.400000
4284 12710 10038 1 109.50000 418.400000
4286 12710 10038 1 109.50000 418.400000
4272 12711 4287 1 109.50000 418.400000
4272 12711 4288 1 109.50000 418.400000
4272 12711 4289 1 109.50000 418.400000
4287 12711 4288 1 109.50000 418.400000
4287 12711 4289 1 109.50000 418.400000
4288 12711 4289 1 109.50000 418.400000
4290 12712 4291 1 109.50000 418.400000
4290 12712 4292 1 109.50000 418.400000
4290 12712 4293 1 109.50000 418.400000
4291 12712 4292 1 109.50000 418.400000
4291 12712 4293 1 109.50000 418.400000
4292 12712 4293 1 109.50000 418.400000
658 12713 660 1 109.50000 418.400000
658 12713 4294 1 109.50000 418.400000
658 12713 4296 1 109.50000 418.400000
660 12713 4294 1 109.50000 418.400000
660 12713 4296 1 109.50000 418.400000
4294 12713 4296 1 109.50000 418.400000
4075 12714 4297 1 109.50000 418.400000
4075 12714 4298 1 109.50000 418.400000
4075 12714 11446 1 109.50000 418.400000
4297 12714 4298 1 109.50000 418.400000
4297 12714 11446 1 109.50000 418.400000
4298 12714 11446 1 109.50000 418.400000
3164 12715 4299 1 109.50000 418.400000
3164 12715 4300 1 109.50000 418.400000
3164 12715 4301 1 109.50000 418.400000
4299 12715 4300 1 109.50000 418.400000
4299 12715 4301 1 109.50000 418.400000
4300 12715 4301 1 109.50000 418.400000
559 12716 4302 1 109.50000 418.400000
559 12716 4304 1 109.50000 418.400000
559 12716 4560 1 109.50000 418.400000
4302 12716 4304 1 109.50000 418.400000
4302 12716 4560 1 109.50000 418.400000
4304 12716 4560 1 109.50000 418.400000
4305 12717 4306 1 109.50000 418.400000
4305 12717 4307 1 109.50000 418.400000
4305 12717 4308 1 109.50000 418.400000
4306 12717 4307 1 109.50000 418.400000
4306 12717 4308 1 109.50000 418.400000
4307 12717 4308 1 109.50000 418.400000
2836 12718 4309 1 109.50000 418.400000
2836 12718 4310 1 109.50000 418.400000
2836 12718 4311 1 109.50000 418.400000
4309 12718 4310 1 109.50000 418.400000
4309 12718 4311 1 109.50000 418.400000
4310 12718 4311 1 109.50000 418.400000
17 12719 4137 1 109.50000 418.400000
17 12719 4312 1 109.50000 418.400000
17 12719 4313 1 109.50000 418.400000
4137 12719 4312 1 109.50000 418.400000
4137 12719 4313 1 109.50000 418.400000
4312 12719 4313 1 109.50000 418.400000
740 12720 4314 1 109.50000 418.400000
740 12720 4315 1 109.50000 418.400000
740 12720 4316 1 109.50000 418.400000
4314 12720 4315 1 109.50000 418.400000
4314 12720 4316 1 109.50000 418.400000
4315 12720 4316 1 109.50000 418.400000
4317 12721 4318 1 109.50000 418.400000
4317 12721 4319 1 109.50000 418.400000
4317 12721 7759 1 109.50000 418.400000
4318 12721 4319 1 109.50000 418.400000
4318 12721 7759 1 109.50000 418.400000
4319 12721 7759 1 109.50000 418.400000
4321 12722 4322 1 109.50000 418.400000
4321 12722 4323 1 109.50000 418.400000
4321 12722 4324 1 109.50000 418.400000
4322 12722 4323 1 109.50000 418.400000
4322 12722 4324 1 109.50000 418.400000
4323 12722 4324 1 109.50000 418.400000
4325 12723 4326 1 109.50000 418.400000
4325 12723 11236 1 109.50000 418.400000
4325 12723 11511 1 109.50000 418.400000
4326 12723 11236 1 109.50000 418.400000
4326 12723 11511 1 109.50000 418.400000
11236 12723 11511 1 109.50000 418.400000
4327 12724 4328 1 109.50000 418.400000
4327 12724 4329 1 109.50000 418.400000
4327 12724 4330 1 109.50000 418.400000
4328 12724 4329 1 109.50000 418.400000
4328 12724 4330 1 109.50000 418.400000
4329 12724 4330 1 109.50000 418.400000
4331 12725 4332 1 109.50000 418.400000
4331 12725 4333 1 109.50000 418.400000
4331 12725 4334 1 109.50000 418.400000
4332 12725 4333 1 109.50000 418.400000
4332 12725 4334 1 109.50000 418.400000
4333 12725 4334 1 109.50000 418.400000
3556 12726 4335 1 109.50000 418.400000
3556 12726 4336 1 109.50000 418.400000
3556 12726 4337 1 109.50000 418.400000
4335 12726 4336 1 109.50000 418.400000
4335 12726 4337 1 109.50000 418.400000
4336 12726 4337 1 109.50000 418.400000
4338 12727 4339 1 109.50000 418.400000
4338 12727 4340 1 109.50000 418.400000
4338 12727 11314 1 109.50000 418.400000
4339 12727 4340 1 109.50000 418.400000
4339 12727 11314 1 109.50000 418.400000
4340 12727 11314 1 109.50000 418.400000
4341 12728 4342 1 109.50000 418.400000
4341 12728 4343 1 109.50000 418.400000
4341 12728 4344 1 109.50000 418.400000
4342 12728 4343 1 109.50000 418.400000
4342 12728 4344 1 109.50000 418.400000
4343 12728 4344 1 109.50000 418.400000
4345 12729 4346 1 109.50000 418.400000
4345 12729 4347 1 109.50000 418.400000
4345 12729 4348 1 109.50000 418.400000
4346 12729 4347 1 109.50000 418.400000
4346 12729 4348 1 109.50000 418.400000
4347 12729 4348 1 109.50000 418.400000
4349 12730 4350 1 109.50000 418.400000
4349 12730 4351 1 109.50000 418.400000
4349 12730 4352 1 109.50000 418.400000
4350 12730 4351 1 109.50000 418.400000
4350 12730 4352 1 109.50000 418.400000
4351 12730 4352 1 109.50000 418.400000
4353 12731 4354 1 109.50000 418.400000
4353 12731 4355 1 109.50000 418.400000
4353 12731 4356 1 109.50000 418.400000
4354 12731 4355 1 109.50000 418.400000
4354 12731 4356 1 109.50000 418.400000
4355 12731 4356 1 109.50000 418.400000
4357 12732 4358 1 109.50000 418.400000
4357 12732 4359 1 109.50000 418.400000
4357 12732 4360 1 109.50000 418.400000
4358 12732 4359 1 109.50000 418.400000
4358 12732 4360 1 109.50000 418.400000
4359 12732 4360 1 109.50000 418.400000
4361 12733 4362 1 109.50000 418.400000
4361 12733 4363 1 109.50000 418.400000
4361 12733 4364 1 109.50000 418.400000
4362 12733 4363 1 109.50000 418.400000
4362 12733 4364 1 109.50000 418.400000
4363 12733 4364 1 109.50000 418.400000
4365 12734 4366 1 109.50000 418.400000
4365 12734 4367 1 109.50000 418.400000
4365 12734 4368 1 109.50000 418.400000
4366 12734 4367 1 109.50000 418.400000
4366 12734 4368 1 109.50000 418.400000
4367 12734 4368 1 109.50000 418.400000
757 12735 4369 1 109.50000 418.400000
757 12735 4370 1 109.50000 418.400000
757 12735 4371 1 109.50000 418.400000
4369 12735 4370 1 109.50000 418.400000
4369 12735 4371 1 109.50000 418.400000
4370 12735 4371 1 109.50000 418.400000
114 12736 4143 1 109.50000 418.400000
114 12736 4372 1 109.50000 418.400000
114 12736 4373 1 109.50000 418.400000
4143 12736 4372 1 109.50000 418.400000
4143 12736 4373 1 109.50000 418.400000
4372 12736 4373 1 109.50000 418.400000
3088 12737 3574 1 109.50000 418.400000
3088 12737 4375 1 109.50000 418.400000
3088 12737 4376 1 109.50000 418.400000
3574 12737 4375 1 109.50000 418.400000
3574 12737 4376 1 109.50000 418.400000
4375 12737 4376 1 109.50000 418.400000
675 12738 4377 1 109.50000 418.400000
675 12738 4378 1 109.50000 418.400000
675 12738 4379 1 109.50000 418.400000
4377 12738 4378 1 109.50000 418.400000
4377 12738 4379 1 109.50000 418.400000
4378 12738 4379 1 109.50000 418.400000
999 12739 3664 1 109.50000 418.400000
999 12739 4380 1 109.50000 418.400000
999 12739 4381 1 109.50000 418.400000
3664 12739 4380 1 109.50000 418.400000
3664 12739 4381 1 109.50000 418.400000
4380 12739 4381 1 109.50000 418.400000
4089 12740 4382 1 109.50000 418.400000
4089 12740 4383 1 109.50000 418.400000
4089 12740 4384 1 109.50000 418.400000
4382 12740 4383 1 109.50000 418.400000
4382 12740 4384 1 109.50000 418.400000
4383 12740 4384 1 109.50000 418.400000
4385 12741 4386 1 109.50000 418.400000
4385 12741 4387 1 109.50000 418.400000
4385 12741 4388 1 109.50000 418.400000
4386 12741 4387 1 109.50000 418.400000
4386 12741 4388 1 109.50000 418.400000
4387 12741 4388 1 109.50000 418.400000
664 12742 2529 1 109.50000 418.400000
664 12742 4389 1 109.50000 418.400000
664 12742 4390 1 109.50000 418.400000
2529 12742 4389 1 109.50000 418.400000
2529 12742 4390 1 109.50000 418.400000
4389 12742 4390 1 109.50000 418.400000
1338 12743 4391 1 109.50000 418.400000
1338 12743 4393 1 109.50000 418.400000
1338 12743 9172 1 109.50000 418.400000
4391 12743 4393 1 109.50000 418.400000
4391 12743 9172 1 109.50000 418.400000
4393 12743 9172 1 109.50000 418.400000
4394 12744 4395 1 109.50000 418.400000
4394 12744 4396 1 109.50000 418.400000
4394 12744 4397 1 109.50000 418.400000
4395 12744 4396 1 109.50000 418.400000
4395 12744 4397 1 109.50000 418.400000
4396 12744 4397 1 109.50000 418.400000
2778 12745 4401 1 109.50000 418.400000
2778 12745 4402 1 109.50000 418.400000
2778 12745 4403 1 109.50000 418.400000
4401 12745 4402 1 109.50000 418.400000
4401 12745 4403 1 109.50000 418.400000
4402 12745 4403 1 109.50000 418.400000
4245 12746 4404 1 109.50000 418.400000
4245 12746 4405 1 109.50000 418.400000
4245 12746 4406 1 109.50000 418.400000
4404 12746 4405 1 109.50000 418.400000
4404 12746 4406 1 109.50000 418.400000
4405 12746 4406 1 109.50000 418.400000
571 12747 4407 1 109.50000 418.400000
571 12747 4408 1 109.50000 418.400000
571 12747 4409 1 109.50000 418.400000
4407 12747 4408 1 109.50000 418.400000
4407 12747 4409 1 109.50000 418.400000
4408 12747 4409 1 109.50000 418.400000
1203 12748 4410 1 109.50000 418.400000
1203 12748 4411 1 109.50000 418.400000
1203 12748 4412 1 109.50000 418.400000
4410 12748 4411 1 109.50000 418.400000
4410 12748 4412 1 109.50000 418.400000
4411 12748 4412 1 109.50000 418.400000
4413 12749 4414 1 109.50000 418.400000
4413 12749 4415 1 109.50000 418.400000
4413 12749 4416 1 109.50000 418.400000
4414 12749 4415 1 109.50000 418.400000
4414 12749 4416 1 109.50000 418.400000
4415 12749 4416 1 109.50000 418.400000
3407 12750 3408 1 109.50000 418.400000
3407 12750 4417 1 109.50000 418.400000
3407 12750 4418 1 109.50000 418.400000
3408 12750 4417 1 109.50000 418.400000
3408 12750 4418 1 109.50000 418.400000
4417 12750 4418 1 109.50000 418.400000
3798 12751 4420 1 109.50000 418.400000
3798 12751 4421 1 109.50000 418.400000
3798 12751 4422 1 109.50000 418.400000
4420 12751 4421 1 109.50000 418.400000
4420 12751 4422 1 109.50000 418.400000
4421 12751 4422 1 109.50000 418.400000
2375 12752 4309 1 109.50000 418.400000
2375 12752 4423 1 109.50000 418.400000
2375 12752 4424 1 109.50000 418.400000
4309 12752 4423 1 109.50000 418.400000
4309 12752 4424 1 109.50000 418.400000
4423 12752 4424 1 109.50000 418.400000
1861 12753 4425 1 109.50000 418.400000
1861 12753 4426 1 109.50000 418.400000
1861 12753 4427 1 109.50000 418.400000
4425 12753 4426 1 109.50000 418.400000
4425 12753 4427 1 109.50000 418.400000
4426 12753 4427 1 109.50000 418.400000
4428 12754 4429 1 109.50000 418.400000
4428 12754 4430 1 109.50000 418.400000
4428 12754 4431 1 109.50000 418.400000
4429 12754 4430 1 109.50000 418.400000
4429 12754 4431 1 109.50000 418.400000
4430 12754 4431 1 109.50000 418.400000
2217 12755 4435 1 109.50000 418.400000
2217 12755 11337 1 109.50000 418.400000
2217 12755 11347 1 109.50000 418.400000
4435 12755 11337 1 109.50000 418.400000
4435 12755 11347 1 109.50000 418.400000
11337 12755 11347 1 109.50000 418.400000
4436 12756 4437 1 109.50000 418.400000
4436 12756 4438 1 109.50000 418.400000
4436 12756 4439 1 109.50000 418.400000
4437 12756 4438 1 109.50000 418.400000
4437 12756 4439 1 109.50000 418.400000
4438 12756 4439 1 109.50000 418.400000
1833 12757 3721 1 109.50000 418.400000
1833 12757 4440 1 109.50000 418.400000
1833 12757 4441 1 109.50000 418.400000
3721 12757 4440 1 109.50000 418.400000
3721 12757 4441 1 109.50000 418.400000
4440 12757 4441 1 109.50000 418.400000
4442 12758 4443 1 109.50000 418.400000
4442 12758 4444 1 109.50000 418.400000
4442 12758 4445 1 109.50000 418.400000
4443 12758 4444 1 109.50000 418.400000
4443 12758 4445 1 109.50000 418.400000
4444 12758 4445 1 109.50000 418.400000
4446 12759 4447 1 109.50000 418.400000
4446 12759 4448 1 109.50000 418.400000
4446 12759 4449 1 109.50000 418.400000
4447 12759 4448 1 109.50000 418.400000
4447 12759 4449 1 109.50000 418.400000
4448 12759 4449 1 109.50000 418.400000
2184 12760 4450 1 109.50000 418.400000
2184 12760 4451 1 109.50000 418.400000
2184 12760 4452 1 109.50000 418.400000
4450 12760 4451 1 109.50000 418.400000
4450 12760 4452 1 109.50000 418.400000
4451 12760 4452 1 109.50000 418.400000
2483 12761 4453 1 109.50000 418.400000
2483 12761 4454 1 109.50000 418.400000
2483 12761 4455 1 109.50000 418.400000
4453 12761 4454 1 109.50000 418.400000
4453 12761 4455 1 109.50000 418.400000
4454 12761 4455 1 109.50000 418.400000
1015 12762 4456 1 109.50000 418.400000
1015 12762 4457 1 109.50000 418.400000
1015 12762 4458 1 109.50000 418.400000
4456 12762 4457 1 109.50000 418.400000
4456 12762 4458 1 109.50000 418.400000
4457 12762 4458 1 109.50000 418.400000
1055 12763 4285 1 109.50000 418.400000
1055 12763 4459 1 109.50000 418.400000
1055 12763 4460 1 109.50000 418.400000
4285 12763 4459 1 109.50000 418.400000
4285 12763 4460 1 109.50000 418.400000
4459 12763 4460 1 109.50000 418.400000
2487 12764 4461 1 109.50000 418.400000
2487 12764 4462 1 109.50000 418.400000
2487 12764 4463 1 109.50000 418.400000
4461 12764 4462 1 109.50000 418.400000
4461 12764 4463 1 109.50000 418.400000
4462 12764 4463 1 109.50000 418.400000
3350 12765 4464 1 109.50000 418.400000
3350 12765 4465 1 109.50000 418.400000
3350 12765 10518 1 109.50000 418.400000
4464 12765 4465 1 109.50000 418.400000
4464 12765 10518 1 109.50000 418.400000
4465 12765 10518 1 109.50000 418.400000
3271 12766 4466 1 109.50000 418.400000
3271 12766 4467 1 109.50000 418.400000
3271 12766 4468 1 109.50000 418.400000
4466 12766 4467 1 109.50000 418.400000
4466 12766 4468 1 109.50000 418.400000
4467 12766 4468 1 109.50000 418.400000
4469 12767 4470 1 109.50000 418.400000
4469 12767 4471 1 109.50000 418.400000
4469 12767 4472 1 109.50000 418.400000
4470 12767 4471 1 109.50000 418.400000
4470 12767 4472 1 109.50000 418.400000
4471 12767 4472 1 109.50000 418.400000
310 12768 4473 1 109.50000 418.400000
310 12768 4474 1 109.50000 418.400000
310 12768 4475 1 109.50000 418.400000
4473 12768 4474 1 109.50000 418.400000
4473 12768 4475 1 109.50000 418.400000
4474 12768 4475 1 109.50000 418.400000
4479 12769 4481 1 109.50000 418.400000
4479 12769 11373 1 109.50000 418.400000
4479 12769 11524 1 109.50000 418.400000
4481 12769 11373 1 109.50000 418.400000
4481 12769 11524 1 109.50000 418.400000
11373 12769 11524 1 109.50000 418.400000
4482 12770 4483 1 109.50000 418.400000
4482 12770 4484 1 109.50000 418.400000
4482 12770 4485 1 109.50000 418.400000
4483 12770 4484 1 109.50000 418.400000
4483 12770 4485 1 109.50000 418.400000
4484 12770 4485 1 109.50000 418.400000
4486 12771 4487 1 109.50000 418.400000
4486 12771 4488 1 109.50000 418.400000
4486 12771 4489 1 109.50000 418.400000
4487 12771 4488 1 109.50000 418.400000
4487 12771 4489 1 109.50000 418.400000
4488 12771 4489 1 109.50000 418.400000
4490 12772 4491 1 109.50000 418.400000
4490 12772 4492 1 109.50000 418.400000
4490 12772 4493 1 109.50000 418.400000
4491 12772 4492 1 109.50000 418.400000
4491 12772 4493 1 109.50000 418.400000
4492 12772 4493 1 109.50000 418.400000
4494 12773 4496 1 109.50000 418.400000
4494 12773 4497 1 109.50000 418.400000
4494 12773 9510 1 109.50000 418.400000
4496 12773 4497 1 109.50000 418.400000
4496 12773 9510 1 109.50000 418.400000
4497 12773 9510 1 109.50000 418.400000
893 12774 4498 1 109.50000 418.400000
893 12774 4499 1 109.50000 418.400000
893 12774 4500 1 109.50000 418.400000
4498 12774 4499 1 109.50000 418.400000
4498 12774 4500 1 109.50000 418.400000
4499 12774 4500 1 109.50000 418.400000
2160 12775 4501 1 109.50000 418.400000
2160 12775 4502 1 109.50000 418.400000
2160 12775 4503 1 109.50000 418.400000
4501 12775 4502 1 109.50000 418.400000
4501 12775 4503 1 109.50000 418.400000
4502 12775 4503 1 109.50000 418.400000
3266 12776 4504 1 109.50000 418.400000
3266 12776 4505 1 109.50000 418.400000
3266 12776 4506 1 109.50000 418.400000
4504 12776 4505 1 109.50000 418.400000
4504 12776 4506 1 109.50000 418.400000
4505 12776 4506 1 109.50000 418.400000
2879 12777 3961 1 109.50000 418.400000
2879 12777 4507 1 109.50000 418.400000
2879 12777 4508 1 109.50000 418.400000
3961 12777 4507 1 109.50000 418.400000
3961 12777 4508 1 109.50000 418.400000
4507 12777 4508 1 109.50000 418.400000
4511 12778 4512 1 109.50000 418.400000
4511 12778 4513 1 109.50000 418.400000
4511 12778 11528 1 109.50000 418.400000
4512 12778 4513 1 109.50000 418.400000
4512 12778 11528 1 109.50000 418.400000
4513 12778 11528 1 109.50000 418.400000
4518 12779 4519 1 109.50000 418.400000
4518 12779 4520 1 109.50000 418.400000
4518 12779 4521 1 109.50000 418.400000
4519 12779 4520 1 109.50000 418.400000
4519 12779 4521 1 109.50000 418.400000
4520 12779 4521 1 109.50000 418.400000
529 12780 2344 1 109.50000 418.400000
529 12780 4522 1 109.50000 418.400000
529 12780 4523 1 109.50000 418.400000
2344 12780 4522 1 109.50000 418.400000
2344 12780 4523 1 109.50000 418.400000
4522 12780 4523 1 109.50000 418.400000
2214 12781 3701 1 109.50000 418.400000
2214 12781 4524 1 109.50000 418.400000
2214 12781 4525 1 109.50000 418.400000
3701 12781 4524 1 109.50000 418.400000
3701 12781 4525 1 109.50000 418.400000
4524 12781 4525 1 109.50000 418.400000
4526 12782 4527 1 109.50000 418.400000
4526 12782 4528 1 109.50000 418.400000
4526 12782 4529 1 109.50000 418.400000
4527 12782 4528 1 109.50000 418.400000
4527 12782 4529 1 109.50000 418.400000
4528 12782 4529 1 109.50000 418.400000
796 12783 4530 1 109.50000 418.400000
796 12783 9194 1 109.50000 418.400000
796 12783 11491 1 109.50000 418.400000
4530 12783 9194 1 109.50000 418.400000
4530 12783 11491 1 109.50000 418.400000
9194 12783 11491 1 109.50000 418.400000
4371 12784 4531 1 109.50000 418.400000
4371 12784 4532 1 109.50000 418.400000
4371 12784 4533 1 109.50000 418.400000
4531 12784 4532 1 109.50000 418.400000
4531 12784 4533 1 109.50000 418.400000
4532 12784 4533 1 109.50000 418.400000
4534 12785 4535 1 109.50000 418.400000
4534 12785 11142 1 109.50000 418.400000
4534 12785 11499 1 109.50000 418.400000
4535 12785 11142 1 109.50000 418.400000
4535 12785 11499 1 109.50000 418.400000
11142 12785 11499 1 109.50000 418.400000
12 12786 4536 1 109.50000 418.400000
12 12786 4537 1 109.50000 418.400000
12 12786 4538 1 109.50000 418.400000
4536 12786 4537 1 109.50000 418.400000
4536 12786 4538 1 109.50000 418.400000
4537 12786 4538 1 109.50000 418.400000
3231 12787 4540 1 109.50000 418.400000
3231 12787 4541 1 109.50000 418.400000
3231 12787 4542 1 109.50000 418.400000
4540 12787 4541 1 109.50000 418.400000
4540 12787 4542 1 109.50000 418.400000
4541 12787 4542 1 109.50000 418.400000
3759 12788 4543 1 109.50000 418.400000
3759 12788 4544 1 109.50000 418.400000
3759 12788 4545 1 109.50000 418.400000
4543 12788 4544 1 109.50000 418.400000
4543 12788 4545 1 109.50000 418.400000
4544 12788 4545 1 109.50000 418.400000
4546 12789 4547 1 109.50000 418.400000
4546 12789 4548 1 109.50000 418.400000
4546 12789 4549 1 109.50000 418.400000
4547 12789 4548 1 109.50000 418.400000
4547 12789 4549 1 109.50000 418.400000
4548 12789 4549 1 109.50000 418.400000
2289 12790 4550 1 109.50000 418.400000
2289 12790 4551 1 109.50000 418.400000
2289 12790 4552 1 109.50000 418.400000
4550 12790 4551 1 109.50000 418.400000
4550 12790 4552 1 109.50000 418.400000
4551 12790 4552 1 109.50000 418.400000
4554 12791 4555 1 109.50000 418.400000
4554 12791 4556 1 109.50000 418.400000
4554 12791 9056 1 109.50000 418.400000
4555 12791 4556 1 109.50000 418.400000
4555 12791 9056 1 109.50000 418.400000
4556 12791 9056 1 109.50000 418.400000
2614 12792 4557 1 109.50000 418.400000
2614 12792 4558 1 109.50000 418.400000
2614 12792 4559 1 109.50000 418.400000
4557 12792 4558 1 109.50000 418.400000
4557 12792 4559 1 109.50000 418.400000
4558 12792 4559 1 109.50000 418.400000
4302 12793 4303 1 109.50000 418.400000
4302 12793 4561 1 109.50000 418.400000
4302 12793 4562 1 109.50000 418.400000
4303 12793 4561 1 109.50000 418.400000
4303 12793 4562 1 109.50000 418.400000
4561 12793 4562 1 109.50000 418.400000
394 12794 4462 1 109.50000 418.400000
394 12794 4563 1 109.50000 418.400000
394 12794 4564 1 109.50000 418.400000
4462 12794 4563 1 109.50000 418.400000
4462 12794 4564 1 109.50000 418.400000
4563 12794 4564 1 109.50000 418.400000
415 12795 3031 1 109.50000 418.400000
415 12795 4565 1 109.50000 418.400000
415 12795 4566 1 109.50000 418.400000
3031 12795 4565 1 109.50000 418.400000
3031 12795 4566 1 109.50000 418.400000
4565 12795 4566 1 109.50000 418.400000
754 12796 2128 1 109.50000 418.400000
754 12796 2917 1 109.50000 418.400000
754 12796 4567 1 109.50000 418.400000
2128 12796 2917 1 109.50000 418.400000
2128 12796 4567 1 109.50000 418.400000
2917 12796 4567 1 109.50000 418.400000
4568 12797 4569 1 109.50000 418.400000
4568 12797 4570 1 109.50000 418.400000
4568 12797 4571 1 109.50000 418.400000
4569 12797 4570 1 109.50000 418.400000
4569 12797 4571 1 109.50000 418.400000
4570 12797 4571 1 109.50000 418.400000
3517 12798 4572 1 109.50000 418.400000
3517 12798 4573 1 109.50000 418.400000
3517 12798 4574 1 109.50000 418.400000
4572 12798 4573 1 109.50000 418.400000
4572 12798 4574 1 109.50000 418.400000
4573 12798 4574 1 109.50000 418.400000
4575 12799 4576 1 109.50000 418.400000
4575 12799 4577 1 109.50000 418.400000
4575 12799 4578 1 109.50000 418.400000
4576 12799 4577 1 109.50000 418.400000
4576 12799 4578 1 109.50000 418.400000
4577 12799 4578 1 109.50000 418.400000
4579 12800 4580 1 109.50000 418.400000
4579 12800 4581 1 109.50000 418.400000
4579 12800 4582 1 109.50000 418.400000
4580 12800 4581 1 109.50000 418.400000
4580 12800 4582 1 109.50000 418.400000
4581 12800 4582 1 109.50000 418.400000
2219 12801 3346 1 109.50000 418.400000
2219 12801 4583 1 109.50000 418.400000
2219 12801 8090 1 109.50000 418.400000
3346 12801 4583 1 109.50000 418.400000
3346 12801 8090 1 109.50000 418.400000
4583 12801 8090 1 109.50000 418.400000
2454 12802 2843 1 109.50000 418.400000
2454 12802 4364 1 109.50000 418.400000
2454 12802 4585 1 109.50000 418.400000
2843 12802 4364 1 109.50000 418.400000
2843 12802 4585 1 109.50000 418.400000
4364 12802 4585 1 109.50000 418.400000
4586 12803 4587 1 109.50000 418.400000
4586 12803 4588 1 109.50000 418.400000
4586 12803 11520 1 109.50000 418.400000
4587 12803 4588 1 109.50000 418.400000
4587 12803 11520 1 109.50000 418.400000
4588 12803 11520 1 109.50000 418.400000
4591 12804 9469 1 109.50000 418.400000
4591 12804 10531 1 109.50000 418.400000
4591 12804 10532 1 109.50000 418.400000
9469 12804 10531 1 109.50000 418.400000
9469 12804 10532 1 109.50000 418.400000
10531 12804 10532 1 109.50000 418.400000
2864 12805 4594 1 109.50000 418.400000
2864 12805 4595 1 109.50000 418.400000
2864 12805 10285 1 109.50000 418.400000
4594 12805 4595 1 109.50000 418.400000
4594 12805 10285 1 109.50000 418.400000
4595 12805 10285 1 109.50000 418.400000
120 12806 4596 1 109.50000 418.400000
120 12806 4597 1 109.50000 418.400000
120 12806 4598 1 109.50000 418.400000
4596 12806 4597 1 109.50000 418.400000
4596 12806 4598 1 109.50000 418.400000
4597 12806 4598 1 109.50000 418.400000
4599 12807 4600 1 109.50000 418.400000
4599 12807 4601 1 109.50000 418.400000
4599 12807 4602 1 109.50000 418.400000
4600 12807 4601 1 109.50000 418.400000
4600 12807 4602 1 109.50000 418.400000
4601 12807 4602 1 109.50000 418.400000
3219 12808 4603 1 109.50000 418.400000
3219 12808 4604 1 109.50000 418.400000
3219 12808 11525 1 109.50000 418.400000
4603 12808 4604 1 109.50000 418.400000
4603 12808 11525 1 109.50000 418.400000
4604 12808 11525 1 109.50000 418.400000
399 12809 1946 1 109.50000 418.400000
399 12809 4605 1 109.50000 418.400000
399 12809 4606 1 109.50000 418.400000
1946 12809 4605 1 109.50000 418.400000
1946 12809 4606 1 109.50000 418.400000
4605 12809 4606 1 109.50000 418.400000
4609 12810 4610 1 109.50000 418.400000
4609 12810 4611 1 109.50000 418.400000
4609 12810 4612 1 109.50000 418.400000
4610 12810 4611 1 109.50000 418.400000
4610 12810 4612 1 109.50000 418.400000
4611 12810 4612 1 109.50000 418.400000
4613 12811 4614 1 109.50000 418.400000
4613 12811 4615 1 109.50000 418.400000
4613 12811 4616 1 109.50000 418.400000
4614 12811 4615 1 109.50000 418.400000
4614 12811 4616 1 109.50000 418.400000
4615 12811 4616 1 109.50000 418.400000
140 12812 4617 1 109.50000 418.400000
140 12812 4618 1 109.50000 418.400000
140 12812 4619 1 109.50000 418.400000
4617 12812 4618 1 109.50000 418.400000
4617 12812 4619 1 109.50000 418.400000
4618 12812 4619 1 109.50000 418.400000
2542 12813 4620 1 109.50000 418.400000
2542 12813 4621 1 109.50000 418.400000
2542 12813 4622 1 109.50000 418.400000
4620 12813 4621 1 109.50000 418.400000
4620 12813 4622 1 109.50000 418.400000
4621 12813 4622 1 109.50000 418.400000
4418 12814 4623 1 109.50000 418.400000
4418 12814 4624 1 109.50000 418.400000
4418 12814 11280 1 109.50000 418.400000
4623 12814 4624 1 109.50000 418.400000
4623 12814 11280 1 109.50000 418.400000
4624 12814 11280 1 109.50000 418.400000
753 12815 4179 1 109.50000 418.400000
753 12815 4626 1 109.50000 418.400000
753 12815 4627 1 109.50000 418.400000
4179 12815 4626 1 109.50000 418.400000
4179 12815 4627 1 109.50000 418.400000
4626 12815 4627 1 109.50000 418.400000
1393 12816 4420 1 109.50000 418.400000
1393 12816 4628 1 109.50000 418.400000
1393 12816 4629 1 109.50000 418.400000
4420 12816 4628 1 109.50000 418.400000
4420 12816 4629 1 109.50000 418.400000
4628 12816 4629 1 109.50000 418.400000
4630 12817 4631 1 109.50000 418.400000
4630 12817 4632 1 109.50000 418.400000
4630 12817 4633 1 109.50000 418.400000
4631 12817 4632 1 109.50000 418.400000
4631 12817 4633 1 109.50000 418.400000
4632 12817 4633 1 109.50000 418.400000
1847 12818 3783 1 109.50000 418.400000
1847 12818 4634 1 109.50000 418.400000
1847 12818 4635 1 109.50000 418.400000
3783 12818 4634 1 109.50000 418.400000
3783 12818 4635 1 109.50000 418.400000
4634 12818 4635 1 109.50000 418.400000
4636 12819 4637 1 109.50000 418.400000
4636 12819 4638 1 109.50000 418.400000
4636 12819 11192 1 109.50000 418.400000
4637 12819 4638 1 109.50000 418.400000
4637 12819 11192 1 109.50000 418.400000
4638 12819 11192 1 109.50000 418.400000
186 12820 543 1 109.50000 418.400000
186 12820 544 1 109.50000 418.400000
186 12820 545 1 109.50000 418.400000
543 12820 544 1 109.50000 418.400000
543 12820 545 1 109.50000 418.400000
544 12820 545 1 109.50000 418.400000
4641 12821 4642 1 109.50000 418.400000
4641 12821 4643 1 109.50000 418.400000
4641 12821 4644 1 109.50000 418.400000
4642 12821 4643 1 109.50000 418.400000
4642 12821 4644 1 109.50000 418.400000
4643 12821 4644 1 109.50000 418.400000
1801 12822 4645 1 109.50000 418.400000
1801 12822 4646 1 109.50000 418.400000
1801 12822 4647 1 109.50000 418.400000
4645 12822 4646 1 109.50000 418.400000
4645 12822 4647 1 109.50000 418.400000
4646 12822 4647 1 109.50000 418.400000
3623 12823 4648 1 109.50000 418.400000
3623 12823 4649 1 109.50000 418.400000
3623 12823 4650 1 109.50000 418.400000
4648 12823 4649 1 109.50000 418.400000
4648 12823 4650 1 109.50000 418.400000
4649 12823 4650 1 109.50000 418.400000
4046 12824 4651 1 109.50000 418.400000
4046 12824 4652 1 109.50000 418.400000
4046 12824 4653 1 109.50000 418.400000
4651 12824 4652 1 109.50000 418.400000
4651 12824 4653 1 109.50000 418.400000
4652 12824 4653 1 109.50000 418.400000
4654 12825 4655 1 109.50000 418.400000
4654 12825 4656 1 109.50000 418.400000
4654 12825 4657 1 109.50000 418.400000
4655 12825 4656 1 109.50000 418.400000
4655 12825 4657 1 109.50000 418.400000
4656 12825 4657 1 109.50000 418.400000
2561 12826 2745 1 109.50000 418.400000
2561 12826 4658 1 109.50000 418.400000
2561 12826 4659 1 109.50000 418.400000
2745 12826 4658 1 109.50000 418.400000
2745 12826 4659 1 109.50000 418.400000
4658 12826 4659 1 109.50000 418.400000
4660 12827 4661 1 109.50000 418.400000
4660 12827 4662 1 109.50000 418.400000
4660 12827 4663 1 109.50000 418.400000
4661 12827 4662 1 109.50000 418.400000
4661 12827 4663 1 109.50000 418.400000
4662 12827 4663 1 109.50000 418.400000
3758 12828 4664 1 109.50000 418.400000
3758 12828 4665 1 109.50000 418.400000
3758 12828 4666 1 109.50000 418.400000
4664 12828 4665 1 109.50000 418.400000
4664 12828 4666 1 109.50000 418.400000
4665 12828 4666 1 109.50000 418.400000
4667 12829 4668 1 109.50000 418.400000
4667 12829 4669 1 109.50000 418.400000
4667 12829 4670 1 109.50000 418.400000
4668 12829 4669 1 109.50000 418.400000
4668 12829 4670 1 109.50000 418.400000
4669 12829 4670 1 109.50000 418.400000
4422 12830 4671 1 109.50000 418.400000
4422 12830 4672 1 109.50000 418.400000
4422 12830 4673 1 109.50000 418.400000
4671 12830 4672 1 109.50000 418.400000
4671 12830 4673 1 109.50000 418.400000
4672 12830 4673 1 109.50000 418.400000
4674 12831 4675 1 109.50000 418.400000
4674 12831 4677 1 109.50000 418.400000
4674 12831 6369 1 109.50000 418.400000
4675 12831 4677 1 109.50000 418.400000
4675 12831 6369 1 109.50000 418.400000
4677 12831 6369 1 109.50000 418.400000
4678 12832 4679 1 109.50000 418.400000
4678 12832 4680 1 109.50000 418.400000
4678 12832 4681 1 109.50000 418.400000
4679 12832 4680 1 109.50000 418.400000
4679 12832 4681 1 109.50000 418.400000
4680 12832 4681 1 109.50000 418.400000
96 12833 2613 1 109.50000 418.400000
96 12833 4682 1 109.50000 418.400000
96 12833 4683 1 109.50000 418.400000
2613 12833 4682 1 109.50000 418.400000
2613 12833 4683 1 109.50000 418.400000
4682 12833 4683 1 109.50000 418.400000
4684 12834 4685 1 109.50000 418.400000
4684 12834 4686 1 109.50000 418.400000
4684 12834 4687 1 109.50000 418.400000
4685 12834 4686 1 109.50000 418.400000
4685 12834 4687 1 109.50000 418.400000
4686 12834 4687 1 109.50000 418.400000
2685 12835 4688 1 109.50000 418.400000
2685 12835 4689 1 109.50000 418.400000
2685 12835 4690 1 109.50000 418.400000
4688 12835 4689 1 109.50000 418.400000
4688 12835 4690 1 109.50000 418.400000
4689 12835 4690 1 109.50000 418.400000
3592 12836 4649 1 109.50000 418.400000
3592 12836 4694 1 109.50000 418.400000
3592 12836 4695 1 109.50000 418.400000
4649 12836 4694 1 109.50000 418.400000
4649 12836 4695 1 109.50000 418.400000
4694 12836 4695 1 109.50000 418.400000
623 12837 2273 1 109.50000 418.400000
623 12837 4696 1 109.50000 418.400000
623 12837 4697 1 109.50000 418.400000
2273 12837 4696 1 109.50000 418.400000
2273 12837 4697 1 109.50000 418.400000
4696 12837 4697 1 109.50000 418.400000
1474 12838 2833 1 109.50000 418.400000
1474 12838 4698 1 109.50000 418.400000
1474 12838 4699 1 109.50000 418.400000
2833 12838 4698 1 109.50000 418.400000
2833 12838 4699 1 109.50000 418.400000
4698 12838 4699 1 109.50000 418.400000
4648 12839 4700 1 109.50000 418.400000
4648 12839 4701 1 109.50000 418.400000
4648 12839 11191 1 109.50000 418.400000
4700 12839 4701 1 109.50000 418.400000
4700 12839 11191 1 109.50000 418.400000
4701 12839 11191 1 109.50000 418.400000
4262 12840 4702 1 109.50000 418.400000
4262 12840 4703 1 109.50000 418.400000
4262 12840 4704 1 109.50000 418.400000
4702 12840 4703 1 109.50000 418.400000
4702 12840 4704 1 109.50000 418.400000
4703 12840 4704 1 109.50000 418.400000
1082 12841 4705 1 109.50000 418.400000
1082 12841 4706 1 109.50000 418.400000
1082 12841 4707 1 109.50000 418.400000
4705 12841 4706 1 109.50000 418.400000
4705 12841 4707 1 109.50000 418.400000
4706 12841 4707 1 109.50000 418.400000
2497 12842 4708 1 109.50000 418.400000
2497 12842 4709 1 109.50000 418.400000
2497 12842 4710 1 109.50000 418.400000
4708 12842 4709 1 109.50000 418.400000
4708 12842 4710 1 109.50000 418.400000
4709 12842 4710 1 109.50000 418.400000
4711 12843 4712 1 109.50000 418.400000
4711 12843 4713 1 109.50000 418.400000
4711 12843 4714 1 109.50000 418.400000
4712 12843 4713 1 109.50000 418.400000
4712 12843 4714 1 109.50000 418.400000
4713 12843 4714 1 109.50000 418.400000
2594 12844 4083 1 109.50000 418.400000
2594 12844 4715 1 109.50000 418.400000
2594 12844 4716 1 109.50000 418.400000
4083 12844 4715 1 109.50000 418.400000
4083 12844 4716 1 109.50000 418.400000
4715 12844 4716 1 109.50000 418.400000
4717 12845 4718 1 109.50000 418.400000
4717 12845 4719 1 109.50000 418.400000
4717 12845 4720 1 109.50000 418.400000
4718 12845 4719 1 109.50000 418.400000
4718 12845 4720 1 109.50000 418.400000
4719 12845 4720 1 109.50000 418.400000
4721 12846 4722 1 109.50000 418.400000
4721 12846 4723 1 109.50000 418.400000
4721 12846 4724 1 109.50000 418.400000
4722 12846 4723 1 109.50000 418.400000
4722 12846 4724 1 109.50000 418.400000
4723 12846 4724 1 109.50000 418.400000
4725 12847 4726 1 109.50000 418.400000
4725 12847 4727 1 109.50000 418.400000
4725 12847 4728 1 109.50000 418.400000
4726 12847 4727 1 109.50000 418.400000
4726 12847 4728 1 109.50000 418.400000
4727 12847 4728 1 109.50000 418.400000
4557 12848 4729 1 109.50000 418.400000
4557 12848 4730 1 109.50000 418.400000
4557 12848 4731 1 109.50000 418.400000
4729 12848 4730 1 109.50000 418.400000
4729 12848 4731 1 109.50000 418.400000
4730 12848 4731 1 109.50000 418.400000
4732 12849 4733 1 109.50000 418.400000
4732 12849 4734 1 109.50000 418.400000
4732 12849 4735 1 109.50000 418.400000
4733 12849 4734 1 109.50000 418.400000
4733 12849 4735 1 109.50000 418.400000
4734 12849 4735 1 109.50000 418.400000
519 12850 4736 1 109.50000 418.400000
519 12850 4737 1 109.50000 418.400000
519 12850 11527 1 109.50000 418.400000
4736 12850 4737 1 109.50000 418.400000
4736 12850 11527 1 109.50000 418.400000
4737 12850 11527 1 109.50000 418.400000
4738 12851 4739 1 109.50000 418.400000
4738 12851 4740 1 109.50000 418.400000
4738 12851 4741 1 109.50000 418.400000
4739 12851 4740 1 109.50000 418.400000
4739 12851 4741 1 109.50000 418.400000
4740 12851 4741 1 109.50000 418.400000
3547 12852 4742 1 109.50000 418.400000
3547 12852 4743 1 109.50000 418.400000
3547 12852 4744 1 109.50000 418.400000
4742 12852 4743 1 109.50000 418.400000
4742 12852 4744 1 109.50000 418.400000
4743 12852 4744 1 109.50000 418.400000
2565 12853 4144 1 109.50000 418.400000
2565 12853 4745 1 109.50000 418.400000
2565 12853 4746 1 109.50000 418.400000
4144 12853 4745 1 109.50000 418.400000
4144 12853 4746 1 109.50000 418.400000
4745 12853 4746 1 109.50000 418.400000
4112 12854 4747 1 109.50000 418.400000
4112 12854 4748 1 109.50000 418.400000
4112 12854 4749 1 109.50000 418.400000
4747 12854 4748 1 109.50000 418.400000
4747 12854 4749 1 109.50000 418.400000
4748 12854 4749 1 109.50000 418.400000
1616 12855 1815 1 109.50000 418.400000
1616 12855 4750 1 109.50000 418.400000
1616 12855 4751 1 109.50000 418.400000
1815 12855 4750 1 109.50000 418.400000
1815 12855 4751 1 109.50000 418.400000
4750 12855 4751 1 109.50000 418.400000
4723 12856 4752 1 109.50000 418.400000
4723 12856 4753 1 109.50000 418.400000
4723 12856 4754 1 109.50000 418.400000
4752 12856 4753 1 109.50000 418.400000
4752 12856 4754 1 109.50000 418.400000
4753 12856 4754 1 109.50000 418.400000
54 12857 4756 1 109.50000 418.400000
54 12857 4757 1 109.50000 418.400000
54 12857 4758 1 109.50000 418.400000
4756 12857 4757 1 109.50000 418.400000
4756 12857 4758 1 109.50000 418.400000
4757 12857 4758 1 109.50000 418.400000
4288 12858 4759 1 109.50000 418.400000
4288 12858 4761 1 109.50000 418.400000
4288 12858 9073 1 109.50000 418.400000
4759 12858 4761 1 109.50000 418.400000
4759 12858 9073 1 109.50000 418.400000
4761 12858 9073 1 109.50000 418.400000
4713 12859 4762 1 109.50000 418.400000
4713 12859 4763 1 109.50000 418.400000
4713 12859 4764 1 109.50000 418.400000
4762 12859 4763 1 109.50000 418.400000
4762 12859 4764 1 109.50000 418.400000
4763 12859 4764 1 109.50000 418.400000
1679 12860 2482 1 109.50000 418.400000
1679 12860 4133 1 109.50000 418.400000
1679 12860 4765 1 109.50000 418.400000
2482 12860 4133 1 109.50000 418.400000
2482 12860 4765 1 109.50000 418.400000
4133 12860 4765 1 109.50000 418.400000
4606 12861 4766 1 109.50000 418.400000
4606 12861 4767 1 109.50000 418.400000
4606 12861 4768 1 109.50000 418.400000
4766 12861 4767 1 109.50000 418.400000
4766 12861 4768 1 109.50000 418.400000
4767 12861 4768 1 109.50000 418.400000
1665 12862 2646 1 109.50000 418.400000
1665 12862 4769 1 109.50000 418.400000
1665 12862 4770 1 109.50000 418.400000
2646 12862 4769 1 109.50000 418.400000
2646 12862 4770 1 109.50000 418.400000
4769 12862 4770 1 109.50000 418.400000
4773 12863 4774 1 109.50000 418.400000
4773 12863 4775 1 109.50000 418.400000
4773 12863 4776 1 109.50000 418.400000
4774 12863 4775 1 109.50000 418.400000
4774 12863 4776 1 109.50000 418.400000
4775 12863 4776 1 109.50000 418.400000
4777 12864 4778 1 109.50000 418.400000
4777 12864 4779 1 109.50000 418.400000
4777 12864 4780 1 109.50000 418.400000
4778 12864 4779 1 109.50000 418.400000
4778 12864 4780 1 109.50000 418.400000
4779 12864 4780 1 109.50000 418.400000
3001 12865 4072 1 109.50000 418.400000
3001 12865 4781 1 109.50000 418.400000
3001 12865 4782 1 109.50000 418.400000
4072 12865 4781 1 109.50000 418.400000
4072 12865 4782 1 109.50000 418.400000
4781 12865 4782 1 109.50000 418.400000
797 12866 4322 1 109.50000 418.400000
797 12866 4784 1 109.50000 418.400000
797 12866 4785 1 109.50000 418.400000
4322 12866 4784 1 109.50000 418.400000
4322 12866 4785 1 109.50000 418.400000
4784 12866 4785 1 109.50000 418.400000
379 12867 4786 1 109.50000 418.400000
379 12867 4787 1 109.50000 418.400000
379 12867 4788 1 109.50000 418.400000
4786 12867 4787 1 109.50000 418.400000
4786 12867 4788 1 109.50000 418.400000
4787 12867 4788 1 109.50000 418.400000
2021 12868 4789 1 109.50000 418.400000
2021 12868 6116 1 109.50000 418.400000
2021 12868 11155 1 109.50000 418.400000
4789 12868 6116 1 109.50000 418.400000
4789 12868 11155 1 109.50000 418.400000
6116 12868 11155 1 109.50000 418.400000
2971 12869 2972 1 109.50000 418.400000
2971 12869 4793 1 109.50000 418.400000
2971 12869 4794 1 109.50000 418.400000
2972 12869 4793 1 109.50000 418.400000
2972 12869 4794 1 109.50000 418.400000
4793 12869 4794 1 109.50000 418.400000
837 12870 4795 1 109.50000 418.400000
837 12870 11190 1 109.50000 418.400000
837 12870 11315 1 109.50000 418.400000
4795 12870 11190 1 109.50000 418.400000
4795 12870 11315 1 109.50000 418.400000
11190 12870 11315 1 109.50000 418.400000
4796 12871 4797 1 109.50000 418.400000
4796 12871 4798 1 109.50000 418.400000
4796 12871 4799 1 109.50000 418.400000
4797 12871 4798 1 109.50000 418.400000
4797 12871 4799 1 109.50000 418.400000
4798 12871 4799 1 109.50000 418.400000
2732 12872 3337 1 109.50000 418.400000
2732 12872 4800 1 109.50000 418.400000
2732 12872 11163 1 109.50000 418.400000
3337 12872 4800 1 109.50000 418.400000
3337 12872 11163 1 109.50000 418.400000
4800 12872 11163 1 109.50000 418.400000
4801 12873 4803 1 109.50000 418.400000
4801 12873 6161 1 109.50000 418.400000
4801 12873 7451 1 109.50000 418.400000
4803 12873 6161 1 109.50000 418.400000
4803 12873 7451 1 109.50000 418.400000
6161 12873 7451 1 109.50000 418.400000
2791 12874 2793 1 109.50000 418.400000
2791 12874 4804 1 109.50000 418.400000
2791 12874 4805 1 109.50000 418.400000
2793 12874 4804 1 109.50000 418.400000
2793 12874 4805 1 109.50000 418.400000
4804 12874 4805 1 109.50000 418.400000
4810 12875 4812 1 109.50000 418.400000
4810 12875 8212 1 109.50000 418.400000
4810 12875 11235 1 109.50000 418.400000
4812 12875 8212 1 109.50000 418.400000
4812 12875 11235 1 109.50000 418.400000
8212 12875 11235 1 109.50000 418.400000
4815 12876 4816 1 109.50000 418.400000
4815 12876 11227 1 109.50000 418.400000
4815 12876 11414 1 109.50000 418.400000
4816 12876 11227 1 109.50000 418.400000
4816 12876 11414 1 109.50000 418.400000
11227 12876 11414 1 109.50000 418.400000
4032 12877 4817 1 109.50000 418.400000
4032 12877 11381 1 109.50000 418.400000
4032 12877 11486 1 109.50000 418.400000
4817 12877 11381 1 109.50000 418.400000
4817 12877 11486 1 109.50000 418.400000
11381 12877 11486 1 109.50000 418.400000
3725 12878 4818 1 109.50000 418.400000
3725 12878 4819 1 109.50000 418.400000
3725 12878 4820 1 109.50000 418.400000
4818 12878 4819 1 109.50000 418.400000
4818 12878 4820 1 109.50000 418.400000
4819 12878 4820 1 109.50000 418.400000
4821 12879 4822 1 109.50000 418.400000
4821 12879 4823 1 109.50000 418.400000
4821 12879 4824 1 109.50000 418.400000
4822 12879 4823 1 109.50000 418.400000
4822 12879 4824 1 109.50000 418.400000
4823 12879 4824 1 109.50000 418.400000
1424 12880 4828 1 109.50000 418.400000
1424 12880 4829 1 109.50000 418.400000
1424 12880 4830 1 109.50000 418.400000
4828 12880 4829 1 109.50000 418.400000
4828 12880 4830 1 109.50000 418.400000
4829 12880 4830 1 109.50000 418.400000
4831 12881 4832 1 109.50000 418.400000
4831 12881 4833 1 109.50000 418.400000
4831 12881 4834 1 109.50000 418.400000
4832 12881 4833 1 109.50000 418.400000
4832 12881 4834 1 109.50000 418.400000
4833 12881 4834 1 109.50000 418.400000
39 12882 4835 1 109.50000 418.400000
39 12882 4836 1 109.50000 418.400000
39 12882 4837 1 109.50000 418.400000
4835 12882 4836 1 109.50000 418.400000
4835 12882 4837 1 109.50000 418.400000
4836 12882 4837 1 109.50000 418.400000
955 12883 4838 1 109.50000 418.400000
955 12883 4839 1 109.50000 418.400000
955 12883 4840 1 109.50000 418.400000
4838 12883 4839 1 109.50000 418.400000
4838 12883 4840 1 109.50000 418.400000
4839 12883 4840 1 109.50000 418.400000
4841 12884 4842 1 109.50000 418.400000
4841 12884 4843 1 109.50000 418.400000
4841 12884 4844 1 109.50000 418.400000
4842 12884 4843 1 109.50000 418.400000
4842 12884 4844 1 109.50000 418.400000
4843 12884 4844 1 109.50000 418.400000
3912 12885 4845 1 109.50000 418.400000
3912 12885 4846 1 109.50000 418.400000
3912 12885 4847 1 109.50000 418.400000
4845 12885 4846 1 109.50000 418.400000
4845 12885 4847 1 109.50000 418.400000
4846 12885 4847 1 109.50000 418.400000
145 12886 4849 1 109.50000 418.400000
145 12886 11185 1 109.50000 418.400000
145 12886 11345 1 109.50000 418.400000
4849 12886 11185 1 109.50000 418.400000
4849 12886 11345 1 109.50000 418.400000
11185 12886 11345 1 109.50000 418.400000
340 12887 4850 1 109.50000 418.400000
340 12887 4851 1 109.50000 418.400000
340 12887 4852 1 109.50000 418.400000
4850 12887 4851 1 109.50000 418.400000
4850 12887 4852 1 109.50000 418.400000
4851 12887 4852 1 109.50000 418.400000
4392 12888 4853 1 109.50000 418.400000
4392 12888 4854 1 109.50000 418.400000
4392 12888 4855 1 109.50000 418.400000
4853 12888 4854 1 109.50000 418.400000
4853 12888 4855 1 109.50000 418.400000
4854 12888 4855 1 109.50000 418.400000
2447 12889 3909 1 109.50000 418.400000
2447 12889 4856 1 109.50000 418.400000
2447 12889 4857 1 109.50000 418.400000
3909 12889 4856 1 109.50000 418.400000
3909 12889 4857 1 109.50000 418.400000
4856 12889 4857 1 109.50000 418.400000
2865 12890 2866 1 109.50000 418.400000
2865 12890 4858 1 109.50000 418.400000
2865 12890 4859 1 109.50000 418.400000
2866 12890 4858 1 109.50000 418.400000
2866 12890 4859 1 109.50000 418.400000
4858 12890 4859 1 109.50000 418.400000
4863 12891 4864 1 109.50000 418.400000
4863 12891 4865 1 109.50000 418.400000
4863 12891 4866 1 109.50000 418.400000
4864 12891 4865 1 109.50000 418.400000
4864 12891 4866 1 109.50000 418.400000
4865 12891 4866 1 109.50000 418.400000
2320 12892 4867 1 109.50000 418.400000
2320 12892 4868 1 109.50000 418.400000
2320 12892 4869 1 109.50000 418.400000
4867 12892 4868 1 109.50000 418.400000
4867 12892 4869 1 109.50000 418.400000
4868 12892 4869 1 109.50000 418.400000
4870 12893 4871 1 109.50000 418.400000
4870 12893 11387 1 109.50000 418.400000
4870 12893 11399 1 109.50000 418.400000
4871 12893 11387 1 109.50000 418.400000
4871 12893 11399 1 109.50000 418.400000
11387 12893 11399 1 109.50000 418.400000
841 12894 2752 1 109.50000 418.400000
841 12894 3015 1 109.50000 418.400000
841 12894 4872 1 109.50000 418.400000
2752 12894 3015 1 109.50000 418.400000
2752 12894 4872 1 109.50000 418.400000
3015 12894 4872 1 109.50000 418.400000
3810 12895 4873 1 109.50000 418.400000
3810 12895 4874 1 109.50000 418.400000
3810 12895 4875 1 109.50000 418.400000
4873 12895 4874 1 109.50000 418.400000
4873 12895 4875 1 109.50000 418.400000
4874 12895 4875 1 109.50000 418.400000
1451 12896 4876 1 109.50000 418.400000
1451 12896 4877 1 109.50000 418.400000
1451 12896 4878 1 109.50000 418.400000
4876 12896 4877 1 109.50000 418.400000
4876 12896 4878 1 109.50000 418.400000
4877 12896 4878 1 109.50000 418.400000
161 12897 4880 1 109.50000 418.400000
161 12897 4881 1 109.50000 418.400000
161 12897 4882 1 109.50000 418.400000
4880 12897 4881 1 109.50000 418.400000
4880 12897 4882 1 109.50000 418.400000
4881 12897 4882 1 109.50000 418.400000
4722 12898 4883 1 109.50000 418.400000
4722 12898 4884 1 109.50000 418.400000
4722 12898 4885 1 109.50000 418.400000
4883 12898 4884 1 109.50000 418.400000
4883 12898 4885 1 109.50000 418.400000
4884 12898 4885 1 109.50000 418.400000
460 12899 4886 1 109.50000 418.400000
460 12899 11216 1 109.50000 418.400000
460 12899 11500 1 109.50000 418.400000
4886 12899 11216 1 109.50000 418.400000
4886 12899 11500 1 109.50000 418.400000
11216 12899 11500 1 109.50000 418.400000
4887 12900 4888 1 109.50000 418.400000
4887 12900 4889 1 109.50000 418.400000
4887 12900 4890 1 109.50000 418.400000
4888 12900 4889 1 109.50000 418.400000
4888 12900 4890 1 109.50000 418.400000
4889 12900 4890 1 109.50000 418.400000
2426 12901 4891 1 109.50000 418.400000
2426 12901 4892 1 109.50000 418.400000
2426 12901 4893 1 109.50000 418.400000
4891 12901 4892 1 109.50000 418.400000
4891 12901 4893 1 109.50000 418.400000
4892 12901 4893 1 109.50000 418.400000
732 12902 2676 1 109.50000 418.400000
732 12902 4897 1 109.50000 418.400000
732 12902 4898 1 109.50000 418.400000
2676 12902 4897 1 109.50000 418.400000
2676 12902 4898 1 109.50000 418.400000
4897 12902 4898 1 109.50000 418.400000
4900 12903 4901 1 109.50000 418.400000
4900 12903 8815 1 109.50000 418.400000
4900 12903 11498 1 109.50000 418.400000
4901 12903 8815 1 109.50000 418.400000
4901 12903 11498 1 109.50000 418.400000
8815 12903 11498 1 109.50000 418.400000
4902 12904 4903 1 109.50000 418.400000
4902 12904 4904 1 109.50000 418.400000
4902 12904 4905 1 109.50000 418.400000
4903 12904 4904 1 109.50000 418.400000
4903 12904 4905 1 109.50000 418.400000
4904 12904 4905 1 109.50000 418.400000
4906 12905 4907 1 109.50000 418.400000
4906 12905 4908 1 109.50000 418.400000
4906 12905 4909 1 109.50000 418.400000
4907 12905 4908 1 109.50000 418.400000
4907 12905 4909 1 109.50000 418.400000
4908 12905 4909 1 109.50000 418.400000
4910 12906 4911 1 109.50000 418.400000
4910 12906 4912 1 109.50000 418.400000
4910 12906 4913 1 109.50000 418.400000
4911 12906 4912 1 109.50000 418.400000
4911 12906 4913 1 109.50000 418.400000
4912 12906 4913 1 109.50000 418.400000
4914 12907 4915 1 109.50000 418.400000
4914 12907 4916 1 109.50000 418.400000
4914 12907 4917 1 109.50000 418.400000
4915 12907 4916 1 109.50000 418.400000
4915 12907 4917 1 109.50000 418.400000
4916 12907 4917 1 109.50000 418.400000
4918 12908 4919 1 109.50000 418.400000
4918 12908 4920 1 109.50000 418.400000
4918 12908 4921 1 109.50000 418.400000
4919 12908 4920 1 109.50000 418.400000
4919 12908 4921 1 109.50000 418.400000
4920 12908 4921 1 109.50000 418.400000
1302 12909 4923 1 109.50000 418.400000
1302 12909 4924 1 109.50000 418.400000
1302 12909 4925 1 109.50000 418.400000
4923 12909 4924 1 109.50000 418.400000
4923 12909 4925 1 109.50000 418.400000
4924 12909 4925 1 109.50000 418.400000
4458 12910 4926 1 109.50000 418.400000
4458 12910 4927 1 109.50000 418.400000
4458 12910 4928 1 109.50000 418.400000
4926 12910 4927 1 109.50000 418.400000
4926 12910 4928 1 109.50000 418.400000
4927 12910 4928 1 109.50000 418.400000
4617 12911 4929 1 109.50000 418.400000
4617 12911 4930 1 109.50000 418.400000
4617 12911 11327 1 109.50000 418.400000
4929 12911 4930 1 109.50000 418.400000
4929 12911 11327 1 109.50000 418.400000
4930 12911 11327 1 109.50000 418.400000
960 12912 2203 1 109.50000 418.400000
960 12912 4194 1 109.50000 418.400000
960 12912 4931 1 109.50000 418.400000
2203 12912 4194 1 109.50000 418.400000
2203 12912 4931 1 109.50000 418.400000
4194 12912 4931 1 109.50000 418.400000
2297 12913 2633 1 109.50000 418.400000
2297 12913 4932 1 109.50000 418.400000
2297 12913 11536 1 109.50000 418.400000
2633 12913 4932 1 109.50000 418.400000
2633 12913 11536 1 109.50000 418.400000
4932 12913 11536 1 109.50000 418.400000
4933 12914 4934 1 109.50000 418.400000
4933 12914 4935 1 109.50000 418.400000
4933 12914 4936 1 109.50000 418.400000
4934 12914 4935 1 109.50000 418.400000
4934 12914 4936 1 109.50000 418.400000
4935 12914 4936 1 109.50000 418.400000
4938 12915 4939 1 109.50000 418.400000
4938 12915 10105 1 109.50000 418.400000
4938 12915 11461 1 109.50000 418.400000
4939 12915 10105 1 109.50000 418.400000
4939 12915 11461 1 109.50000 418.400000
10105 12915 11461 1 109.50000 418.400000
4941 12916 4942 1 109.50000 418.400000
4941 12916 4943 1 109.50000 418.400000
4941 12916 6815 1 109.50000 418.400000
4942 12916 4943 1 109.50000 418.400000
4942 12916 6815 1 109.50000 418.400000
4943 12916 6815 1 109.50000 418.400000
3850 12917 4944 1 109.50000 418.400000
3850 12917 4945 1 109.50000 418.400000
3850 12917 4946 1 109.50000 418.400000
4944 12917 4945 1 109.50000 418.400000
4944 12917 4946 1 109.50000 418.400000
4945 12917 4946 1 109.50000 418.400000
4744 12918 4947 1 109.50000 418.400000
4744 12918 4948 1 109.50000 418.400000
4744 12918 4949 1 109.50000 418.400000
4947 12918 4948 1 109.50000 418.400000
4947 12918 4949 1 109.50000 418.400000
4948 12918 4949 1 109.50000 418.400000
4950 12919 4951 1 109.50000 418.400000
4950 12919 4952 1 109.50000 418.400000
4950 12919 4953 1 109.50000 418.400000
4951 12919 4952 1 109.50000 418.400000
4951 12919 4953 1 109.50000 418.400000
4952 12919 4953 1 109.50000 418.400000
180 12920 4954 1 109.50000 418.400000
180 12920 4955 1 109.50000 418.400000
180 12920 4956 1 109.50000 418.400000
4954 12920 4955 1 109.50000 418.400000
4954 12920 4956 1 109.50000 418.400000
4955 12920 4956 1 109.50000 418.400000
4957 12921 4958 1 109.50000 418.400000
4957 12921 4959 1 109.50000 418.400000
4957 12921 4960 1 109.50000 418.400000
4958 12921 4959 1 109.50000 418.400000
4958 12921 4960 1 109.50000 418.400000
4959 12921 4960 1 109.50000 418.400000
1777 12922 1943 1 109.50000 418.400000
1777 12922 4962 1 109.50000 418.400000
1777 12922 4963 1 109.50000 418.400000
1943 12922 4962 1 109.50000 418.400000
1943 12922 4963 1 109.50000 418.400000
4962 12922 4963 1 109.50000 418.400000
4780 12923 4964 1 109.50000 418.400000
4780 12923 4965 1 109.50000 418.400000
4780 12923 4966 1 109.50000 418.400000
4964 12923 4965 1 109.50000 418.400000
4964 12923 4966 1 109.50000 418.400000
4965 12923 4966 1 109.50000 418.400000
2296 12924 3299 1 109.50000 418.400000
2296 12924 4967 1 109.50000 418.400000
2296 12924 4968 1 109.50000 418.400000
3299 12924 4967 1 109.50000 418.400000
3299 12924 4968 1 109.50000 418.400000
4967 12924 4968 1 109.50000 418.400000
3679 12925 4969 1 109.50000 418.400000
3679 12925 4970 1 109.50000 418.400000
3679 12925 4971 1 109.50000 418.400000
4969 12925 4970 1 109.50000 418.400000
4969 12925 4971 1 109.50000 418.400000
4970 12925 4971 1 109.50000 418.400000
4972 12926 4973 1 109.50000 418.400000
4972 12926 4974 1 109.50000 418.400000
4972 12926 4975 1 109.50000 418.400000
4973 12926 4974 1 109.50000 418.400000
4973 12926 4975 1 109.50000 418.400000
4974 12926 4975 1 109.50000 418.400000
4244 12927 4976 1 109.50000 418.400000
4244 12927 4977 1 109.50000 418.400000
4244 12927 4978 1 109.50000 418.400000
4976 12927 4977 1 109.50000 418.400000
4976 12927 4978 1 109.50000 418.400000
4977 12927 4978 1 109.50000 418.400000
610 12928 1099 1 109.50000 418.400000
610 12928 4979 1 109.50000 418.400000
610 12928 4980 1 109.50000 418.400000
1099 12928 4979 1 109.50000 418.400000
1099 12928 4980 1 109.50000 418.400000
4979 12928 4980 1 109.50000 418.400000
4981 12929 4982 1 109.50000 418.400000
4981 12929 11378 1 109.50000 418.400000
4981 12929 11497 1 109.50000 418.400000
4982 12929 11378 1 109.50000 418.400000
4982 12929 11497 1 109.50000 418.400000
11378 12929 11497 1 109.50000 418.400000
4600 12930 4983 1 109.50000 418.400000
4600 12930 4984 1 109.50000 418.400000
4600 12930 4985 1 109.50000 418.400000
4983 12930 4984 1 109.50000 418.400000
4983 12930 4985 1 109.50000 418.400000
4984 12930 4985 1 109.50000 418.400000
4986 12931 4987 1 109.50000 418.400000
4986 12931 4988 1 109.50000 418.400000
4986 12931 11067 1 109.50000 418.400000
4987 12931 4988 1 109.50000 418.400000
4987 12931 11067 1 109.50000 418.400000
4988 12931 11067 1 109.50000 418.400000
2405 12932 3614 1 109.50000 418.400000
2405 12932 4381 1 109.50000 418.400000
2405 12932 4989 1 109.50000 418.400000
3614 12932 4381 1 109.50000 418.400000
3614 12932 4989 1 109.50000 418.400000
4381 12932 4989 1 109.50000 418.400000
3627 12933 4990 1 109.50000 418.400000
3627 12933 4991 1 109.50000 418.400000
3627 12933 11473 1 109.50000 418.400000
4990 12933 4991 1 109.50000 418.400000
4990 12933 11473 1 109.50000 418.400000
4991 12933 11473 1 109.50000 418.400000
366 12934 709 1 109.50000 418.400000
366 12934 4992 1 109.50000 418.400000
366 12934 4993 1 109.50000 418.400000
709 12934 4992 1 109.50000 418.400000
709 12934 4993 1 109.50000 418.400000
4992 12934 4993 1 109.50000 418.400000
4998 12935 4999 1 109.50000 418.400000
4998 12935 5000 1 109.50000 418.400000
4998 12935 5001 1 109.50000 418.400000
4999 12935 5000 1 109.50000 418.400000
4999 12935 5001 1 109.50000 418.400000
5000 12935 5001 1 109.50000 418.400000
4232 12936 5002 1 109.50000 418.400000
4232 12936 5003 1 109.50000 418.400000
4232 12936 5004 1 109.50000 418.400000
5002 12936 5003 1 109.50000 418.400000
5002 12936 5004 1 109.50000 418.400000
5003 12936 5004 1 109.50000 418.400000
3383 12937 5005 1 109.50000 418.400000
3383 12937 5006 1 109.50000 418.400000
3383 12937 5007 1 109.50000 418.400000
5005 12937 5006 1 109.50000 418.400000
5005 12937 5007 1 109.50000 418.400000
5006 12937 5007 1 109.50000 418.400000
1849 12938 2202 1 109.50000 418.400000
1849 12938 5008 1 109.50000 418.400000
1849 12938 5009 1 109.50000 418.400000
2202 12938 5008 1 109.50000 418.400000
2202 12938 5009 1 109.50000 418.400000
5008 12938 5009 1 109.50000 418.400000
5010 12939 5013 1 109.50000 418.400000
5010 12939 5858 1 109.50000 418.400000
5010 12939 7761 1 109.50000 418.400000
5013 12939 5858 1 109.50000 418.400000
5013 12939 7761 1 109.50000 418.400000
5858 12939 7761 1 109.50000 418.400000
5014 12940 5015 1 109.50000 418.400000
5014 12940 5016 1 109.50000 418.400000
5014 12940 5017 1 109.50000 418.400000
5015 12940 5016 1 109.50000 418.400000
5015 12940 5017 1 109.50000 418.400000
5016 12940 5017 1 109.50000 418.400000
1642 12941 5018 1 109.50000 418.400000
1642 12941 5019 1 109.50000 418.400000
1642 12941 5020 1 109.50000 418.400000
5018 12941 5019 1 109.50000 418.400000
5018 12941 5020 1 109.50000 418.400000
5019 12941 5020 1 109.50000 418.400000
2123 12942 3310 1 109.50000 418.400000
2123 12942 5021 1 109.50000 418.400000
2123 12942 10156 1 109.50000 418.400000
3310 12942 5021 1 109.50000 418.400000
3310 12942 10156 1 109.50000 418.400000
5021 12942 10156 1 109.50000 418.400000
5022 12943 5023 1 109.50000 418.400000
5022 12943 5024 1 109.50000 418.400000
5022 12943 5025 1 109.50000 418.400000
5023 12943 5024 1 109.50000 418.400000
5023 12943 5025 1 109.50000 418.400000
5024 12943 5025 1 109.50000 418.400000
2883 12944 3713 1 109.50000 418.400000
2883 12944 5026 1 109.50000 418.400000
2883 12944 5027 1 109.50000 418.400000
3713 12944 5026 1 109.50000 418.400000
3713 12944 5027 1 109.50000 418.400000
5026 12944 5027 1 109.50000 418.400000
446 12945 4191 1 109.50000 418.400000
446 12945 5029 1 109.50000 418.400000
446 12945 6715 1 109.50000 418.400000
4191 12945 5029 1 109.50000 418.400000
4191 12945 6715 1 109.50000 418.400000
5029 12945 6715 1 109.50000 418.400000
5032 12946 5033 1 109.50000 418.400000
5032 12946 5034 1 109.50000 418.400000
5032 12946 5035 1 109.50000 418.400000
5033 12946 5034 1 109.50000 418.400000
5033 12946 5035 1 109.50000 418.400000
5034 12946 5035 1 109.50000 418.400000
431 12947 3753 1 109.50000 418.400000
431 12947 5036 1 109.50000 418.400000
431 12947 5037 1 109.50000 418.400000
3753 12947 5036 1 109.50000 418.400000
3753 12947 5037 1 109.50000 418.400000
5036 12947 5037 1 109.50000 418.400000
2014 12948 5038 1 109.50000 418.400000
2014 12948 11141 1 109.50000 418.400000
2014 12948 11506 1 109.50000 418.400000
5038 12948 11141 1 109.50000 418.400000
5038 12948 11506 1 109.50000 418.400000
11141 12948 11506 1 109.50000 418.400000
5039 12949 5040 1 109.50000 418.400000
5039 12949 5041 1 109.50000 418.400000
5039 12949 5042 1 109.50000 418.400000
5040 12949 5041 1 109.50000 418.400000
5040 12949 5042 1 109.50000 418.400000
5041 12949 5042 1 109.50000 418.400000
4571 12950 5045 1 109.50000 418.400000
4571 12950 5046 1 109.50000 418.400000
4571 12950 5047 1 109.50000 418.400000
5045 12950 5046 1 109.50000 418.400000
5045 12950 5047 1 109.50000 418.400000
5046 12950 5047 1 109.50000 418.400000
5048 12951 5050 1 109.50000 418.400000
5048 12951 5051 1 109.50000 418.400000
5048 12951 11090 1 109.50000 418.400000
5050 12951 5051 1 109.50000 418.400000
5050 12951 11090 1 109.50000 418.400000
5051 12951 11090 1 109.50000 418.400000
2601 12952 4876 1 109.50000 418.400000
2601 12952 5052 1 109.50000 418.400000
2601 12952 5053 1 109.50000 418.400000
4876 12952 5052 1 109.50000 418.400000
4876 12952 5053 1 109.50000 418.400000
5052 12952 5053 1 109.50000 418.400000
4182 12953 5056 1 109.50000 418.400000
4182 12953 5057 1 109.50000 418.400000
4182 12953 5058 1 109.50000 418.400000
5056 12953 5057 1 109.50000 418.400000
5056 12953 5058 1 109.50000 418.400000
5057 12953 5058 1 109.50000 418.400000
1660 12954 4690 1 109.50000 418.400000
1660 12954 5060 1 109.50000 418.400000
1660 12954 5061 1 109.50000 418.400000
4690 12954 5060 1 109.50000 418.400000
4690 12954 5061 1 109.50000 418.400000
5060 12954 5061 1 109.50000 418.400000
1139 12955 5062 1 109.50000 418.400000
1139 12955 5063 1 109.50000 418.400000
1139 12955 5064 1 109.50000 418.400000
5062 12955 5063 1 109.50000 418.400000
5062 12955 5064 1 109.50000 418.400000
5063 12955 5064 1 109.50000 418.400000
647 12956 5065 1 109.50000 418.400000
647 12956 5066 1 109.50000 418.400000
647 12956 5067 1 109.50000 418.400000
5065 12956 5066 1 109.50000 418.400000
5065 12956 5067 1 109.50000 418.400000
5066 12956 5067 1 109.50000 418.400000
3535 12957 5068 1 109.50000 418.400000
3535 12957 5069 1 109.50000 418.400000
3535 12957 5070 1 109.50000 418.400000
5068 12957 5069 1 109.50000 418.400000
5068 12957 5070 1 109.50000 418.400000
5069 12957 5070 1 109.50000 418.400000
4545 12958 5071 1 109.50000 418.400000
4545 12958 5072 1 109.50000 418.400000
4545 12958 5073 1 109.50000 418.400000
5071 12958 5072 1 109.50000 418.400000
5071 12958 5073 1 109.50000 418.400000
5072 12958 5073 1 109.50000 418.400000
5074 12959 5075 1 109.50000 418.400000
5074 12959 5076 1 109.50000 418.400000
5074 12959 5077 1 109.50000 418.400000
5075 12959 5076 1 109.50000 418.400000
5075 12959 5077 1 109.50000 418.400000
5076 12959 5077 1 109.50000 418.400000
2142 12960 5078 1 109.50000 418.400000
2142 12960 5079 1 109.50000 418.400000
2142 12960 5080 1 109.50000 418.400000
5078 12960 5079 1 109.50000 418.400000
5078 12960 5080 1 109.50000 418.400000
5079 12960 5080 1 109.50000 418.400000
376 12961 2161 1 109.50000 418.400000
376 12961 5081 1 109.50000 418.400000
376 12961 5082 1 109.50000 418.400000
2161 12961 5081 1 109.50000 418.400000
2161 12961 5082 1 109.50000 418.400000
5081 12961 5082 1 109.50000 418.400000
35 12962 425 1 109.50000 418.400000
35 12962 5083 1 109.50000 418.400000
35 12962 5084 1 109.50000 418.400000
425 12962 5083 1 109.50000 418.400000
425 12962 5084 1 109.50000 418.400000
5083 12962 5084 1 109.50000 418.400000
4222 12963 5085 1 109.50000 418.400000
4222 12963 5086 1 109.50000 418.400000
4222 12963 5087 1 109.50000 418.400000
5085 12963 5086 1 109.50000 418.400000
5085 12963 5087 1 109.50000 418.400000
5086 12963 5087 1 109.50000 418.400000
5088 12964 5089 1 109.50000 418.400000
5088 12964 5090 1 109.50000 418.400000
5088 12964 5091 1 109.50000 418.400000
5089 12964 5090 1 109.50000 418.400000
5089 12964 5091 1 109.50000 418.400000
5090 12964 5091 1 109.50000 418.400000
5092 12965 5093 1 109.50000 418.400000
5092 12965 5094 1 109.50000 418.400000
5092 12965 5095 1 109.50000 418.400000
5093 12965 5094 1 109.50000 418.400000
5093 12965 5095 1 109.50000 418.400000
5094 12965 5095 1 109.50000 418.400000
5096 12966 5097 1 109.50000 418.400000
5096 12966 5098 1 109.50000 418.400000
5096 12966 5099 1 109.50000 418.400000
5097 12966 5098 1 109.50000 418.400000
5097 12966 5099 1 109.50000 418.400000
5098 12966 5099 1 109.50000 418.400000
5100 12967 5101 1 109.50000 418.400000
5100 12967 5102 1 109.50000 418.400000
5100 12967 5103 1 109.50000 418.400000
5101 12967 5102 1 109.50000 418.400000
5101 12967 5103 1 109.50000 418.400000
5102 12967 5103 1 109.50000 418.400000
2997 12968 4997 1 109.50000 418.400000
2997 12968 5106 1 109.50000 418.400000
2997 12968 5107 1 109.50000 418.400000
4997 12968 5106 1 109.50000 418.400000
4997 12968 5107 1 109.50000 418.400000
5106 12968 5107 1 109.50000 418.400000
5108 12969 5109 1 109.50000 418.400000
5108 12969 5110 1 109.50000 418.400000
5108 12969 5111 1 109.50000 418.400000
5109 12969 5110 1 109.50000 418.400000
5109 12969 5111 1 109.50000 418.400000
5110 12969 5111 1 109.50000 418.400000
5112 12970 5113 1 109.50000 418.400000
5112 12970 5114 1 109.50000 418.400000
5112 12970 6356 1 109.50000 418.400000
5113 12970 5114 1 109.50000 418.400000
5113 12970 6356 1 109.50000 418.400000
5114 12970 6356 1 109.50000 418.400000
2175 12971 4734 1 109.50000 418.400000
2175 12971 5116 1 109.50000 418.400000
2175 12971 5117 1 109.50000 418.400000
4734 12971 5116 1 109.50000 418.400000
4734 12971 5117 1 109.50000 418.400000
5116 12971 5117 1 109.50000 418.400000
5118 12972 5119 1 109.50000 418.400000
5118 12972 5120 1 109.50000 418.400000
5118 12972 5121 1 109.50000 418.400000
5119 12972 5120 1 109.50000 418.400000
5119 12972 5121 1 109.50000 418.400000
5120 12972 5121 1 109.50000 418.400000
360 12973 5122 1 109.50000 418.400000
360 12973 5123 1 109.50000 418.400000
360 12973 5124 1 109.50000 418.400000
5122 12973 5123 1 109.50000 418.400000
5122 12973 5124 1 109.50000 418.400000
5123 12973 5124 1 109.50000 418.400000
2806 12974 5123 1 109.50000 418.400000
2806 12974 5125 1 109.50000 418.400000
2806 12974 5126 1 109.50000 418.400000
5123 12974 5125 1 109.50000 418.400000
5123 12974 5126 1 109.50000 418.400000
5125 12974 5126 1 109.50000 418.400000
1653 12975 5127 1 109.50000 418.400000
1653 12975 5128 1 109.50000 418.400000
1653 12975 5129 1 109.50000 418.400000
5127 12975 5128 1 109.50000 418.400000
5127 12975 5129 1 109.50000 418.400000
5128 12975 5129 1 109.50000 418.400000
2109 12976 4061 1 109.50000 418.400000
2109 12976 5133 1 109.50000 418.400000
2109 12976 5134 1 109.50000 418.400000
4061 12976 5133 1 109.50000 418.400000
4061 12976 5134 1 109.50000 418.400000
5133 12976 5134 1 109.50000 418.400000
5135 12977 5136 1 109.50000 418.400000
5135 12977 9621 1 109.50000 418.400000
5135 12977 11516 1 109.50000 418.400000
5136 12977 9621 1 109.50000 418.400000
5136 12977 11516 1 109.50000 418.400000
9621 12977 11516 1 109.50000 418.400000
5137 12978 5138 1 109.50000 418.400000
5137 12978 5139 1 109.50000 418.400000
5137 12978 5140 1 109.50000 418.400000
5138 12978 5139 1 109.50000 418.400000
5138 12978 5140 1 109.50000 418.400000
5139 12978 5140 1 109.50000 418.400000
5144 12979 5145 1 109.50000 418.400000
5144 12979 5146 1 109.50000 418.400000
5144 12979 5147 1 109.50000 418.400000
5145 12979 5146 1 109.50000 418.400000
5145 12979 5147 1 109.50000 418.400000
5146 12979 5147 1 109.50000 418.400000
1770 12980 5148 1 109.50000 418.400000
1770 12980 5149 1 109.50000 418.400000
1770 12980 5150 1 109.50000 418.400000
5148 12980 5149 1 109.50000 418.400000
5148 12980 5150 1 109.50000 418.400000
5149 12980 5150 1 109.50000 418.400000
3180 12981 5151 1 109.50000 418.400000
3180 12981 5152 1 109.50000 418.400000
3180 12981 5153 1 109.50000 418.400000
5151 12981 5152 1 109.50000 418.400000
5151 12981 5153 1 109.50000 418.400000
5152 12981 5153 1 109.50000 418.400000
700 12982 5154 1 109.50000 418.400000
700 12982 5155 1 109.50000 418.400000
700 12982 5156 1 109.50000 418.400000
5154 12982 5155 1 109.50000 418.400000
5154 12982 5156 1 109.50000 418.400000
5155 12982 5156 1 109.50000 418.400000
5157 12983 5158 1 109.50000 418.400000
5157 12983 5159 1 109.50000 418.400000
5157 12983 5160 1 109.50000 418.400000
5158 12983 5159 1 109.50000 418.400000
5158 12983 5160 1 109.50000 418.400000
5159 12983 5160 1 109.50000 418.400000
293 12984 2937 1 109.50000 418.400000
293 12984 5162 1 109.50000 418.400000
293 12984 9999 1 109.50000 418.400000
2937 12984 5162 1 109.50000 418.400000
2937 12984 9999 1 109.50000 418.400000
5162 12984 9999 1 109.50000 418.400000
1864 12985 1987 1 109.50000 418.400000
1864 12985 11338 1 109.50000 418.400000
1864 12985 11378 1 109.50000 418.400000
1987 12985 11338 1 109.50000 418.400000
1987 12985 11378 1 109.50000 418.400000
11338 12985 11378 1 109.50000 418.400000
342 12986 4193 1 109.50000 418.400000
342 12986 5165 1 109.50000 418.400000
342 12986 5166 1 109.50000 418.400000
4193 12986 5165 1 109.50000 418.400000
4193 12986 5166 1 109.50000 418.400000
5165 12986 5166 1 109.50000 418.400000
1978 12987 2985 1 109.50000 418.400000
1978 12987 5167 1 109.50000 418.400000
1978 12987 5168 1 109.50000 418.400000
2985 12987 5167 1 109.50000 418.400000
2985 12987 5168 1 109.50000 418.400000
5167 12987 5168 1 109.50000 418.400000
1205 12988 3777 1 109.50000 418.400000
1205 12988 5169 1 109.50000 418.400000
1205 12988 5170 1 109.50000 418.400000
3777 12988 5169 1 109.50000 418.400000
3777 12988 5170 1 109.50000 418.400000
5169 12988 5170 1 109.50000 418.400000
2994 12989 3386 1 109.50000 418.400000
2994 12989 3688 1 109.50000 418.400000
2994 12989 5171 1 109.50000 418.400000
3386 12989 3688 1 109.50000 418.400000
3386 12989 5171 1 109.50000 418.400000
3688 12989 5171 1 109.50000 418.400000
2443 12990 5172 1 109.50000 418.400000
2443 12990 11269 1 109.50000 418.400000
2443 12990 11501 1 109.50000 418.400000
5172 12990 11269 1 109.50000 418.400000
5172 12990 11501 1 109.50000 418.400000
11269 12990 11501 1 109.50000 418.400000
5175 12991 5176 1 109.50000 418.400000
5175 12991 5177 1 109.50000 418.400000
5175 12991 5178 1 109.50000 418.400000
5176 12991 5177 1 109.50000 418.400000
5176 12991 5178 1 109.50000 418.400000
5177 12991 5178 1 109.50000 418.400000
3095 12992 5179 1 109.50000 418.400000
3095 12992 5180 1 109.50000 418.400000
3095 12992 5181 1 109.50000 418.400000
5179 12992 5180 1 109.50000 418.400000
5179 12992 5181 1 109.50000 418.400000
5180 12992 5181 1 109.50000 418.400000
2852 12993 5182 1 109.50000 418.400000
2852 12993 5183 1 109.50000 418.400000
2852 12993 5184 1 109.50000 418.400000
5182 12993 5183 1 109.50000 418.400000
5182 12993 5184 1 109.50000 418.400000
5183 12993 5184 1 109.50000 418.400000
5185 12994 5186 1 109.50000 418.400000
5185 12994 5187 1 109.50000 418.400000
5185 12994 5745 1 109.50000 418.400000
5186 12994 5187 1 109.50000 418.400000
5186 12994 5745 1 109.50000 418.400000
5187 12994 5745 1 109.50000 418.400000
3751 12995 5188 1 109.50000 418.400000
3751 12995 5189 1 109.50000 418.400000
3751 12995 11478 1 109.50000 418.400000
5188 12995 5189 1 109.50000 418.400000
5188 12995 11478 1 109.50000 418.400000
5189 12995 11478 1 109.50000 418.400000
2188 12996 3950 1 109.50000 418.400000
2188 12996 5008 1 109.50000 418.400000
2188 12996 5190 1 109.50000 418.400000
3950 12996 5008 1 109.50000 418.400000
3950 12996 5190 1 109.50000 418.400000
5008 12996 5190 1 109.50000 418.400000
4022 12997 5191 1 109.50000 418.400000
4022 12997 5192 1 109.50000 418.400000
4022 12997 5193 1 109.50000 418.400000
5191 12997 5192 1 109.50000 418.400000
5191 12997 5193 1 109.50000 418.400000
5192 12997 5193 1 109.50000 418.400000
2592 12998 5194 1 109.50000 418.400000
2592 12998 5195 1 109.50000 418.400000
2592 12998 5196 1 109.50000 418.400000
5194 12998 5195 1 109.50000 418.400000
5194 12998 5196 1 109.50000 418.400000
5195 12998 5196 1 109.50000 418.400000
4821 12999 5197 1 109.50000 418.400000
4821 12999 5198 1 109.50000 418.400000
4821 12999 5199 1 109.50000 418.400000
5197 12999 5198 1 109.50000 418.400000
5197 12999 5199 1 109.50000 418.400000
5198 12999 5199 1 109.50000 418.400000
987 13000 5200 1 109.50000 418.400000
987 13000 5201 1 109.50000 418.400000
987 13000 5202 1 109.50000 418.400000
5200 13000 5201 1 109.50000 418.400000
5200 13000 5202 1 109.50000 418.400000
5201 13000 5202 1 109.50000 418.400000
5203 13001 5204 1 109.50000 418.400000
5203 13001 5205 1 109.50000 418.400000
5203 13001 6479 1 109.50000 418.400000
5204 13001 5205 1 109.50000 418.400000
5204 13001 6479 1 109.50000 418.400000
5205 13001 6479 1 109.50000 418.400000
5206 13002 5208 1 109.50000 418.400000
5206 13002 5209 1 109.50000 418.400000
5206 13002 5955 1 109.50000 418.400000
5208 13002 5209 1 109.50000 418.400000
5208 13002 5955 1 109.50000 418.400000
5209 13002 5955 1 109.50000 418.400000
5210 13003 5211 1 109.50000 418.400000
5210 13003 5212 1 109.50000 418.400000
5210 13003 5213 1 109.50000 418.400000
5211 13003 5212 1 109.50000 418.400000
5211 13003 5213 1 109.50000 418.400000
5212 13003 5213 1 109.50000 418.400000
2023 13004 5214 1 109.50000 418.400000
2023 13004 5215 1 109.50000 418.400000
2023 13004 5216 1 109.50000 418.400000
5214 13004 5215 1 109.50000 418.400000
5214 13004 5216 1 109.50000 418.400000
5215 13004 5216 1 109.50000 418.400000
5217 13005 5218 1 109.50000 418.400000
5217 13005 5219 1 109.50000 418.400000
5217 13005 5220 1 109.50000 418.400000
5218 13005 5219 1 109.50000 418.400000
5218 13005 5220 1 109.50000 418.400000
5219 13005 5220 1 109.50000 418.400000
1204 13006 1782 1 109.50000 418.400000
1204 13006 3778 1 109.50000 418.400000
1204 13006 5222 1 109.50000 418.400000
1782 13006 3778 1 109.50000 418.400000
1782 13006 5222 1 109.50000 418.400000
3778 13006 5222 1 109.50000 418.400000
5224 13007 5225 1 109.50000 418.400000
5224 13007 5226 1 109.50000 418.400000
5224 13007 8421 1 109.50000 418.400000
5225 13007 5226 1 109.50000 418.400000
5225 13007 8421 1 109.50000 418.400000
5226 13007 8421 1 109.50000 418.400000
5227 13008 5228 1 109.50000 418.400000
5227 13008 5229 1 109.50000 418.400000
5227 13008 5230 1 109.50000 418.400000
5228 13008 5229 1 109.50000 418.400000
5228 13008 5230 1 109.50000 418.400000
5229 13008 5230 1 109.50000 418.400000
317 13009 5232 1 109.50000 418.400000
317 13009 5233 1 109.50000 418.400000
317 13009 10628 1 109.50000 418.400000
5232 13009 5233 1 109.50000 418.400000
5232 13009 10628 1 109.50000 418.400000
5233 13009 10628 1 109.50000 418.400000
1288 13010 5234 1 109.50000 418.400000
1288 13010 5235 1 109.50000 418.400000
1288 13010 11436 1 109.50000 418.400000
5234 13010 5235 1 109.50000 418.400000
5234 13010 11436 1 109.50000 418.400000
5235 13010 11436 1 109.50000 418.400000
1258 13011 3717 1 109.50000 418.400000
1258 13011 5236 1 109.50000 418.400000
1258 13011 5237 1 109.50000 418.400000
3717 13011 5236 1 109.50000 418.400000
3717 13011 5237 1 109.50000 418.400000
5236 13011 5237 1 109.50000 418.400000
5238 13012 5240 1 109.50000 418.400000
5238 13012 5241 1 109.50000 418.400000
5238 13012 9128 1 109.50000 418.400000
5240 13012 5241 1 109.50000 418.400000
5240 13012 9128 1 109.50000 418.400000
5241 13012 9128 1 109.50000 418.400000
5242 13013 5243 1 109.50000 418.400000
5242 13013 5244 1 109.50000 418.400000
5242 13013 5245 1 109.50000 418.400000
5243 13013 5244 1 109.50000 418.400000
5243 13013 5245 1 109.50000 418.400000
5244 13013 5245 1 109.50000 418.400000
1497 13014 5246 1 109.50000 418.400000
1497 13014 5247 1 109.50000 418.400000
1497 13014 5248 1 109.50000 418.400000
5246 13014 5247 1 109.50000 418.400000
5246 13014 5248 1 109.50000 418.400000
5247 13014 5248 1 109.50000 418.400000
5253 13015 5254 1 109.50000 418.400000
5253 13015 5255 1 109.50000 418.400000
5253 13015 6222 1 109.50000 418.400000
5254 13015 5255 1 109.50000 418.400000
5254 13015 6222 1 109.50000 418.400000
5255 13015 6222 1 109.50000 418.400000
3632 13016 4521 1 109.50000 418.400000
3632 13016 5258 1 109.50000 418.400000
3632 13016 5259 1 109.50000 418.400000
4521 13016 5258 1 109.50000 418.400000
4521 13016 5259 1 109.50000 418.400000
5258 13016 5259 1 109.50000 418.400000
356 13017 5260 1 109.50000 418.400000
356 13017 5261 1 109.50000 418.400000
356 13017 11493 1 109.50000 418.400000
5260 13017 5261 1 109.50000 418.400000
5260 13017 11493 1 109.50000 418.400000
5261 13017 11493 1 109.50000 418.400000
561 13018 5262 1 109.50000 418.400000
561 13018 5263 1 109.50000 418.400000
561 13018 5264 1 109.50000 418.400000
5262 13018 5263 1 109.50000 418.400000
5262 13018 5264 1 109.50000 418.400000
5263 13018 5264 1 109.50000 418.400000
1242 13019 5265 1 109.50000 418.400000
1242 13019 5266 1 109.50000 418.400000
1242 13019 9329 1 109.50000 418.400000
5265 13019 5266 1 109.50000 418.400000
5265 13019 9329 1 109.50000 418.400000
5266 13019 9329 1 109.50000 418.400000
5267 13020 5268 1 109.50000 418.400000
5267 13020 5269 1 109.50000 418.400000
5267 13020 5270 1 109.50000 418.400000
5268 13020 5269 1 109.50000 418.400000
5268 13020 5270 1 109.50000 418.400000
5269 13020 5270 1 109.50000 418.400000
1309 13021 5271 1 109.50000 418.400000
1309 13021 5272 1 109.50000 418.400000
1309 13021 5273 1 109.50000 418.400000
5271 13021 5272 1 109.50000 418.400000
5271 13021 5273 1 109.50000 418.400000
5272 13021 5273 1 109.50000 418.400000
848 13022 5274 1 109.50000 418.400000
848 13022 5275 1 109.50000 418.400000
848 13022 5276 1 109.50000 418.400000
5274 13022 5275 1 109.50000 418.400000
5274 13022 5276 1 109.50000 418.400000
5275 13022 5276 1 109.50000 418.400000
5277 13023 5278 1 109.50000 418.400000
5277 13023 5279 1 109.50000 418.400000
5277 13023 5280 1 109.50000 418.400000
5278 13023 5279 1 109.50000 418.400000
5278 13023 5280 1 109.50000 418.400000
5279 13023 5280 1 109.50000 418.400000
5281 13024 5282 1 109.50000 418.400000
5281 13024 5283 1 109.50000 418.400000
5281 13024 5284 1 109.50000 418.400000
5282 13024 5283 1 109.50000 418.400000
5282 13024 5284 1 109.50000 418.400000
5283 13024 5284 1 109.50000 418.400000
432 13025 674 1 109.50000 418.400000
432 13025 5285 1 109.50000 418.400000
432 13025 5286 1 109.50000 418.400000
674 13025 5285 1 109.50000 418.400000
674 13025 5286 1 109.50000 418.400000
5285 13025 5286 1 109.50000 418.400000
2789 13026 5289 1 109.50000 418.400000
2789 13026 5290 1 109.50000 418.400000
2789 13026 5291 1 109.50000 418.400000
5289 13026 5290 1 109.50000 418.400000
5289 13026 5291 1 109.50000 418.400000
5290 13026 5291 1 109.50000 418.400000
861 13027 5292 1 109.50000 418.400000
861 13027 5293 1 109.50000 418.400000
861 13027 5294 1 109.50000 418.400000
5292 13027 5293 1 109.50000 418.400000
5292 13027 5294 1 109.50000 418.400000
5293 13027 5294 1 109.50000 418.400000
25 13028 5295 1 109.50000 418.400000
25 13028 5296 1 109.50000 418.400000
25 13028 5297 1 109.50000 418.400000
5295 13028 5296 1 109.50000 418.400000
5295 13028 5297 1 109.50000 418.400000
5296 13028 5297 1 109.50000 418.400000
336 13029 5300 1 109.50000 418.400000
336 13029 5301 1 109.50000 418.400000
336 13029 5302 1 109.50000 418.400000
5300 13029 5301 1 109.50000 418.400000
5300 13029 5302 1 109.50000 418.400000
5301 13029 5302 1 109.50000 418.400000
1174 13030 1666 1 109.50000 418.400000
1174 13030 5303 1 109.50000 418.400000
1174 13030 5304 1 109.50000 418.400000
1666 13030 5303 1 109.50000 418.400000
1666 13030 5304 1 109.50000 418.400000
5303 13030 5304 1 109.50000 418.400000
804 13031 5305 1 109.50000 418.400000
804 13031 5306 1 109.50000 418.400000
804 13031 5307 1 109.50000 418.400000
5305 13031 5306 1 109.50000 418.400000
5305 13031 5307 1 109.50000 418.400000
5306 13031 5307 1 109.50000 418.400000
5308 13032 5309 1 109.50000 418.400000
5308 13032 5310 1 109.50000 418.400000
5308 13032 5311 1 109.50000 418.400000
5309 13032 5310 1 109.50000 418.400000
5309 13032 5311 1 109.50000 418.400000
5310 13032 5311 1 109.50000 418.400000
608 13033 1963 1 109.50000 418.400000
608 13033 4210 1 109.50000 418.400000
608 13033 5312 1 109.50000 418.400000
1963 13033 4210 1 109.50000 418.400000
1963 13033 5312 1 109.50000 418.400000
4210 13033 5312 1 109.50000 418.400000
5313 13034 5314 1 109.50000 418.400000
5313 13034 5315 1 109.50000 418.400000
5313 13034 5316 1 109.50000 418.400000
5314 13034 5315 1 109.50000 418.400000
5314 13034 5316 1 109.50000 418.400000
5315 13034 5316 1 109.50000 418.400000
5317 13035 5318 1 109.50000 418.400000
5317 13035 5319 1 109.50000 418.400000
5317 13035 5320 1 109.50000 418.400000
5318 13035 5319 1 109.50000 418.400000
5318 13035 5320 1 109.50000 418.400000
5319 13035 5320 1 109.50000 418.400000
1196 13036 5321 1 109.50000 418.400000
1196 13036 5322 1 109.50000 418.400000
1196 13036 5323 1 109.50000 418.400000
5321 13036 5322 1 109.50000 418.400000
5321 13036 5323 1 109.50000 418.400000
5322 13036 5323 1 109.50000 418.400000
2764 13037 5326 1 109.50000 418.400000
2764 13037 5327 1 109.50000 418.400000
2764 13037 5328 1 109.50000 418.400000
5326 13037 5327 1 109.50000 418.400000
5326 13037 5328 1 109.50000 418.400000
5327 13037 5328 1 109.50000 418.400000
1792 13038 4654 1 109.50000 418.400000
1792 13038 5158 1 109.50000 418.400000
1792 13038 5329 1 109.50000 418.400000
4654 13038 5158 1 109.50000 418.400000
4654 13038 5329 1 109.50000 418.400000
5158 13038 5329 1 109.50000 418.400000
1317 13039 5330 1 109.50000 418.400000
1317 13039 5331 1 109.50000 418.400000
1317 13039 5332 1 109.50000 418.400000
5330 13039 5331 1 109.50000 418.400000
5330 13039 5332 1 109.50000 418.400000
5331 13039 5332 1 109.50000 418.400000
3331 13040 4327 1 109.50000 418.400000
3331 13040 5333 1 109.50000 418.400000
3331 13040 5334 1 109.50000 418.400000
4327 13040 5333 1 109.50000 418.400000
4327 13040 5334 1 109.50000 418.400000
5333 13040 5334 1 109.50000 418.400000
5336 13041 9892 1 109.50000 418.400000
5336 13041 10576 1 109.50000 418.400000
5336 13041 10681 1 109.50000 418.400000
9892 13041 10576 1 109.50000 418.400000
9892 13041 10681 1 109.50000 418.400000
10576 13041 10681 1 109.50000 418.400000
5308 13042 5339 1 109.50000 418.400000
5308 13042 5340 1 109.50000 418.400000
5308 13042 5341 1 109.50000 418.400000
5339 13042 5340 1 109.50000 418.400000
5339 13042 5341 1 109.50000 418.400000
5340 13042 5341 1 109.50000 418.400000
268 13043 1769 1 109.50000 418.400000
268 13043 5342 1 109.50000 418.400000
268 13043 5343 1 109.50000 418.400000
1769 13043 5342 1 109.50000 418.400000
1769 13043 5343 1 109.50000 418.400000
5342 13043 5343 1 109.50000 418.400000
5019 13044 5344 1 109.50000 418.400000
5019 13044 11260 1 109.50000 418.400000
5019 13044 11305 1 109.50000 418.400000
5344 13044 11260 1 109.50000 418.400000
5344 13044 11305 1 109.50000 418.400000
11260 13044 11305 1 109.50000 418.400000
454 13045 5345 1 109.50000 418.400000
454 13045 5346 1 109.50000 418.400000
454 13045 5347 1 109.50000 418.400000
5345 13045 5346 1 109.50000 418.400000
5345 13045 5347 1 109.50000 418.400000
5346 13045 5347 1 109.50000 418.400000
3794 13046 5348 1 109.50000 418.400000
3794 13046 5349 1 109.50000 418.400000
3794 13046 5350 1 109.50000 418.400000
5348 13046 5349 1 109.50000 418.400000
5348 13046 5350 1 109.50000 418.400000
5349 13046 5350 1 109.50000 418.400000
2025 13047 5351 1 109.50000 418.400000
2025 13047 6810 1 109.50000 418.400000
2025 13047 11214 1 109.50000 418.400000
5351 13047 6810 1 109.50000 418.400000
5351 13047 11214 1 109.50000 418.400000
6810 13047 11214 1 109.50000 418.400000
940 13048 5352 1 109.50000 418.400000
940 13048 11308 1 109.50000 418.400000
940 13048 11394 1 109.50000 418.400000
5352 13048 11308 1 109.50000 418.400000
5352 13048 11394 1 109.50000 418.400000
11308 13048 11394 1 109.50000 418.400000
3034 13049 4956 1 109.50000 418.400000
3034 13049 5353 1 109.50000 418.400000
3034 13049 11430 1 109.50000 418.400000
4956 13049 5353 1 109.50000 418.400000
4956 13049 11430 1 109.50000 418.400000
5353 13049 11430 1 109.50000 418.400000
4901 13050 5155 1 109.50000 418.400000
4901 13050 5354 1 109.50000 418.400000
4901 13050 5355 1 109.50000 418.400000
5155 13050 5354 1 109.50000 418.400000
5155 13050 5355 1 109.50000 418.400000
5354 13050 5355 1 109.50000 418.400000
5357 13051 5358 1 109.50000 418.400000
5357 13051 5359 1 109.50000 418.400000
5357 13051 5360 1 109.50000 418.400000
5358 13051 5359 1 109.50000 418.400000
5358 13051 5360 1 109.50000 418.400000
5359 13051 5360 1 109.50000 418.400000
2087 13052 5361 1 109.50000 418.400000
2087 13052 5362 1 109.50000 418.400000
2087 13052 5363 1 109.50000 418.400000
5361 13052 5362 1 109.50000 418.400000
5361 13052 5363 1 109.50000 418.400000
5362 13052 5363 1 109.50000 418.400000
130 13053 1376 1 109.50000 418.400000
130 13053 5364 1 109.50000 418.400000
130 13053 5365 1 109.50000 418.400000
1376 13053 5364 1 109.50000 418.400000
1376 13053 5365 1 109.50000 418.400000
5364 13053 5365 1 109.50000 418.400000
4024 13054 5366 1 109.50000 418.400000
4024 13054 5367 1 109.50000 418.400000
4024 13054 5368 1 109.50000 418.400000
5366 13054 5367 1 109.50000 418.400000
5366 13054 5368 1 109.50000 418.400000
5367 13054 5368 1 109.50000 418.400000
3416 13055 5369 1 109.50000 418.400000
3416 13055 5370 1 109.50000 418.400000
3416 13055 5371 1 109.50000 418.400000
5369 13055 5370 1 109.50000 418.400000
5369 13055 5371 1 109.50000 418.400000
5370 13055 5371 1 109.50000 418.400000
1613 13056 2514 1 109.50000 418.400000
1613 13056 3459 1 109.50000 418.400000
1613 13056 5372 1 109.50000 418.400000
2514 13056 3459 1 109.50000 418.400000
2514 13056 5372 1 109.50000 418.400000
3459 13056 5372 1 109.50000 418.400000
5377 13057 5378 1 109.50000 418.400000
5377 13057 5419 1 109.50000 418.400000
5377 13057 7144 1 109.50000 418.400000
5378 13057 5419 1 109.50000 418.400000
5378 13057 7144 1 109.50000 418.400000
5419 13057 7144 1 109.50000 418.400000
2851 13058 4924 1 109.50000 418.400000
2851 13058 5379 1 109.50000 418.400000
2851 13058 5380 1 109.50000 418.400000
4924 13058 5379 1 109.50000 418.400000
4924 13058 5380 1 109.50000 418.400000
5379 13058 5380 1 109.50000 418.400000
858 13059 871 1 109.50000 418.400000
858 13059 966 1 109.50000 418.400000
858 13059 5381 1 109.50000 418.400000
871 13059 966 1 109.50000 418.400000
871 13059 5381 1 109.50000 418.400000
966 13059 5381 1 109.50000 418.400000
1147 13060 5382 1 109.50000 418.400000
1147 13060 5383 1 109.50000 418.400000
1147 13060 5384 1 109.50000 418.400000
5382 13060 5383 1 109.50000 418.400000
5382 13060 5384 1 109.50000 418.400000
5383 13060 5384 1 109.50000 418.400000
5181 13061 5385 1 109.50000 418.400000
5181 13061 5386 1 109.50000 418.400000
5181 13061 5387 1 109.50000 418.400000
5385 13061 5386 1 109.50000 418.400000
5385 13061 5387 1 109.50000 418.400000
5386 13061 5387 1 109.50000 418.400000
3806 13062 5388 1 109.50000 418.400000
3806 13062 5389 1 109.50000 418.400000
3806 13062 5390 1 109.50000 418.400000
5388 13062 5389 1 109.50000 418.400000
5388 13062 5390 1 109.50000 418.400000
5389 13062 5390 1 109.50000 418.400000
3301 13063 5391 1 109.50000 418.400000
3301 13063 5392 1 109.50000 418.400000
3301 13063 11302 1 109.50000 418.400000
5391 13063 5392 1 109.50000 418.400000
5391 13063 11302 1 109.50000 418.400000
5392 13063 11302 1 109.50000 418.400000
5393 13064 5394 1 109.50000 418.400000
5393 13064 11284 1 109.50000 418.400000
5393 13064 11383 1 109.50000 418.400000
5394 13064 11284 1 109.50000 418.400000
5394 13064 11383 1 109.50000 418.400000
11284 13064 11383 1 109.50000 418.400000
5395 13065 5396 1 109.50000 418.400000
5395 13065 5397 1 109.50000 418.400000
5395 13065 5398 1 109.50000 418.400000
5396 13065 5397 1 109.50000 418.400000
5396 13065 5398 1 109.50000 418.400000
5397 13065 5398 1 109.50000 418.400000
5399 13066 5400 1 109.50000 418.400000
5399 13066 5401 1 109.50000 418.400000
5399 13066 5402 1 109.50000 418.400000
5400 13066 5401 1 109.50000 418.400000
5400 13066 5402 1 109.50000 418.400000
5401 13066 5402 1 109.50000 418.400000
5276 13067 5403 1 109.50000 418.400000
5276 13067 5404 1 109.50000 418.400000
5276 13067 5405 1 109.50000 418.400000
5403 13067 5404 1 109.50000 418.400000
5403 13067 5405 1 109.50000 418.400000
5404 13067 5405 1 109.50000 418.400000
4678 13068 5406 1 109.50000 418.400000
4678 13068 5407 1 109.50000 418.400000
4678 13068 5408 1 109.50000 418.400000
5406 13068 5407 1 109.50000 418.400000
5406 13068 5408 1 109.50000 418.400000
5407 13068 5408 1 109.50000 418.400000
315 13069 1617 1 109.50000 418.400000
315 13069 5409 1 109.50000 418.400000
315 13069 5410 1 109.50000 418.400000
1617 13069 5409 1 109.50000 418.400000
1617 13069 5410 1 109.50000 418.400000
5409 13069 5410 1 109.50000 418.400000
2695 13070 5124 1 109.50000 418.400000
2695 13070 5411 1 109.50000 418.400000
2695 13070 5412 1 109.50000 418.400000
5124 13070 5411 1 109.50000 418.400000
5124 13070 5412 1 109.50000 418.400000
5411 13070 5412 1 109.50000 418.400000
2234 13071 5413 1 109.50000 418.400000
2234 13071 5414 1 109.50000 418.400000
2234 13071 11400 1 109.50000 418.400000
5413 13071 5414 1 109.50000 418.400000
5413 13071 11400 1 109.50000 418.400000
5414 13071 11400 1 109.50000 418.400000
5415 13072 5416 1 109.50000 418.400000
5415 13072 10084 1 109.50000 418.400000
5415 13072 11283 1 109.50000 418.400000
5416 13072 10084 1 109.50000 418.400000
5416 13072 11283 1 109.50000 418.400000
10084 13072 11283 1 109.50000 418.400000
5370 13073 5417 1 109.50000 418.400000
5370 13073 5418 1 109.50000 418.400000
5370 13073 5419 1 109.50000 418.400000
5417 13073 5418 1 109.50000 418.400000
5417 13073 5419 1 109.50000 418.400000
5418 13073 5419 1 109.50000 418.400000
5420 13074 5421 1 109.50000 418.400000
5420 13074 5422 1 109.50000 418.400000
5420 13074 5423 1 109.50000 418.400000
5421 13074 5422 1 109.50000 418.400000
5421 13074 5423 1 109.50000 418.400000
5422 13074 5423 1 109.50000 418.400000
2388 13075 5424 1 109.50000 418.400000
2388 13075 5425 1 109.50000 418.400000
2388 13075 5426 1 109.50000 418.400000
5424 13075 5425 1 109.50000 418.400000
5424 13075 5426 1 109.50000 418.400000
5425 13075 5426 1 109.50000 418.400000
5429 13076 5430 1 109.50000 418.400000
5429 13076 7418 1 109.50000 418.400000
5429 13076 9923 1 109.50000 418.400000
5430 13076 7418 1 109.50000 418.400000
5430 13076 9923 1 109.50000 418.400000
7418 13076 9923 1 109.50000 418.400000
3245 13077 5431 1 109.50000 418.400000
3245 13077 5432 1 109.50000 418.400000
3245 13077 5433 1 109.50000 418.400000
5431 13077 5432 1 109.50000 418.400000
5431 13077 5433 1 109.50000 418.400000
5432 13077 5433 1 109.50000 418.400000
3037 13078 5434 1 109.50000 418.400000
3037 13078 5435 1 109.50000 418.400000
3037 13078 5436 1 109.50000 418.400000
5434 13078 5435 1 109.50000 418.400000
5434 13078 5436 1 109.50000 418.400000
5435 13078 5436 1 109.50000 418.400000
5437 13079 5438 1 109.50000 418.400000
5437 13079 5439 1 109.50000 418.400000
5437 13079 9159 1 109.50000 418.400000
5438 13079 5439 1 109.50000 418.400000
5438 13079 9159 1 109.50000 418.400000
5439 13079 9159 1 109.50000 418.400000
1129 13080 5441 1 109.50000 418.400000
1129 13080 5442 1 109.50000 418.400000
1129 13080 5443 1 109.50000 418.400000
5441 13080 5442 1 109.50000 418.400000
5441 13080 5443 1 109.50000 418.400000
5442 13080 5443 1 109.50000 418.400000
348 13081 5444 1 109.50000 418.400000
348 13081 11159 1 109.50000 418.400000
348 13081 11385 1 109.50000 418.400000
5444 13081 11159 1 109.50000 418.400000
5444 13081 11385 1 109.50000 418.400000
11159 13081 11385 1 109.50000 418.400000
2527 13082 5446 1 109.50000 418.400000
2527 13082 5447 1 109.50000 418.400000
2527 13082 8593 1 109.50000 418.400000
5446 13082 5447 1 109.50000 418.400000
5446 13082 8593 1 109.50000 418.400000
5447 13082 8593 1 109.50000 418.400000
5318 13083 5448 1 109.50000 418.400000
5318 13083 5449 1 109.50000 418.400000
5318 13083 9465 1 109.50000 418.400000
5448 13083 5449 1 109.50000 418.400000
5448 13083 9465 1 109.50000 418.400000
5449 13083 9465 1 109.50000 418.400000
1720 13084 1721 1 109.50000 418.400000
1720 13084 1722 1 109.50000 418.400000
1720 13084 5450 1 109.50000 418.400000
1721 13084 1722 1 109.50000 418.400000
1721 13084 5450 1 109.50000 418.400000
1722 13084 5450 1 109.50000 418.400000
484 13085 5453 1 109.50000 418.400000
484 13085 5454 1 109.50000 418.400000
484 13085 5455 1 109.50000 418.400000
5453 13085 5454 1 109.50000 418.400000
5453 13085 5455 1 109.50000 418.400000
5454 13085 5455 1 109.50000 418.400000
5456 13086 5457 1 109.50000 418.400000
5456 13086 5458 1 109.50000 418.400000
5456 13086 5459 1 109.50000 418.400000
5457 13086 5458 1 109.50000 418.400000
5457 13086 5459 1 109.50000 418.400000
5458 13086 5459 1 109.50000 418.400000
5460 13087 5461 1 109.50000 418.400000
5460 13087 5462 1 109.50000 418.400000
5460 13087 5463 1 109.50000 418.400000
5461 13087 5462 1 109.50000 418.400000
5461 13087 5463 1 109.50000 418.400000
5462 13087 5463 1 109.50000 418.400000
246 13088 682 1 109.50000 418.400000
246 13088 3393 1 109.50000 418.400000
246 13088 3439 1 109.50000 418.400000
682 13088 3393 1 109.50000 418.400000
682 13088 3439 1 109.50000 418.400000
3393 13088 3439 1 109.50000 418.400000
4891 13089 5404 1 109.50000 418.400000
4891 13089 5465 1 109.50000 418.400000
4891 13089 5466 1 109.50000 418.400000
5404 13089 5465 1 109.50000 418.400000
5404 13089 5466 1 109.50000 418.400000
5465 13089 5466 1 109.50000 418.400000
5467 13090 5468 1 109.50000 418.400000
5467 13090 5469 1 109.50000 418.400000
5467 13090 11538 1 109.50000 418.400000
5468 13090 5469 1 109.50000 418.400000
5468 13090 11538 1 109.50000 418.400000
5469 13090 11538 1 109.50000 418.400000
2670 13091 4756 1 109.50000 418.400000
2670 13091 5470 1 109.50000 418.400000
2670 13091 5471 1 109.50000 418.400000
4756 13091 5470 1 109.50000 418.400000
4756 13091 5471 1 109.50000 418.400000
5470 13091 5471 1 109.50000 418.400000
4589 13092 5472 1 109.50000 418.400000
4589 13092 5473 1 109.50000 418.400000
4589 13092 11195 1 109.50000 418.400000
5472 13092 5473 1 109.50000 418.400000
5472 13092 11195 1 109.50000 418.400000
5473 13092 11195 1 109.50000 418.400000
542 13093 2211 1 109.50000 418.400000
542 13093 5474 1 109.50000 418.400000
542 13093 5475 1 109.50000 418.400000
2211 13093 5474 1 109.50000 418.400000
2211 13093 5475 1 109.50000 418.400000
5474 13093 5475 1 109.50000 418.400000
902 13094 903 1 109.50000 418.400000
902 13094 904 1 109.50000 418.400000
902 13094 905 1 109.50000 418.400000
903 13094 904 1 109.50000 418.400000
903 13094 905 1 109.50000 418.400000
904 13094 905 1 109.50000 418.400000
2356 13095 3115 1 109.50000 418.400000
2356 13095 5477 1 109.50000 418.400000
2356 13095 5478 1 109.50000 418.400000
3115 13095 5477 1 109.50000 418.400000
3115 13095 5478 1 109.50000 418.400000
5477 13095 5478 1 109.50000 418.400000
5479 13096 5480 1 109.50000 418.400000
5479 13096 5481 1 109.50000 418.400000
5479 13096 5482 1 109.50000 418.400000
5480 13096 5481 1 109.50000 418.400000
5480 13096 5482 1 109.50000 418.400000
5481 13096 5482 1 109.50000 418.400000
3743 13097 5483 1 109.50000 418.400000
3743 13097 5484 1 109.50000 418.400000
3743 13097 5485 1 109.50000 418.400000
5483 13097 5484 1 109.50000 418.400000
5483 13097 5485 1 109.50000 418.400000
5484 13097 5485 1 109.50000 418.400000
4085 13098 5486 1 109.50000 418.400000
4085 13098 5487 1 109.50000 418.400000
4085 13098 11202 1 109.50000 418.400000
5486 13098 5487 1 109.50000 418.400000
5486 13098 11202 1 109.50000 418.400000
5487 13098 11202 1 109.50000 418.400000
1791 13099 5488 1 109.50000 418.400000
1791 13099 5489 1 109.50000 418.400000
1791 13099 5490 1 109.50000 418.400000
5488 13099 5489 1 109.50000 418.400000
5488 13099 5490 1 109.50000 418.400000
5489 13099 5490 1 109.50000 418.400000
1779 13100 5491 1 109.50000 418.400000
1779 13100 5492 1 109.50000 418.400000
1779 13100 5493 1 109.50000 418.400000
5491 13100 5492 1 109.50000 418.400000
5491 13100 5493 1 109.50000 418.400000
5492 13100 5493 1 109.50000 418.400000
2236 13101 2625 1 109.50000 418.400000
2236 13101 5494 1 109.50000 418.400000
2236 13101 5495 1 109.50000 418.400000
2625 13101 5494 1 109.50000 418.400000
2625 13101 5495 1 109.50000 418.400000
5494 13101 5495 1 109.50000 418.400000
4459 13102 4750 1 109.50000 418.400000
4459 13102 5499 1 109.50000 418.400000
4459 13102 5500 1 109.50000 418.400000
4750 13102 5499 1 109.50000 418.400000
4750 13102 5500 1 109.50000 418.400000
5499 13102 5500 1 109.50000 418.400000
3448 13103 5504 1 109.50000 418.400000
3448 13103 5505 1 109.50000 418.400000
3448 13103 5506 1 109.50000 418.400000
5504 13103 5505 1 109.50000 418.400000
5504 13103 5506 1 109.50000 418.400000
5505 13103 5506 1 109.50000 418.400000
5357 13104 5507 1 109.50000 418.400000
5357 13104 5508 1 109.50000 418.400000
5357 13104 5509 1 109.50000 418.400000
5507 13104 5508 1 109.50000 418.400000
5507 13104 5509 1 109.50000 418.400000
5508 13104 5509 1 109.50000 418.400000
3575 13105 3876 1 109.50000 418.400000
3575 13105 5510 1 109.50000 418.400000
3575 13105 5511 1 109.50000 418.400000
3876 13105 5510 1 109.50000 418.400000
3876 13105 5511 1 109.50000 418.400000
5510 13105 5511 1 109.50000 418.400000
5512 13106 5513 1 109.50000 418.400000
5512 13106 5514 1 109.50000 418.400000
5512 13106 5515 1 109.50000 418.400000
5513 13106 5514 1 109.50000 418.400000
5513 13106 5515 1 109.50000 418.400000
5514 13106 5515 1 109.50000 418.400000
1387 13107 3539 1 109.50000 418.400000
1387 13107 5516 1 109.50000 418.400000
1387 13107 11230 1 109.50000 418.400000
3539 13107 5516 1 109.50000 418.400000
3539 13107 11230 1 109.50000 418.400000
5516 13107 11230 1 109.50000 418.400000
1677 13108 5517 1 109.50000 418.400000
1677 13108 5518 1 109.50000 418.400000
1677 13108 5519 1 109.50000 418.400000
5517 13108 5518 1 109.50000 418.400000
5517 13108 5519 1 109.50000 418.400000
5518 13108 5519 1 109.50000 418.400000
5156 13109 5520 1 109.50000 418.400000
5156 13109 5521 1 109.50000 418.400000
5156 13109 5522 1 109.50000 418.400000
5520 13109 5521 1 109.50000 418.400000
5520 13109 5522 1 109.50000 418.400000
5521 13109 5522 1 109.50000 418.400000
546 13110 3176 1 109.50000 418.400000
546 13110 5523 1 109.50000 418.400000
546 13110 5524 1 109.50000 418.400000
3176 13110 5523 1 109.50000 418.400000
3176 13110 5524 1 109.50000 418.400000
5523 13110 5524 1 109.50000 418.400000
1062 13111 1503 1 109.50000 418.400000
1062 13111 5439 1 109.50000 418.400000
1062 13111 5525 1 109.50000 418.400000
1503 13111 5439 1 109.50000 418.400000
1503 13111 5525 1 109.50000 418.400000
5439 13111 5525 1 109.50000 418.400000
5172 13112 5526 1 109.50000 418.400000
5172 13112 5527 1 109.50000 418.400000
5172 13112 11415 1 109.50000 418.400000
5526 13112 5527 1 109.50000 418.400000
5526 13112 11415 1 109.50000 418.400000
5527 13112 11415 1 109.50000 418.400000
5528 13113 5529 1 109.50000 418.400000
5528 13113 5530 1 109.50000 418.400000
5528 13113 5531 1 109.50000 418.400000
5529 13113 5530 1 109.50000 418.400000
5529 13113 5531 1 109.50000 418.400000
5530 13113 5531 1 109.50000 418.400000
4774 13114 5532 1 109.50000 418.400000
4774 13114 5533 1 109.50000 418.400000
4774 13114 5534 1 109.50000 418.400000
5532 13114 5533 1 109.50000 418.400000
5532 13114 5534 1 109.50000 418.400000
5533 13114 5534 1 109.50000 418.400000
2244 13115 2872 1 109.50000 418.400000
2244 13115 5535 1 109.50000 418.400000
2244 13115 5536 1 109.50000 418.400000
2872 13115 5535 1 109.50000 418.400000
2872 13115 5536 1 109.50000 418.400000
5535 13115 5536 1 109.50000 418.400000
2081 13116 5537 1 109.50000 418.400000
2081 13116 5538 1 109.50000 418.400000
2081 13116 5539 1 109.50000 418.400000
5537 13116 5538 1 109.50000 418.400000
5537 13116 5539 1 109.50000 418.400000
5538 13116 5539 1 109.50000 418.400000
5540 13117 5541 1 109.50000 418.400000
5540 13117 11264 1 109.50000 418.400000
5540 13117 11382 1 109.50000 418.400000
5541 13117 11264 1 109.50000 418.400000
5541 13117 11382 1 109.50000 418.400000
11264 13117 11382 1 109.50000 418.400000
1863 13118 2232 1 109.50000 418.400000
1863 13118 5542 1 109.50000 418.400000
1863 13118 5543 1 109.50000 418.400000
2232 13118 5542 1 109.50000 418.400000
2232 13118 5543 1 109.50000 418.400000
5542 13118 5543 1 109.50000 418.400000
5544 13119 5546 1 109.50000 418.400000
5544 13119 5547 1 109.50000 418.400000
5544 13119 7953 1 109.50000 418.400000
5546 13119 5547 1 109.50000 418.400000
5546 13119 7953 1 109.50000 418.400000
5547 13119 7953 1 109.50000 418.400000
3291 13120 3293 1 109.50000 418.400000
3291 13120 5548 1 109.50000 418.400000
3291 13120 5549 1 109.50000 418.400000
3293 13120 5548 1 109.50000 418.400000
3293 13120 5549 1 109.50000 418.400000
5548 13120 5549 1 109.50000 418.400000
742 13121 5551 1 109.50000 418.400000
742 13121 5552 1 109.50000 418.400000
742 13121 11419 1 109.50000 418.400000
5551 13121 5552 1 109.50000 418.400000
5551 13121 11419 1 109.50000 418.400000
5552 13121 11419 1 109.50000 418.400000
5553 13122 5554 1 109.50000 418.400000
5553 13122 5555 1 109.50000 418.400000
5553 13122 5556 1 109.50000 418.400000
5554 13122 5555 1 109.50000 418.400000
5554 13122 5556 1 109.50000 418.400000
5555 13122 5556 1 109.50000 418.400000
1251 13123 5557 1 109.50000 418.400000
1251 13123 5558 1 109.50000 418.400000
1251 13123 5559 1 109.50000 418.400000
5557 13123 5558 1 109.50000 418.400000
5557 13123 5559 1 109.50000 418.400000
5558 13123 5559 1 109.50000 418.400000
2475 13124 3749 1 109.50000 418.400000
2475 13124 5560 1 109.50000 418.400000
2475 13124 5561 1 109.50000 418.400000
3749 13124 5560 1 109.50000 418.400000
3749 13124 5561 1 109.50000 418.400000
5560 13124 5561 1 109.50000 418.400000
2257 13125 5562 1 109.50000 418.400000
2257 13125 5563 1 109.50000 418.400000
2257 13125 5564 1 109.50000 418.400000
5562 13125 5563 1 109.50000 418.400000
5562 13125 5564 1 109.50000 418.400000
5563 13125 5564 1 109.50000 418.400000
1329 13126 1330 1 109.50000 418.400000
1329 13126 2716 1 109.50000 418.400000
1329 13126 11279 1 109.50000 418.400000
1330 13126 2716 1 109.50000 418.400000
1330 13126 11279 1 109.50000 418.400000
2716 13126 11279 1 109.50000 418.400000
3056 13127 5565 1 109.50000 418.400000
3056 13127 5566 1 109.50000 418.400000
3056 13127 5567 1 109.50000 418.400000
5565 13127 5566 1 109.50000 418.400000
5565 13127 5567 1 109.50000 418.400000
5566 13127 5567 1 109.50000 418.400000
1427 13128 5568 1 109.50000 418.400000
1427 13128 5569 1 109.50000 418.400000
1427 13128 5570 1 109.50000 418.400000
5568 13128 5569 1 109.50000 418.400000
5568 13128 5570 1 109.50000 418.400000
5569 13128 5570 1 109.50000 418.400000
2577 13129 3565 1 109.50000 418.400000
2577 13129 3648 1 109.50000 418.400000
2577 13129 5571 1 109.50000 418.400000
3565 13129 3648 1 109.50000 418.400000
3565 13129 5571 1 109.50000 418.400000
3648 13129 5571 1 109.50000 418.400000
3847 13130 5572 1 109.50000 418.400000
3847 13130 5573 1 109.50000 418.400000
3847 13130 11232 1 109.50000 418.400000
5572 13130 5573 1 109.50000 418.400000
5572 13130 11232 1 109.50000 418.400000
5573 13130 11232 1 109.50000 418.400000
1611 13131 5574 1 109.50000 418.400000
1611 13131 5575 1 109.50000 418.400000
1611 13131 5576 1 109.50000 418.400000
5574 13131 5575 1 109.50000 418.400000
5574 13131 5576 1 109.50000 418.400000
5575 13131 5576 1 109.50000 418.400000
5506 13132 5579 1 109.50000 418.400000
5506 13132 5581 1 109.50000 418.400000
5506 13132 11532 1 109.50000 418.400000
5579 13132 5581 1 109.50000 418.400000
5579 13132 11532 1 109.50000 418.400000
5581 13132 11532 1 109.50000 418.400000
4927 13133 5582 1 109.50000 418.400000
4927 13133 5583 1 109.50000 418.400000
4927 13133 5584 1 109.50000 418.400000
5582 13133 5583 1 109.50000 418.400000
5582 13133 5584 1 109.50000 418.400000
5583 13133 5584 1 109.50000 418.400000
3186 13134 4354 1 109.50000 418.400000
3186 13134 5585 1 109.50000 418.400000
3186 13134 5586 1 109.50000 418.400000
4354 13134 5585 1 109.50000 418.400000
4354 13134 5586 1 109.50000 418.400000
5585 13134 5586 1 109.50000 418.400000
5587 13135 5588 1 109.50000 418.400000
5587 13135 5589 1 109.50000 418.400000
5587 13135 5590 1 109.50000 418.400000
5588 13135 5589 1 109.50000 418.400000
5588 13135 5590 1 109.50000 418.400000
5589 13135 5590 1 109.50000 418.400000
4079 13136 5591 1 109.50000 418.400000
4079 13136 5592 1 109.50000 418.400000
4079 13136 5593 1 109.50000 418.400000
5591 13136 5592 1 109.50000 418.400000
5591 13136 5593 1 109.50000 418.400000
5592 13136 5593 1 109.50000 418.400000
5594 13137 5595 1 109.50000 418.400000
5594 13137 5596 1 109.50000 418.400000
5594 13137 5597 1 109.50000 418.400000
5595 13137 5596 1 109.50000 418.400000
5595 13137 5597 1 109.50000 418.400000
5596 13137 5597 1 109.50000 418.400000
1426 13138 5598 1 109.50000 418.400000
1426 13138 5599 1 109.50000 418.400000
1426 13138 5820 1 109.50000 418.400000
5598 13138 5599 1 109.50000 418.400000
5598 13138 5820 1 109.50000 418.400000
5599 13138 5820 1 109.50000 418.400000
2277 13139 5600 1 109.50000 418.400000
2277 13139 5601 1 109.50000 418.400000
2277 13139 7655 1 109.50000 418.400000
5600 13139 5601 1 109.50000 418.400000
5600 13139 7655 1 109.50000 418.400000
5601 13139 7655 1 109.50000 418.400000
248 13140 5602 1 109.50000 418.400000
248 13140 5603 1 109.50000 418.400000
248 13140 5604 1 109.50000 418.400000
5602 13140 5603 1 109.50000 418.400000
5602 13140 5604 1 109.50000 418.400000
5603 13140 5604 1 109.50000 418.400000
5605 13141 5606 1 109.50000 418.400000
5605 13141 5607 1 109.50000 418.400000
5605 13141 5608 1 109.50000 418.400000
5606 13141 5607 1 109.50000 418.400000
5606 13141 5608 1 109.50000 418.400000
5607 13141 5608 1 109.50000 418.400000
1514 13142 5609 1 109.50000 418.400000
1514 13142 5610 1 109.50000 418.400000
1514 13142 5611 1 109.50000 418.400000
5609 13142 5610 1 109.50000 418.400000
5609 13142 5611 1 109.50000 418.400000
5610 13142 5611 1 109.50000 418.400000
5063 13143 5612 1 109.50000 418.400000
5063 13143 5613 1 109.50000 418.400000
5063 13143 5614 1 109.50000 418.400000
5612 13143 5613 1 109.50000 418.400000
5612 13143 5614 1 109.50000 418.400000
5613 13143 5614 1 109.50000 418.400000
5570 13144 5615 1 109.50000 418.400000
5570 13144 5616 1 109.50000 418.400000
5570 13144 5617 1 109.50000 418.400000
5615 13144 5616 1 109.50000 418.400000
5615 13144 5617 1 109.50000 418.400000
5616 13144 5617 1 109.50000 418.400000
5618 13145 5619 1 109.50000 418.400000
5618 13145 5620 1 109.50000 418.400000
5618 13145 5621 1 109.50000 418.400000
5619 13145 5620 1 109.50000 418.400000
5619 13145 5621 1 109.50000 418.400000
5620 13145 5621 1 109.50000 418.400000
5622 13146 5623 1 109.50000 418.400000
5622 13146 5624 1 109.50000 418.400000
5622 13146 5625 1 109.50000 418.400000
5623 13146 5624 1 109.50000 418.400000
5623 13146 5625 1 109.50000 418.400000
5624 13146 5625 1 109.50000 418.400000
759 13147 3440 1 109.50000 418.400000
759 13147 3917 1 109.50000 418.400000
759 13147 5626 1 109.50000 418.400000
3440 13147 3917 1 109.50000 418.400000
3440 13147 5626 1 109.50000 418.400000
3917 13147 5626 1 109.50000 418.400000
1793 13148 3733 1 109.50000 418.400000
1793 13148 5627 1 109.50000 418.400000
1793 13148 5628 1 109.50000 418.400000
3733 13148 5627 1 109.50000 418.400000
3733 13148 5628 1 109.50000 418.400000
5627 13148 5628 1 109.50000 418.400000
1448 13149 4596 1 109.50000 418.400000
1448 13149 5629 1 109.50000 418.400000
1448 13149 8855 1 109.50000 418.400000
4596 13149 5629 1 109.50000 418.400000
4596 13149 8855 1 109.50000 418.400000
5629 13149 8855 1 109.50000 418.400000
4184 13150 5630 1 109.50000 418.400000
4184 13150 7614 1 109.50000 418.400000
4184 13150 11431 1 109.50000 418.400000
5630 13150 7614 1 109.50000 418.400000
5630 13150 11431 1 109.50000 418.400000
7614 13150 11431 1 109.50000 418.400000
5631 13151 5633 1 109.50000 418.400000
5631 13151 5634 1 109.50000 418.400000
5631 13151 7674 1 109.50000 418.400000
5633 13151 5634 1 109.50000 418.400000
5633 13151 7674 1 109.50000 418.400000
5634 13151 7674 1 109.50000 418.400000
5635 13152 5636 1 109.50000 418.400000
5635 13152 5637 1 109.50000 418.400000
5635 13152 5638 1 109.50000 418.400000
5636 13152 5637 1 109.50000 418.400000
5636 13152 5638 1 109.50000 418.400000
5637 13152 5638 1 109.50000 418.400000
4764 13153 5639 1 109.50000 418.400000
4764 13153 5640 1 109.50000 418.400000
4764 13153 5641 1 109.50000 418.400000
5639 13153 5640 1 109.50000 418.400000
5639 13153 5641 1 109.50000 418.400000
5640 13153 5641 1 109.50000 418.400000
5642 13154 5643 1 109.50000 418.400000
5642 13154 5644 1 109.50000 418.400000
5642 13154 5645 1 109.50000 418.400000
5643 13154 5644 1 109.50000 418.400000
5643 13154 5645 1 109.50000 418.400000
5644 13154 5645 1 109.50000 418.400000
2210 13155 5646 1 109.50000 418.400000
2210 13155 5647 1 109.50000 418.400000
2210 13155 5648 1 109.50000 418.400000
5646 13155 5647 1 109.50000 418.400000
5646 13155 5648 1 109.50000 418.400000
5647 13155 5648 1 109.50000 418.400000
5649 13156 5650 1 109.50000 418.400000
5649 13156 5651 1 109.50000 418.400000
5649 13156 5652 1 109.50000 418.400000
5650 13156 5651 1 109.50000 418.400000
5650 13156 5652 1 109.50000 418.400000
5651 13156 5652 1 109.50000 418.400000
1837 13157 3842 1 109.50000 418.400000
1837 13157 5654 1 109.50000 418.400000
1837 13157 5655 1 109.50000 418.400000
3842 13157 5654 1 109.50000 418.400000
3842 13157 5655 1 109.50000 418.400000
5654 13157 5655 1 109.50000 418.400000
5656 13158 5657 1 109.50000 418.400000
5656 13158 5658 1 109.50000 418.400000
5656 13158 5659 1 109.50000 418.400000
5657 13158 5658 1 109.50000 418.400000
5657 13158 5659 1 109.50000 418.400000
5658 13158 5659 1 109.50000 418.400000
4787 13159 5661 1 109.50000 418.400000
4787 13159 5662 1 109.50000 418.400000
4787 13159 5663 1 109.50000 418.400000
5661 13159 5662 1 109.50000 418.400000
5661 13159 5663 1 109.50000 418.400000
5662 13159 5663 1 109.50000 418.400000
1816 13160 5664 1 109.50000 418.400000
1816 13160 5665 1 109.50000 418.400000
1816 13160 5666 1 109.50000 418.400000
5664 13160 5665 1 109.50000 418.400000
5664 13160 5666 1 109.50000 418.400000
5665 13160 5666 1 109.50000 418.400000
3091 13161 5667 1 109.50000 418.400000
3091 13161 5668 1 109.50000 418.400000
3091 13161 5669 1 109.50000 418.400000
5667 13161 5668 1 109.50000 418.400000
5667 13161 5669 1 109.50000 418.400000
5668 13161 5669 1 109.50000 418.400000
5670 13162 5671 1 109.50000 418.400000
5670 13162 5672 1 109.50000 418.400000
5670 13162 5673 1 109.50000 418.400000
5671 13162 5672 1 109.50000 418.400000
5671 13162 5673 1 109.50000 418.400000
5672 13162 5673 1 109.50000 418.400000
5674 13163 5675 1 109.50000 418.400000
5674 13163 5676 1 109.50000 418.400000
5674 13163 5677 1 109.50000 418.400000
5675 13163 5676 1 109.50000 418.400000
5675 13163 5677 1 109.50000 418.400000
5676 13163 5677 1 109.50000 418.400000
3103 13164 5678 1 109.50000 418.400000
3103 13164 5679 1 109.50000 418.400000
3103 13164 5680 1 109.50000 418.400000
5678 13164 5679 1 109.50000 418.400000
5678 13164 5680 1 109.50000 418.400000
5679 13164 5680 1 109.50000 418.400000
2882 13165 3828 1 109.50000 418.400000
2882 13165 5681 1 109.50000 418.400000
2882 13165 5682 1 109.50000 418.400000
3828 13165 5681 1 109.50000 418.400000
3828 13165 5682 1 109.50000 418.400000
5681 13165 5682 1 109.50000 418.400000
483 13166 5683 1 109.50000 418.400000
483 13166 5684 1 109.50000 418.400000
483 13166 5685 1 109.50000 418.400000
5683 13166 5684 1 109.50000 418.400000
5683 13166 5685 1 109.50000 418.400000
5684 13166 5685 1 109.50000 418.400000
1903 13167 5686 1 109.50000 418.400000
1903 13167 5687 1 109.50000 418.400000
1903 13167 5688 1 109.50000 418.400000
5686 13167 5687 1 109.50000 418.400000
5686 13167 5688 1 109.50000 418.400000
5687 13167 5688 1 109.50000 418.400000
5205 13168 5521 1 109.50000 418.400000
5205 13168 5689 1 109.50000 418.400000
5205 13168 5690 1 109.50000 418.400000
5521 13168 5689 1 109.50000 418.400000
5521 13168 5690 1 109.50000 418.400000
5689 13168 5690 1 109.50000 418.400000
5396 13169 5691 1 109.50000 418.400000
5396 13169 5692 1 109.50000 418.400000
5396 13169 5693 1 109.50000 418.400000
5691 13169 5692 1 109.50000 418.400000
5691 13169 5693 1 109.50000 418.400000
5692 13169 5693 1 109.50000 418.400000
1928 13170 1931 1 109.50000 418.400000
1928 13170 2350 1 109.50000 418.400000
1928 13170 2352 1 109.50000 418.400000
1931 13170 2350 1 109.50000 418.400000
1931 13170 2352 1 109.50000 418.400000
2350 13170 2352 1 109.50000 418.400000
5696 13171 5697 1 109.50000 418.400000
5696 13171 5698 1 109.50000 418.400000
5696 13171 5699 1 109.50000 418.400000
5697 13171 5698 1 109.50000 418.400000
5697 13171 5699 1 109.50000 418.400000
5698 13171 5699 1 109.50000 418.400000
5317 13172 5700 1 109.50000 418.400000
5317 13172 5701 1 109.50000 418.400000
5317 13172 5702 1 109.50000 418.400000
5700 13172 5701 1 109.50000 418.400000
5700 13172 5702 1 109.50000 418.400000
5701 13172 5702 1 109.50000 418.400000
5214 13173 5703 1 109.50000 418.400000
5214 13173 5704 1 109.50000 418.400000
5214 13173 5705 1 109.50000 418.400000
5703 13173 5704 1 109.50000 418.400000
5703 13173 5705 1 109.50000 418.400000
5704 13173 5705 1 109.50000 418.400000
701 13174 5707 1 109.50000 418.400000
701 13174 5708 1 109.50000 418.400000
701 13174 5844 1 109.50000 418.400000
5707 13174 5708 1 109.50000 418.400000
5707 13174 5844 1 109.50000 418.400000
5708 13174 5844 1 109.50000 418.400000
3253 13175 4928 1 109.50000 418.400000
3253 13175 5709 1 109.50000 418.400000
3253 13175 5710 1 109.50000 418.400000
4928 13175 5709 1 109.50000 418.400000
4928 13175 5710 1 109.50000 418.400000
5709 13175 5710 1 109.50000 418.400000
1399 13176 1539 1 109.50000 418.400000
1399 13176 5711 1 109.50000 418.400000
1399 13176 5712 1 109.50000 418.400000
1539 13176 5711 1 109.50000 418.400000
1539 13176 5712 1 109.50000 418.400000
5711 13176 5712 1 109.50000 418.400000
1703 13177 5713 1 109.50000 418.400000
1703 13177 5714 1 109.50000 418.400000
1703 13177 11416 1 109.50000 418.400000
5713 13177 5714 1 109.50000 418.400000
5713 13177 11416 1 109.50000 418.400000
5714 13177 11416 1 109.50000 418.400000
5715 13178 5716 1 109.50000 418.400000
5715 13178 5717 1 109.50000 418.400000
5715 13178 11535 1 109.50000 418.400000
5716 13178 5717 1 109.50000 418.400000
5716 13178 11535 1 109.50000 418.400000
5717 13178 11535 1 109.50000 418.400000
5718 13179 5719 1 109.50000 418.400000
5718 13179 5720 1 109.50000 418.400000
5718 13179 5721 1 109.50000 418.400000
5719 13179 5720 1 109.50000 418.400000
5719 13179 5721 1 109.50000 418.400000
5720 13179 5721 1 109.50000 418.400000
2011 13180 5722 1 109.50000 418.400000
2011 13180 5723 1 109.50000 418.400000
2011 13180 5724 1 109.50000 418.400000
5722 13180 5723 1 109.50000 418.400000
5722 13180 5724 1 109.50000 418.400000
5723 13180 5724 1 109.50000 418.400000
3045 13181 5728 1 109.50000 418.400000
3045 13181 5729 1 109.50000 418.400000
3045 13181 5730 1 109.50000 418.400000
5728 13181 5729 1 109.50000 418.400000
5728 13181 5730 1 109.50000 418.400000
5729 13181 5730 1 109.50000 418.400000
269 13182 3175 1 109.50000 418.400000
269 13182 5731 1 109.50000 418.400000
269 13182 5732 1 109.50000 418.400000
3175 13182 5731 1 109.50000 418.400000
3175 13182 5732 1 109.50000 418.400000
5731 13182 5732 1 109.50000 418.400000
728 13183 2417 1 109.50000 418.400000
728 13183 5733 1 109.50000 418.400000
728 13183 5734 1 109.50000 418.400000
2417 13183 5733 1 109.50000 418.400000
2417 13183 5734 1 109.50000 418.400000
5733 13183 5734 1 109.50000 418.400000
1496 13184 4013 1 109.50000 418.400000
1496 13184 5735 1 109.50000 418.400000
1496 13184 5736 1 109.50000 418.400000
4013 13184 5735 1 109.50000 418.400000
4013 13184 5736 1 109.50000 418.400000
5735 13184 5736 1 109.50000 418.400000
4338 13185 5737 1 109.50000 418.400000
4338 13185 11312 1 109.50000 418.400000
4338 13185 11433 1 109.50000 418.400000
5737 13185 11312 1 109.50000 418.400000
5737 13185 11433 1 109.50000 418.400000
11312 13185 11433 1 109.50000 418.400000
5738 13186 5739 1 109.50000 418.400000
5738 13186 5740 1 109.50000 418.400000
5738 13186 5741 1 109.50000 418.400000
5739 13186 5740 1 109.50000 418.400000
5739 13186 5741 1 109.50000 418.400000
5740 13186 5741 1 109.50000 418.400000
5742 13187 5743 1 109.50000 418.400000
5742 13187 10471 1 109.50000 418.400000
5742 13187 10843 1 109.50000 418.400000
5743 13187 10471 1 109.50000 418.400000
5743 13187 10843 1 109.50000 418.400000
10471 13187 10843 1 109.50000 418.400000
98 13188 2069 1 109.50000 418.400000
98 13188 5745 1 109.50000 418.400000
98 13188 5746 1 109.50000 418.400000
2069 13188 5745 1 109.50000 418.400000
2069 13188 5746 1 109.50000 418.400000
5745 13188 5746 1 109.50000 418.400000
2114 13189 5384 1 109.50000 418.400000
2114 13189 5747 1 109.50000 418.400000
2114 13189 5748 1 109.50000 418.400000
5384 13189 5747 1 109.50000 418.400000
5384 13189 5748 1 109.50000 418.400000
5747 13189 5748 1 109.50000 418.400000
2251 13190 3619 1 109.50000 418.400000
2251 13190 5749 1 109.50000 418.400000
2251 13190 5750 1 109.50000 418.400000
3619 13190 5749 1 109.50000 418.400000
3619 13190 5750 1 109.50000 418.400000
5749 13190 5750 1 109.50000 418.400000
5105 13191 5751 1 109.50000 418.400000
5105 13191 5752 1 109.50000 418.400000
5105 13191 11420 1 109.50000 418.400000
5751 13191 5752 1 109.50000 418.400000
5751 13191 11420 1 109.50000 418.400000
5752 13191 11420 1 109.50000 418.400000
389 13192 5753 1 109.50000 418.400000
389 13192 5754 1 109.50000 418.400000
389 13192 5755 1 109.50000 418.400000
5753 13192 5754 1 109.50000 418.400000
5753 13192 5755 1 109.50000 418.400000
5754 13192 5755 1 109.50000 418.400000
3267 13193 5756 1 109.50000 418.400000
3267 13193 5757 1 109.50000 418.400000
3267 13193 5758 1 109.50000 418.400000
5756 13193 5757 1 109.50000 418.400000
5756 13193 5758 1 109.50000 418.400000
5757 13193 5758 1 109.50000 418.400000
3171 13194 5759 1 109.50000 418.400000
3171 13194 7528 1 109.50000 418.400000
3171 13194 9740 1 109.50000 418.400000
5759 13194 7528 1 109.50000 418.400000
5759 13194 9740 1 109.50000 418.400000
7528 13194 9740 1 109.50000 418.400000
5761 13195 5762 1 109.50000 418.400000
5761 13195 5763 1 109.50000 418.400000
5761 13195 10075 1 109.50000 418.400000
5762 13195 5763 1 109.50000 418.400000
5762 13195 10075 1 109.50000 418.400000
5763 13195 10075 1 109.50000 418.400000
1983 13196 3789 1 109.50000 418.400000
1983 13196 5765 1 109.50000 418.400000
1983 13196 5766 1 109.50000 418.400000
3789 13196 5765 1 109.50000 418.400000
3789 13196 5766 1 109.50000 418.400000
5765 13196 5766 1 109.50000 418.400000
5767 13197 5768 1 109.50000 418.400000
5767 13197 5769 1 109.50000 418.400000
5767 13197 5770 1 109.50000 418.400000
5768 13197 5769 1 109.50000 418.400000
5768 13197 5770 1 109.50000 418.400000
5769 13197 5770 1 109.50000 418.400000
923 13198 2932 1 109.50000 418.400000
923 13198 4429 1 109.50000 418.400000
923 13198 5771 1 109.50000 418.400000
2932 13198 4429 1 109.50000 418.400000
2932 13198 5771 1 109.50000 418.400000
4429 13198 5771 1 109.50000 418.400000
2802 13199 4638 1 109.50000 418.400000
2802 13199 5772 1 109.50000 418.400000
2802 13199 5773 1 109.50000 418.400000
4638 13199 5772 1 109.50000 418.400000
4638 13199 5773 1 109.50000 418.400000
5772 13199 5773 1 109.50000 418.400000
5774 13200 5775 1 109.50000 418.400000
5774 13200 5776 1 109.50000 418.400000
5774 13200 11156 1 109.50000 418.400000
5775 13200 5776 1 109.50000 418.400000
5775 13200 11156 1 109.50000 418.400000
5776 13200 11156 1 109.50000 418.400000
1747 13201 5777 1 109.50000 418.400000
1747 13201 5778 1 109.50000 418.400000
1747 13201 5779 1 109.50000 418.400000
5777 13201 5778 1 109.50000 418.400000
5777 13201 5779 1 109.50000 418.400000
5778 13201 5779 1 109.50000 418.400000
5677 13202 5780 1 109.50000 418.400000
5677 13202 5781 1 109.50000 418.400000
5677 13202 5782 1 109.50000 418.400000
5780 13202 5781 1 109.50000 418.400000
5780 13202 5782 1 109.50000 418.400000
5781 13202 5782 1 109.50000 418.400000
209 13203 5783 1 109.50000 418.400000
209 13203 5784 1 109.50000 418.400000
209 13203 5785 1 109.50000 418.400000
5783 13203 5784 1 109.50000 418.400000
5783 13203 5785 1 109.50000 418.400000
5784 13203 5785 1 109.50000 418.400000
3172 13204 3246 1 109.50000 418.400000
3172 13204 4829 1 109.50000 418.400000
3172 13204 5786 1 109.50000 418.400000
3246 13204 4829 1 109.50000 418.400000
3246 13204 5786 1 109.50000 418.400000
4829 13204 5786 1 109.50000 418.400000
5787 13205 5788 1 109.50000 418.400000
5787 13205 5789 1 109.50000 418.400000
5787 13205 5790 1 109.50000 418.400000
5788 13205 5789 1 109.50000 418.400000
5788 13205 5790 1 109.50000 418.400000
5789 13205 5790 1 109.50000 418.400000
4449 13206 5792 1 109.50000 418.400000
4449 13206 5793 1 109.50000 418.400000
4449 13206 7194 1 109.50000 418.400000
5792 13206 5793 1 109.50000 418.400000
5792 13206 7194 1 109.50000 418.400000
5793 13206 7194 1 109.50000 418.400000
5795 13207 5796 1 109.50000 418.400000
5795 13207 5797 1 109.50000 418.400000
5795 13207 8314 1 109.50000 418.400000
5796 13207 5797 1 109.50000 418.400000
5796 13207 8314 1 109.50000 418.400000
5797 13207 8314 1 109.50000 418.400000
5798 13208 5799 1 109.50000 418.400000
5798 13208 5800 1 109.50000 418.400000
5798 13208 5801 1 109.50000 418.400000
5799 13208 5800 1 109.50000 418.400000
5799 13208 5801 1 109.50000 418.400000
5800 13208 5801 1 109.50000 418.400000
193 13209 691 1 109.50000 418.400000
193 13209 2842 1 109.50000 418.400000
193 13209 5802 1 109.50000 418.400000
691 13209 2842 1 109.50000 418.400000
691 13209 5802 1 109.50000 418.400000
2842 13209 5802 1 109.50000 418.400000
2480 13210 5803 1 109.50000 418.400000
2480 13210 5804 1 109.50000 418.400000
2480 13210 5805 1 109.50000 418.400000
5803 13210 5804 1 109.50000 418.400000
5803 13210 5805 1 109.50000 418.400000
5804 13210 5805 1 109.50000 418.400000
5806 13211 5807 1 109.50000 418.400000
5806 13211 5808 1 109.50000 418.400000
5806 13211 5809 1 109.50000 418.400000
5807 13211 5808 1 109.50000 418.400000
5807 13211 5809 1 109.50000 418.400000
5808 13211 5809 1 109.50000 418.400000
3520 13212 3877 1 109.50000 418.400000
3520 13212 5810 1 109.50000 418.400000
3520 13212 5811 1 109.50000 418.400000
3877 13212 5810 1 109.50000 418.400000
3877 13212 5811 1 109.50000 418.400000
5810 13212 5811 1 109.50000 418.400000
3593 13213 5812 1 109.50000 418.400000
3593 13213 5813 1 109.50000 418.400000
3593 13213 5814 1 109.50000 418.400000
5812 13213 5813 1 109.50000 418.400000
5812 13213 5814 1 109.50000 418.400000
5813 13213 5814 1 109.50000 418.400000
4670 13214 5815 1 109.50000 418.400000
4670 13214 5816 1 109.50000 418.400000
4670 13214 5817 1 109.50000 418.400000
5815 13214 5816 1 109.50000 418.400000
5815 13214 5817 1 109.50000 418.400000
5816 13214 5817 1 109.50000 418.400000
1852 13215 3074 1 109.50000 418.400000
1852 13215 5818 1 109.50000 418.400000
1852 13215 5819 1 109.50000 418.400000
3074 13215 5818 1 109.50000 418.400000
3074 13215 5819 1 109.50000 418.400000
5818 13215 5819 1 109.50000 418.400000
535 13216 4291 1 109.50000 418.400000
535 13216 5599 1 109.50000 418.400000
535 13216 5821 1 109.50000 418.400000
4291 13216 5599 1 109.50000 418.400000
4291 13216 5821 1 109.50000 418.400000
5599 13216 5821 1 109.50000 418.400000
2793 13217 3802 1 109.50000 418.400000
2793 13217 5822 1 109.50000 418.400000
2793 13217 5823 1 109.50000 418.400000
3802 13217 5822 1 109.50000 418.400000
3802 13217 5823 1 109.50000 418.400000
5822 13217 5823 1 109.50000 418.400000
5825 13218 5826 1 109.50000 418.400000
5825 13218 5827 1 109.50000 418.400000
5825 13218 9839 1 109.50000 418.400000
5826 13218 5827 1 109.50000 418.400000
5826 13218 9839 1 109.50000 418.400000
5827 13218 9839 1 109.50000 418.400000
980 13219 4224 1 109.50000 418.400000
980 13219 5829 1 109.50000 418.400000
980 13219 11443 1 109.50000 418.400000
4224 13219 5829 1 109.50000 418.400000
4224 13219 11443 1 109.50000 418.400000
5829 13219 11443 1 109.50000 418.400000
4111 13220 5830 1 109.50000 418.400000
4111 13220 11321 1 109.50000 418.400000
4111 13220 11491 1 109.50000 418.400000
5830 13220 11321 1 109.50000 418.400000
5830 13220 11491 1 109.50000 418.400000
11321 13220 11491 1 109.50000 418.400000
1910 13221 2840 1 109.50000 418.400000
1910 13221 5777 1 109.50000 418.400000
1910 13221 5831 1 109.50000 418.400000
2840 13221 5777 1 109.50000 418.400000
2840 13221 5831 1 109.50000 418.400000
5777 13221 5831 1 109.50000 418.400000
5832 13222 5833 1 109.50000 418.400000
5832 13222 5834 1 109.50000 418.400000
5832 13222 11229 1 109.50000 418.400000
5833 13222 5834 1 109.50000 418.400000
5833 13222 11229 1 109.50000 418.400000
5834 13222 11229 1 109.50000 418.400000
5835 13223 5836 1 109.50000 418.400000
5835 13223 6820 1 109.50000 418.400000
5835 13223 9421 1 109.50000 418.400000
5836 13223 6820 1 109.50000 418.400000
5836 13223 9421 1 109.50000 418.400000
6820 13223 9421 1 109.50000 418.400000
4368 13224 5706 1 109.50000 418.400000
4368 13224 5708 1 109.50000 418.400000
4368 13224 5843 1 109.50000 418.400000
5706 13224 5708 1 109.50000 418.400000
5706 13224 5843 1 109.50000 418.400000
5708 13224 5843 1 109.50000 418.400000
4107 13225 4108 1 109.50000 418.400000
4107 13225 5845 1 109.50000 418.400000
4107 13225 5846 1 109.50000 418.400000
4108 13225 5845 1 109.50000 418.400000
4108 13225 5846 1 109.50000 418.400000
5845 13225 5846 1 109.50000 418.400000
5637 13226 5847 1 109.50000 418.400000
5637 13226 5848 1 109.50000 418.400000
5637 13226 5849 1 109.50000 418.400000
5847 13226 5848 1 109.50000 418.400000
5847 13226 5849 1 109.50000 418.400000
5848 13226 5849 1 109.50000 418.400000
410 13227 5850 1 109.50000 418.400000
410 13227 5851 1 109.50000 418.400000
410 13227 5852 1 109.50000 418.400000
5850 13227 5851 1 109.50000 418.400000
5850 13227 5852 1 109.50000 418.400000
5851 13227 5852 1 109.50000 418.400000
2611 13228 3586 1 109.50000 418.400000
2611 13228 5346 1 109.50000 418.400000
2611 13228 5853 1 109.50000 418.400000
3586 13228 5346 1 109.50000 418.400000
3586 13228 5853 1 109.50000 418.400000
5346 13228 5853 1 109.50000 418.400000
5854 13229 5855 1 109.50000 418.400000
5854 13229 5856 1 109.50000 418.400000
5854 13229 5857 1 109.50000 418.400000
5855 13229 5856 1 109.50000 418.400000
5855 13229 5857 1 109.50000 418.400000
5856 13229 5857 1 109.50000 418.400000
3444 13230 5062 1 109.50000 418.400000
3444 13230 5858 1 109.50000 418.400000
3444 13230 5859 1 109.50000 418.400000
5062 13230 5858 1 109.50000 418.400000
5062 13230 5859 1 109.50000 418.400000
5858 13230 5859 1 109.50000 418.400000
4834 13231 5862 1 109.50000 418.400000
4834 13231 5864 1 109.50000 418.400000
4834 13231 10290 1 109.50000 418.400000
5862 13231 5864 1 109.50000 418.400000
5862 13231 10290 1 109.50000 418.400000
5864 13231 10290 1 109.50000 418.400000
5865 13232 5866 1 109.50000 418.400000
5865 13232 5867 1 109.50000 418.400000
5865 13232 8664 1 109.50000 418.400000
5866 13232 5867 1 109.50000 418.400000
5866 13232 8664 1 109.50000 418.400000
5867 13232 8664 1 109.50000 418.400000
3851 13233 5283 1 109.50000 418.400000
3851 13233 5868 1 109.50000 418.400000
3851 13233 5869 1 109.50000 418.400000
5283 13233 5868 1 109.50000 418.400000
5283 13233 5869 1 109.50000 418.400000
5868 13233 5869 1 109.50000 418.400000
3005 13234 5870 1 109.50000 418.400000
3005 13234 5871 1 109.50000 418.400000
3005 13234 5872 1 109.50000 418.400000
5870 13234 5871 1 109.50000 418.400000
5870 13234 5872 1 109.50000 418.400000
5871 13234 5872 1 109.50000 418.400000
468 13235 5873 1 109.50000 418.400000
468 13235 5874 1 109.50000 418.400000
468 13235 5875 1 109.50000 418.400000
5873 13235 5874 1 109.50000 418.400000
5873 13235 5875 1 109.50000 418.400000
5874 13235 5875 1 109.50000 418.400000
5876 13236 5877 1 109.50000 418.400000
5876 13236 5878 1 109.50000 418.400000
5876 13236 5879 1 109.50000 418.400000
5877 13236 5878 1 109.50000 418.400000
5877 13236 5879 1 109.50000 418.400000
5878 13236 5879 1 109.50000 418.400000
5880 13237 5881 1 109.50000 418.400000
5880 13237 5882 1 109.50000 418.400000
5880 13237 5883 1 109.50000 418.400000
5881 13237 5882 1 109.50000 418.400000
5881 13237 5883 1 109.50000 418.400000
5882 13237 5883 1 109.50000 418.400000
3153 13238 5884 1 109.50000 418.400000
3153 13238 5885 1 109.50000 418.400000
3153 13238 5886 1 109.50000 418.400000
5884 13238 5885 1 109.50000 418.400000
5884 13238 5886 1 109.50000 418.400000
5885 13238 5886 1 109.50000 418.400000
1761 13239 5217 1 109.50000 418.400000
1761 13239 5887 1 109.50000 418.400000
1761 13239 5888 1 109.50000 418.400000
5217 13239 5887 1 109.50000 418.400000
5217 13239 5888 1 109.50000 418.400000
5887 13239 5888 1 109.50000 418.400000
4806 13240 5889 1 109.50000 418.400000
4806 13240 5890 1 109.50000 418.400000
4806 13240 5891 1 109.50000 418.400000
5889 13240 5890 1 109.50000 418.400000
5889 13240 5891 1 109.50000 418.400000
5890 13240 5891 1 109.50000 418.400000
5892 13241 5893 1 109.50000 418.400000
5892 13241 5894 1 109.50000 418.400000
5892 13241 11482 1 109.50000 418.400000
5893 13241 5894 1 109.50000 418.400000
5893 13241 11482 1 109.50000 418.400000
5894 13241 11482 1 109.50000 418.400000
1884 13242 5895 1 109.50000 418.400000
1884 13242 5896 1 109.50000 418.400000
1884 13242 5897 1 109.50000 418.400000
5895 13242 5896 1 109.50000 418.400000
5895 13242 5897 1 109.50000 418.400000
5896 13242 5897 1 109.50000 418.400000
1581 13243 5898 1 109.50000 418.400000
1581 13243 5899 1 109.50000 418.400000
1581 13243 5900 1 109.50000 418.400000
5898 13243 5899 1 109.50000 418.400000
5898 13243 5900 1 109.50000 418.400000
5899 13243 5900 1 109.50000 418.400000
3051 13244 5901 1 109.50000 418.400000
3051 13244 5902 1 109.50000 418.400000
3051 13244 5903 1 109.50000 418.400000
5901 13244 5902 1 109.50000 418.400000
5901 13244 5903 1 109.50000 418.400000
5902 13244 5903 1 109.50000 418.400000
5904 13245 5905 1 109.50000 418.400000
5904 13245 5906 1 109.50000 418.400000
5904 13245 5907 1 109.50000 418.400000
5905 13245 5906 1 109.50000 418.400000
5905 13245 5907 1 109.50000 418.400000
5906 13245 5907 1 109.50000 418.400000
3216 13246 5908 1 109.50000 418.400000
3216 13246 5909 1 109.50000 418.400000
3216 13246 5910 1 109.50000 418.400000
5908 13246 5909 1 109.50000 418.400000
5908 13246 5910 1 109.50000 418.400000
5909 13246 5910 1 109.50000 418.400000
3233 13247 5911 1 109.50000 418.400000
3233 13247 5912 1 109.50000 418.400000
3233 13247 5913 1 109.50000 418.400000
5911 13247 5912 1 109.50000 418.400000
5911 13247 5913 1 109.50000 418.400000
5912 13247 5913 1 109.50000 418.400000
1705 13248 5914 1 109.50000 418.400000
1705 13248 5915 1 109.50000 418.400000
1705 13248 5916 1 109.50000 418.400000
5914 13248 5915 1 109.50000 418.400000
5914 13248 5916 1 109.50000 418.400000
5915 13248 5916 1 109.50000 418.400000
1959 13249 3363 1 109.50000 418.400000
1959 13249 5917 1 109.50000 418.400000
1959 13249 5918 1 109.50000 418.400000
3363 13249 5917 1 109.50000 418.400000
3363 13249 5918 1 109.50000 418.400000
5917 13249 5918 1 109.50000 418.400000
4650 13250 5919 1 109.50000 418.400000
4650 13250 11287 1 109.50000 418.400000
4650 13250 11369 1 109.50000 418.400000
5919 13250 11287 1 109.50000 418.400000
5919 13250 11369 1 109.50000 418.400000
11287 13250 11369 1 109.50000 418.400000
2749 13251 5920 1 109.50000 418.400000
2749 13251 5921 1 109.50000 418.400000
2749 13251 5922 1 109.50000 418.400000
5920 13251 5921 1 109.50000 418.400000
5920 13251 5922 1 109.50000 418.400000
5921 13251 5922 1 109.50000 418.400000
762 13252 5923 1 109.50000 418.400000
762 13252 5924 1 109.50000 418.400000
762 13252 5925 1 109.50000 418.400000
5923 13252 5924 1 109.50000 418.400000
5923 13252 5925 1 109.50000 418.400000
5924 13252 5925 1 109.50000 418.400000
1862 13253 3414 1 109.50000 418.400000
1862 13253 3415 1 109.50000 418.400000
1862 13253 5926 1 109.50000 418.400000
3414 13253 3415 1 109.50000 418.400000
3414 13253 5926 1 109.50000 418.400000
3415 13253 5926 1 109.50000 418.400000
4457 13254 5469 1 109.50000 418.400000
4457 13254 5928 1 109.50000 418.400000
4457 13254 5929 1 109.50000 418.400000
5469 13254 5928 1 109.50000 418.400000
5469 13254 5929 1 109.50000 418.400000
5928 13254 5929 1 109.50000 418.400000
5930 13255 5931 1 109.50000 418.400000
5930 13255 5932 1 109.50000 418.400000
5930 13255 5933 1 109.50000 418.400000
5931 13255 5932 1 109.50000 418.400000
5931 13255 5933 1 109.50000 418.400000
5932 13255 5933 1 109.50000 418.400000
2263 13256 3255 1 109.50000 418.400000
2263 13256 5395 1 109.50000 418.400000
2263 13256 5934 1 109.50000 418.400000
3255 13256 5395 1 109.50000 418.400000
3255 13256 5934 1 109.50000 418.400000
5395 13256 5934 1 109.50000 418.400000
1189 13257 1192 1 109.50000 418.400000
1189 13257 5935 1 109.50000 418.400000
1189 13257 5936 1 109.50000 418.400000
1192 13257 5935 1 109.50000 418.400000
1192 13257 5936 1 109.50000 418.400000
5935 13257 5936 1 109.50000 418.400000
4312 13258 4492 1 109.50000 418.400000
4312 13258 5937 1 109.50000 418.400000
4312 13258 5938 1 109.50000 418.400000
4492 13258 5937 1 109.50000 418.400000
4492 13258 5938 1 109.50000 418.400000
5937 13258 5938 1 109.50000 418.400000
5939 13259 5940 1 109.50000 418.400000
5939 13259 5941 1 109.50000 418.400000
5939 13259 5942 1 109.50000 418.400000
5940 13259 5941 1 109.50000 418.400000
5940 13259 5942 1 109.50000 418.400000
5941 13259 5942 1 109.50000 418.400000
5743 13260 5945 1 109.50000 418.400000
5743 13260 9887 1 109.50000 418.400000
5743 13260 9889 1 109.50000 418.400000
5945 13260 9887 1 109.50000 418.400000
5945 13260 9889 1 109.50000 418.400000
9887 13260 9889 1 109.50000 418.400000
2385 13261 5946 1 109.50000 418.400000
2385 13261 5947 1 109.50000 418.400000
2385 13261 5948 1 109.50000 418.400000
5946 13261 5947 1 109.50000 418.400000
5946 13261 5948 1 109.50000 418.400000
5947 13261 5948 1 109.50000 418.400000
5949 13262 5950 1 109.50000 418.400000
5949 13262 5951 1 109.50000 418.400000
5949 13262 5952 1 109.50000 418.400000
5950 13262 5951 1 109.50000 418.400000
5950 13262 5952 1 109.50000 418.400000
5951 13262 5952 1 109.50000 418.400000
5953 13263 5954 1 109.50000 418.400000
5953 13263 5955 1 109.50000 418.400000
5953 13263 5956 1 109.50000 418.400000
5954 13263 5955 1 109.50000 418.400000
5954 13263 5956 1 109.50000 418.400000
5955 13263 5956 1 109.50000 418.400000
5957 13264 5958 1 109.50000 418.400000
5957 13264 5959 1 109.50000 418.400000
5957 13264 5960 1 109.50000 418.400000
5958 13264 5959 1 109.50000 418.400000
5958 13264 5960 1 109.50000 418.400000
5959 13264 5960 1 109.50000 418.400000
800 13265 4888 1 109.50000 418.400000
800 13265 5961 1 109.50000 418.400000
800 13265 5962 1 109.50000 418.400000
4888 13265 5961 1 109.50000 418.400000
4888 13265 5962 1 109.50000 418.400000
5961 13265 5962 1 109.50000 418.400000
2420 13266 5964 1 109.50000 418.400000
2420 13266 5965 1 109.50000 418.400000
2420 13266 11175 1 109.50000 418.400000
5964 13266 5965 1 109.50000 418.400000
5964 13266 11175 1 109.50000 418.400000
5965 13266 11175 1 109.50000 418.400000
1820 13267 1955 1 109.50000 418.400000
1820 13267 5966 1 109.50000 418.400000
1820 13267 5967 1 109.50000 418.400000
1955 13267 5966 1 109.50000 418.400000
1955 13267 5967 1 109.50000 418.400000
5966 13267 5967 1 109.50000 418.400000
1881 13268 2586 1 109.50000 418.400000
1881 13268 5968 1 109.50000 418.400000
1881 13268 5969 1 109.50000 418.400000
2586 13268 5968 1 109.50000 418.400000
2586 13268 5969 1 109.50000 418.400000
5968 13268 5969 1 109.50000 418.400000
5018 13269 5970 1 109.50000 418.400000
5018 13269 5971 1 109.50000 418.400000
5018 13269 5972 1 109.50000 418.400000
5970 13269 5971 1 109.50000 418.400000
5970 13269 5972 1 109.50000 418.400000
5971 13269 5972 1 109.50000 418.400000
3358 13270 5974 1 109.50000 418.400000
3358 13270 5975 1 109.50000 418.400000
3358 13270 11474 1 109.50000 418.400000
5974 13270 5975 1 109.50000 418.400000
5974 13270 11474 1 109.50000 418.400000
5975 13270 11474 1 109.50000 418.400000
1624 13271 5976 1 109.50000 418.400000
1624 13271 5977 1 109.50000 418.400000
1624 13271 7670 1 109.50000 418.400000
5976 13271 5977 1 109.50000 418.400000
5976 13271 7670 1 109.50000 418.400000
5977 13271 7670 1 109.50000 418.400000
1154 13272 5979 1 109.50000 418.400000
1154 13272 5980 1 109.50000 418.400000
1154 13272 11477 1 109.50000 418.400000
5979 13272 5980 1 109.50000 418.400000
5979 13272 11477 1 109.50000 418.400000
5980 13272 11477 1 109.50000 418.400000
2012 13273 3940 1 109.50000 418.400000
2012 13273 5982 1 109.50000 418.400000
2012 13273 5983 1 109.50000 418.400000
3940 13273 5982 1 109.50000 418.400000
3940 13273 5983 1 109.50000 418.400000
5982 13273 5983 1 109.50000 418.400000
5814 13274 5984 1 109.50000 418.400000
5814 13274 5985 1 109.50000 418.400000
5814 13274 5986 1 109.50000 418.400000
5984 13274 5985 1 109.50000 418.400000
5984 13274 5986 1 109.50000 418.400000
5985 13274 5986 1 109.50000 418.400000
3747 13275 4947 1 109.50000 418.400000
3747 13275 5987 1 109.50000 418.400000
3747 13275 5988 1 109.50000 418.400000
4947 13275 5987 1 109.50000 418.400000
4947 13275 5988 1 109.50000 418.400000
5987 13275 5988 1 109.50000 418.400000
3872 13276 4464 1 109.50000 418.400000
3872 13276 5989 1 109.50000 418.400000
3872 13276 5990 1 109.50000 418.400000
4464 13276 5989 1 109.50000 418.400000
4464 13276 5990 1 109.50000 418.400000
5989 13276 5990 1 109.50000 418.400000
3604 13277 5991 1 109.50000 418.400000
3604 13277 5992 1 109.50000 418.400000
3604 13277 11326 1 109.50000 418.400000
5991 13277 5992 1 109.50000 418.400000
5991 13277 11326 1 109.50000 418.400000
5992 13277 11326 1 109.50000 418.400000
5993 13278 5994 1 109.50000 418.400000
5993 13278 5995 1 109.50000 418.400000
5993 13278 5996 1 109.50000 418.400000
5994 13278 5995 1 109.50000 418.400000
5994 13278 5996 1 109.50000 418.400000
5995 13278 5996 1 109.50000 418.400000
3603 13279 5997 1 109.50000 418.400000
3603 13279 5998 1 109.50000 418.400000
3603 13279 11333 1 109.50000 418.400000
5997 13279 5998 1 109.50000 418.400000
5997 13279 11333 1 109.50000 418.400000
5998 13279 11333 1 109.50000 418.400000
555 13280 1228 1 109.50000 418.400000
555 13280 4653 1 109.50000 418.400000
555 13280 5999 1 109.50000 418.400000
1228 13280 4653 1 109.50000 418.400000
1228 13280 5999 1 109.50000 418.400000
4653 13280 5999 1 109.50000 418.400000
5527 13281 6000 1 109.50000 418.400000
5527 13281 6001 1 109.50000 418.400000
5527 13281 11447 1 109.50000 418.400000
6000 13281 6001 1 109.50000 418.400000
6000 13281 11447 1 109.50000 418.400000
6001 13281 11447 1 109.50000 418.400000
2207 13282 6002 1 109.50000 418.400000
2207 13282 6003 1 109.50000 418.400000
2207 13282 6004 1 109.50000 418.400000
6002 13282 6003 1 109.50000 418.400000
6002 13282 6004 1 109.50000 418.400000
6003 13282 6004 1 109.50000 418.400000
6007 13283 6008 1 109.50000 418.400000
6007 13283 6009 1 109.50000 418.400000
6007 13283 6010 1 109.50000 418.400000
6008 13283 6009 1 109.50000 418.400000
6008 13283 6010 1 109.50000 418.400000
6009 13283 6010 1 109.50000 418.400000
406 13284 2903 1 109.50000 418.400000
406 13284 6011 1 109.50000 418.400000
406 13284 6012 1 109.50000 418.400000
2903 13284 6011 1 109.50000 418.400000
2903 13284 6012 1 109.50000 418.400000
6011 13284 6012 1 109.50000 418.400000
222 13285 6013 1 109.50000 418.400000
222 13285 6014 1 109.50000 418.400000
222 13285 6015 1 109.50000 418.400000
6013 13285 6014 1 109.50000 418.400000
6013 13285 6015 1 109.50000 418.400000
6014 13285 6015 1 109.50000 418.400000
6016 13286 6017 1 109.50000 418.400000
6016 13286 6018 1 109.50000 418.400000
6016 13286 6019 1 109.50000 418.400000
6017 13286 6018 1 109.50000 418.400000
6017 13286 6019 1 109.50000 418.400000
6018 13286 6019 1 109.50000 418.400000
1160 13287 1162 1 109.50000 418.400000
1160 13287 1163 1 109.50000 418.400000
1160 13287 5112 1 109.50000 418.400000
1162 13287 1163 1 109.50000 418.400000
1162 13287 5112 1 109.50000 418.400000
1163 13287 5112 1 109.50000 418.400000
6022 13288 6023 1 109.50000 418.400000
6022 13288 6024 1 109.50000 418.400000
6022 13288 6025 1 109.50000 418.400000
6023 13288 6024 1 109.50000 418.400000
6023 13288 6025 1 109.50000 418.400000
6024 13288 6025 1 109.50000 418.400000
4590 13289 6028 1 109.50000 418.400000
4590 13289 6029 1 109.50000 418.400000
4590 13289 6030 1 109.50000 418.400000
6028 13289 6029 1 109.50000 418.400000
6028 13289 6030 1 109.50000 418.400000
6029 13289 6030 1 109.50000 418.400000
1584 13290 4663 1 109.50000 418.400000
1584 13290 6033 1 109.50000 418.400000
1584 13290 6034 1 109.50000 418.400000
4663 13290 6033 1 109.50000 418.400000
4663 13290 6034 1 109.50000 418.400000
6033 13290 6034 1 109.50000 418.400000
761 13291 6035 1 109.50000 418.400000
761 13291 6036 1 109.50000 418.400000
761 13291 6037 1 109.50000 418.400000
6035 13291 6036 1 109.50000 418.400000
6035 13291 6037 1 109.50000 418.400000
6036 13291 6037 1 109.50000 418.400000
2163 13292 2164 1 109.50000 418.400000
2163 13292 6038 1 109.50000 418.400000
2163 13292 11524 1 109.50000 418.400000
2164 13292 6038 1 109.50000 418.400000
2164 13292 11524 1 109.50000 418.400000
6038 13292 11524 1 109.50000 418.400000
6039 13293 6040 1 109.50000 418.400000
6039 13293 6041 1 109.50000 418.400000
6039 13293 6042 1 109.50000 418.400000
6040 13293 6041 1 109.50000 418.400000
6040 13293 6042 1 109.50000 418.400000
6041 13293 6042 1 109.50000 418.400000
6043 13294 6044 1 109.50000 418.400000
6043 13294 6045 1 109.50000 418.400000
6043 13294 6046 1 109.50000 418.400000
6044 13294 6045 1 109.50000 418.400000
6044 13294 6046 1 109.50000 418.400000
6045 13294 6046 1 109.50000 418.400000
2394 13295 6047 1 109.50000 418.400000
2394 13295 6048 1 109.50000 418.400000
2394 13295 6049 1 109.50000 418.400000
6047 13295 6048 1 109.50000 418.400000
6047 13295 6049 1 109.50000 418.400000
6048 13295 6049 1 109.50000 418.400000
2145 13296 4687 1 109.50000 418.400000
2145 13296 4715 1 109.50000 418.400000
2145 13296 6050 1 109.50000 418.400000
4687 13296 4715 1 109.50000 418.400000
4687 13296 6050 1 109.50000 418.400000
4715 13296 6050 1 109.50000 418.400000
5472 13297 6051 1 109.50000 418.400000
5472 13297 11238 1 109.50000 418.400000
5472 13297 11536 1 109.50000 418.400000
6051 13297 11238 1 109.50000 418.400000
6051 13297 11536 1 109.50000 418.400000
11238 13297 11536 1 109.50000 418.400000
287 13298 6052 1 109.50000 418.400000
287 13298 6053 1 109.50000 418.400000
287 13298 6054 1 109.50000 418.400000
6052 13298 6053 1 109.50000 418.400000
6052 13298 6054 1 109.50000 418.400000
6053 13298 6054 1 109.50000 418.400000
6055 13299 6056 1 109.50000 418.400000
6055 13299 6057 1 109.50000 418.400000
6055 13299 10055 1 109.50000 418.400000
6056 13299 6057 1 109.50000 418.400000
6056 13299 10055 1 109.50000 418.400000
6057 13299 10055 1 109.50000 418.400000
1088 13300 6058 1 109.50000 418.400000
1088 13300 6059 1 109.50000 418.400000
1088 13300 6060 1 109.50000 418.400000
6058 13300 6059 1 109.50000 418.400000
6058 13300 6060 1 109.50000 418.400000
6059 13300 6060 1 109.50000 418.400000
5030 13301 5268 1 109.50000 418.400000
5030 13301 11199 1 109.50000 418.400000
5030 13301 11514 1 109.50000 418.400000
5268 13301 11199 1 109.50000 418.400000
5268 13301 11514 1 109.50000 418.400000
11199 13301 11514 1 109.50000 418.400000
2979 13302 3790 1 109.50000 418.400000
2979 13302 4466 1 109.50000 418.400000
2979 13302 6061 1 109.50000 418.400000
3790 13302 4466 1 109.50000 418.400000
3790 13302 6061 1 109.50000 418.400000
4466 13302 6061 1 109.50000 418.400000
2141 13303 6062 1 109.50000 418.400000
2141 13303 6063 1 109.50000 418.400000
2141 13303 6064 1 109.50000 418.400000
6062 13303 6063 1 109.50000 418.400000
6062 13303 6064 1 109.50000 418.400000
6063 13303 6064 1 109.50000 418.400000
4627 13304 6065 1 109.50000 418.400000
4627 13304 6066 1 109.50000 418.400000
4627 13304 6067 1 109.50000 418.400000
6065 13304 6066 1 109.50000 418.400000
6065 13304 6067 1 109.50000 418.400000
6066 13304 6067 1 109.50000 418.400000
213 13305 214 1 109.50000 418.400000
213 13305 6068 1 109.50000 418.400000
213 13305 6069 1 109.50000 418.400000
214 13305 6068 1 109.50000 418.400000
214 13305 6069 1 109.50000 418.400000
6068 13305 6069 1 109.50000 418.400000
6070 13306 6071 1 109.50000 418.400000
6070 13306 6072 1 109.50000 418.400000
6070 13306 6073 1 109.50000 418.400000
6071 13306 6072 1 109.50000 418.400000
6071 13306 6073 1 109.50000 418.400000
6072 13306 6073 1 109.50000 418.400000
2000 13307 2631 1 109.50000 418.400000
2000 13307 6074 1 109.50000 418.400000
2000 13307 6075 1 109.50000 418.400000
2631 13307 6074 1 109.50000 418.400000
2631 13307 6075 1 109.50000 418.400000
6074 13307 6075 1 109.50000 418.400000
284 13308 6076 1 109.50000 418.400000
284 13308 6077 1 109.50000 418.400000
284 13308 6078 1 109.50000 418.400000
6076 13308 6077 1 109.50000 418.400000
6076 13308 6078 1 109.50000 418.400000
6077 13308 6078 1 109.50000 418.400000
6079 13309 6080 1 109.50000 418.400000
6079 13309 11175 1 109.50000 418.400000
6079 13309 11264 1 109.50000 418.400000
6080 13309 11175 1 109.50000 418.400000
6080 13309 11264 1 109.50000 418.400000
11175 13309 11264 1 109.50000 418.400000
5595 13310 6081 1 109.50000 418.400000
5595 13310 6082 1 109.50000 418.400000
5595 13310 6083 1 109.50000 418.400000
6081 13310 6082 1 109.50000 418.400000
6081 13310 6083 1 109.50000 418.400000
6082 13310 6083 1 109.50000 418.400000
6084 13311 6085 1 109.50000 418.400000
6084 13311 6086 1 109.50000 418.400000
6084 13311 6087 1 109.50000 418.400000
6085 13311 6086 1 109.50000 418.400000
6085 13311 6087 1 109.50000 418.400000
6086 13311 6087 1 109.50000 418.400000
6088 13312 6089 1 109.50000 418.400000
6088 13312 8294 1 109.50000 418.400000
6088 13312 11494 1 109.50000 418.400000
6089 13312 8294 1 109.50000 418.400000
6089 13312 11494 1 109.50000 418.400000
8294 13312 11494 1 109.50000 418.400000
6090 13313 6091 1 109.50000 418.400000
6090 13313 6092 1 109.50000 418.400000
6090 13313 6093 1 109.50000 418.400000
6091 13313 6092 1 109.50000 418.400000
6091 13313 6093 1 109.50000 418.400000
6092 13313 6093 1 109.50000 418.400000
1100 13314 6094 1 109.50000 418.400000
1100 13314 6095 1 109.50000 418.400000
1100 13314 6096 1 109.50000 418.400000
6094 13314 6095 1 109.50000 418.400000
6094 13314 6096 1 109.50000 418.400000
6095 13314 6096 1 109.50000 418.400000
2090 13315 3389 1 109.50000 418.400000
2090 13315 6097 1 109.50000 418.400000
2090 13315 6098 1 109.50000 418.400000
3389 13315 6097 1 109.50000 418.400000
3389 13315 6098 1 109.50000 418.400000
6097 13315 6098 1 109.50000 418.400000
4941 13316 6004 1 109.50000 418.400000
4941 13316 6102 1 109.50000 418.400000
4941 13316 6103 1 109.50000 418.400000
6004 13316 6102 1 109.50000 418.400000
6004 13316 6103 1 109.50000 418.400000
6102 13316 6103 1 109.50000 418.400000
6104 13317 6105 1 109.50000 418.400000
6104 13317 6106 1 109.50000 418.400000
6104 13317 6107 1 109.50000 418.400000
6105 13317 6106 1 109.50000 418.400000
6105 13317 6107 1 109.50000 418.400000
6106 13317 6107 1 109.50000 418.400000
6108 13318 6109 1 109.50000 418.400000
6108 13318 6110 1 109.50000 418.400000
6108 13318 11531 1 109.50000 418.400000
6109 13318 6110 1 109.50000 418.400000
6109 13318 11531 1 109.50000 418.400000
6110 13318 11531 1 109.50000 418.400000
4845 13319 6111 1 109.50000 418.400000
4845 13319 6113 1 109.50000 418.400000
4845 13319 10052 1 109.50000 418.400000
6111 13319 6113 1 109.50000 418.400000
6111 13319 10052 1 109.50000 418.400000
6113 13319 10052 1 109.50000 418.400000
2212 13320 3708 1 109.50000 418.400000
2212 13320 3709 1 109.50000 418.400000
2212 13320 6115 1 109.50000 418.400000
3708 13320 3709 1 109.50000 418.400000
3708 13320 6115 1 109.50000 418.400000
3709 13320 6115 1 109.50000 418.400000
4349 13321 6116 1 109.50000 418.400000
4349 13321 6117 1 109.50000 418.400000
4349 13321 11198 1 109.50000 418.400000
6116 13321 6117 1 109.50000 418.400000
6116 13321 11198 1 109.50000 418.400000
6117 13321 11198 1 109.50000 418.400000
2809 13322 4094 1 109.50000 418.400000
2809 13322 4253 1 109.50000 418.400000
2809 13322 6118 1 109.50000 418.400000
4094 13322 4253 1 109.50000 418.400000
4094 13322 6118 1 109.50000 418.400000
4253 13322 6118 1 109.50000 418.400000
307 13323 6119 1 109.50000 418.400000
307 13323 6120 1 109.50000 418.400000
307 13323 6121 1 109.50000 418.400000
6119 13323 6120 1 109.50000 418.400000
6119 13323 6121 1 109.50000 418.400000
6120 13323 6121 1 109.50000 418.400000
4795 13324 6122 1 109.50000 418.400000
4795 13324 6123 1 109.50000 418.400000
4795 13324 11168 1 109.50000 418.400000
6122 13324 6123 1 109.50000 418.400000
6122 13324 11168 1 109.50000 418.400000
6123 13324 11168 1 109.50000 418.400000
6124 13325 6125 1 109.50000 418.400000
6124 13325 6126 1 109.50000 418.400000
6124 13325 6127 1 109.50000 418.400000
6125 13325 6126 1 109.50000 418.400000
6125 13325 6127 1 109.50000 418.400000
6126 13325 6127 1 109.50000 418.400000
2358 13326 3142 1 109.50000 418.400000
2358 13326 3265 1 109.50000 418.400000
2358 13326 6128 1 109.50000 418.400000
3142 13326 3265 1 109.50000 418.400000
3142 13326 6128 1 109.50000 418.400000
3265 13326 6128 1 109.50000 418.400000
1038 13327 6129 1 109.50000 418.400000
1038 13327 6130 1 109.50000 418.400000
1038 13327 6131 1 109.50000 418.400000
6129 13327 6130 1 109.50000 418.400000
6129 13327 6131 1 109.50000 418.400000
6130 13327 6131 1 109.50000 418.400000
6132 13328 6133 1 109.50000 418.400000
6132 13328 6134 1 109.50000 418.400000
6132 13328 7283 1 109.50000 418.400000
6133 13328 6134 1 109.50000 418.400000
6133 13328 7283 1 109.50000 418.400000
6134 13328 7283 1 109.50000 418.400000
2147 13329 3328 1 109.50000 418.400000
2147 13329 6132 1 109.50000 418.400000
2147 13329 6136 1 109.50000 418.400000
3328 13329 6132 1 109.50000 418.400000
3328 13329 6136 1 109.50000 418.400000
6132 13329 6136 1 109.50000 418.400000
6137 13330 6138 1 109.50000 418.400000
6137 13330 6139 1 109.50000 418.400000
6137 13330 6140 1 109.50000 418.400000
6138 13330 6139 1 109.50000 418.400000
6138 13330 6140 1 109.50000 418.400000
6139 13330 6140 1 109.50000 418.400000
5532 13331 6141 1 109.50000 418.400000
5532 13331 6142 1 109.50000 418.400000
5532 13331 6143 1 109.50000 418.400000
6141 13331 6142 1 109.50000 418.400000
6141 13331 6143 1 109.50000 418.400000
6142 13331 6143 1 109.50000 418.400000
2049 13332 2248 1 109.50000 418.400000
2049 13332 2896 1 109.50000 418.400000
2049 13332 6144 1 109.50000 418.400000
2248 13332 2896 1 109.50000 418.400000
2248 13332 6144 1 109.50000 418.400000
2896 13332 6144 1 109.50000 418.400000
3996 13333 4443 1 109.50000 418.400000
3996 13333 6146 1 109.50000 418.400000
3996 13333 6321 1 109.50000 418.400000
4443 13333 6146 1 109.50000 418.400000
4443 13333 6321 1 109.50000 418.400000
6146 13333 6321 1 109.50000 418.400000
2620 13334 6148 1 109.50000 418.400000
2620 13334 6149 1 109.50000 418.400000
2620 13334 11432 1 109.50000 418.400000
6148 13334 6149 1 109.50000 418.400000
6148 13334 11432 1 109.50000 418.400000
6149 13334 11432 1 109.50000 418.400000
6150 13335 6151 1 109.50000 418.400000
6150 13335 6152 1 109.50000 418.400000
6150 13335 6153 1 109.50000 418.400000
6151 13335 6152 1 109.50000 418.400000
6151 13335 6153 1 109.50000 418.400000
6152 13335 6153 1 109.50000 418.400000
3973 13336 4286 1 109.50000 418.400000
3973 13336 5665 1 109.50000 418.400000
3973 13336 6154 1 109.50000 418.400000
4286 13336 5665 1 109.50000 418.400000
4286 13336 6154 1 109.50000 418.400000
5665 13336 6154 1 109.50000 418.400000
1093 13337 6155 1 109.50000 418.400000
1093 13337 6156 1 109.50000 418.400000
1093 13337 6157 1 109.50000 418.400000
6155 13337 6156 1 109.50000 418.400000
6155 13337 6157 1 109.50000 418.400000
6156 13337 6157 1 109.50000 418.400000
2983 13338 3693 1 109.50000 418.400000
2983 13338 6158 1 109.50000 418.400000
2983 13338 6159 1 109.50000 418.400000
3693 13338 6158 1 109.50000 418.400000
3693 13338 6159 1 109.50000 418.400000
6158 13338 6159 1 109.50000 418.400000
4746 13339 4801 1 109.50000 418.400000
4746 13339 4802 1 109.50000 418.400000
4746 13339 6160 1 109.50000 418.400000
4801 13339 4802 1 109.50000 418.400000
4801 13339 6160 1 109.50000 418.400000
4802 13339 6160 1 109.50000 418.400000
1369 13340 6163 1 109.50000 418.400000
1369 13340 6164 1 109.50000 418.400000
1369 13340 11471 1 109.50000 418.400000
6163 13340 6164 1 109.50000 418.400000
6163 13340 11471 1 109.50000 418.400000
6164 13340 11471 1 109.50000 418.400000
5464 13341 5466 1 109.50000 418.400000
5464 13341 6165 1 109.50000 418.400000
5464 13341 6166 1 109.50000 418.400000
5466 13341 6165 1 109.50000 418.400000
5466 13341 6166 1 109.50000 418.400000
6165 13341 6166 1 109.50000 418.400000
6168 13342 6169 1 109.50000 418.400000
6168 13342 6170 1 109.50000 418.400000
6168 13342 8848 1 109.50000 418.400000
6169 13342 6170 1 109.50000 418.400000
6169 13342 8848 1 109.50000 418.400000
6170 13342 8848 1 109.50000 418.400000
4293 13343 5672 1 109.50000 418.400000
4293 13343 6171 1 109.50000 418.400000
4293 13343 6172 1 109.50000 418.400000
5672 13343 6171 1 109.50000 418.400000
5672 13343 6172 1 109.50000 418.400000
6171 13343 6172 1 109.50000 418.400000
592 13344 4685 1 109.50000 418.400000
592 13344 6176 1 109.50000 418.400000
592 13344 6177 1 109.50000 418.400000
4685 13344 6176 1 109.50000 418.400000
4685 13344 6177 1 109.50000 418.400000
6176 13344 6177 1 109.50000 418.400000
437 13345 3324 1 109.50000 418.400000
437 13345 6179 1 109.50000 418.400000
437 13345 6180 1 109.50000 418.400000
3324 13345 6179 1 109.50000 418.400000
3324 13345 6180 1 109.50000 418.400000
6179 13345 6180 1 109.50000 418.400000
6181 13346 6182 1 109.50000 418.400000
6181 13346 6183 1 109.50000 418.400000
6181 13346 6184 1 109.50000 418.400000
6182 13346 6183 1 109.50000 418.400000
6182 13346 6184 1 109.50000 418.400000
6183 13346 6184 1 109.50000 418.400000
4111 13347 6185 1 109.50000 418.400000
4111 13347 6186 1 109.50000 418.400000
4111 13347 6187 1 109.50000 418.400000
6185 13347 6186 1 109.50000 418.400000
6185 13347 6187 1 109.50000 418.400000
6186 13347 6187 1 109.50000 418.400000
6188 13348 6189 1 109.50000 418.400000
6188 13348 6190 1 109.50000 418.400000
6188 13348 6191 1 109.50000 418.400000
6189 13348 6190 1 109.50000 418.400000
6189 13348 6191 1 109.50000 418.400000
6190 13348 6191 1 109.50000 418.400000
6193 13349 6194 1 109.50000 418.400000
6193 13349 6195 1 109.50000 418.400000
6193 13349 6196 1 109.50000 418.400000
6194 13349 6195 1 109.50000 418.400000
6194 13349 6196 1 109.50000 418.400000
6195 13349 6196 1 109.50000 418.400000
2045 13350 6197 1 109.50000 418.400000
2045 13350 6198 1 109.50000 418.400000
2045 13350 11531 1 109.50000 418.400000
6197 13350 6198 1 109.50000 418.400000
6197 13350 11531 1 109.50000 418.400000
6198 13350 11531 1 109.50000 418.400000
1718 13351 6200 1 109.50000 418.400000
1718 13351 6201 1 109.50000 418.400000
1718 13351 6202 1 109.50000 418.400000
6200 13351 6201 1 109.50000 418.400000
6200 13351 6202 1 109.50000 418.400000
6201 13351 6202 1 109.50000 418.400000
4499 13352 5159 1 109.50000 418.400000
4499 13352 6203 1 109.50000 418.400000
4499 13352 6204 1 109.50000 418.400000
5159 13352 6203 1 109.50000 418.400000
5159 13352 6204 1 109.50000 418.400000
6203 13352 6204 1 109.50000 418.400000
2712 13353 6205 1 109.50000 418.400000
2712 13353 6206 1 109.50000 418.400000
2712 13353 6207 1 109.50000 418.400000
6205 13353 6206 1 109.50000 418.400000
6205 13353 6207 1 109.50000 418.400000
6206 13353 6207 1 109.50000 418.400000
1101 13354 3236 1 109.50000 418.400000
1101 13354 6208 1 109.50000 418.400000
1101 13354 6209 1 109.50000 418.400000
3236 13354 6208 1 109.50000 418.400000
3236 13354 6209 1 109.50000 418.400000
6208 13354 6209 1 109.50000 418.400000
6210 13355 6211 1 109.50000 418.400000
6210 13355 6212 1 109.50000 418.400000
6210 13355 6213 1 109.50000 418.400000
6211 13355 6212 1 109.50000 418.400000
6211 13355 6213 1 109.50000 418.400000
6212 13355 6213 1 109.50000 418.400000
939 13356 4632 1 109.50000 418.400000
939 13356 6120 1 109.50000 418.400000
939 13356 6214 1 109.50000 418.400000
4632 13356 6120 1 109.50000 418.400000
4632 13356 6214 1 109.50000 418.400000
6120 13356 6214 1 109.50000 418.400000
3672 13357 6215 1 109.50000 418.400000
3672 13357 6216 1 109.50000 418.400000
3672 13357 6217 1 109.50000 418.400000
6215 13357 6216 1 109.50000 418.400000
6215 13357 6217 1 109.50000 418.400000
6216 13357 6217 1 109.50000 418.400000
473 13358 3491 1 109.50000 418.400000
473 13358 6218 1 109.50000 418.400000
473 13358 6219 1 109.50000 418.400000
3491 13358 6218 1 109.50000 418.400000
3491 13358 6219 1 109.50000 418.400000
6218 13358 6219 1 109.50000 418.400000
392 13359 5556 1 109.50000 418.400000
392 13359 6136 1 109.50000 418.400000
392 13359 6220 1 109.50000 418.400000
5556 13359 6136 1 109.50000 418.400000
5556 13359 6220 1 109.50000 418.400000
6136 13359 6220 1 109.50000 418.400000
2054 13360 2758 1 109.50000 418.400000
2054 13360 6221 1 109.50000 418.400000
2054 13360 6222 1 109.50000 418.400000
2758 13360 6221 1 109.50000 418.400000
2758 13360 6222 1 109.50000 418.400000
6221 13360 6222 1 109.50000 418.400000
449 13361 6223 1 109.50000 418.400000
449 13361 6224 1 109.50000 418.400000
449 13361 6225 1 109.50000 418.400000
6223 13361 6224 1 109.50000 418.400000
6223 13361 6225 1 109.50000 418.400000
6224 13361 6225 1 109.50000 418.400000
1091 13362 6226 1 109.50000 418.400000
1091 13362 6227 1 109.50000 418.400000
1091 13362 6228 1 109.50000 418.400000
6226 13362 6227 1 109.50000 418.400000
6226 13362 6228 1 109.50000 418.400000
6227 13362 6228 1 109.50000 418.400000
5498 13363 6229 1 109.50000 418.400000
5498 13363 11298 1 109.50000 418.400000
5498 13363 11330 1 109.50000 418.400000
6229 13363 11298 1 109.50000 418.400000
6229 13363 11330 1 109.50000 418.400000
11298 13363 11330 1 109.50000 418.400000
6230 13364 6231 1 109.50000 418.400000
6230 13364 6232 1 109.50000 418.400000
6230 13364 11496 1 109.50000 418.400000
6231 13364 6232 1 109.50000 418.400000
6231 13364 11496 1 109.50000 418.400000
6232 13364 11496 1 109.50000 418.400000
1121 13365 4211 1 109.50000 418.400000
1121 13365 6013 1 109.50000 418.400000
1121 13365 6235 1 109.50000 418.400000
4211 13365 6013 1 109.50000 418.400000
4211 13365 6235 1 109.50000 418.400000
6013 13365 6235 1 109.50000 418.400000
1232 13366 6236 1 109.50000 418.400000
1232 13366 6237 1 109.50000 418.400000
1232 13366 6238 1 109.50000 418.400000
6236 13366 6237 1 109.50000 418.400000
6236 13366 6238 1 109.50000 418.400000
6237 13366 6238 1 109.50000 418.400000
6239 13367 6240 1 109.50000 418.400000
6239 13367 6241 1 109.50000 418.400000
6239 13367 6242 1 109.50000 418.400000
6240 13367 6241 1 109.50000 418.400000
6240 13367 6242 1 109.50000 418.400000
6241 13367 6242 1 109.50000 418.400000
1891 13368 4578 1 109.50000 418.400000
1891 13368 6243 1 109.50000 418.400000
1891 13368 6244 1 109.50000 418.400000
4578 13368 6243 1 109.50000 418.400000
4578 13368 6244 1 109.50000 418.400000
6243 13368 6244 1 109.50000 418.400000
2307 13369 3952 1 109.50000 418.400000
2307 13369 6245 1 109.50000 418.400000
2307 13369 11040 1 109.50000 418.400000
3952 13369 6245 1 109.50000 418.400000
3952 13369 11040 1 109.50000 418.400000
6245 13369 11040 1 109.50000 418.400000
413 13370 2897 1 109.50000 418.400000
413 13370 6246 1 109.50000 418.400000
413 13370 6247 1 109.50000 418.400000
2897 13370 6246 1 109.50000 418.400000
2897 13370 6247 1 109.50000 418.400000
6246 13370 6247 1 109.50000 418.400000
850 13371 6248 1 109.50000 418.400000
850 13371 6249 1 109.50000 418.400000
850 13371 6250 1 109.50000 418.400000
6248 13371 6249 1 109.50000 418.400000
6248 13371 6250 1 109.50000 418.400000
6249 13371 6250 1 109.50000 418.400000
3587 13372 3588 1 109.50000 418.400000
3587 13372 4775 1 109.50000 418.400000
3587 13372 6251 1 109.50000 418.400000
3588 13372 4775 1 109.50000 418.400000
3588 13372 6251 1 109.50000 418.400000
4775 13372 6251 1 109.50000 418.400000
878 13373 6252 1 109.50000 418.400000
878 13373 6253 1 109.50000 418.400000
878 13373 6254 1 109.50000 418.400000
6252 13373 6253 1 109.50000 418.400000
6252 13373 6254 1 109.50000 418.400000
6253 13373 6254 1 109.50000 418.400000
6255 13374 6257 1 109.50000 418.400000
6255 13374 6258 1 109.50000 418.400000
6255 13374 8022 1 109.50000 418.400000
6257 13374 6258 1 109.50000 418.400000
6257 13374 8022 1 109.50000 418.400000
6258 13374 8022 1 109.50000 418.400000
4441 13375 6259 1 109.50000 418.400000
4441 13375 6260 1 109.50000 418.400000
4441 13375 6261 1 109.50000 418.400000
6259 13375 6260 1 109.50000 418.400000
6259 13375 6261 1 109.50000 418.400000
6260 13375 6261 1 109.50000 418.400000
6262 13376 6263 1 109.50000 418.400000
6262 13376 6264 1 109.50000 418.400000
6262 13376 11349 1 109.50000 418.400000
6263 13376 6264 1 109.50000 418.400000
6263 13376 11349 1 109.50000 418.400000
6264 13376 11349 1 109.50000 418.400000
2327 13377 2964 1 109.50000 418.400000
2327 13377 6265 1 109.50000 418.400000
2327 13377 11384 1 109.50000 418.400000
2964 13377 6265 1 109.50000 418.400000
2964 13377 11384 1 109.50000 418.400000
6265 13377 11384 1 109.50000 418.400000
371 13378 372 1 109.50000 418.400000
371 13378 373 1 109.50000 418.400000
371 13378 6180 1 109.50000 418.400000
372 13378 373 1 109.50000 418.400000
372 13378 6180 1 109.50000 418.400000
373 13378 6180 1 109.50000 418.400000
5000 13379 6267 1 109.50000 418.400000
5000 13379 11274 1 109.50000 418.400000
5000 13379 11537 1 109.50000 418.400000
6267 13379 11274 1 109.50000 418.400000
6267 13379 11537 1 109.50000 418.400000
11274 13379 11537 1 109.50000 418.400000
6268 13380 6269 1 109.50000 418.400000
6268 13380 6270 1 109.50000 418.400000
6268 13380 6271 1 109.50000 418.400000
6269 13380 6270 1 109.50000 418.400000
6269 13380 6271 1 109.50000 418.400000
6270 13380 6271 1 109.50000 418.400000
6272 13381 6273 1 109.50000 418.400000
6272 13381 6274 1 109.50000 418.400000
6272 13381 6645 1 109.50000 418.400000
6273 13381 6274 1 109.50000 418.400000
6273 13381 6645 1 109.50000 418.400000
6274 13381 6645 1 109.50000 418.400000
6278 13382 6279 1 109.50000 418.400000
6278 13382 6280 1 109.50000 418.400000
6278 13382 6281 1 109.50000 418.400000
6279 13382 6280 1 109.50000 418.400000
6279 13382 6281 1 109.50000 418.400000
6280 13382 6281 1 109.50000 418.400000
1475 13383 2616 1 109.50000 418.400000
1475 13383 3373 1 109.50000 418.400000
1475 13383 6282 1 109.50000 418.400000
2616 13383 3373 1 109.50000 418.400000
2616 13383 6282 1 109.50000 418.400000
3373 13383 6282 1 109.50000 418.400000
5812 13384 6283 1 109.50000 418.400000
5812 13384 6284 1 109.50000 418.400000
5812 13384 6285 1 109.50000 418.400000
6283 13384 6284 1 109.50000 418.400000
6283 13384 6285 1 109.50000 418.400000
6284 13384 6285 1 109.50000 418.400000
1277 13385 3654 1 109.50000 418.400000
1277 13385 6286 1 109.50000 418.400000
1277 13385 6287 1 109.50000 418.400000
3654 13385 6286 1 109.50000 418.400000
3654 13385 6287 1 109.50000 418.400000
6286 13385 6287 1 109.50000 418.400000
1916 13386 5293 1 109.50000 418.400000
1916 13386 6288 1 109.50000 418.400000
1916 13386 6289 1 109.50000 418.400000
5293 13386 6288 1 109.50000 418.400000
5293 13386 6289 1 109.50000 418.400000
6288 13386 6289 1 109.50000 418.400000
1275 13387 3964 1 109.50000 418.400000
1275 13387 6290 1 109.50000 418.400000
1275 13387 6291 1 109.50000 418.400000
3964 13387 6290 1 109.50000 418.400000
3964 13387 6291 1 109.50000 418.400000
6290 13387 6291 1 109.50000 418.400000
5873 13388 6292 1 109.50000 418.400000
5873 13388 6293 1 109.50000 418.400000
5873 13388 6294 1 109.50000 418.400000
6292 13388 6293 1 109.50000 418.400000
6292 13388 6294 1 109.50000 418.400000
6293 13388 6294 1 109.50000 418.400000
3286 13389 6008 1 109.50000 418.400000
3286 13389 6295 1 109.50000 418.400000
3286 13389 6296 1 109.50000 418.400000
6008 13389 6295 1 109.50000 418.400000
6008 13389 6296 1 109.50000 418.400000
6295 13389 6296 1 109.50000 418.400000
6297 13390 6298 1 109.50000 418.400000
6297 13390 6299 1 109.50000 418.400000
6297 13390 6300 1 109.50000 418.400000
6298 13390 6299 1 109.50000 418.400000
6298 13390 6300 1 109.50000 418.400000
6299 13390 6300 1 109.50000 418.400000
1757 13391 6301 1 109.50000 418.400000
1757 13391 6302 1 109.50000 418.400000
1757 13391 6303 1 109.50000 418.400000
6301 13391 6302 1 109.50000 418.400000
6301 13391 6303 1 109.50000 418.400000
6302 13391 6303 1 109.50000 418.400000
4131 13392 4973 1 109.50000 418.400000
4131 13392 6304 1 109.50000 418.400000
4131 13392 6305 1 109.50000 418.400000
4973 13392 6304 1 109.50000 418.400000
4973 13392 6305 1 109.50000 418.400000
6304 13392 6305 1 109.50000 418.400000
3368 13393 6306 1 109.50000 418.400000
3368 13393 6307 1 109.50000 418.400000
3368 13393 6308 1 109.50000 418.400000
6306 13393 6307 1 109.50000 418.400000
6306 13393 6308 1 109.50000 418.400000
6307 13393 6308 1 109.50000 418.400000
5218 13394 6309 1 109.50000 418.400000
5218 13394 6310 1 109.50000 418.400000
5218 13394 11289 1 109.50000 418.400000
6309 13394 6310 1 109.50000 418.400000
6309 13394 11289 1 109.50000 418.400000
6310 13394 11289 1 109.50000 418.400000
1996 13395 6311 1 109.50000 418.400000
1996 13395 6312 1 109.50000 418.400000
1996 13395 6313 1 109.50000 418.400000
6311 13395 6312 1 109.50000 418.400000
6311 13395 6313 1 109.50000 418.400000
6312 13395 6313 1 109.50000 418.400000
4047 13396 6316 1 109.50000 418.400000
4047 13396 6317 1 109.50000 418.400000
4047 13396 6318 1 109.50000 418.400000
6316 13396 6317 1 109.50000 418.400000
6316 13396 6318 1 109.50000 418.400000
6317 13396 6318 1 109.50000 418.400000
6319 13397 6320 1 109.50000 418.400000
6319 13397 6321 1 109.50000 418.400000
6319 13397 6322 1 109.50000 418.400000
6320 13397 6321 1 109.50000 418.400000
6320 13397 6322 1 109.50000 418.400000
6321 13397 6322 1 109.50000 418.400000
5166 13398 5675 1 109.50000 418.400000
5166 13398 6323 1 109.50000 418.400000
5166 13398 6324 1 109.50000 418.400000
5675 13398 6323 1 109.50000 418.400000
5675 13398 6324 1 109.50000 418.400000
6323 13398 6324 1 109.50000 418.400000
2126 13399 6325 1 109.50000 418.400000
2126 13399 6326 1 109.50000 418.400000
2126 13399 6327 1 109.50000 418.400000
6325 13399 6326 1 109.50000 418.400000
6325 13399 6327 1 109.50000 418.400000
6326 13399 6327 1 109.50000 418.400000
2735 13400 6328 1 109.50000 418.400000
2735 13400 6329 1 109.50000 418.400000
2735 13400 6330 1 109.50000 418.400000
6328 13400 6329 1 109.50000 418.400000
6328 13400 6330 1 109.50000 418.400000
6329 13400 6330 1 109.50000 418.400000
6331 13401 6332 1 109.50000 418.400000
6331 13401 6333 1 109.50000 418.400000
6331 13401 6334 1 109.50000 418.400000
6332 13401 6333 1 109.50000 418.400000
6332 13401 6334 1 109.50000 418.400000
6333 13401 6334 1 109.50000 418.400000
2557 13402 2560 1 109.50000 418.400000
2557 13402 6335 1 109.50000 418.400000
2557 13402 11528 1 109.50000 418.400000
2560 13402 6335 1 109.50000 418.400000
2560 13402 11528 1 109.50000 418.400000
6335 13402 11528 1 109.50000 418.400000
87 13403 5533 1 109.50000 418.400000
87 13403 6336 1 109.50000 418.400000
87 13403 9085 1 109.50000 418.400000
5533 13403 6336 1 109.50000 418.400000
5533 13403 9085 1 109.50000 418.400000
6336 13403 9085 1 109.50000 418.400000
3369 13404 5534 1 109.50000 418.400000
3369 13404 6338 1 109.50000 418.400000
3369 13404 6339 1 109.50000 418.400000
5534 13404 6338 1 109.50000 418.400000
5534 13404 6339 1 109.50000 418.400000
6338 13404 6339 1 109.50000 418.400000
4223 13405 6340 1 109.50000 418.400000
4223 13405 6341 1 109.50000 418.400000
4223 13405 6342 1 109.50000 418.400000
6340 13405 6341 1 109.50000 418.400000
6340 13405 6342 1 109.50000 418.400000
6341 13405 6342 1 109.50000 418.400000
1950 13406 2017 1 109.50000 418.400000
1950 13406 6343 1 109.50000 418.400000
1950 13406 6345 1 109.50000 418.400000
2017 13406 6343 1 109.50000 418.400000
2017 13406 6345 1 109.50000 418.400000
6343 13406 6345 1 109.50000 418.400000
6346 13407 6347 1 109.50000 418.400000
6346 13407 6348 1 109.50000 418.400000
6346 13407 6349 1 109.50000 418.400000
6347 13407 6348 1 109.50000 418.400000
6347 13407 6349 1 109.50000 418.400000
6348 13407 6349 1 109.50000 418.400000
6350 13408 6351 1 109.50000 418.400000
6350 13408 11223 1 109.50000 418.400000
6350 13408 11533 1 109.50000 418.400000
6351 13408 11223 1 109.50000 418.400000
6351 13408 11533 1 109.50000 418.400000
11223 13408 11533 1 109.50000 418.400000
2052 13409 2719 1 109.50000 418.400000
2052 13409 6352 1 109.50000 418.400000
2052 13409 6353 1 109.50000 418.400000
2719 13409 6352 1 109.50000 418.400000
2719 13409 6353 1 109.50000 418.400000
6352 13409 6353 1 109.50000 418.400000
5113 13410 5115 1 109.50000 418.400000
5113 13410 6354 1 109.50000 418.400000
5113 13410 6355 1 109.50000 418.400000
5115 13410 6354 1 109.50000 418.400000
5115 13410 6355 1 109.50000 418.400000
6354 13410 6355 1 109.50000 418.400000
423 13411 3117 1 109.50000 418.400000
423 13411 4717 1 109.50000 418.400000
423 13411 6357 1 109.50000 418.400000
3117 13411 4717 1 109.50000 418.400000
3117 13411 6357 1 109.50000 418.400000
4717 13411 6357 1 109.50000 418.400000
3090 13412 5951 1 109.50000 418.400000
3090 13412 6358 1 109.50000 418.400000
3090 13412 6359 1 109.50000 418.400000
5951 13412 6358 1 109.50000 418.400000
5951 13412 6359 1 109.50000 418.400000
6358 13412 6359 1 109.50000 418.400000
6360 13413 6362 1 109.50000 418.400000
6360 13413 6363 1 109.50000 418.400000
6360 13413 7308 1 109.50000 418.400000
6362 13413 6363 1 109.50000 418.400000
6362 13413 7308 1 109.50000 418.400000
6363 13413 7308 1 109.50000 418.400000
6364 13414 6365 1 109.50000 418.400000
6364 13414 6366 1 109.50000 418.400000
6364 13414 6367 1 109.50000 418.400000
6365 13414 6366 1 109.50000 418.400000
6365 13414 6367 1 109.50000 418.400000
6366 13414 6367 1 109.50000 418.400000
3994 13415 6368 1 109.50000 418.400000
3994 13415 6369 1 109.50000 418.400000
3994 13415 6370 1 109.50000 418.400000
6368 13415 6369 1 109.50000 418.400000
6368 13415 6370 1 109.50000 418.400000
6369 13415 6370 1 109.50000 418.400000
2967 13416 6371 1 109.50000 418.400000
2967 13416 6372 1 109.50000 418.400000
2967 13416 6373 1 109.50000 418.400000
6371 13416 6372 1 109.50000 418.400000
6371 13416 6373 1 109.50000 418.400000
6372 13416 6373 1 109.50000 418.400000
5340 13417 6313 1 109.50000 418.400000
5340 13417 6374 1 109.50000 418.400000
5340 13417 6375 1 109.50000 418.400000
6313 13417 6374 1 109.50000 418.400000
6313 13417 6375 1 109.50000 418.400000
6374 13417 6375 1 109.50000 418.400000
515 13418 5700 1 109.50000 418.400000
515 13418 6376 1 109.50000 418.400000
515 13418 6377 1 109.50000 418.400000
5700 13418 6376 1 109.50000 418.400000
5700 13418 6377 1 109.50000 418.400000
6376 13418 6377 1 109.50000 418.400000
6378 13419 6379 1 109.50000 418.400000
6378 13419 6380 1 109.50000 418.400000
6378 13419 11533 1 109.50000 418.400000
6379 13419 6380 1 109.50000 418.400000
6379 13419 11533 1 109.50000 418.400000
6380 13419 11533 1 109.50000 418.400000
818 13420 2222 1 109.50000 418.400000
818 13420 5510 1 109.50000 418.400000
818 13420 6381 1 109.50000 418.400000
2222 13420 5510 1 109.50000 418.400000
2222 13420 6381 1 109.50000 418.400000
5510 13420 6381 1 109.50000 418.400000
5762 13421 6382 1 109.50000 418.400000
5762 13421 11166 1 109.50000 418.400000
5762 13421 11293 1 109.50000 418.400000
6382 13421 11166 1 109.50000 418.400000
6382 13421 11293 1 109.50000 418.400000
11166 13421 11293 1 109.50000 418.400000
4513 13422 6383 1 109.50000 418.400000
4513 13422 6384 1 109.50000 418.400000
4513 13422 11504 1 109.50000 418.400000
6383 13422 6384 1 109.50000 418.400000
6383 13422 11504 1 109.50000 418.400000
6384 13422 11504 1 109.50000 418.400000
6387 13423 6388 1 109.50000 418.400000
6387 13423 6389 1 109.50000 418.400000
6387 13423 6390 1 109.50000 418.400000
6388 13423 6389 1 109.50000 418.400000
6388 13423 6390 1 109.50000 418.400000
6389 13423 6390 1 109.50000 418.400000
6391 13424 6392 1 109.50000 418.400000
6391 13424 6393 1 109.50000 418.400000
6391 13424 6394 1 109.50000 418.400000
6392 13424 6393 1 109.50000 418.400000
6392 13424 6394 1 109.50000 418.400000
6393 13424 6394 1 109.50000 418.400000
6395 13425 6396 1 109.50000 418.400000
6395 13425 6397 1 109.50000 418.400000
6395 13425 11517 1 109.50000 418.400000
6396 13425 6397 1 109.50000 418.400000
6396 13425 11517 1 109.50000 418.400000
6397 13425 11517 1 109.50000 418.400000
5661 13426 6398 1 109.50000 418.400000
5661 13426 6399 1 109.50000 418.400000
5661 13426 6778 1 109.50000 418.400000
6398 13426 6399 1 109.50000 418.400000
6398 13426 6778 1 109.50000 418.400000
6399 13426 6778 1 109.50000 418.400000
6402 13427 6403 1 109.50000 418.400000
6402 13427 10022 1 109.50000 418.400000
6402 13427 10024 1 109.50000 418.400000
6403 13427 10022 1 109.50000 418.400000
6403 13427 10024 1 109.50000 418.400000
10022 13427 10024 1 109.50000 418.400000
6404 13428 6405 1 109.50000 418.400000
6404 13428 6406 1 109.50000 418.400000
6404 13428 11328 1 109.50000 418.400000
6405 13428 6406 1 109.50000 418.400000
6405 13428 11328 1 109.50000 418.400000
6406 13428 11328 1 109.50000 418.400000
3944 13429 5219 1 109.50000 418.400000
3944 13429 6407 1 109.50000 418.400000
3944 13429 6408 1 109.50000 418.400000
5219 13429 6407 1 109.50000 418.400000
5219 13429 6408 1 109.50000 418.400000
6407 13429 6408 1 109.50000 418.400000
2615 13430 4908 1 109.50000 418.400000
2615 13430 6392 1 109.50000 418.400000
2615 13430 6409 1 109.50000 418.400000
4908 13430 6392 1 109.50000 418.400000
4908 13430 6409 1 109.50000 418.400000
6392 13430 6409 1 109.50000 418.400000
1025 13431 4844 1 109.50000 418.400000
1025 13431 6410 1 109.50000 418.400000
1025 13431 6411 1 109.50000 418.400000
4844 13431 6410 1 109.50000 418.400000
4844 13431 6411 1 109.50000 418.400000
6410 13431 6411 1 109.50000 418.400000
1420 13432 1734 1 109.50000 418.400000
1420 13432 6414 1 109.50000 418.400000
1420 13432 7233 1 109.50000 418.400000
1734 13432 6414 1 109.50000 418.400000
1734 13432 7233 1 109.50000 418.400000
6414 13432 7233 1 109.50000 418.400000
686 13433 4435 1 109.50000 418.400000
686 13433 4862 1 109.50000 418.400000
686 13433 6415 1 109.50000 418.400000
4435 13433 4862 1 109.50000 418.400000
4435 13433 6415 1 109.50000 418.400000
4862 13433 6415 1 109.50000 418.400000
5027 13434 6416 1 109.50000 418.400000
5027 13434 6418 1 109.50000 418.400000
5027 13434 7865 1 109.50000 418.400000
6416 13434 6418 1 109.50000 418.400000
6416 13434 7865 1 109.50000 418.400000
6418 13434 7865 1 109.50000 418.400000
3813 13435 4730 1 109.50000 418.400000
3813 13435 6419 1 109.50000 418.400000
3813 13435 6420 1 109.50000 418.400000
4730 13435 6419 1 109.50000 418.400000
4730 13435 6420 1 109.50000 418.400000
6419 13435 6420 1 109.50000 418.400000
808 13436 3227 1 109.50000 418.400000
808 13436 6421 1 109.50000 418.400000
808 13436 6422 1 109.50000 418.400000
3227 13436 6421 1 109.50000 418.400000
3227 13436 6422 1 109.50000 418.400000
6421 13436 6422 1 109.50000 418.400000
3302 13437 4511 1 109.50000 418.400000
3302 13437 6423 1 109.50000 418.400000
3302 13437 11504 1 109.50000 418.400000
4511 13437 6423 1 109.50000 418.400000
4511 13437 11504 1 109.50000 418.400000
6423 13437 11504 1 109.50000 418.400000
6424 13438 6425 1 109.50000 418.400000
6424 13438 6426 1 109.50000 418.400000
6424 13438 6427 1 109.50000 418.400000
6425 13438 6426 1 109.50000 418.400000
6425 13438 6427 1 109.50000 418.400000
6426 13438 6427 1 109.50000 418.400000
4430 13439 4902 1 109.50000 418.400000
4430 13439 6428 1 109.50000 418.400000
4430 13439 6429 1 109.50000 418.400000
4902 13439 6428 1 109.50000 418.400000
4902 13439 6429 1 109.50000 418.400000
6428 13439 6429 1 109.50000 418.400000
163 13440 5067 1 109.50000 418.400000
163 13440 6430 1 109.50000 418.400000
163 13440 6431 1 109.50000 418.400000
5067 13440 6430 1 109.50000 418.400000
5067 13440 6431 1 109.50000 418.400000
6430 13440 6431 1 109.50000 418.400000
3239 13441 5007 1 109.50000 418.400000
3239 13441 6432 1 109.50000 418.400000
3239 13441 6433 1 109.50000 418.400000
5007 13441 6432 1 109.50000 418.400000
5007 13441 6433 1 109.50000 418.400000
6432 13441 6433 1 109.50000 418.400000
6406 13442 6434 1 109.50000 418.400000
6406 13442 6435 1 109.50000 418.400000
6406 13442 6436 1 109.50000 418.400000
6434 13442 6435 1 109.50000 418.400000
6434 13442 6436 1 109.50000 418.400000
6435 13442 6436 1 109.50000 418.400000
134 13443 5025 1 109.50000 418.400000
134 13443 6438 1 109.50000 418.400000
134 13443 6439 1 109.50000 418.400000
5025 13443 6438 1 109.50000 418.400000
5025 13443 6439 1 109.50000 418.400000
6438 13443 6439 1 109.50000 418.400000
5104 13444 6440 1 109.50000 418.400000
5104 13444 6441 1 109.50000 418.400000
5104 13444 6442 1 109.50000 418.400000
6440 13444 6441 1 109.50000 418.400000
6440 13444 6442 1 109.50000 418.400000
6441 13444 6442 1 109.50000 418.400000
6443 13445 6444 1 109.50000 418.400000
6443 13445 6445 1 109.50000 418.400000
6443 13445 6446 1 109.50000 418.400000
6444 13445 6445 1 109.50000 418.400000
6444 13445 6446 1 109.50000 418.400000
6445 13445 6446 1 109.50000 418.400000
1261 13446 6447 1 109.50000 418.400000
1261 13446 6448 1 109.50000 418.400000
1261 13446 6449 1 109.50000 418.400000
6447 13446 6448 1 109.50000 418.400000
6447 13446 6449 1 109.50000 418.400000
6448 13446 6449 1 109.50000 418.400000
5992 13447 6450 1 109.50000 418.400000
5992 13447 6451 1 109.50000 418.400000
5992 13447 6452 1 109.50000 418.400000
6450 13447 6451 1 109.50000 418.400000
6450 13447 6452 1 109.50000 418.400000
6451 13447 6452 1 109.50000 418.400000
3290 13448 6453 1 109.50000 418.400000
3290 13448 6454 1 109.50000 418.400000
3290 13448 6455 1 109.50000 418.400000
6453 13448 6454 1 109.50000 418.400000
6453 13448 6455 1 109.50000 418.400000
6454 13448 6455 1 109.50000 418.400000
6456 13449 6457 1 109.50000 418.400000
6456 13449 6458 1 109.50000 418.400000
6456 13449 6459 1 109.50000 418.400000
6457 13449 6458 1 109.50000 418.400000
6457 13449 6459 1 109.50000 418.400000
6458 13449 6459 1 109.50000 418.400000
6460 13450 6461 1 109.50000 418.400000
6460 13450 6462 1 109.50000 418.400000
6460 13450 6463 1 109.50000 418.400000
6461 13450 6462 1 109.50000 418.400000
6461 13450 6463 1 109.50000 418.400000
6462 13450 6463 1 109.50000 418.400000
5519 13451 6464 1 109.50000 418.400000
5519 13451 6465 1 109.50000 418.400000
5519 13451 6466 1 109.50000 418.400000
6464 13451 6465 1 109.50000 418.400000
6464 13451 6466 1 109.50000 418.400000
6465 13451 6466 1 109.50000 418.400000
1020 13452 2731 1 109.50000 418.400000
1020 13452 6467 1 109.50000 418.400000
1020 13452 11479 1 109.50000 418.400000
2731 13452 6467 1 109.50000 418.400000
2731 13452 11479 1 109.50000 418.400000
6467 13452 11479 1 109.50000 418.400000
1421 13453 4026 1 109.50000 418.400000
1421 13453 4027 1 109.50000 418.400000
1421 13453 6469 1 109.50000 418.400000
4026 13453 4027 1 109.50000 418.400000
4026 13453 6469 1 109.50000 418.400000
4027 13453 6469 1 109.50000 418.400000
1000 13454 4411 1 109.50000 418.400000
1000 13454 6471 1 109.50000 418.400000
1000 13454 6472 1 109.50000 418.400000
4411 13454 6471 1 109.50000 418.400000
4411 13454 6472 1 109.50000 418.400000
6471 13454 6472 1 109.50000 418.400000
2892 13455 6473 1 109.50000 418.400000
2892 13455 6474 1 109.50000 418.400000
2892 13455 6475 1 109.50000 418.400000
6473 13455 6474 1 109.50000 418.400000
6473 13455 6475 1 109.50000 418.400000
6474 13455 6475 1 109.50000 418.400000
1235 13456 6476 1 109.50000 418.400000
1235 13456 6477 1 109.50000 418.400000
1235 13456 6478 1 109.50000 418.400000
6476 13456 6477 1 109.50000 418.400000
6476 13456 6478 1 109.50000 418.400000
6477 13456 6478 1 109.50000 418.400000
1605 13457 3649 1 109.50000 418.400000
1605 13457 3799 1 109.50000 418.400000
1605 13457 6479 1 109.50000 418.400000
3649 13457 3799 1 109.50000 418.400000
3649 13457 6479 1 109.50000 418.400000
3799 13457 6479 1 109.50000 418.400000
4015 13458 6480 1 109.50000 418.400000
4015 13458 6481 1 109.50000 418.400000
4015 13458 6482 1 109.50000 418.400000
6480 13458 6481 1 109.50000 418.400000
6480 13458 6482 1 109.50000 418.400000
6481 13458 6482 1 109.50000 418.400000
3341 13459 6483 1 109.50000 418.400000
3341 13459 6484 1 109.50000 418.400000
3341 13459 6485 1 109.50000 418.400000
6483 13459 6484 1 109.50000 418.400000
6483 13459 6485 1 109.50000 418.400000
6484 13459 6485 1 109.50000 418.400000
569 13460 1655 1 109.50000 418.400000
569 13460 3453 1 109.50000 418.400000
569 13460 6489 1 109.50000 418.400000
1655 13460 3453 1 109.50000 418.400000
1655 13460 6489 1 109.50000 418.400000
3453 13460 6489 1 109.50000 418.400000
3298 13461 3300 1 109.50000 418.400000
3298 13461 6490 1 109.50000 418.400000
3298 13461 6491 1 109.50000 418.400000
3300 13461 6490 1 109.50000 418.400000
3300 13461 6491 1 109.50000 418.400000
6490 13461 6491 1 109.50000 418.400000
6493 13462 6494 1 109.50000 418.400000
6493 13462 6495 1 109.50000 418.400000
6493 13462 6496 1 109.50000 418.400000
6494 13462 6495 1 109.50000 418.400000
6494 13462 6496 1 109.50000 418.400000
6495 13462 6496 1 109.50000 418.400000
6497 13463 6498 1 109.50000 418.400000
6497 13463 6499 1 109.50000 418.400000
6497 13463 6500 1 109.50000 418.400000
6498 13463 6499 1 109.50000 418.400000
6498 13463 6500 1 109.50000 418.400000
6499 13463 6500 1 109.50000 418.400000
1716 13464 5704 1 109.50000 418.400000
1716 13464 6501 1 109.50000 418.400000
1716 13464 6502 1 109.50000 418.400000
5704 13464 6501 1 109.50000 418.400000
5704 13464 6502 1 109.50000 418.400000
6501 13464 6502 1 109.50000 418.400000
420 13465 4794 1 109.50000 418.400000
420 13465 6503 1 109.50000 418.400000
420 13465 6504 1 109.50000 418.400000
4794 13465 6503 1 109.50000 418.400000
4794 13465 6504 1 109.50000 418.400000
6503 13465 6504 1 109.50000 418.400000
216 13466 1144 1 109.50000 418.400000
216 13466 6505 1 109.50000 418.400000
216 13466 6506 1 109.50000 418.400000
1144 13466 6505 1 109.50000 418.400000
1144 13466 6506 1 109.50000 418.400000
6505 13466 6506 1 109.50000 418.400000
1097 13467 3532 1 109.50000 418.400000
1097 13467 5312 1 109.50000 418.400000
1097 13467 6507 1 109.50000 418.400000
3532 13467 5312 1 109.50000 418.400000
3532 13467 6507 1 109.50000 418.400000
5312 13467 6507 1 109.50000 418.400000
6508 13468 6509 1 109.50000 418.400000
6508 13468 6510 1 109.50000 418.400000
6508 13468 6511 1 109.50000 418.400000
6509 13468 6510 1 109.50000 418.400000
6509 13468 6511 1 109.50000 418.400000
6510 13468 6511 1 109.50000 418.400000
1872 13469 5784 1 109.50000 418.400000
1872 13469 6062 1 109.50000 418.400000
1872 13469 6512 1 109.50000 418.400000
5784 13469 6062 1 109.50000 418.400000
5784 13469 6512 1 109.50000 418.400000
6062 13469 6512 1 109.50000 418.400000
2266 13470 5983 1 109.50000 418.400000
2266 13470 6513 1 109.50000 418.400000
2266 13470 6514 1 109.50000 418.400000
5983 13470 6513 1 109.50000 418.400000
5983 13470 6514 1 109.50000 418.400000
6513 13470 6514 1 109.50000 418.400000
2686 13471 4741 1 109.50000 418.400000
2686 13471 6515 1 109.50000 418.400000
2686 13471 6516 1 109.50000 418.400000
4741 13471 6515 1 109.50000 418.400000
4741 13471 6516 1 109.50000 418.400000
6515 13471 6516 1 109.50000 418.400000
4103 13472 6517 1 109.50000 418.400000
4103 13472 6518 1 109.50000 418.400000
4103 13472 8916 1 109.50000 418.400000
6517 13472 6518 1 109.50000 418.400000
6517 13472 8916 1 109.50000 418.400000
6518 13472 8916 1 109.50000 418.400000
491 13473 5846 1 109.50000 418.400000
491 13473 11196 1 109.50000 418.400000
491 13473 11420 1 109.50000 418.400000
5846 13473 11196 1 109.50000 418.400000
5846 13473 11420 1 109.50000 418.400000
11196 13473 11420 1 109.50000 418.400000
3729 13474 6520 1 109.50000 418.400000
3729 13474 6521 1 109.50000 418.400000
3729 13474 9788 1 109.50000 418.400000
6520 13474 6521 1 109.50000 418.400000
6520 13474 9788 1 109.50000 418.400000
6521 13474 9788 1 109.50000 418.400000
1650 13475 6522 1 109.50000 418.400000
1650 13475 6523 1 109.50000 418.400000
1650 13475 6524 1 109.50000 418.400000
6522 13475 6523 1 109.50000 418.400000
6522 13475 6524 1 109.50000 418.400000
6523 13475 6524 1 109.50000 418.400000
4937 13476 6525 1 109.50000 418.400000
4937 13476 10238 1 109.50000 418.400000
4937 13476 11505 1 109.50000 418.400000
6525 13476 10238 1 109.50000 418.400000
6525 13476 11505 1 109.50000 418.400000
10238 13476 11505 1 109.50000 418.400000
1664 13477 6527 1 109.50000 418.400000
1664 13477 6528 1 109.50000 418.400000
1664 13477 6529 1 109.50000 418.400000
6527 13477 6528 1 109.50000 418.400000
6527 13477 6529 1 109.50000 418.400000
6528 13477 6529 1 109.50000 418.400000
505 13478 1594 1 109.50000 418.400000
505 13478 6530 1 109.50000 418.400000
505 13478 6531 1 109.50000 418.400000
1594 13478 6530 1 109.50000 418.400000
1594 13478 6531 1 109.50000 418.400000
6530 13478 6531 1 109.50000 418.400000
6532 13479 6533 1 109.50000 418.400000
6532 13479 6534 1 109.50000 418.400000
6532 13479 6535 1 109.50000 418.400000
6533 13479 6534 1 109.50000 418.400000
6533 13479 6535 1 109.50000 418.400000
6534 13479 6535 1 109.50000 418.400000
667 13480 2672 1 109.50000 418.400000
667 13480 6536 1 109.50000 418.400000
667 13480 6537 1 109.50000 418.400000
2672 13480 6536 1 109.50000 418.400000
2672 13480 6537 1 109.50000 418.400000
6536 13480 6537 1 109.50000 418.400000
600 13481 5830 1 109.50000 418.400000
600 13481 6538 1 109.50000 418.400000
600 13481 6539 1 109.50000 418.400000
5830 13481 6538 1 109.50000 418.400000
5830 13481 6539 1 109.50000 418.400000
6538 13481 6539 1 109.50000 418.400000
787 13482 2709 1 109.50000 418.400000
787 13482 3980 1 109.50000 418.400000
787 13482 5754 1 109.50000 418.400000
2709 13482 3980 1 109.50000 418.400000
2709 13482 5754 1 109.50000 418.400000
3980 13482 5754 1 109.50000 418.400000
6540 13483 6541 1 109.50000 418.400000
6540 13483 6542 1 109.50000 418.400000
6540 13483 6543 1 109.50000 418.400000
6541 13483 6542 1 109.50000 418.400000
6541 13483 6543 1 109.50000 418.400000
6542 13483 6543 1 109.50000 418.400000
6544 13484 6545 1 109.50000 418.400000
6544 13484 8277 1 109.50000 418.400000
6544 13484 8279 1 109.50000 418.400000
6545 13484 8277 1 109.50000 418.400000
6545 13484 8279 1 109.50000 418.400000
8277 13484 8279 1 109.50000 418.400000
490 13485 1063 1 109.50000 418.400000
490 13485 1064 1 109.50000 418.400000
490 13485 1065 1 109.50000 418.400000
1063 13485 1064 1 109.50000 418.400000
1063 13485 1065 1 109.50000 418.400000
1064 13485 1065 1 109.50000 418.400000
552 13486 6550 1 109.50000 418.400000
552 13486 6551 1 109.50000 418.400000
552 13486 6822 1 109.50000 418.400000
6550 13486 6551 1 109.50000 418.400000
6550 13486 6822 1 109.50000 418.400000
6551 13486 6822 1 109.50000 418.400000
5902 13487 5925 1 109.50000 418.400000
5902 13487 6553 1 109.50000 418.400000
5902 13487 6554 1 109.50000 418.400000
5925 13487 6553 1 109.50000 418.400000
5925 13487 6554 1 109.50000 418.400000
6553 13487 6554 1 109.50000 418.400000
870 13488 2515 1 109.50000 418.400000
870 13488 5948 1 109.50000 418.400000
870 13488 6555 1 109.50000 418.400000
2515 13488 5948 1 109.50000 418.400000
2515 13488 6555 1 109.50000 418.400000
5948 13488 6555 1 109.50000 418.400000
499 13489 6558 1 109.50000 418.400000
499 13489 11261 1 109.50000 418.400000
499 13489 11441 1 109.50000 418.400000
6558 13489 11261 1 109.50000 418.400000
6558 13489 11441 1 109.50000 418.400000
11261 13489 11441 1 109.50000 418.400000
6559 13490 6560 1 109.50000 418.400000
6559 13490 6561 1 109.50000 418.400000
6559 13490 6562 1 109.50000 418.400000
6560 13490 6561 1 109.50000 418.400000
6560 13490 6562 1 109.50000 418.400000
6561 13490 6562 1 109.50000 418.400000
2444 13491 6563 1 109.50000 418.400000
2444 13491 6564 1 109.50000 418.400000
2444 13491 6565 1 109.50000 418.400000
6563 13491 6564 1 109.50000 418.400000
6563 13491 6565 1 109.50000 418.400000
6564 13491 6565 1 109.50000 418.400000
238 13492 3590 1 109.50000 418.400000
238 13492 6141 1 109.50000 418.400000
238 13492 6571 1 109.50000 418.400000
3590 13492 6141 1 109.50000 418.400000
3590 13492 6571 1 109.50000 418.400000
6141 13492 6571 1 109.50000 418.400000
4468 13493 6575 1 109.50000 418.400000
4468 13493 6576 1 109.50000 418.400000
4468 13493 6577 1 109.50000 418.400000
6575 13493 6576 1 109.50000 418.400000
6575 13493 6577 1 109.50000 418.400000
6576 13493 6577 1 109.50000 418.400000
1433 13494 6578 1 109.50000 418.400000
1433 13494 6579 1 109.50000 418.400000
1433 13494 6580 1 109.50000 418.400000
6578 13494 6579 1 109.50000 418.400000
6578 13494 6580 1 109.50000 418.400000
6579 13494 6580 1 109.50000 418.400000
1896 13495 6581 1 109.50000 418.400000
1896 13495 11155 1 109.50000 418.400000
1896 13495 11223 1 109.50000 418.400000
6581 13495 11155 1 109.50000 418.400000
6581 13495 11223 1 109.50000 418.400000
11155 13495 11223 1 109.50000 418.400000
6582 13496 6583 1 109.50000 418.400000
6582 13496 6584 1 109.50000 418.400000
6582 13496 6585 1 109.50000 418.400000
6583 13496 6584 1 109.50000 418.400000
6583 13496 6585 1 109.50000 418.400000
6584 13496 6585 1 109.50000 418.400000
2380 13497 3156 1 109.50000 418.400000
2380 13497 4547 1 109.50000 418.400000
2380 13497 6586 1 109.50000 418.400000
3156 13497 4547 1 109.50000 418.400000
3156 13497 6586 1 109.50000 418.400000
4547 13497 6586 1 109.50000 418.400000
6589 13498 6590 1 109.50000 418.400000
6589 13498 6591 1 109.50000 418.400000
6589 13498 6616 1 109.50000 418.400000
6590 13498 6591 1 109.50000 418.400000
6590 13498 6616 1 109.50000 418.400000
6591 13498 6616 1 109.50000 418.400000
2013 13499 2962 1 109.50000 418.400000
2013 13499 6592 1 109.50000 418.400000
2013 13499 6593 1 109.50000 418.400000
2962 13499 6592 1 109.50000 418.400000
2962 13499 6593 1 109.50000 418.400000
6592 13499 6593 1 109.50000 418.400000
418 13500 6594 1 109.50000 418.400000
418 13500 6595 1 109.50000 418.400000
418 13500 6596 1 109.50000 418.400000
6594 13500 6595 1 109.50000 418.400000
6594 13500 6596 1 109.50000 418.400000
6595 13500 6596 1 109.50000 418.400000
2345 13501 6597 1 109.50000 418.400000
2345 13501 6598 1 109.50000 418.400000
2345 13501 6599 1 109.50000 418.400000
6597 13501 6598 1 109.50000 418.400000
6597 13501 6599 1 109.50000 418.400000
6598 13501 6599 1 109.50000 418.400000
6560 13502 6600 1 109.50000 418.400000
6560 13502 6601 1 109.50000 418.400000
6560 13502 11351 1 109.50000 418.400000
6600 13502 6601 1 109.50000 418.400000
6600 13502 11351 1 109.50000 418.400000
6601 13502 11351 1 109.50000 418.400000
6602 13503 6603 1 109.50000 418.400000
6602 13503 6604 1 109.50000 418.400000
6602 13503 6605 1 109.50000 418.400000
6603 13503 6604 1 109.50000 418.400000
6603 13503 6605 1 109.50000 418.400000
6604 13503 6605 1 109.50000 418.400000
1392 13504 5733 1 109.50000 418.400000
1392 13504 6606 1 109.50000 418.400000
1392 13504 6607 1 109.50000 418.400000
5733 13504 6606 1 109.50000 418.400000
5733 13504 6607 1 109.50000 418.400000
6606 13504 6607 1 109.50000 418.400000
6608 13505 6609 1 109.50000 418.400000
6608 13505 6610 1 109.50000 418.400000
6608 13505 6611 1 109.50000 418.400000
6609 13505 6610 1 109.50000 418.400000
6609 13505 6611 1 109.50000 418.400000
6610 13505 6611 1 109.50000 418.400000
2696 13506 6612 1 109.50000 418.400000
2696 13506 6613 1 109.50000 418.400000
2696 13506 6614 1 109.50000 418.400000
6612 13506 6613 1 109.50000 418.400000
6612 13506 6614 1 109.50000 418.400000
6613 13506 6614 1 109.50000 418.400000
965 13507 6615 1 109.50000 418.400000
965 13507 6616 1 109.50000 418.400000
965 13507 6617 1 109.50000 418.400000
6615 13507 6616 1 109.50000 418.400000
6615 13507 6617 1 109.50000 418.400000
6616 13507 6617 1 109.50000 418.400000
3061 13508 4696 1 109.50000 418.400000
3061 13508 6618 1 109.50000 418.400000
3061 13508 6619 1 109.50000 418.400000
4696 13508 6618 1 109.50000 418.400000
4696 13508 6619 1 109.50000 418.400000
6618 13508 6619 1 109.50000 418.400000
2706 13509 6620 1 109.50000 418.400000
2706 13509 6621 1 109.50000 418.400000
2706 13509 7477 1 109.50000 418.400000
6620 13509 6621 1 109.50000 418.400000
6620 13509 7477 1 109.50000 418.400000
6621 13509 7477 1 109.50000 418.400000
3787 13510 5290 1 109.50000 418.400000
3787 13510 6623 1 109.50000 418.400000
3787 13510 6624 1 109.50000 418.400000
5290 13510 6623 1 109.50000 418.400000
5290 13510 6624 1 109.50000 418.400000
6623 13510 6624 1 109.50000 418.400000
6625 13511 6626 1 109.50000 418.400000
6625 13511 6627 1 109.50000 418.400000
6625 13511 6628 1 109.50000 418.400000
6626 13511 6627 1 109.50000 418.400000
6626 13511 6628 1 109.50000 418.400000
6627 13511 6628 1 109.50000 418.400000
6250 13512 6629 1 109.50000 418.400000
6250 13512 6630 1 109.50000 418.400000
6250 13512 9981 1 109.50000 418.400000
6629 13512 6630 1 109.50000 418.400000
6629 13512 9981 1 109.50000 418.400000
6630 13512 9981 1 109.50000 418.400000
4237 13513 5401 1 109.50000 418.400000
4237 13513 6631 1 109.50000 418.400000
4237 13513 6632 1 109.50000 418.400000
5401 13513 6631 1 109.50000 418.400000
5401 13513 6632 1 109.50000 418.400000
6631 13513 6632 1 109.50000 418.400000
2372 13514 2563 1 109.50000 418.400000
2372 13514 4729 1 109.50000 418.400000
2372 13514 5464 1 109.50000 418.400000
2563 13514 4729 1 109.50000 418.400000
2563 13514 5464 1 109.50000 418.400000
4729 13514 5464 1 109.50000 418.400000
4905 13515 6633 1 109.50000 418.400000
4905 13515 6634 1 109.50000 418.400000
4905 13515 6635 1 109.50000 418.400000
6633 13515 6634 1 109.50000 418.400000
6633 13515 6635 1 109.50000 418.400000
6634 13515 6635 1 109.50000 418.400000
6127 13516 6636 1 109.50000 418.400000
6127 13516 6637 1 109.50000 418.400000
6127 13516 6638 1 109.50000 418.400000
6636 13516 6637 1 109.50000 418.400000
6636 13516 6638 1 109.50000 418.400000
6637 13516 6638 1 109.50000 418.400000
512 13517 6639 1 109.50000 418.400000
512 13517 11323 1 109.50000 418.400000
512 13517 11356 1 109.50000 418.400000
6639 13517 11323 1 109.50000 418.400000
6639 13517 11356 1 109.50000 418.400000
11323 13517 11356 1 109.50000 418.400000
1808 13518 6640 1 109.50000 418.400000
1808 13518 6641 1 109.50000 418.400000
1808 13518 6642 1 109.50000 418.400000
6640 13518 6641 1 109.50000 418.400000
6640 13518 6642 1 109.50000 418.400000
6641 13518 6642 1 109.50000 418.400000
5132 13519 6644 1 109.50000 418.400000
5132 13519 6645 1 109.50000 418.400000
5132 13519 6646 1 109.50000 418.400000
6644 13519 6645 1 109.50000 418.400000
6644 13519 6646 1 109.50000 418.400000
6645 13519 6646 1 109.50000 418.400000
6648 13520 6649 1 109.50000 418.400000
6648 13520 6650 1 109.50000 418.400000
6648 13520 11480 1 109.50000 418.400000
6649 13520 6650 1 109.50000 418.400000
6649 13520 11480 1 109.50000 418.400000
6650 13520 11480 1 109.50000 418.400000
6651 13521 6652 1 109.50000 418.400000
6651 13521 6653 1 109.50000 418.400000
6651 13521 6654 1 109.50000 418.400000
6652 13521 6653 1 109.50000 418.400000
6652 13521 6654 1 109.50000 418.400000
6653 13521 6654 1 109.50000 418.400000
4393 13522 6655 1 109.50000 418.400000
4393 13522 6656 1 109.50000 418.400000
4393 13522 6657 1 109.50000 418.400000
6655 13522 6656 1 109.50000 418.400000
6655 13522 6657 1 109.50000 418.400000
6656 13522 6657 1 109.50000 418.400000
4656 13523 6659 1 109.50000 418.400000
4656 13523 6660 1 109.50000 418.400000
4656 13523 6661 1 109.50000 418.400000
6659 13523 6660 1 109.50000 418.400000
6659 13523 6661 1 109.50000 418.400000
6660 13523 6661 1 109.50000 418.400000
185 13524 5640 1 109.50000 418.400000
185 13524 6662 1 109.50000 418.400000
185 13524 6663 1 109.50000 418.400000
5640 13524 6662 1 109.50000 418.400000
5640 13524 6663 1 109.50000 418.400000
6662 13524 6663 1 109.50000 418.400000
4861 13525 6535 1 109.50000 418.400000
4861 13525 6664 1 109.50000 418.400000
4861 13525 6665 1 109.50000 418.400000
6535 13525 6664 1 109.50000 418.400000
6535 13525 6665 1 109.50000 418.400000
6664 13525 6665 1 109.50000 418.400000
4206 13526 4239 1 109.50000 418.400000
4206 13526 6666 1 109.50000 418.400000
4206 13526 6667 1 109.50000 418.400000
4239 13526 6666 1 109.50000 418.400000
4239 13526 6667 1 109.50000 418.400000
6666 13526 6667 1 109.50000 418.400000
1800 13527 6668 1 109.50000 418.400000
1800 13527 6669 1 109.50000 418.400000
1800 13527 6670 1 109.50000 418.400000
6668 13527 6669 1 109.50000 418.400000
6668 13527 6670 1 109.50000 418.400000
6669 13527 6670 1 109.50000 418.400000
4703 13528 6457 1 109.50000 418.400000
4703 13528 6671 1 109.50000 418.400000
4703 13528 6672 1 109.50000 418.400000
6457 13528 6671 1 109.50000 418.400000
6457 13528 6672 1 109.50000 418.400000
6671 13528 6672 1 109.50000 418.400000
5397 13529 6673 1 109.50000 418.400000
5397 13529 6674 1 109.50000 418.400000
5397 13529 6675 1 109.50000 418.400000
6673 13529 6674 1 109.50000 418.400000
6673 13529 6675 1 109.50000 418.400000
6674 13529 6675 1 109.50000 418.400000
2787 13530 6676 1 109.50000 418.400000
2787 13530 6677 1 109.50000 418.400000
2787 13530 6678 1 109.50000 418.400000
6676 13530 6677 1 109.50000 418.400000
6676 13530 6678 1 109.50000 418.400000
6677 13530 6678 1 109.50000 418.400000
6679 13531 6680 1 109.50000 418.400000
6679 13531 6681 1 109.50000 418.400000
6679 13531 6682 1 109.50000 418.400000
6680 13531 6681 1 109.50000 418.400000
6680 13531 6682 1 109.50000 418.400000
6681 13531 6682 1 109.50000 418.400000
203 13532 4267 1 109.50000 418.400000
203 13532 4374 1 109.50000 418.400000
203 13532 6683 1 109.50000 418.400000
4267 13532 4374 1 109.50000 418.400000
4267 13532 6683 1 109.50000 418.400000
4374 13532 6683 1 109.50000 418.400000
2628 13533 4564 1 109.50000 418.400000
2628 13533 6133 1 109.50000 418.400000
2628 13533 6684 1 109.50000 418.400000
4564 13533 6133 1 109.50000 418.400000
4564 13533 6684 1 109.50000 418.400000
6133 13533 6684 1 109.50000 418.400000
915 13534 4839 1 109.50000 418.400000
915 13534 6685 1 109.50000 418.400000
915 13534 6686 1 109.50000 418.400000
4839 13534 6685 1 109.50000 418.400000
4839 13534 6686 1 109.50000 418.400000
6685 13534 6686 1 109.50000 418.400000
1603 13535 2059 1 109.50000 418.400000
1603 13535 5910 1 109.50000 418.400000
1603 13535 6687 1 109.50000 418.400000
2059 13535 5910 1 109.50000 418.400000
2059 13535 6687 1 109.50000 418.400000
5910 13535 6687 1 109.50000 418.400000
1109 13536 6688 1 109.50000 418.400000
1109 13536 6689 1 109.50000 418.400000
1109 13536 6690 1 109.50000 418.400000
6688 13536 6689 1 109.50000 418.400000
6688 13536 6690 1 109.50000 418.400000
6689 13536 6690 1 109.50000 418.400000
6691 13537 6692 1 109.50000 418.400000
6691 13537 6693 1 109.50000 418.400000
6691 13537 6694 1 109.50000 418.400000
6692 13537 6693 1 109.50000 418.400000
6692 13537 6694 1 109.50000 418.400000
6693 13537 6694 1 109.50000 418.400000
6695 13538 6696 1 109.50000 418.400000
6695 13538 6697 1 109.50000 418.400000
6695 13538 6698 1 109.50000 418.400000
6696 13538 6697 1 109.50000 418.400000
6696 13538 6698 1 109.50000 418.400000
6697 13538 6698 1 109.50000 418.400000
6699 13539 6700 1 109.50000 418.400000
6699 13539 6701 1 109.50000 418.400000
6699 13539 6702 1 109.50000 418.400000
6700 13539 6701 1 109.50000 418.400000
6700 13539 6702 1 109.50000 418.400000
6701 13539 6702 1 109.50000 418.400000
3616 13540 3665 1 109.50000 418.400000
3616 13540 4837 1 109.50000 418.400000
3616 13540 6703 1 109.50000 418.400000
3665 13540 4837 1 109.50000 418.400000
3665 13540 6703 1 109.50000 418.400000
4837 13540 6703 1 109.50000 418.400000
4583 13541 4584 1 109.50000 418.400000
4583 13541 6705 1 109.50000 418.400000
4583 13541 6706 1 109.50000 418.400000
4584 13541 6705 1 109.50000 418.400000
4584 13541 6706 1 109.50000 418.400000
6705 13541 6706 1 109.50000 418.400000
5319 13542 6216 1 109.50000 418.400000
5319 13542 6707 1 109.50000 418.400000
5319 13542 6708 1 109.50000 418.400000
6216 13542 6707 1 109.50000 418.400000
6216 13542 6708 1 109.50000 418.400000
6707 13542 6708 1 109.50000 418.400000
3935 13543 3936 1 109.50000 418.400000
3935 13543 6709 1 109.50000 418.400000
3935 13543 6710 1 109.50000 418.400000
3936 13543 6709 1 109.50000 418.400000
3936 13543 6710 1 109.50000 418.400000
6709 13543 6710 1 109.50000 418.400000
1733 13544 3990 1 109.50000 418.400000
1733 13544 5245 1 109.50000 418.400000
1733 13544 6711 1 109.50000 418.400000
3990 13544 5245 1 109.50000 418.400000
3990 13544 6711 1 109.50000 418.400000
5245 13544 6711 1 109.50000 418.400000
6712 13545 6713 1 109.50000 418.400000
6712 13545 6714 1 109.50000 418.400000
6712 13545 6715 1 109.50000 418.400000
6713 13545 6714 1 109.50000 418.400000
6713 13545 6715 1 109.50000 418.400000
6714 13545 6715 1 109.50000 418.400000
576 13546 1840 1 109.50000 418.400000
576 13546 2975 1 109.50000 418.400000
576 13546 6716 1 109.50000 418.400000
1840 13546 2975 1 109.50000 418.400000
1840 13546 6716 1 109.50000 418.400000
2975 13546 6716 1 109.50000 418.400000
6717 13547 6718 1 109.50000 418.400000
6717 13547 6719 1 109.50000 418.400000
6717 13547 6720 1 109.50000 418.400000
6718 13547 6719 1 109.50000 418.400000
6718 13547 6720 1 109.50000 418.400000
6719 13547 6720 1 109.50000 418.400000
6721 13548 6722 1 109.50000 418.400000
6721 13548 6723 1 109.50000 418.400000
6721 13548 11236 1 109.50000 418.400000
6722 13548 6723 1 109.50000 418.400000
6722 13548 11236 1 109.50000 418.400000
6723 13548 11236 1 109.50000 418.400000
3900 13549 5538 1 109.50000 418.400000
3900 13549 6593 1 109.50000 418.400000
3900 13549 6724 1 109.50000 418.400000
5538 13549 6593 1 109.50000 418.400000
5538 13549 6724 1 109.50000 418.400000
6593 13549 6724 1 109.50000 418.400000
2381 13550 3818 1 109.50000 418.400000
2381 13550 6727 1 109.50000 418.400000
2381 13550 6728 1 109.50000 418.400000
3818 13550 6727 1 109.50000 418.400000
3818 13550 6728 1 109.50000 418.400000
6727 13550 6728 1 109.50000 418.400000
2408 13551 6729 1 109.50000 418.400000
2408 13551 6730 1 109.50000 418.400000
2408 13551 6731 1 109.50000 418.400000
6729 13551 6730 1 109.50000 418.400000
6729 13551 6731 1 109.50000 418.400000
6730 13551 6731 1 109.50000 418.400000
2643 13552 4028 1 109.50000 418.400000
2643 13552 6732 1 109.50000 418.400000
2643 13552 6733 1 109.50000 418.400000
4028 13552 6732 1 109.50000 418.400000
4028 13552 6733 1 109.50000 418.400000
6732 13552 6733 1 109.50000 418.400000
3929 13553 5694 1 109.50000 418.400000
3929 13553 5695 1 109.50000 418.400000
3929 13553 6736 1 109.50000 418.400000
5694 13553 5695 1 109.50000 418.400000
5694 13553 6736 1 109.50000 418.400000
5695 13553 6736 1 109.50000 418.400000
659 13554 6738 1 109.50000 418.400000
659 13554 6739 1 109.50000 418.400000
659 13554 6740 1 109.50000 418.400000
6738 13554 6739 1 109.50000 418.400000
6738 13554 6740 1 109.50000 418.400000
6739 13554 6740 1 109.50000 418.400000
5734 13555 6743 1 109.50000 418.400000
5734 13555 6744 1 109.50000 418.400000
5734 13555 6745 1 109.50000 418.400000
6743 13555 6744 1 109.50000 418.400000
6743 13555 6745 1 109.50000 418.400000
6744 13555 6745 1 109.50000 418.400000
5794 13556 6522 1 109.50000 418.400000
5794 13556 6746 1 109.50000 418.400000
5794 13556 6747 1 109.50000 418.400000
6522 13556 6746 1 109.50000 418.400000
6522 13556 6747 1 109.50000 418.400000
6746 13556 6747 1 109.50000 418.400000
6748 13557 6749 1 109.50000 418.400000
6748 13557 6750 1 109.50000 418.400000
6748 13557 6751 1 109.50000 418.400000
6749 13557 6750 1 109.50000 418.400000
6749 13557 6751 1 109.50000 418.400000
6750 13557 6751 1 109.50000 418.400000
6752 13558 6753 1 109.50000 418.400000
6752 13558 6754 1 109.50000 418.400000
6752 13558 6755 1 109.50000 418.400000
6753 13558 6754 1 109.50000 418.400000
6753 13558 6755 1 109.50000 418.400000
6754 13558 6755 1 109.50000 418.400000
815 13559 6756 1 109.50000 418.400000
815 13559 6757 1 109.50000 418.400000
815 13559 11427 1 109.50000 418.400000
6756 13559 6757 1 109.50000 418.400000
6756 13559 11427 1 109.50000 418.400000
6757 13559 11427 1 109.50000 418.400000
5390 13560 5765 1 109.50000 418.400000
5390 13560 6758 1 109.50000 418.400000
5390 13560 10518 1 109.50000 418.400000
5765 13560 6758 1 109.50000 418.400000
5765 13560 10518 1 109.50000 418.400000
6758 13560 10518 1 109.50000 418.400000
4778 13561 6759 1 109.50000 418.400000
4778 13561 6760 1 109.50000 418.400000
4778 13561 6761 1 109.50000 418.400000
6759 13561 6760 1 109.50000 418.400000
6759 13561 6761 1 109.50000 418.400000
6760 13561 6761 1 109.50000 418.400000
4128 13562 6764 1 109.50000 418.400000
4128 13562 7358 1 109.50000 418.400000
4128 13562 7359 1 109.50000 418.400000
6764 13562 7358 1 109.50000 418.400000
6764 13562 7359 1 109.50000 418.400000
7358 13562 7359 1 109.50000 418.400000
5916 13563 6766 1 109.50000 418.400000
5916 13563 6767 1 109.50000 418.400000
5916 13563 7446 1 109.50000 418.400000
6766 13563 6767 1 109.50000 418.400000
6766 13563 7446 1 109.50000 418.400000
6767 13563 7446 1 109.50000 418.400000
5986 13564 6768 1 109.50000 418.400000
5986 13564 6769 1 109.50000 418.400000
5986 13564 6770 1 109.50000 418.400000
6768 13564 6769 1 109.50000 418.400000
6768 13564 6770 1 109.50000 418.400000
6769 13564 6770 1 109.50000 418.400000
3342 13565 6771 1 109.50000 418.400000
3342 13565 6772 1 109.50000 418.400000
3342 13565 6773 1 109.50000 418.400000
6771 13565 6772 1 109.50000 418.400000
6771 13565 6773 1 109.50000 418.400000
6772 13565 6773 1 109.50000 418.400000
2553 13566 6774 1 109.50000 418.400000
2553 13566 6775 1 109.50000 418.400000
2553 13566 6776 1 109.50000 418.400000
6774 13566 6775 1 109.50000 418.400000
6774 13566 6776 1 109.50000 418.400000
6775 13566 6776 1 109.50000 418.400000
6398 13567 6400 1 109.50000 418.400000
6398 13567 6777 1 109.50000 418.400000
6398 13567 6779 1 109.50000 418.400000
6400 13567 6777 1 109.50000 418.400000
6400 13567 6779 1 109.50000 418.400000
6777 13567 6779 1 109.50000 418.400000
2134 13568 3702 1 109.50000 418.400000
2134 13568 6781 1 109.50000 418.400000
2134 13568 6782 1 109.50000 418.400000
3702 13568 6781 1 109.50000 418.400000
3702 13568 6782 1 109.50000 418.400000
6781 13568 6782 1 109.50000 418.400000
30 13569 3779 1 109.50000 418.400000
30 13569 5714 1 109.50000 418.400000
30 13569 11274 1 109.50000 418.400000
3779 13569 5714 1 109.50000 418.400000
3779 13569 11274 1 109.50000 418.400000
5714 13569 11274 1 109.50000 418.400000
838 13570 6783 1 109.50000 418.400000
838 13570 6784 1 109.50000 418.400000
838 13570 11171 1 109.50000 418.400000
6783 13570 6784 1 109.50000 418.400000
6783 13570 11171 1 109.50000 418.400000
6784 13570 11171 1 109.50000 418.400000
2625 13571 2627 1 109.50000 418.400000
2625 13571 6786 1 109.50000 418.400000
2625 13571 7373 1 109.50000 418.400000
2627 13571 6786 1 109.50000 418.400000
2627 13571 7373 1 109.50000 418.400000
6786 13571 7373 1 109.50000 418.400000
4569 13572 6788 1 109.50000 418.400000
4569 13572 6789 1 109.50000 418.400000
4569 13572 6790 1 109.50000 418.400000
6788 13572 6789 1 109.50000 418.400000
6788 13572 6790 1 109.50000 418.400000
6789 13572 6790 1 109.50000 418.400000
2948 13573 6791 1 109.50000 418.400000
2948 13573 6792 1 109.50000 418.400000
2948 13573 6793 1 109.50000 418.400000
6791 13573 6792 1 109.50000 418.400000
6791 13573 6793 1 109.50000 418.400000
6792 13573 6793 1 109.50000 418.400000
3712 13574 3714 1 109.50000 418.400000
3712 13574 3957 1 109.50000 418.400000
3712 13574 6795 1 109.50000 418.400000
3714 13574 3957 1 109.50000 418.400000
3714 13574 6795 1 109.50000 418.400000
3957 13574 6795 1 109.50000 418.400000
1633 13575 5232 1 109.50000 418.400000
1633 13575 6796 1 109.50000 418.400000
1633 13575 6797 1 109.50000 418.400000
5232 13575 6796 1 109.50000 418.400000
5232 13575 6797 1 109.50000 418.400000
6796 13575 6797 1 109.50000 418.400000
5051 13576 6798 1 109.50000 418.400000
5051 13576 6799 1 109.50000 418.400000
5051 13576 6800 1 109.50000 418.400000
6798 13576 6799 1 109.50000 418.400000
6798 13576 6800 1 109.50000 418.400000
6799 13576 6800 1 109.50000 418.400000
3294 13577 6801 1 109.50000 418.400000
3294 13577 6802 1 109.50000 418.400000
3294 13577 6803 1 109.50000 418.400000
6801 13577 6802 1 109.50000 418.400000
6801 13577 6803 1 109.50000 418.400000
6802 13577 6803 1 109.50000 418.400000
5917 13578 6804 1 109.50000 418.400000
5917 13578 6805 1 109.50000 418.400000
5917 13578 6806 1 109.50000 418.400000
6804 13578 6805 1 109.50000 418.400000
6804 13578 6806 1 109.50000 418.400000
6805 13578 6806 1 109.50000 418.400000
1693 13579 6807 1 109.50000 418.400000
1693 13579 6808 1 109.50000 418.400000
1693 13579 6809 1 109.50000 418.400000
6807 13579 6808 1 109.50000 418.400000
6807 13579 6809 1 109.50000 418.400000
6808 13579 6809 1 109.50000 418.400000
584 13580 3572 1 109.50000 418.400000
584 13580 3884 1 109.50000 418.400000
584 13580 5351 1 109.50000 418.400000
3572 13580 3884 1 109.50000 418.400000
3572 13580 5351 1 109.50000 418.400000
3884 13580 5351 1 109.50000 418.400000
3151 13581 4152 1 109.50000 418.400000
3151 13581 6349 1 109.50000 418.400000
3151 13581 6811 1 109.50000 418.400000
4152 13581 6349 1 109.50000 418.400000
4152 13581 6811 1 109.50000 418.400000
6349 13581 6811 1 109.50000 418.400000
3487 13582 4189 1 109.50000 418.400000
3487 13582 6423 1 109.50000 418.400000
3487 13582 6812 1 109.50000 418.400000
4189 13582 6423 1 109.50000 418.400000
4189 13582 6812 1 109.50000 418.400000
6423 13582 6812 1 109.50000 418.400000
935 13583 3522 1 109.50000 418.400000
935 13583 6813 1 109.50000 418.400000
935 13583 6814 1 109.50000 418.400000
3522 13583 6813 1 109.50000 418.400000
3522 13583 6814 1 109.50000 418.400000
6813 13583 6814 1 109.50000 418.400000
3474 13584 3873 1 109.50000 418.400000
3474 13584 6815 1 109.50000 418.400000
3474 13584 6816 1 109.50000 418.400000
3873 13584 6815 1 109.50000 418.400000
3873 13584 6816 1 109.50000 418.400000
6815 13584 6816 1 109.50000 418.400000
4104 13585 6354 1 109.50000 418.400000
4104 13585 6817 1 109.50000 418.400000
4104 13585 6818 1 109.50000 418.400000
6354 13585 6817 1 109.50000 418.400000
6354 13585 6818 1 109.50000 418.400000
6817 13585 6818 1 109.50000 418.400000
6819 13586 6820 1 109.50000 418.400000
6819 13586 6821 1 109.50000 418.400000
6819 13586 6822 1 109.50000 418.400000
6820 13586 6821 1 109.50000 418.400000
6820 13586 6822 1 109.50000 418.400000
6821 13586 6822 1 109.50000 418.400000
1958 13587 6823 1 109.50000 418.400000
1958 13587 6824 1 109.50000 418.400000
1958 13587 11515 1 109.50000 418.400000
6823 13587 6824 1 109.50000 418.400000
6823 13587 11515 1 109.50000 418.400000
6824 13587 11515 1 109.50000 418.400000
1289 13588 1648 1 109.50000 418.400000
1289 13588 3480 1 109.50000 418.400000
1289 13588 3577 1 109.50000 418.400000
1648 13588 3480 1 109.50000 418.400000
1648 13588 3577 1 109.50000 418.400000
3480 13588 3577 1 109.50000 418.400000
5229 13589 6825 1 109.50000 418.400000
5229 13589 6826 1 109.50000 418.400000
5229 13589 6827 1 109.50000 418.400000
6825 13589 6826 1 109.50000 418.400000
6825 13589 6827 1 109.50000 418.400000
6826 13589 6827 1 109.50000 418.400000
4949 13590 6828 1 109.50000 418.400000
4949 13590 6829 1 109.50000 418.400000
4949 13590 6830 1 109.50000 418.400000
6828 13590 6829 1 109.50000 418.400000
6828 13590 6830 1 109.50000 418.400000
6829 13590 6830 1 109.50000 418.400000
478 13591 3146 1 109.50000 418.400000
478 13591 6831 1 109.50000 418.400000
478 13591 6832 1 109.50000 418.400000
3146 13591 6831 1 109.50000 418.400000
3146 13591 6832 1 109.50000 418.400000
6831 13591 6832 1 109.50000 418.400000
5824 13592 6502 1 109.50000 418.400000
5824 13592 6833 1 109.50000 418.400000
5824 13592 6834 1 109.50000 418.400000
6502 13592 6833 1 109.50000 418.400000
6502 13592 6834 1 109.50000 418.400000
6833 13592 6834 1 109.50000 418.400000
6214 13593 6835 1 109.50000 418.400000
6214 13593 6837 1 109.50000 418.400000
6214 13593 7878 1 109.50000 418.400000
6835 13593 6837 1 109.50000 418.400000
6835 13593 7878 1 109.50000 418.400000
6837 13593 7878 1 109.50000 418.400000
716 13594 2640 1 109.50000 418.400000
716 13594 6838 1 109.50000 418.400000
716 13594 6839 1 109.50000 418.400000
2640 13594 6838 1 109.50000 418.400000
2640 13594 6839 1 109.50000 418.400000
6838 13594 6839 1 109.50000 418.400000
2171 13595 2984 1 109.50000 418.400000
2171 13595 3859 1 109.50000 418.400000
2171 13595 6840 1 109.50000 418.400000
2984 13595 3859 1 109.50000 418.400000
2984 13595 6840 1 109.50000 418.400000
3859 13595 6840 1 109.50000 418.400000
993 13596 6802 1 109.50000 418.400000
993 13596 6841 1 109.50000 418.400000
993 13596 6842 1 109.50000 418.400000
6802 13596 6841 1 109.50000 418.400000
6802 13596 6842 1 109.50000 418.400000
6841 13596 6842 1 109.50000 418.400000
4297 13597 5407 1 109.50000 418.400000
4297 13597 6843 1 109.50000 418.400000
4297 13597 6844 1 109.50000 418.400000
5407 13597 6843 1 109.50000 418.400000
5407 13597 6844 1 109.50000 418.400000
6843 13597 6844 1 109.50000 418.400000
6845 13598 6846 1 109.50000 418.400000
6845 13598 6847 1 109.50000 418.400000
6845 13598 6848 1 109.50000 418.400000
6846 13598 6847 1 109.50000 418.400000
6846 13598 6848 1 109.50000 418.400000
6847 13598 6848 1 109.50000 418.400000
3871 13599 6849 1 109.50000 418.400000
3871 13599 6850 1 109.50000 418.400000
3871 13599 6851 1 109.50000 418.400000
6849 13599 6850 1 109.50000 418.400000
6849 13599 6851 1 109.50000 418.400000
6850 13599 6851 1 109.50000 418.400000
1981 13600 3762 1 109.50000 418.400000
1981 13600 6852 1 109.50000 418.400000
1981 13600 6853 1 109.50000 418.400000
3762 13600 6852 1 109.50000 418.400000
3762 13600 6853 1 109.50000 418.400000
6852 13600 6853 1 109.50000 418.400000
3379 13601 4995 1 109.50000 418.400000
3379 13601 6854 1 109.50000 418.400000
3379 13601 6855 1 109.50000 418.400000
4995 13601 6854 1 109.50000 418.400000
4995 13601 6855 1 109.50000 418.400000
6854 13601 6855 1 109.50000 418.400000
6856 13602 6857 1 109.50000 418.400000
6856 13602 6858 1 109.50000 418.400000
6856 13602 6859 1 109.50000 418.400000
6857 13602 6858 1 109.50000 418.400000
6857 13602 6859 1 109.50000 418.400000
6858 13602 6859 1 109.50000 418.400000
3289 13603 3937 1 109.50000 418.400000
3289 13603 6860 1 109.50000 418.400000
3289 13603 6862 1 109.50000 418.400000
3937 13603 6860 1 109.50000 418.400000
3937 13603 6862 1 109.50000 418.400000
6860 13603 6862 1 109.50000 418.400000
2575 13604 2600 1 109.50000 418.400000
2575 13604 6188 1 109.50000 418.400000
2575 13604 6863 1 109.50000 418.400000
2600 13604 6188 1 109.50000 418.400000
2600 13604 6863 1 109.50000 418.400000
6188 13604 6863 1 109.50000 418.400000
4228 13605 6864 1 109.50000 418.400000
4228 13605 6865 1 109.50000 418.400000
4228 13605 6866 1 109.50000 418.400000
6864 13605 6865 1 109.50000 418.400000
6864 13605 6866 1 109.50000 418.400000
6865 13605 6866 1 109.50000 418.400000
711 13606 6868 1 109.50000 418.400000
711 13606 6869 1 109.50000 418.400000
711 13606 8735 1 109.50000 418.400000
6868 13606 6869 1 109.50000 418.400000
6868 13606 8735 1 109.50000 418.400000
6869 13606 8735 1 109.50000 418.400000
4859 13607 5202 1 109.50000 418.400000
4859 13607 6870 1 109.50000 418.400000
4859 13607 6871 1 109.50000 418.400000
5202 13607 6870 1 109.50000 418.400000
5202 13607 6871 1 109.50000 418.400000
6870 13607 6871 1 109.50000 418.400000
5408 13608 6872 1 109.50000 418.400000
5408 13608 6873 1 109.50000 418.400000
5408 13608 6874 1 109.50000 418.400000
6872 13608 6873 1 109.50000 418.400000
6872 13608 6874 1 109.50000 418.400000
6873 13608 6874 1 109.50000 418.400000
1888 13609 6875 1 109.50000 418.400000
1888 13609 6876 1 109.50000 418.400000
1888 13609 6877 1 109.50000 418.400000
6875 13609 6876 1 109.50000 418.400000
6875 13609 6877 1 109.50000 418.400000
6876 13609 6877 1 109.50000 418.400000
3199 13610 3273 1 109.50000 418.400000
3199 13610 6878 1 109.50000 418.400000
3199 13610 6879 1 109.50000 418.400000
3273 13610 6878 1 109.50000 418.400000
3273 13610 6879 1 109.50000 418.400000
6878 13610 6879 1 109.50000 418.400000
6020 13611 6880 1 109.50000 418.400000
6020 13611 6881 1 109.50000 418.400000
6020 13611 6882 1 109.50000 418.400000
6880 13611 6881 1 109.50000 418.400000
6880 13611 6882 1 109.50000 418.400000
6881 13611 6882 1 109.50000 418.400000
2781 13612 6544 1 109.50000 418.400000
2781 13612 6883 1 109.50000 418.400000
2781 13612 6884 1 109.50000 418.400000
6544 13612 6883 1 109.50000 418.400000
6544 13612 6884 1 109.50000 418.400000
6883 13612 6884 1 109.50000 418.400000
462 13613 3890 1 109.50000 418.400000
462 13613 6885 1 109.50000 418.400000
462 13613 6886 1 109.50000 418.400000
3890 13613 6885 1 109.50000 418.400000
3890 13613 6886 1 109.50000 418.400000
6885 13613 6886 1 109.50000 418.400000
1391 13614 3797 1 109.50000 418.400000
1391 13614 3867 1 109.50000 418.400000
1391 13614 6887 1 109.50000 418.400000
3797 13614 3867 1 109.50000 418.400000
3797 13614 6887 1 109.50000 418.400000
3867 13614 6887 1 109.50000 418.400000
1315 13615 1473 1 109.50000 418.400000
1315 13615 4526 1 109.50000 418.400000
1315 13615 6888 1 109.50000 418.400000
1473 13615 4526 1 109.50000 418.400000
1473 13615 6888 1 109.50000 418.400000
4526 13615 6888 1 109.50000 418.400000
3371 13616 6889 1 109.50000 418.400000
3371 13616 6890 1 109.50000 418.400000
3371 13616 6961 1 109.50000 418.400000
6889 13616 6890 1 109.50000 418.400000
6889 13616 6961 1 109.50000 418.400000
6890 13616 6961 1 109.50000 418.400000
2554 13617 5964 1 109.50000 418.400000
2554 13617 6891 1 109.50000 418.400000
2554 13617 6892 1 109.50000 418.400000
5964 13617 6891 1 109.50000 418.400000
5964 13617 6892 1 109.50000 418.400000
6891 13617 6892 1 109.50000 418.400000
3012 13618 3719 1 109.50000 418.400000
3012 13618 6893 1 109.50000 418.400000
3012 13618 6894 1 109.50000 418.400000
3719 13618 6893 1 109.50000 418.400000
3719 13618 6894 1 109.50000 418.400000
6893 13618 6894 1 109.50000 418.400000
6895 13619 6896 1 109.50000 418.400000
6895 13619 6898 1 109.50000 418.400000
6895 13619 10480 1 109.50000 418.400000
6896 13619 6898 1 109.50000 418.400000
6896 13619 10480 1 109.50000 418.400000
6898 13619 10480 1 109.50000 418.400000
3419 13620 6899 1 109.50000 418.400000
3419 13620 6900 1 109.50000 418.400000
3419 13620 11222 1 109.50000 418.400000
6899 13620 6900 1 109.50000 418.400000
6899 13620 11222 1 109.50000 418.400000
6900 13620 11222 1 109.50000 418.400000
5922 13621 6902 1 109.50000 418.400000
5922 13621 6903 1 109.50000 418.400000
5922 13621 6904 1 109.50000 418.400000
6902 13621 6903 1 109.50000 418.400000
6902 13621 6904 1 109.50000 418.400000
6903 13621 6904 1 109.50000 418.400000
3181 13622 4359 1 109.50000 418.400000
3181 13622 5431 1 109.50000 418.400000
3181 13622 6905 1 109.50000 418.400000
4359 13622 5431 1 109.50000 418.400000
4359 13622 6905 1 109.50000 418.400000
5431 13622 6905 1 109.50000 418.400000
6906 13623 6907 1 109.50000 418.400000
6906 13623 6908 1 109.50000 418.400000
6906 13623 6909 1 109.50000 418.400000
6907 13623 6908 1 109.50000 418.400000
6907 13623 6909 1 109.50000 418.400000
6908 13623 6909 1 109.50000 418.400000
3330 13624 5739 1 109.50000 418.400000
3330 13624 6697 1 109.50000 418.400000
3330 13624 6910 1 109.50000 418.400000
5739 13624 6697 1 109.50000 418.400000
5739 13624 6910 1 109.50000 418.400000
6697 13624 6910 1 109.50000 418.400000
4895 13625 6368 1 109.50000 418.400000
4895 13625 6911 1 109.50000 418.400000
4895 13625 6912 1 109.50000 418.400000
6368 13625 6911 1 109.50000 418.400000
6368 13625 6912 1 109.50000 418.400000
6911 13625 6912 1 109.50000 418.400000
2029 13626 6913 1 109.50000 418.400000
2029 13626 6914 1 109.50000 418.400000
2029 13626 6915 1 109.50000 418.400000
6913 13626 6914 1 109.50000 418.400000
6913 13626 6915 1 109.50000 418.400000
6914 13626 6915 1 109.50000 418.400000
2015 13627 6916 1 109.50000 418.400000
2015 13627 6917 1 109.50000 418.400000
2015 13627 11200 1 109.50000 418.400000
6916 13627 6917 1 109.50000 418.400000
6916 13627 11200 1 109.50000 418.400000
6917 13627 11200 1 109.50000 418.400000
6476 13628 6918 1 109.50000 418.400000
6476 13628 6919 1 109.50000 418.400000
6476 13628 6920 1 109.50000 418.400000
6918 13628 6919 1 109.50000 418.400000
6918 13628 6920 1 109.50000 418.400000
6919 13628 6920 1 109.50000 418.400000
6202 13629 6922 1 109.50000 418.400000
6202 13629 6923 1 109.50000 418.400000
6202 13629 7506 1 109.50000 418.400000
6922 13629 6923 1 109.50000 418.400000
6922 13629 7506 1 109.50000 418.400000
6923 13629 7506 1 109.50000 418.400000
391 13630 2238 1 109.50000 418.400000
391 13630 3325 1 109.50000 418.400000
391 13630 6925 1 109.50000 418.400000
2238 13630 3325 1 109.50000 418.400000
2238 13630 6925 1 109.50000 418.400000
3325 13630 6925 1 109.50000 418.400000
4609 13631 6927 1 109.50000 418.400000
4609 13631 6928 1 109.50000 418.400000
4609 13631 6929 1 109.50000 418.400000
6927 13631 6928 1 109.50000 418.400000
6927 13631 6929 1 109.50000 418.400000
6928 13631 6929 1 109.50000 418.400000
1163 13632 2229 1 109.50000 418.400000
1163 13632 2661 1 109.50000 418.400000
1163 13632 6930 1 109.50000 418.400000
2229 13632 2661 1 109.50000 418.400000
2229 13632 6930 1 109.50000 418.400000
2661 13632 6930 1 109.50000 418.400000
2952 13633 6931 1 109.50000 418.400000
2952 13633 6932 1 109.50000 418.400000
2952 13633 11483 1 109.50000 418.400000
6931 13633 6932 1 109.50000 418.400000
6931 13633 11483 1 109.50000 418.400000
6932 13633 11483 1 109.50000 418.400000
2278 13634 6831 1 109.50000 418.400000
2278 13634 6933 1 109.50000 418.400000
2278 13634 6934 1 109.50000 418.400000
6831 13634 6933 1 109.50000 418.400000
6831 13634 6934 1 109.50000 418.400000
6933 13634 6934 1 109.50000 418.400000
5716 13635 6935 1 109.50000 418.400000
5716 13635 6936 1 109.50000 418.400000
5716 13635 6937 1 109.50000 418.400000
6935 13635 6936 1 109.50000 418.400000
6935 13635 6937 1 109.50000 418.400000
6936 13635 6937 1 109.50000 418.400000
6655 13636 6938 1 109.50000 418.400000
6655 13636 6939 1 109.50000 418.400000
6655 13636 6940 1 109.50000 418.400000
6938 13636 6939 1 109.50000 418.400000
6938 13636 6940 1 109.50000 418.400000
6939 13636 6940 1 109.50000 418.400000
2645 13637 6941 1 109.50000 418.400000
2645 13637 6942 1 109.50000 418.400000
2645 13637 6943 1 109.50000 418.400000
6941 13637 6942 1 109.50000 418.400000
6941 13637 6943 1 109.50000 418.400000
6942 13637 6943 1 109.50000 418.400000
5433 13638 5878 1 109.50000 418.400000
5433 13638 6944 1 109.50000 418.400000
5433 13638 6945 1 109.50000 418.400000
5878 13638 6944 1 109.50000 418.400000
5878 13638 6945 1 109.50000 418.400000
6944 13638 6945 1 109.50000 418.400000
3852 13639 5201 1 109.50000 418.400000
3852 13639 6946 1 109.50000 418.400000
3852 13639 6947 1 109.50000 418.400000
5201 13639 6946 1 109.50000 418.400000
5201 13639 6947 1 109.50000 418.400000
6946 13639 6947 1 109.50000 418.400000
1962 13640 6950 1 109.50000 418.400000
1962 13640 10032 1 109.50000 418.400000
1962 13640 11207 1 109.50000 418.400000
6950 13640 10032 1 109.50000 418.400000
6950 13640 11207 1 109.50000 418.400000
10032 13640 11207 1 109.50000 418.400000
6951 13641 6952 1 109.50000 418.400000
6951 13641 6953 1 109.50000 418.400000
6951 13641 6954 1 109.50000 418.400000
6952 13641 6953 1 109.50000 418.400000
6952 13641 6954 1 109.50000 418.400000
6953 13641 6954 1 109.50000 418.400000
624 13642 6955 1 109.50000 418.400000
624 13642 6956 1 109.50000 418.400000
624 13642 6957 1 109.50000 418.400000
6955 13642 6956 1 109.50000 418.400000
6955 13642 6957 1 109.50000 418.400000
6956 13642 6957 1 109.50000 418.400000
2226 13643 4100 1 109.50000 418.400000
2226 13643 4101 1 109.50000 418.400000
2226 13643 6958 1 109.50000 418.400000
4100 13643 4101 1 109.50000 418.400000
4100 13643 6958 1 109.50000 418.400000
4101 13643 6958 1 109.50000 418.400000
2314 13644 2362 1 109.50000 418.400000
2314 13644 2369 1 109.50000 418.400000
2314 13644 6960 1 109.50000 418.400000
2362 13644 2369 1 109.50000 418.400000
2362 13644 6960 1 109.50000 418.400000
2369 13644 6960 1 109.50000 418.400000
4433 13645 5666 1 109.50000 418.400000
4433 13645 6961 1 109.50000 418.400000
4433 13645 11217 1 109.50000 418.400000
5666 13645 6961 1 109.50000 418.400000
5666 13645 11217 1 109.50000 418.400000
6961 13645 11217 1 109.50000 418.400000
2637 13646 6962 1 109.50000 418.400000
2637 13646 6963 1 109.50000 418.400000
2637 13646 7739 1 109.50000 418.400000
6962 13646 6963 1 109.50000 418.400000
6962 13646 7739 1 109.50000 418.400000
6963 13646 7739 1 109.50000 418.400000
4912 13647 6966 1 109.50000 418.400000
4912 13647 6967 1 109.50000 418.400000
4912 13647 8893 1 109.50000 418.400000
6966 13647 6967 1 109.50000 418.400000
6966 13647 8893 1 109.50000 418.400000
6967 13647 8893 1 109.50000 418.400000
1829 13648 4922 1 109.50000 418.400000
1829 13648 5163 1 109.50000 418.400000
1829 13648 6968 1 109.50000 418.400000
4922 13648 5163 1 109.50000 418.400000
4922 13648 6968 1 109.50000 418.400000
5163 13648 6968 1 109.50000 418.400000
2510 13649 3728 1 109.50000 418.400000
2510 13649 3729 1 109.50000 418.400000
2510 13649 6970 1 109.50000 418.400000
3728 13649 3729 1 109.50000 418.400000
3728 13649 6970 1 109.50000 418.400000
3729 13649 6970 1 109.50000 418.400000
1723 13650 6972 1 109.50000 418.400000
1723 13650 6973 1 109.50000 418.400000
1723 13650 6974 1 109.50000 418.400000
6972 13650 6973 1 109.50000 418.400000
6972 13650 6974 1 109.50000 418.400000
6973 13650 6974 1 109.50000 418.400000
6096 13651 6975 1 109.50000 418.400000
6096 13651 6976 1 109.50000 418.400000
6096 13651 6977 1 109.50000 418.400000
6975 13651 6976 1 109.50000 418.400000
6975 13651 6977 1 109.50000 418.400000
6976 13651 6977 1 109.50000 418.400000
5802 13652 6979 1 109.50000 418.400000
5802 13652 6980 1 109.50000 418.400000
5802 13652 6981 1 109.50000 418.400000
6979 13652 6980 1 109.50000 418.400000
6979 13652 6981 1 109.50000 418.400000
6980 13652 6981 1 109.50000 418.400000
3492 13653 3493 1 109.50000 418.400000
3492 13653 7714 1 109.50000 418.400000
3492 13653 11456 1 109.50000 418.400000
3493 13653 7714 1 109.50000 418.400000
3493 13653 11456 1 109.50000 418.400000
7714 13653 11456 1 109.50000 418.400000
5422 13654 6527 1 109.50000 418.400000
5422 13654 6982 1 109.50000 418.400000
5422 13654 6983 1 109.50000 418.400000
6527 13654 6982 1 109.50000 418.400000
6527 13654 6983 1 109.50000 418.400000
6982 13654 6983 1 109.50000 418.400000
2728 13655 6984 1 109.50000 418.400000
2728 13655 6985 1 109.50000 418.400000
2728 13655 6986 1 109.50000 418.400000
6984 13655 6985 1 109.50000 418.400000
6984 13655 6986 1 109.50000 418.400000
6985 13655 6986 1 109.50000 418.400000
2470 13656 6987 1 109.50000 418.400000
2470 13656 6988 1 109.50000 418.400000
2470 13656 10625 1 109.50000 418.400000
6987 13656 6988 1 109.50000 418.400000
6987 13656 10625 1 109.50000 418.400000
6988 13656 10625 1 109.50000 418.400000
5485 13657 6676 1 109.50000 418.400000
5485 13657 6989 1 109.50000 418.400000
5485 13657 6990 1 109.50000 418.400000
6676 13657 6989 1 109.50000 418.400000
6676 13657 6990 1 109.50000 418.400000
6989 13657 6990 1 109.50000 418.400000
1085 13658 2907 1 109.50000 418.400000
1085 13658 6991 1 109.50000 418.400000
1085 13658 6992 1 109.50000 418.400000
2907 13658 6991 1 109.50000 418.400000
2907 13658 6992 1 109.50000 418.400000
6991 13658 6992 1 109.50000 418.400000
573 13659 2760 1 109.50000 418.400000
573 13659 6993 1 109.50000 418.400000
573 13659 6994 1 109.50000 418.400000
2760 13659 6993 1 109.50000 418.400000
2760 13659 6994 1 109.50000 418.400000
6993 13659 6994 1 109.50000 418.400000
4036 13660 4254 1 109.50000 418.400000
4036 13660 6995 1 109.50000 418.400000
4036 13660 6996 1 109.50000 418.400000
4254 13660 6995 1 109.50000 418.400000
4254 13660 6996 1 109.50000 418.400000
6995 13660 6996 1 109.50000 418.400000
1688 13661 2617 1 109.50000 418.400000
1688 13661 6691 1 109.50000 418.400000
1688 13661 6997 1 109.50000 418.400000
2617 13661 6691 1 109.50000 418.400000
2617 13661 6997 1 109.50000 418.400000
6691 13661 6997 1 109.50000 418.400000
228 13662 3445 1 109.50000 418.400000
228 13662 6998 1 109.50000 418.400000
228 13662 6999 1 109.50000 418.400000
3445 13662 6998 1 109.50000 418.400000
3445 13662 6999 1 109.50000 418.400000
6998 13662 6999 1 109.50000 418.400000
172 13663 2673 1 109.50000 418.400000
172 13663 5088 1 109.50000 418.400000
172 13663 7000 1 109.50000 418.400000
2673 13663 5088 1 109.50000 418.400000
2673 13663 7000 1 109.50000 418.400000
5088 13663 7000 1 109.50000 418.400000
510 13664 3268 1 109.50000 418.400000
510 13664 6257 1 109.50000 418.400000
510 13664 7002 1 109.50000 418.400000
3268 13664 6257 1 109.50000 418.400000
3268 13664 7002 1 109.50000 418.400000
6257 13664 7002 1 109.50000 418.400000
2660 13665 7003 1 109.50000 418.400000
2660 13665 7004 1 109.50000 418.400000
2660 13665 7005 1 109.50000 418.400000
7003 13665 7004 1 109.50000 418.400000
7003 13665 7005 1 109.50000 418.400000
7004 13665 7005 1 109.50000 418.400000
4630 13666 5386 1 109.50000 418.400000
4630 13666 6732 1 109.50000 418.400000
4630 13666 7006 1 109.50000 418.400000
5386 13666 6732 1 109.50000 418.400000
5386 13666 7006 1 109.50000 418.400000
6732 13666 7006 1 109.50000 418.400000
5710 13667 7007 1 109.50000 418.400000
5710 13667 7008 1 109.50000 418.400000
5710 13667 7009 1 109.50000 418.400000
7007 13667 7008 1 109.50000 418.400000
7007 13667 7009 1 109.50000 418.400000
7008 13667 7009 1 109.50000 418.400000
1822 13668 7010 1 109.50000 418.400000
1822 13668 7011 1 109.50000 418.400000
1822 13668 7012 1 109.50000 418.400000
7010 13668 7011 1 109.50000 418.400000
7010 13668 7012 1 109.50000 418.400000
7011 13668 7012 1 109.50000 418.400000
7013 13669 7014 1 109.50000 418.400000
7013 13669 7015 1 109.50000 418.400000
7013 13669 7016 1 109.50000 418.400000
7014 13669 7015 1 109.50000 418.400000
7014 13669 7016 1 109.50000 418.400000
7015 13669 7016 1 109.50000 418.400000
2319 13670 4412 1 109.50000 418.400000
2319 13670 7017 1 109.50000 418.400000
2319 13670 7018 1 109.50000 418.400000
4412 13670 7017 1 109.50000 418.400000
4412 13670 7018 1 109.50000 418.400000
7017 13670 7018 1 109.50000 418.400000
5975 13671 7019 1 109.50000 418.400000
5975 13671 7020 1 109.50000 418.400000
5975 13671 11417 1 109.50000 418.400000
7019 13671 7020 1 109.50000 418.400000
7019 13671 11417 1 109.50000 418.400000
7020 13671 11417 1 109.50000 418.400000
164 13672 7021 1 109.50000 418.400000
164 13672 7022 1 109.50000 418.400000
164 13672 7023 1 109.50000 418.400000
7021 13672 7022 1 109.50000 418.400000
7021 13672 7023 1 109.50000 418.400000
7022 13672 7023 1 109.50000 418.400000
7024 13673 7025 1 109.50000 418.400000
7024 13673 7026 1 109.50000 418.400000
7024 13673 7027 1 109.50000 418.400000
7025 13673 7026 1 109.50000 418.400000
7025 13673 7027 1 109.50000 418.400000
7026 13673 7027 1 109.50000 418.400000
7028 13674 7029 1 109.50000 418.400000
7028 13674 7030 1 109.50000 418.400000
7028 13674 7031 1 109.50000 418.400000
7029 13674 7030 1 109.50000 418.400000
7029 13674 7031 1 109.50000 418.400000
7030 13674 7031 1 109.50000 418.400000
707 13675 7032 1 109.50000 418.400000
707 13675 7033 1 109.50000 418.400000
707 13675 7034 1 109.50000 418.400000
7032 13675 7033 1 109.50000 418.400000
7032 13675 7034 1 109.50000 418.400000
7033 13675 7034 1 109.50000 418.400000
1111 13676 7035 1 109.50000 418.400000
1111 13676 7036 1 109.50000 418.400000
1111 13676 7037 1 109.50000 418.400000
7035 13676 7036 1 109.50000 418.400000
7035 13676 7037 1 109.50000 418.400000
7036 13676 7037 1 109.50000 418.400000
1495 13677 4981 1 109.50000 418.400000
1495 13677 11345 1 109.50000 418.400000
1495 13677 11466 1 109.50000 418.400000
4981 13677 11345 1 109.50000 418.400000
4981 13677 11466 1 109.50000 418.400000
11345 13677 11466 1 109.50000 418.400000
7038 13678 7039 1 109.50000 418.400000
7038 13678 7040 1 109.50000 418.400000
7038 13678 7041 1 109.50000 418.400000
7039 13678 7040 1 109.50000 418.400000
7039 13678 7041 1 109.50000 418.400000
7040 13678 7041 1 109.50000 418.400000
4093 13679 5973 1 109.50000 418.400000
4093 13679 7042 1 109.50000 418.400000
4093 13679 7043 1 109.50000 418.400000
5973 13679 7042 1 109.50000 418.400000
5973 13679 7043 1 109.50000 418.400000
7042 13679 7043 1 109.50000 418.400000
2647 13680 7044 1 109.50000 418.400000
2647 13680 7045 1 109.50000 418.400000
2647 13680 7046 1 109.50000 418.400000
7044 13680 7045 1 109.50000 418.400000
7044 13680 7046 1 109.50000 418.400000
7045 13680 7046 1 109.50000 418.400000
7047 13681 7048 1 109.50000 418.400000
7047 13681 7049 1 109.50000 418.400000
7047 13681 7050 1 109.50000 418.400000
7048 13681 7049 1 109.50000 418.400000
7048 13681 7050 1 109.50000 418.400000
7049 13681 7050 1 109.50000 418.400000
279 13682 2122 1 109.50000 418.400000
279 13682 2680 1 109.50000 418.400000
279 13682 7051 1 109.50000 418.400000
2122 13682 2680 1 109.50000 418.400000
2122 13682 7051 1 109.50000 418.400000
2680 13682 7051 1 109.50000 418.400000
5093 13683 5322 1 109.50000 418.400000
5093 13683 7052 1 109.50000 418.400000
5093 13683 11458 1 109.50000 418.400000
5322 13683 7052 1 109.50000 418.400000
5322 13683 11458 1 109.50000 418.400000
7052 13683 11458 1 109.50000 418.400000
3647 13684 5530 1 109.50000 418.400000
3647 13684 7053 1 109.50000 418.400000
3647 13684 7054 1 109.50000 418.400000
5530 13684 7053 1 109.50000 418.400000
5530 13684 7054 1 109.50000 418.400000
7053 13684 7054 1 109.50000 418.400000
1657 13685 1923 1 109.50000 418.400000
1657 13685 2105 1 109.50000 418.400000
1657 13685 7055 1 109.50000 418.400000
1923 13685 2105 1 109.50000 418.400000
1923 13685 7055 1 109.50000 418.400000
2105 13685 7055 1 109.50000 418.400000
157 13686 6678 1 109.50000 418.400000
157 13686 7056 1 109.50000 418.400000
157 13686 7057 1 109.50000 418.400000
6678 13686 7056 1 109.50000 418.400000
6678 13686 7057 1 109.50000 418.400000
7056 13686 7057 1 109.50000 418.400000
4498 13687 7058 1 109.50000 418.400000
4498 13687 7059 1 109.50000 418.400000
4498 13687 7060 1 109.50000 418.400000
7058 13687 7059 1 109.50000 418.400000
7058 13687 7060 1 109.50000 418.400000
7059 13687 7060 1 109.50000 418.400000
7061 13688 7062 1 109.50000 418.400000
7061 13688 7064 1 109.50000 418.400000
7061 13688 9061 1 109.50000 418.400000
7062 13688 7064 1 109.50000 418.400000
7062 13688 9061 1 109.50000 418.400000
7064 13688 9061 1 109.50000 418.400000
7065 13689 7066 1 109.50000 418.400000
7065 13689 11144 1 109.50000 418.400000
7065 13689 11337 1 109.50000 418.400000
7066 13689 11144 1 109.50000 418.400000
7066 13689 11337 1 109.50000 418.400000
11144 13689 11337 1 109.50000 418.400000
7067 13690 7068 1 109.50000 418.400000
7067 13690 7069 1 109.50000 418.400000
7067 13690 7070 1 109.50000 418.400000
7068 13690 7069 1 109.50000 418.400000
7068 13690 7070 1 109.50000 418.400000
7069 13690 7070 1 109.50000 418.400000
5443 13691 7071 1 109.50000 418.400000
5443 13691 7072 1 109.50000 418.400000
5443 13691 7073 1 109.50000 418.400000
7071 13691 7072 1 109.50000 418.400000
7071 13691 7073 1 109.50000 418.400000
7072 13691 7073 1 109.50000 418.400000
2551 13692 7074 1 109.50000 418.400000
2551 13692 7075 1 109.50000 418.400000
2551 13692 7076 1 109.50000 418.400000
7074 13692 7075 1 109.50000 418.400000
7074 13692 7076 1 109.50000 418.400000
7075 13692 7076 1 109.50000 418.400000
2260 13693 6065 1 109.50000 418.400000
2260 13693 7077 1 109.50000 418.400000
2260 13693 7078 1 109.50000 418.400000
6065 13693 7077 1 109.50000 418.400000
6065 13693 7078 1 109.50000 418.400000
7077 13693 7078 1 109.50000 418.400000
7079 13694 7080 1 109.50000 418.400000
7079 13694 7081 1 109.50000 418.400000
7079 13694 9335 1 109.50000 418.400000
7080 13694 7081 1 109.50000 418.400000
7080 13694 9335 1 109.50000 418.400000
7081 13694 9335 1 109.50000 418.400000
959 13695 3400 1 109.50000 418.400000
959 13695 7083 1 109.50000 418.400000
959 13695 7084 1 109.50000 418.400000
3400 13695 7083 1 109.50000 418.400000
3400 13695 7084 1 109.50000 418.400000
7083 13695 7084 1 109.50000 418.400000
4366 13696 6395 1 109.50000 418.400000
4366 13696 7085 1 109.50000 418.400000
4366 13696 7086 1 109.50000 418.400000
6395 13696 7085 1 109.50000 418.400000
6395 13696 7086 1 109.50000 418.400000
7085 13696 7086 1 109.50000 418.400000
5589 13697 7087 1 109.50000 418.400000
5589 13697 7088 1 109.50000 418.400000
5589 13697 7089 1 109.50000 418.400000
7087 13697 7088 1 109.50000 418.400000
7087 13697 7089 1 109.50000 418.400000
7088 13697 7089 1 109.50000 418.400000
7090 13698 7092 1 109.50000 418.400000
7090 13698 7093 1 109.50000 418.400000
7090 13698 9130 1 109.50000 418.400000
7092 13698 7093 1 109.50000 418.400000
7092 13698 9130 1 109.50000 418.400000
7093 13698 9130 1 109.50000 418.400000
243 13699 3387 1 109.50000 418.400000
243 13699 6097 1 109.50000 418.400000
243 13699 7094 1 109.50000 418.400000
3387 13699 6097 1 109.50000 418.400000
3387 13699 7094 1 109.50000 418.400000
6097 13699 7094 1 109.50000 418.400000
2149 13700 7095 1 109.50000 418.400000
2149 13700 7096 1 109.50000 418.400000
2149 13700 7097 1 109.50000 418.400000
7095 13700 7096 1 109.50000 418.400000
7095 13700 7097 1 109.50000 418.400000
7096 13700 7097 1 109.50000 418.400000
5136 13701 6810 1 109.50000 418.400000
5136 13701 7099 1 109.50000 418.400000
5136 13701 7100 1 109.50000 418.400000
6810 13701 7099 1 109.50000 418.400000
6810 13701 7100 1 109.50000 418.400000
7099 13701 7100 1 109.50000 418.400000
433 13702 4878 1 109.50000 418.400000
433 13702 7101 1 109.50000 418.400000
433 13702 7102 1 109.50000 418.400000
4878 13702 7101 1 109.50000 418.400000
4878 13702 7102 1 109.50000 418.400000
7101 13702 7102 1 109.50000 418.400000
2870 13703 4096 1 109.50000 418.400000
2870 13703 7103 1 109.50000 418.400000
2870 13703 7104 1 109.50000 418.400000
4096 13703 7103 1 109.50000 418.400000
4096 13703 7104 1 109.50000 418.400000
7103 13703 7104 1 109.50000 418.400000
2348 13704 7105 1 109.50000 418.400000
2348 13704 7106 1 109.50000 418.400000
2348 13704 7107 1 109.50000 418.400000
7105 13704 7106 1 109.50000 418.400000
7105 13704 7107 1 109.50000 418.400000
7106 13704 7107 1 109.50000 418.400000
7108 13705 7109 1 109.50000 418.400000
7108 13705 7110 1 109.50000 418.400000
7108 13705 7111 1 109.50000 418.400000
7109 13705 7110 1 109.50000 418.400000
7109 13705 7111 1 109.50000 418.400000
7110 13705 7111 1 109.50000 418.400000
7112 13706 7113 1 109.50000 418.400000
7112 13706 7114 1 109.50000 418.400000
7112 13706 11201 1 109.50000 418.400000
7113 13706 7114 1 109.50000 418.400000
7113 13706 11201 1 109.50000 418.400000
7114 13706 11201 1 109.50000 418.400000
5876 13707 7115 1 109.50000 418.400000
5876 13707 7116 1 109.50000 418.400000
5876 13707 7117 1 109.50000 418.400000
7115 13707 7116 1 109.50000 418.400000
7115 13707 7117 1 109.50000 418.400000
7116 13707 7117 1 109.50000 418.400000
3244 13708 7118 1 109.50000 418.400000
3244 13708 7119 1 109.50000 418.400000
3244 13708 7120 1 109.50000 418.400000
7118 13708 7119 1 109.50000 418.400000
7118 13708 7120 1 109.50000 418.400000
7119 13708 7120 1 109.50000 418.400000
5859 13709 7121 1 109.50000 418.400000
5859 13709 7122 1 109.50000 418.400000
5859 13709 7123 1 109.50000 418.400000
7121 13709 7122 1 109.50000 418.400000
7121 13709 7123 1 109.50000 418.400000
7122 13709 7123 1 109.50000 418.400000
5073 13710 5892 1 109.50000 418.400000
5073 13710 7124 1 109.50000 418.400000
5073 13710 7125 1 109.50000 418.400000
5892 13710 7124 1 109.50000 418.400000
5892 13710 7125 1 109.50000 418.400000
7124 13710 7125 1 109.50000 418.400000
7127 13711 7128 1 109.50000 418.400000
7127 13711 7129 1 109.50000 418.400000
7127 13711 7130 1 109.50000 418.400000
7128 13711 7129 1 109.50000 418.400000
7128 13711 7130 1 109.50000 418.400000
7129 13711 7130 1 109.50000 418.400000
1063 13712 2410 1 109.50000 418.400000
1063 13712 3578 1 109.50000 418.400000
1063 13712 7131 1 109.50000 418.400000
2410 13712 3578 1 109.50000 418.400000
2410 13712 7131 1 109.50000 418.400000
3578 13712 7131 1 109.50000 418.400000
4514 13713 4576 1 109.50000 418.400000
4514 13713 11143 1 109.50000 418.400000
4514 13713 11469 1 109.50000 418.400000
4576 13713 11143 1 109.50000 418.400000
4576 13713 11469 1 109.50000 418.400000
11143 13713 11469 1 109.50000 418.400000
557 13714 3503 1 109.50000 418.400000
557 13714 7133 1 109.50000 418.400000
557 13714 7134 1 109.50000 418.400000
3503 13714 7133 1 109.50000 418.400000
3503 13714 7134 1 109.50000 418.400000
7133 13714 7134 1 109.50000 418.400000
883 13715 7135 1 109.50000 418.400000
883 13715 7136 1 109.50000 418.400000
883 13715 7137 1 109.50000 418.400000
7135 13715 7136 1 109.50000 418.400000
7135 13715 7137 1 109.50000 418.400000
7136 13715 7137 1 109.50000 418.400000
3292 13716 7138 1 109.50000 418.400000
3292 13716 7139 1 109.50000 418.400000
3292 13716 7140 1 109.50000 418.400000
7138 13716 7139 1 109.50000 418.400000
7138 13716 7140 1 109.50000 418.400000
7139 13716 7140 1 109.50000 418.400000
5375 13717 5376 1 109.50000 418.400000
5375 13717 7143 1 109.50000 418.400000
5375 13717 7145 1 109.50000 418.400000
5376 13717 7143 1 109.50000 418.400000
5376 13717 7145 1 109.50000 418.400000
7143 13717 7145 1 109.50000 418.400000
5298 13718 7146 1 109.50000 418.400000
5298 13718 7147 1 109.50000 418.400000
5298 13718 7148 1 109.50000 418.400000
7146 13718 7147 1 109.50000 418.400000
7146 13718 7148 1 109.50000 418.400000
7147 13718 7148 1 109.50000 418.400000
3892 13719 7149 1 109.50000 418.400000
3892 13719 7150 1 109.50000 418.400000
3892 13719 7151 1 109.50000 418.400000
7149 13719 7150 1 109.50000 418.400000
7149 13719 7151 1 109.50000 418.400000
7150 13719 7151 1 109.50000 418.400000
2859 13720 3111 1 109.50000 418.400000
2859 13720 6204 1 109.50000 418.400000
2859 13720 7152 1 109.50000 418.400000
3111 13720 6204 1 109.50000 418.400000
3111 13720 7152 1 109.50000 418.400000
6204 13720 7152 1 109.50000 418.400000
4870 13721 7153 1 109.50000 418.400000
4870 13721 7154 1 109.50000 418.400000
4870 13721 11271 1 109.50000 418.400000
7153 13721 7154 1 109.50000 418.400000
7153 13721 11271 1 109.50000 418.400000
7154 13721 11271 1 109.50000 418.400000
3907 13722 7155 1 109.50000 418.400000
3907 13722 7156 1 109.50000 418.400000
3907 13722 7157 1 109.50000 418.400000
7155 13722 7156 1 109.50000 418.400000
7155 13722 7157 1 109.50000 418.400000
7156 13722 7157 1 109.50000 418.400000
7158 13723 7159 1 109.50000 418.400000
7158 13723 7160 1 109.50000 418.400000
7158 13723 7161 1 109.50000 418.400000
7159 13723 7160 1 109.50000 418.400000
7159 13723 7161 1 109.50000 418.400000
7160 13723 7161 1 109.50000 418.400000
6749 13724 7031 1 109.50000 418.400000
6749 13724 7162 1 109.50000 418.400000
6749 13724 7163 1 109.50000 418.400000
7031 13724 7162 1 109.50000 418.400000
7031 13724 7163 1 109.50000 418.400000
7162 13724 7163 1 109.50000 418.400000
2326 13725 7164 1 109.50000 418.400000
2326 13725 7165 1 109.50000 418.400000
2326 13725 7166 1 109.50000 418.400000
7164 13725 7165 1 109.50000 418.400000
7164 13725 7166 1 109.50000 418.400000
7165 13725 7166 1 109.50000 418.400000
1811 13726 3447 1 109.50000 418.400000
1811 13726 4621 1 109.50000 418.400000
1811 13726 7167 1 109.50000 418.400000
3447 13726 4621 1 109.50000 418.400000
3447 13726 7167 1 109.50000 418.400000
4621 13726 7167 1 109.50000 418.400000
1683 13727 7171 1 109.50000 418.400000
1683 13727 11368 1 109.50000 418.400000
1683 13727 11487 1 109.50000 418.400000
7171 13727 11368 1 109.50000 418.400000
7171 13727 11487 1 109.50000 418.400000
11368 13727 11487 1 109.50000 418.400000
2115 13728 7172 1 109.50000 418.400000
2115 13728 7173 1 109.50000 418.400000
2115 13728 7174 1 109.50000 418.400000
7172 13728 7173 1 109.50000 418.400000
7172 13728 7174 1 109.50000 418.400000
7173 13728 7174 1 109.50000 418.400000
2051 13729 7175 1 109.50000 418.400000
2051 13729 7176 1 109.50000 418.400000
2051 13729 7177 1 109.50000 418.400000
7175 13729 7176 1 109.50000 418.400000
7175 13729 7177 1 109.50000 418.400000
7176 13729 7177 1 109.50000 418.400000
1145 13730 4721 1 109.50000 418.400000
1145 13730 7178 1 109.50000 418.400000
1145 13730 7179 1 109.50000 418.400000
4721 13730 7178 1 109.50000 418.400000
4721 13730 7179 1 109.50000 418.400000
7178 13730 7179 1 109.50000 418.400000
439 13731 4514 1 109.50000 418.400000
439 13731 7181 1 109.50000 418.400000
439 13731 7182 1 109.50000 418.400000
4514 13731 7181 1 109.50000 418.400000
4514 13731 7182 1 109.50000 418.400000
7181 13731 7182 1 109.50000 418.400000
5634 13732 6086 1 109.50000 418.400000
5634 13732 6510 1 109.50000 418.400000
5634 13732 7183 1 109.50000 418.400000
6086 13732 6510 1 109.50000 418.400000
6086 13732 7183 1 109.50000 418.400000
6510 13732 7183 1 109.50000 418.400000
4016 13733 6265 1 109.50000 418.400000
4016 13733 7184 1 109.50000 418.400000
4016 13733 7185 1 109.50000 418.400000
6265 13733 7184 1 109.50000 418.400000
6265 13733 7185 1 109.50000 418.400000
7184 13733 7185 1 109.50000 418.400000
7186 13734 7187 1 109.50000 418.400000
7186 13734 7188 1 109.50000 418.400000
7186 13734 7189 1 109.50000 418.400000
7187 13734 7188 1 109.50000 418.400000
7187 13734 7189 1 109.50000 418.400000
7188 13734 7189 1 109.50000 418.400000
7190 13735 7191 1 109.50000 418.400000
7190 13735 7192 1 109.50000 418.400000
7190 13735 7193 1 109.50000 418.400000
7191 13735 7192 1 109.50000 418.400000
7191 13735 7193 1 109.50000 418.400000
7192 13735 7193 1 109.50000 418.400000
5961 13736 7194 1 109.50000 418.400000
5961 13736 7195 1 109.50000 418.400000
5961 13736 11513 1 109.50000 418.400000
7194 13736 7195 1 109.50000 418.400000
7194 13736 11513 1 109.50000 418.400000
7195 13736 11513 1 109.50000 418.400000
5175 13737 6186 1 109.50000 418.400000
5175 13737 11265 1 109.50000 418.400000
5175 13737 11297 1 109.50000 418.400000
6186 13737 11265 1 109.50000 418.400000
6186 13737 11297 1 109.50000 418.400000
11265 13737 11297 1 109.50000 418.400000
38 13738 3291 1 109.50000 418.400000
38 13738 7196 1 109.50000 418.400000
38 13738 7197 1 109.50000 418.400000
3291 13738 7196 1 109.50000 418.400000
3291 13738 7197 1 109.50000 418.400000
7196 13738 7197 1 109.50000 418.400000
4982 13739 5246 1 109.50000 418.400000
4982 13739 7199 1 109.50000 418.400000
4982 13739 7200 1 109.50000 418.400000
5246 13739 7199 1 109.50000 418.400000
5246 13739 7200 1 109.50000 418.400000
7199 13739 7200 1 109.50000 418.400000
3139 13740 3203 1 109.50000 418.400000
3139 13740 7201 1 109.50000 418.400000
3139 13740 7202 1 109.50000 418.400000
3203 13740 7201 1 109.50000 418.400000
3203 13740 7202 1 109.50000 418.400000
7201 13740 7202 1 109.50000 418.400000
6444 13741 7203 1 109.50000 418.400000
6444 13741 7204 1 109.50000 418.400000
6444 13741 7469 1 109.50000 418.400000
7203 13741 7204 1 109.50000 418.400000
7203 13741 7469 1 109.50000 418.400000
7204 13741 7469 1 109.50000 418.400000
5885 13742 6346 1 109.50000 418.400000
5885 13742 7205 1 109.50000 418.400000
5885 13742 7206 1 109.50000 418.400000
6346 13742 7205 1 109.50000 418.400000
6346 13742 7206 1 109.50000 418.400000
7205 13742 7206 1 109.50000 418.400000
135 13743 3177 1 109.50000 418.400000
135 13743 7207 1 109.50000 418.400000
135 13743 7208 1 109.50000 418.400000
3177 13743 7207 1 109.50000 418.400000
3177 13743 7208 1 109.50000 418.400000
7207 13743 7208 1 109.50000 418.400000
698 13744 4637 1 109.50000 418.400000
698 13744 5355 1 109.50000 418.400000
698 13744 7209 1 109.50000 418.400000
4637 13744 5355 1 109.50000 418.400000
4637 13744 7209 1 109.50000 418.400000
5355 13744 7209 1 109.50000 418.400000
508 13745 3948 1 109.50000 418.400000
508 13745 5676 1 109.50000 418.400000
508 13745 6128 1 109.50000 418.400000
3948 13745 5676 1 109.50000 418.400000
3948 13745 6128 1 109.50000 418.400000
5676 13745 6128 1 109.50000 418.400000
7123 13746 7210 1 109.50000 418.400000
7123 13746 7211 1 109.50000 418.400000
7123 13746 7212 1 109.50000 418.400000
7210 13746 7211 1 109.50000 418.400000
7210 13746 7212 1 109.50000 418.400000
7211 13746 7212 1 109.50000 418.400000
4986 13747 5004 1 109.50000 418.400000
4986 13747 5889 1 109.50000 418.400000
4986 13747 7213 1 109.50000 418.400000
5004 13747 5889 1 109.50000 418.400000
5004 13747 7213 1 109.50000 418.400000
5889 13747 7213 1 109.50000 418.400000
4819 13748 7214 1 109.50000 418.400000
4819 13748 7215 1 109.50000 418.400000
4819 13748 8122 1 109.50000 418.400000
7214 13748 7215 1 109.50000 418.400000
7214 13748 8122 1 109.50000 418.400000
7215 13748 8122 1 109.50000 418.400000
7218 13749 7219 1 109.50000 418.400000
7218 13749 7220 1 109.50000 418.400000
7218 13749 7221 1 109.50000 418.400000
7219 13749 7220 1 109.50000 418.400000
7219 13749 7221 1 109.50000 418.400000
7220 13749 7221 1 109.50000 418.400000
1171 13750 7222 1 109.50000 418.400000
1171 13750 7223 1 109.50000 418.400000
1171 13750 11532 1 109.50000 418.400000
7222 13750 7223 1 109.50000 418.400000
7222 13750 11532 1 109.50000 418.400000
7223 13750 11532 1 109.50000 418.400000
2885 13751 4353 1 109.50000 418.400000
2885 13751 7225 1 109.50000 418.400000
2885 13751 7226 1 109.50000 418.400000
4353 13751 7225 1 109.50000 418.400000
4353 13751 7226 1 109.50000 418.400000
7225 13751 7226 1 109.50000 418.400000
3077 13752 4156 1 109.50000 418.400000
3077 13752 6419 1 109.50000 418.400000
3077 13752 7227 1 109.50000 418.400000
4156 13752 6419 1 109.50000 418.400000
4156 13752 7227 1 109.50000 418.400000
6419 13752 7227 1 109.50000 418.400000
7228 13753 7229 1 109.50000 418.400000
7228 13753 7230 1 109.50000 418.400000
7228 13753 7231 1 109.50000 418.400000
7229 13753 7230 1 109.50000 418.400000
7229 13753 7231 1 109.50000 418.400000
7230 13753 7231 1 109.50000 418.400000
4146 13754 7232 1 109.50000 418.400000
4146 13754 7233 1 109.50000 418.400000
4146 13754 7234 1 109.50000 418.400000
7232 13754 7233 1 109.50000 418.400000
7232 13754 7234 1 109.50000 418.400000
7233 13754 7234 1 109.50000 418.400000
296 13755 297 1 109.50000 418.400000
296 13755 7235 1 109.50000 418.400000
296 13755 7236 1 109.50000 418.400000
297 13755 7235 1 109.50000 418.400000
297 13755 7236 1 109.50000 418.400000
7235 13755 7236 1 109.50000 418.400000
1919 13756 6747 1 109.50000 418.400000
1919 13756 7238 1 109.50000 418.400000
1919 13756 7239 1 109.50000 418.400000
6747 13756 7238 1 109.50000 418.400000
6747 13756 7239 1 109.50000 418.400000
7238 13756 7239 1 109.50000 418.400000
94 13757 7241 1 109.50000 418.400000
94 13757 7242 1 109.50000 418.400000
94 13757 10704 1 109.50000 418.400000
7241 13757 7242 1 109.50000 418.400000
7241 13757 10704 1 109.50000 418.400000
7242 13757 10704 1 109.50000 418.400000
1241 13758 6534 1 109.50000 418.400000
1241 13758 7243 1 109.50000 418.400000
1241 13758 7244 1 109.50000 418.400000
6534 13758 7243 1 109.50000 418.400000
6534 13758 7244 1 109.50000 418.400000
7243 13758 7244 1 109.50000 418.400000
3786 13759 5207 1 109.50000 418.400000
3786 13759 7245 1 109.50000 418.400000
3786 13759 7246 1 109.50000 418.400000
5207 13759 7245 1 109.50000 418.400000
5207 13759 7246 1 109.50000 418.400000
7245 13759 7246 1 109.50000 418.400000
7247 13760 7248 1 109.50000 418.400000
7247 13760 7249 1 109.50000 418.400000
7247 13760 7250 1 109.50000 418.400000
7248 13760 7249 1 109.50000 418.400000
7248 13760 7250 1 109.50000 418.400000
7249 13760 7250 1 109.50000 418.400000
4054 13761 6098 1 109.50000 418.400000
4054 13761 6518 1 109.50000 418.400000
4054 13761 7251 1 109.50000 418.400000
6098 13761 6518 1 109.50000 418.400000
6098 13761 7251 1 109.50000 418.400000
6518 13761 7251 1 109.50000 418.400000
954 13762 3295 1 109.50000 418.400000
954 13762 7193 1 109.50000 418.400000
954 13762 7253 1 109.50000 418.400000
3295 13762 7193 1 109.50000 418.400000
3295 13762 7253 1 109.50000 418.400000
7193 13762 7253 1 109.50000 418.400000
1210 13763 2284 1 109.50000 418.400000
1210 13763 7254 1 109.50000 418.400000
1210 13763 8084 1 109.50000 418.400000
2284 13763 7254 1 109.50000 418.400000
2284 13763 8084 1 109.50000 418.400000
7254 13763 8084 1 109.50000 418.400000
3084 13764 3086 1 109.50000 418.400000
3084 13764 7255 1 109.50000 418.400000
3084 13764 7256 1 109.50000 418.400000
3086 13764 7255 1 109.50000 418.400000
3086 13764 7256 1 109.50000 418.400000
7255 13764 7256 1 109.50000 418.400000
1941 13765 5608 1 109.50000 418.400000
1941 13765 7258 1 109.50000 418.400000
1941 13765 7259 1 109.50000 418.400000
5608 13765 7258 1 109.50000 418.400000
5608 13765 7259 1 109.50000 418.400000
7258 13765 7259 1 109.50000 418.400000
5904 13766 5938 1 109.50000 418.400000
5904 13766 7260 1 109.50000 418.400000
5904 13766 7261 1 109.50000 418.400000
5938 13766 7260 1 109.50000 418.400000
5938 13766 7261 1 109.50000 418.400000
7260 13766 7261 1 109.50000 418.400000
7262 13767 7263 1 109.50000 418.400000
7262 13767 7264 1 109.50000 418.400000
7262 13767 11227 1 109.50000 418.400000
7263 13767 7264 1 109.50000 418.400000
7263 13767 11227 1 109.50000 418.400000
7264 13767 11227 1 109.50000 418.400000
111 13768 451 1 109.50000 418.400000
111 13768 7265 1 109.50000 418.400000
111 13768 7266 1 109.50000 418.400000
451 13768 7265 1 109.50000 418.400000
451 13768 7266 1 109.50000 418.400000
7265 13768 7266 1 109.50000 418.400000
1541 13769 3366 1 109.50000 418.400000
1541 13769 3367 1 109.50000 418.400000
1541 13769 7267 1 109.50000 418.400000
3366 13769 3367 1 109.50000 418.400000
3366 13769 7267 1 109.50000 418.400000
3367 13769 7267 1 109.50000 418.400000
868 13770 3372 1 109.50000 418.400000
868 13770 7268 1 109.50000 418.400000
868 13770 11161 1 109.50000 418.400000
3372 13770 7268 1 109.50000 418.400000
3372 13770 11161 1 109.50000 418.400000
7268 13770 11161 1 109.50000 418.400000
2681 13771 2901 1 109.50000 418.400000
2681 13771 5778 1 109.50000 418.400000
2681 13771 5959 1 109.50000 418.400000
2901 13771 5778 1 109.50000 418.400000
2901 13771 5959 1 109.50000 418.400000
5778 13771 5959 1 109.50000 418.400000
6203 13772 6660 1 109.50000 418.400000
6203 13772 7270 1 109.50000 418.400000
6203 13772 10401 1 109.50000 418.400000
6660 13772 7270 1 109.50000 418.400000
6660 13772 10401 1 109.50000 418.400000
7270 13772 10401 1 109.50000 418.400000
7271 13773 7272 1 109.50000 418.400000
7271 13773 7273 1 109.50000 418.400000
7271 13773 7274 1 109.50000 418.400000
7272 13773 7273 1 109.50000 418.400000
7272 13773 7274 1 109.50000 418.400000
7273 13773 7274 1 109.50000 418.400000
823 13774 4227 1 109.50000 418.400000
823 13774 7275 1 109.50000 418.400000
823 13774 7276 1 109.50000 418.400000
4227 13774 7275 1 109.50000 418.400000
4227 13774 7276 1 109.50000 418.400000
7275 13774 7276 1 109.50000 418.400000
7278 13775 7279 1 109.50000 418.400000
7278 13775 7280 1 109.50000 418.400000
7278 13775 9033 1 109.50000 418.400000
7279 13775 7280 1 109.50000 418.400000
7279 13775 9033 1 109.50000 418.400000
7280 13775 9033 1 109.50000 418.400000
2146 13776 5475 1 109.50000 418.400000
2146 13776 6135 1 109.50000 418.400000
2146 13776 7281 1 109.50000 418.400000
5475 13776 6135 1 109.50000 418.400000
5475 13776 7281 1 109.50000 418.400000
6135 13776 7281 1 109.50000 418.400000
7268 13777 7284 1 109.50000 418.400000
7268 13777 7285 1 109.50000 418.400000
7268 13777 7286 1 109.50000 418.400000
7284 13777 7285 1 109.50000 418.400000
7284 13777 7286 1 109.50000 418.400000
7285 13777 7286 1 109.50000 418.400000
2285 13778 5579 1 109.50000 418.400000
2285 13778 7223 1 109.50000 418.400000
2285 13778 7287 1 109.50000 418.400000
5579 13778 7223 1 109.50000 418.400000
5579 13778 7287 1 109.50000 418.400000
7223 13778 7287 1 109.50000 418.400000
7289 13779 7290 1 109.50000 418.400000
7289 13779 10193 1 109.50000 418.400000
7289 13779 10839 1 109.50000 418.400000
7290 13779 10193 1 109.50000 418.400000
7290 13779 10839 1 109.50000 418.400000
10193 13779 10839 1 109.50000 418.400000
15 13780 7292 1 109.50000 418.400000
15 13780 7293 1 109.50000 418.400000
15 13780 7294 1 109.50000 418.400000
7292 13780 7293 1 109.50000 418.400000
7292 13780 7294 1 109.50000 418.400000
7293 13780 7294 1 109.50000 418.400000
3471 13781 7295 1 109.50000 418.400000
3471 13781 7296 1 109.50000 418.400000
3471 13781 7297 1 109.50000 418.400000
7295 13781 7296 1 109.50000 418.400000
7295 13781 7297 1 109.50000 418.400000
7296 13781 7297 1 109.50000 418.400000
5056 13782 5978 1 109.50000 418.400000
5056 13782 5980 1 109.50000 418.400000
5056 13782 5981 1 109.50000 418.400000
5978 13782 5980 1 109.50000 418.400000
5978 13782 5981 1 109.50000 418.400000
5980 13782 5981 1 109.50000 418.400000
2847 13783 7298 1 109.50000 418.400000
2847 13783 7299 1 109.50000 418.400000
2847 13783 7300 1 109.50000 418.400000
7298 13783 7299 1 109.50000 418.400000
7298 13783 7300 1 109.50000 418.400000
7299 13783 7300 1 109.50000 418.400000
6237 13784 7303 1 109.50000 418.400000
6237 13784 7304 1 109.50000 418.400000
6237 13784 7305 1 109.50000 418.400000
7303 13784 7304 1 109.50000 418.400000
7303 13784 7305 1 109.50000 418.400000
7304 13784 7305 1 109.50000 418.400000
4644 13785 7306 1 109.50000 418.400000
4644 13785 7307 1 109.50000 418.400000
4644 13785 7308 1 109.50000 418.400000
7306 13785 7307 1 109.50000 418.400000
7306 13785 7308 1 109.50000 418.400000
7307 13785 7308 1 109.50000 418.400000
7309 13786 7310 1 109.50000 418.400000
7309 13786 7311 1 109.50000 418.400000
7309 13786 7312 1 109.50000 418.400000
7310 13786 7311 1 109.50000 418.400000
7310 13786 7312 1 109.50000 418.400000
7311 13786 7312 1 109.50000 418.400000
1490 13787 7151 1 109.50000 418.400000
1490 13787 7313 1 109.50000 418.400000
1490 13787 7314 1 109.50000 418.400000
7151 13787 7313 1 109.50000 418.400000
7151 13787 7314 1 109.50000 418.400000
7313 13787 7314 1 109.50000 418.400000
5389 13788 7315 1 109.50000 418.400000
5389 13788 7316 1 109.50000 418.400000
5389 13788 9938 1 109.50000 418.400000
7315 13788 7316 1 109.50000 418.400000
7315 13788 9938 1 109.50000 418.400000
7316 13788 9938 1 109.50000 418.400000
5927 13789 5952 1 109.50000 418.400000
5927 13789 7129 1 109.50000 418.400000
5927 13789 7231 1 109.50000 418.400000
5952 13789 7129 1 109.50000 418.400000
5952 13789 7231 1 109.50000 418.400000
7129 13789 7231 1 109.50000 418.400000
752 13790 2567 1 109.50000 418.400000
752 13790 7317 1 109.50000 418.400000
752 13790 7318 1 109.50000 418.400000
2567 13790 7317 1 109.50000 418.400000
2567 13790 7318 1 109.50000 418.400000
7317 13790 7318 1 109.50000 418.400000
1349 13791 1350 1 109.50000 418.400000
1349 13791 1351 1 109.50000 418.400000
1349 13791 9817 1 109.50000 418.400000
1350 13791 1351 1 109.50000 418.400000
1350 13791 9817 1 109.50000 418.400000
1351 13791 9817 1 109.50000 418.400000
2067 13792 5248 1 109.50000 418.400000
2067 13792 7321 1 109.50000 418.400000
2067 13792 7322 1 109.50000 418.400000
5248 13792 7321 1 109.50000 418.400000
5248 13792 7322 1 109.50000 418.400000
7321 13792 7322 1 109.50000 418.400000
1974 13793 2464 1 109.50000 418.400000
1974 13793 7323 1 109.50000 418.400000
1974 13793 7324 1 109.50000 418.400000
2464 13793 7323 1 109.50000 418.400000
2464 13793 7324 1 109.50000 418.400000
7323 13793 7324 1 109.50000 418.400000
3228 13794 3281 1 109.50000 418.400000
3228 13794 4306 1 109.50000 418.400000
3228 13794 4987 1 109.50000 418.400000
3281 13794 4306 1 109.50000 418.400000
3281 13794 4987 1 109.50000 418.400000
4306 13794 4987 1 109.50000 418.400000
6506 13795 7327 1 109.50000 418.400000
6506 13795 7328 1 109.50000 418.400000
6506 13795 7781 1 109.50000 418.400000
7327 13795 7328 1 109.50000 418.400000
7327 13795 7781 1 109.50000 418.400000
7328 13795 7781 1 109.50000 418.400000
3327 13796 6176 1 109.50000 418.400000
3327 13796 7283 1 109.50000 418.400000
3327 13796 7329 1 109.50000 418.400000
6176 13796 7283 1 109.50000 418.400000
6176 13796 7329 1 109.50000 418.400000
7283 13796 7329 1 109.50000 418.400000
86 13797 4920 1 109.50000 418.400000
86 13797 5187 1 109.50000 418.400000
86 13797 7330 1 109.50000 418.400000
4920 13797 5187 1 109.50000 418.400000
4920 13797 7330 1 109.50000 418.400000
5187 13797 7330 1 109.50000 418.400000
6906 13798 7331 1 109.50000 418.400000
6906 13798 7332 1 109.50000 418.400000
6906 13798 7333 1 109.50000 418.400000
7331 13798 7332 1 109.50000 418.400000
7331 13798 7333 1 109.50000 418.400000
7332 13798 7333 1 109.50000 418.400000
7334 13799 7335 1 109.50000 418.400000
7334 13799 7336 1 109.50000 418.400000
7334 13799 7337 1 109.50000 418.400000
7335 13799 7336 1 109.50000 418.400000
7335 13799 7337 1 109.50000 418.400000
7336 13799 7337 1 109.50000 418.400000
3200 13800 7338 1 109.50000 418.400000
3200 13800 7339 1 109.50000 418.400000
3200 13800 7340 1 109.50000 418.400000
7338 13800 7339 1 109.50000 418.400000
7338 13800 7340 1 109.50000 418.400000
7339 13800 7340 1 109.50000 418.400000
6163 13801 7342 1 109.50000 418.400000
6163 13801 7343 1 109.50000 418.400000
6163 13801 7344 1 109.50000 418.400000
7342 13801 7343 1 109.50000 418.400000
7342 13801 7344 1 109.50000 418.400000
7343 13801 7344 1 109.50000 418.400000
2254 13802 7345 1 109.50000 418.400000
2254 13802 7346 1 109.50000 418.400000
2254 13802 7347 1 109.50000 418.400000
7345 13802 7346 1 109.50000 418.400000
7345 13802 7347 1 109.50000 418.400000
7346 13802 7347 1 109.50000 418.400000
7284 13803 7348 1 109.50000 418.400000
7284 13803 7349 1 109.50000 418.400000
7284 13803 7350 1 109.50000 418.400000
7348 13803 7349 1 109.50000 418.400000
7348 13803 7350 1 109.50000 418.400000
7349 13803 7350 1 109.50000 418.400000
4098 13804 7351 1 109.50000 418.400000
4098 13804 7352 1 109.50000 418.400000
4098 13804 7353 1 109.50000 418.400000
7351 13804 7352 1 109.50000 418.400000
7351 13804 7353 1 109.50000 418.400000
7352 13804 7353 1 109.50000 418.400000
2736 13805 7354 1 109.50000 418.400000
2736 13805 7355 1 109.50000 418.400000
2736 13805 7356 1 109.50000 418.400000
7354 13805 7355 1 109.50000 418.400000
7354 13805 7356 1 109.50000 418.400000
7355 13805 7356 1 109.50000 418.400000
1938 13806 6762 1 109.50000 418.400000
1938 13806 7357 1 109.50000 418.400000
1938 13806 7359 1 109.50000 418.400000
6762 13806 7357 1 109.50000 418.400000
6762 13806 7359 1 109.50000 418.400000
7357 13806 7359 1 109.50000 418.400000
2654 13807 7360 1 109.50000 418.400000
2654 13807 7361 1 109.50000 418.400000
2654 13807 7362 1 109.50000 418.400000
7360 13807 7361 1 109.50000 418.400000
7360 13807 7362 1 109.50000 418.400000
7361 13807 7362 1 109.50000 418.400000
5940 13808 7363 1 109.50000 418.400000
5940 13808 7364 1 109.50000 418.400000
5940 13808 7365 1 109.50000 418.400000
7363 13808 7364 1 109.50000 418.400000
7363 13808 7365 1 109.50000 418.400000
7364 13808 7365 1 109.50000 418.400000
2366 13809 2704 1 109.50000 418.400000
2366 13809 6754 1 109.50000 418.400000
2366 13809 7366 1 109.50000 418.400000
2704 13809 6754 1 109.50000 418.400000
2704 13809 7366 1 109.50000 418.400000
6754 13809 7366 1 109.50000 418.400000
159 13810 3972 1 109.50000 418.400000
159 13810 4882 1 109.50000 418.400000
159 13810 7367 1 109.50000 418.400000
3972 13810 4882 1 109.50000 418.400000
3972 13810 7367 1 109.50000 418.400000
4882 13810 7367 1 109.50000 418.400000
744 13811 3519 1 109.50000 418.400000
744 13811 7369 1 109.50000 418.400000
744 13811 11490 1 109.50000 418.400000
3519 13811 7369 1 109.50000 418.400000
3519 13811 11490 1 109.50000 418.400000
7369 13811 11490 1 109.50000 418.400000
1150 13812 1151 1 109.50000 418.400000
1150 13812 7370 1 109.50000 418.400000
1150 13812 7372 1 109.50000 418.400000
1151 13812 7370 1 109.50000 418.400000
1151 13812 7372 1 109.50000 418.400000
7370 13812 7372 1 109.50000 418.400000
1199 13813 1201 1 109.50000 418.400000
1199 13813 7374 1 109.50000 418.400000
1199 13813 9508 1 109.50000 418.400000
1201 13813 7374 1 109.50000 418.400000
1201 13813 9508 1 109.50000 418.400000
7374 13813 9508 1 109.50000 418.400000
3504 13814 6148 1 109.50000 418.400000
3504 13814 11339 1 109.50000 418.400000
3504 13814 11435 1 109.50000 418.400000
6148 13814 11339 1 109.50000 418.400000
6148 13814 11435 1 109.50000 418.400000
11339 13814 11435 1 109.50000 418.400000
1641 13815 5273 1 109.50000 418.400000
1641 13815 5972 1 109.50000 418.400000
1641 13815 7247 1 109.50000 418.400000
5273 13815 5972 1 109.50000 418.400000
5273 13815 7247 1 109.50000 418.400000
5972 13815 7247 1 109.50000 418.400000
7377 13816 7378 1 109.50000 418.400000
7377 13816 7379 1 109.50000 418.400000
7377 13816 7380 1 109.50000 418.400000
7378 13816 7379 1 109.50000 418.400000
7378 13816 7380 1 109.50000 418.400000
7379 13816 7380 1 109.50000 418.400000
1579 13817 4321 1 109.50000 418.400000
1579 13817 7381 1 109.50000 418.400000
1579 13817 7382 1 109.50000 418.400000
4321 13817 7381 1 109.50000 418.400000
4321 13817 7382 1 109.50000 418.400000
7381 13817 7382 1 109.50000 418.400000
3131 13818 4985 1 109.50000 418.400000
3131 13818 6445 1 109.50000 418.400000
3131 13818 7383 1 109.50000 418.400000
4985 13818 6445 1 109.50000 418.400000
4985 13818 7383 1 109.50000 418.400000
6445 13818 7383 1 109.50000 418.400000
5586 13819 5912 1 109.50000 418.400000
5586 13819 6105 1 109.50000 418.400000
5586 13819 7091 1 109.50000 418.400000
5912 13819 6105 1 109.50000 418.400000
5912 13819 7091 1 109.50000 418.400000
6105 13819 7091 1 109.50000 418.400000
7384 13820 7385 1 109.50000 418.400000
7384 13820 7386 1 109.50000 418.400000
7384 13820 7387 1 109.50000 418.400000
7385 13820 7386 1 109.50000 418.400000
7385 13820 7387 1 109.50000 418.400000
7386 13820 7387 1 109.50000 418.400000
541 13821 3182 1 109.50000 418.400000
541 13821 7388 1 109.50000 418.400000
541 13821 7389 1 109.50000 418.400000
3182 13821 7388 1 109.50000 418.400000
3182 13821 7389 1 109.50000 418.400000
7388 13821 7389 1 109.50000 418.400000
6791 13822 7022 1 109.50000 418.400000
6791 13822 7390 1 109.50000 418.400000
6791 13822 7391 1 109.50000 418.400000
7022 13822 7390 1 109.50000 418.400000
7022 13822 7391 1 109.50000 418.400000
7390 13822 7391 1 109.50000 418.400000
773 13823 4579 1 109.50000 418.400000
773 13823 7392 1 109.50000 418.400000
773 13823 7393 1 109.50000 418.400000
4579 13823 7392 1 109.50000 418.400000
4579 13823 7393 1 109.50000 418.400000
7392 13823 7393 1 109.50000 418.400000
2432 13824 2433 1 109.50000 418.400000
2432 13824 11268 1 109.50000 418.400000
2432 13824 11341 1 109.50000 418.400000
2433 13824 11268 1 109.50000 418.400000
2433 13824 11341 1 109.50000 418.400000
11268 13824 11341 1 109.50000 418.400000
5994 13825 7394 1 109.50000 418.400000
5994 13825 7395 1 109.50000 418.400000
5994 13825 7396 1 109.50000 418.400000
7394 13825 7395 1 109.50000 418.400000
7394 13825 7396 1 109.50000 418.400000
7395 13825 7396 1 109.50000 418.400000
86 13826 88 1 109.50000 418.400000
86 13826 7397 1 109.50000 418.400000
86 13826 7398 1 109.50000 418.400000
88 13826 7397 1 109.50000 418.400000
88 13826 7398 1 109.50000 418.400000
7397 13826 7398 1 109.50000 418.400000
7401 13827 7402 1 109.50000 418.400000
7401 13827 7403 1 109.50000 418.400000
7401 13827 7404 1 109.50000 418.400000
7402 13827 7403 1 109.50000 418.400000
7402 13827 7404 1 109.50000 418.400000
7403 13827 7404 1 109.50000 418.400000
3720 13828 7405 1 109.50000 418.400000
3720 13828 7406 1 109.50000 418.400000
3720 13828 7407 1 109.50000 418.400000
7405 13828 7406 1 109.50000 418.400000
7405 13828 7407 1 109.50000 418.400000
7406 13828 7407 1 109.50000 418.400000
3954 13829 3956 1 109.50000 418.400000
3954 13829 7408 1 109.50000 418.400000
3954 13829 10864 1 109.50000 418.400000
3956 13829 7408 1 109.50000 418.400000
3956 13829 10864 1 109.50000 418.400000
7408 13829 10864 1 109.50000 418.400000
5465 13830 7411 1 109.50000 418.400000
5465 13830 7412 1 109.50000 418.400000
5465 13830 7413 1 109.50000 418.400000
7411 13830 7412 1 109.50000 418.400000
7411 13830 7413 1 109.50000 418.400000
7412 13830 7413 1 109.50000 418.400000
2701 13831 3230 1 109.50000 418.400000
2701 13831 3262 1 109.50000 418.400000
2701 13831 7414 1 109.50000 418.400000
3230 13831 3262 1 109.50000 418.400000
3230 13831 7414 1 109.50000 418.400000
3262 13831 7414 1 109.50000 418.400000
4181 13832 5817 1 109.50000 418.400000
4181 13832 7415 1 109.50000 418.400000
4181 13832 7416 1 109.50000 418.400000
5817 13832 7415 1 109.50000 418.400000
5817 13832 7416 1 109.50000 418.400000
7415 13832 7416 1 109.50000 418.400000
2714 13833 4679 1 109.50000 418.400000
2714 13833 7253 1 109.50000 418.400000
2714 13833 7417 1 109.50000 418.400000
4679 13833 7253 1 109.50000 418.400000
4679 13833 7417 1 109.50000 418.400000
7253 13833 7417 1 109.50000 418.400000
726 13834 7418 1 109.50000 418.400000
726 13834 7419 1 109.50000 418.400000
726 13834 7420 1 109.50000 418.400000
7418 13834 7419 1 109.50000 418.400000
7418 13834 7420 1 109.50000 418.400000
7419 13834 7420 1 109.50000 418.400000
5345 13835 6069 1 109.50000 418.400000
5345 13835 7421 1 109.50000 418.400000
5345 13835 7422 1 109.50000 418.400000
6069 13835 7421 1 109.50000 418.400000
6069 13835 7422 1 109.50000 418.400000
7421 13835 7422 1 109.50000 418.400000
3771 13836 5460 1 109.50000 418.400000
3771 13836 11371 1 109.50000 418.400000
3771 13836 11426 1 109.50000 418.400000
5460 13836 11371 1 109.50000 418.400000
5460 13836 11426 1 109.50000 418.400000
11371 13836 11426 1 109.50000 418.400000
3288 13837 6035 1 109.50000 418.400000
3288 13837 6553 1 109.50000 418.400000
3288 13837 7423 1 109.50000 418.400000
6035 13837 6553 1 109.50000 418.400000
6035 13837 7423 1 109.50000 418.400000
6553 13837 7423 1 109.50000 418.400000
7409 13838 7424 1 109.50000 418.400000
7409 13838 7425 1 109.50000 418.400000
7409 13838 7426 1 109.50000 418.400000
7424 13838 7425 1 109.50000 418.400000
7424 13838 7426 1 109.50000 418.400000
7425 13838 7426 1 109.50000 418.400000
6639 13839 7427 1 109.50000 418.400000
6639 13839 7428 1 109.50000 418.400000
6639 13839 7429 1 109.50000 418.400000
7427 13839 7428 1 109.50000 418.400000
7427 13839 7429 1 109.50000 418.400000
7428 13839 7429 1 109.50000 418.400000
7093 13840 7249 1 109.50000 418.400000
7093 13840 7430 1 109.50000 418.400000
7093 13840 7432 1 109.50000 418.400000
7249 13840 7430 1 109.50000 418.400000
7249 13840 7432 1 109.50000 418.400000
7430 13840 7432 1 109.50000 418.400000
1077 13841 4417 1 109.50000 418.400000
1077 13841 5296 1 109.50000 418.400000
1077 13841 7433 1 109.50000 418.400000
4417 13841 5296 1 109.50000 418.400000
4417 13841 7433 1 109.50000 418.400000
5296 13841 7433 1 109.50000 418.400000
4259 13842 7434 1 109.50000 418.400000
4259 13842 7435 1 109.50000 418.400000
4259 13842 7436 1 109.50000 418.400000
7434 13842 7435 1 109.50000 418.400000
7434 13842 7436 1 109.50000 418.400000
7435 13842 7436 1 109.50000 418.400000
1166 13843 7437 1 109.50000 418.400000
1166 13843 7438 1 109.50000 418.400000
1166 13843 7439 1 109.50000 418.400000
7437 13843 7438 1 109.50000 418.400000
7437 13843 7439 1 109.50000 418.400000
7438 13843 7439 1 109.50000 418.400000
4880 13844 7310 1 109.50000 418.400000
4880 13844 7440 1 109.50000 418.400000
4880 13844 7441 1 109.50000 418.400000
7310 13844 7440 1 109.50000 418.400000
7310 13844 7441 1 109.50000 418.400000
7440 13844 7441 1 109.50000 418.400000
4383 13845 6138 1 109.50000 418.400000
4383 13845 7181 1 109.50000 418.400000
4383 13845 7442 1 109.50000 418.400000
6138 13845 7181 1 109.50000 418.400000
6138 13845 7442 1 109.50000 418.400000
7181 13845 7442 1 109.50000 418.400000
4460 13846 7443 1 109.50000 418.400000
4460 13846 7444 1 109.50000 418.400000
4460 13846 7445 1 109.50000 418.400000
7443 13846 7444 1 109.50000 418.400000
7443 13846 7445 1 109.50000 418.400000
7444 13846 7445 1 109.50000 418.400000
4307 13847 6407 1 109.50000 418.400000
4307 13847 6765 1 109.50000 418.400000
4307 13847 6916 1 109.50000 418.400000
6407 13847 6765 1 109.50000 418.400000
6407 13847 6916 1 109.50000 418.400000
6765 13847 6916 1 109.50000 418.400000
4807 13848 6656 1 109.50000 418.400000
4807 13848 7447 1 109.50000 418.400000
4807 13848 7448 1 109.50000 418.400000
6656 13848 7447 1 109.50000 418.400000
6656 13848 7448 1 109.50000 418.400000
7447 13848 7448 1 109.50000 418.400000
4675 13849 6912 1 109.50000 418.400000
4675 13849 7449 1 109.50000 418.400000
4675 13849 7450 1 109.50000 418.400000
6912 13849 7449 1 109.50000 418.400000
6912 13849 7450 1 109.50000 418.400000
7449 13849 7450 1 109.50000 418.400000
6161 13850 6162 1 109.50000 418.400000
6161 13850 7452 1 109.50000 418.400000
6161 13850 7453 1 109.50000 418.400000
6162 13850 7452 1 109.50000 418.400000
6162 13850 7453 1 109.50000 418.400000
7452 13850 7453 1 109.50000 418.400000
6706 13851 7454 1 109.50000 418.400000
6706 13851 7455 1 109.50000 418.400000
6706 13851 7456 1 109.50000 418.400000
7454 13851 7455 1 109.50000 418.400000
7454 13851 7456 1 109.50000 418.400000
7455 13851 7456 1 109.50000 418.400000
13 13852 2589 1 109.50000 418.400000
13 13852 7457 1 109.50000 418.400000
13 13852 7458 1 109.50000 418.400000
2589 13852 7457 1 109.50000 418.400000
2589 13852 7458 1 109.50000 418.400000
7457 13852 7458 1 109.50000 418.400000
5055 13853 7459 1 109.50000 418.400000
5055 13853 7460 1 109.50000 418.400000
5055 13853 7461 1 109.50000 418.400000
7459 13853 7460 1 109.50000 418.400000
7459 13853 7461 1 109.50000 418.400000
7460 13853 7461 1 109.50000 418.400000
746 13854 1795 1 109.50000 418.400000
746 13854 7462 1 109.50000 418.400000
746 13854 7463 1 109.50000 418.400000
1795 13854 7462 1 109.50000 418.400000
1795 13854 7463 1 109.50000 418.400000
7462 13854 7463 1 109.50000 418.400000
2547 13855 7464 1 109.50000 418.400000
2547 13855 7465 1 109.50000 418.400000
2547 13855 7466 1 109.50000 418.400000
7464 13855 7465 1 109.50000 418.400000
7464 13855 7466 1 109.50000 418.400000
7465 13855 7466 1 109.50000 418.400000
6687 13856 6925 1 109.50000 418.400000
6687 13856 7467 1 109.50000 418.400000
6687 13856 7468 1 109.50000 418.400000
6925 13856 7467 1 109.50000 418.400000
6925 13856 7468 1 109.50000 418.400000
7467 13856 7468 1 109.50000 418.400000
4091 13857 5277 1 109.50000 418.400000
4091 13857 6410 1 109.50000 418.400000
4091 13857 7469 1 109.50000 418.400000
5277 13857 6410 1 109.50000 418.400000
5277 13857 7469 1 109.50000 418.400000
6410 13857 7469 1 109.50000 418.400000
2562 13858 4229 1 109.50000 418.400000
2562 13858 5403 1 109.50000 418.400000
2562 13858 7471 1 109.50000 418.400000
4229 13858 5403 1 109.50000 418.400000
4229 13858 7471 1 109.50000 418.400000
5403 13858 7471 1 109.50000 418.400000
1476 13859 4692 1 109.50000 418.400000
1476 13859 7472 1 109.50000 418.400000
1476 13859 11165 1 109.50000 418.400000
4692 13859 7472 1 109.50000 418.400000
4692 13859 11165 1 109.50000 418.400000
7472 13859 11165 1 109.50000 418.400000
2821 13860 7084 1 109.50000 418.400000
2821 13860 7271 1 109.50000 418.400000
2821 13860 7473 1 109.50000 418.400000
7084 13860 7271 1 109.50000 418.400000
7084 13860 7473 1 109.50000 418.400000
7271 13860 7473 1 109.50000 418.400000
7474 13861 7475 1 109.50000 418.400000
7474 13861 7476 1 109.50000 418.400000
7474 13861 7477 1 109.50000 418.400000
7475 13861 7476 1 109.50000 418.400000
7475 13861 7477 1 109.50000 418.400000
7476 13861 7477 1 109.50000 418.400000
5753 13862 6327 1 109.50000 418.400000
5753 13862 6431 1 109.50000 418.400000
5753 13862 7478 1 109.50000 418.400000
6327 13862 6431 1 109.50000 418.400000
6327 13862 7478 1 109.50000 418.400000
6431 13862 7478 1 109.50000 418.400000
407 13863 3707 1 109.50000 418.400000
407 13863 7479 1 109.50000 418.400000
407 13863 7480 1 109.50000 418.400000
3707 13863 7479 1 109.50000 418.400000
3707 13863 7480 1 109.50000 418.400000
7479 13863 7480 1 109.50000 418.400000
4336 13864 7481 1 109.50000 418.400000
4336 13864 7482 1 109.50000 418.400000
4336 13864 7483 1 109.50000 418.400000
7481 13864 7482 1 109.50000 418.400000
7481 13864 7483 1 109.50000 418.400000
7482 13864 7483 1 109.50000 418.400000
4959 13865 5571 1 109.50000 418.400000
4959 13865 6191 1 109.50000 418.400000
4959 13865 7484 1 109.50000 418.400000
5571 13865 6191 1 109.50000 418.400000
5571 13865 7484 1 109.50000 418.400000
6191 13865 7484 1 109.50000 418.400000
5288 13866 7485 1 109.50000 418.400000
5288 13866 7486 1 109.50000 418.400000
5288 13866 11489 1 109.50000 418.400000
7485 13866 7486 1 109.50000 418.400000
7485 13866 11489 1 109.50000 418.400000
7486 13866 11489 1 109.50000 418.400000
3479 13867 7341 1 109.50000 418.400000
3479 13867 7342 1 109.50000 418.400000
3479 13867 11471 1 109.50000 418.400000
7341 13867 7342 1 109.50000 418.400000
7341 13867 11471 1 109.50000 418.400000
7342 13867 11471 1 109.50000 418.400000
3340 13868 7487 1 109.50000 418.400000
3340 13868 7488 1 109.50000 418.400000
3340 13868 7489 1 109.50000 418.400000
7487 13868 7488 1 109.50000 418.400000
7487 13868 7489 1 109.50000 418.400000
7488 13868 7489 1 109.50000 418.400000
651 13869 7490 1 109.50000 418.400000
651 13869 7491 1 109.50000 418.400000
651 13869 7492 1 109.50000 418.400000
7490 13869 7491 1 109.50000 418.400000
7490 13869 7492 1 109.50000 418.400000
7491 13869 7492 1 109.50000 418.400000
2541 13870 4791 1 109.50000 418.400000
2541 13870 7493 1 109.50000 418.400000
2541 13870 7494 1 109.50000 418.400000
4791 13870 7493 1 109.50000 418.400000
4791 13870 7494 1 109.50000 418.400000
7493 13870 7494 1 109.50000 418.400000
6447 13871 7143 1 109.50000 418.400000
6447 13871 7495 1 109.50000 418.400000
6447 13871 7496 1 109.50000 418.400000
7143 13871 7495 1 109.50000 418.400000
7143 13871 7496 1 109.50000 418.400000
7495 13871 7496 1 109.50000 418.400000
7498 13872 7499 1 109.50000 418.400000
7498 13872 7500 1 109.50000 418.400000
7498 13872 7501 1 109.50000 418.400000
7499 13872 7500 1 109.50000 418.400000
7499 13872 7501 1 109.50000 418.400000
7500 13872 7501 1 109.50000 418.400000
891 13873 7502 1 109.50000 418.400000
891 13873 7503 1 109.50000 418.400000
891 13873 7504 1 109.50000 418.400000
7502 13873 7503 1 109.50000 418.400000
7502 13873 7504 1 109.50000 418.400000
7503 13873 7504 1 109.50000 418.400000
582 13874 5033 1 109.50000 418.400000
582 13874 7505 1 109.50000 418.400000
582 13874 7506 1 109.50000 418.400000
5033 13874 7505 1 109.50000 418.400000
5033 13874 7506 1 109.50000 418.400000
7505 13874 7506 1 109.50000 418.400000
3106 13875 5095 1 109.50000 418.400000
3106 13875 5501 1 109.50000 418.400000
3106 13875 11442 1 109.50000 418.400000
5095 13875 5501 1 109.50000 418.400000
5095 13875 11442 1 109.50000 418.400000
5501 13875 11442 1 109.50000 418.400000
3566 13876 4178 1 109.50000 418.400000
3566 13876 7508 1 109.50000 418.400000
3566 13876 7509 1 109.50000 418.400000
4178 13876 7508 1 109.50000 418.400000
4178 13876 7509 1 109.50000 418.400000
7508 13876 7509 1 109.50000 418.400000
611 13877 6450 1 109.50000 418.400000
611 13877 7511 1 109.50000 418.400000
611 13877 7512 1 109.50000 418.400000
6450 13877 7511 1 109.50000 418.400000
6450 13877 7512 1 109.50000 418.400000
7511 13877 7512 1 109.50000 418.400000
250 13878 253 1 109.50000 418.400000
250 13878 7515 1 109.50000 418.400000
250 13878 8014 1 109.50000 418.400000
253 13878 7515 1 109.50000 418.400000
253 13878 8014 1 109.50000 418.400000
7515 13878 8014 1 109.50000 418.400000
2255 13879 7436 1 109.50000 418.400000
2255 13879 7516 1 109.50000 418.400000
2255 13879 7517 1 109.50000 418.400000
7436 13879 7516 1 109.50000 418.400000
7436 13879 7517 1 109.50000 418.400000
7516 13879 7517 1 109.50000 418.400000
3270 13880 6433 1 109.50000 418.400000
3270 13880 7518 1 109.50000 418.400000
3270 13880 7519 1 109.50000 418.400000
6433 13880 7518 1 109.50000 418.400000
6433 13880 7519 1 109.50000 418.400000
7518 13880 7519 1 109.50000 418.400000
1395 13881 7520 1 109.50000 418.400000
1395 13881 7521 1 109.50000 418.400000
1395 13881 10248 1 109.50000 418.400000
7520 13881 7521 1 109.50000 418.400000
7520 13881 10248 1 109.50000 418.400000
7521 13881 10248 1 109.50000 418.400000
5638 13882 7523 1 109.50000 418.400000
5638 13882 7524 1 109.50000 418.400000
5638 13882 7525 1 109.50000 418.400000
7523 13882 7524 1 109.50000 418.400000
7523 13882 7525 1 109.50000 418.400000
7524 13882 7525 1 109.50000 418.400000
5875 13883 6971 1 109.50000 418.400000
5875 13883 7526 1 109.50000 418.400000
5875 13883 7527 1 109.50000 418.400000
6971 13883 7526 1 109.50000 418.400000
6971 13883 7527 1 109.50000 418.400000
7526 13883 7527 1 109.50000 418.400000
7528 13884 7529 1 109.50000 418.400000
7528 13884 11160 1 109.50000 418.400000
7528 13884 11263 1 109.50000 418.400000
7529 13884 11160 1 109.50000 418.400000
7529 13884 11263 1 109.50000 418.400000
11160 13884 11263 1 109.50000 418.400000
3395 13885 7530 1 109.50000 418.400000
3395 13885 7531 1 109.50000 418.400000
3395 13885 7532 1 109.50000 418.400000
7530 13885 7531 1 109.50000 418.400000
7530 13885 7532 1 109.50000 418.400000
7531 13885 7532 1 109.50000 418.400000
2501 13886 4382 1 109.50000 418.400000
2501 13886 7533 1 109.50000 418.400000
2501 13886 7534 1 109.50000 418.400000
4382 13886 7533 1 109.50000 418.400000
4382 13886 7534 1 109.50000 418.400000
7533 13886 7534 1 109.50000 418.400000
509 13887 3755 1 109.50000 418.400000
509 13887 5782 1 109.50000 418.400000
509 13887 7535 1 109.50000 418.400000
3755 13887 5782 1 109.50000 418.400000
3755 13887 7535 1 109.50000 418.400000
5782 13887 7535 1 109.50000 418.400000
4482 13888 6977 1 109.50000 418.400000
4482 13888 7536 1 109.50000 418.400000
4482 13888 7537 1 109.50000 418.400000
6977 13888 7536 1 109.50000 418.400000
6977 13888 7537 1 109.50000 418.400000
7536 13888 7537 1 109.50000 418.400000
2580 13889 4724 1 109.50000 418.400000
2580 13889 6989 1 109.50000 418.400000
2580 13889 7538 1 109.50000 418.400000
4724 13889 6989 1 109.50000 418.400000
4724 13889 7538 1 109.50000 418.400000
6989 13889 7538 1 109.50000 418.400000
1266 13890 7497 1 109.50000 418.400000
1266 13890 7539 1 109.50000 418.400000
1266 13890 7540 1 109.50000 418.400000
7497 13890 7539 1 109.50000 418.400000
7497 13890 7540 1 109.50000 418.400000
7539 13890 7540 1 109.50000 418.400000
6965 13891 7541 1 109.50000 418.400000
6965 13891 7542 1 109.50000 418.400000
6965 13891 7543 1 109.50000 418.400000
7541 13891 7542 1 109.50000 418.400000
7541 13891 7543 1 109.50000 418.400000
7542 13891 7543 1 109.50000 418.400000
4488 13892 5114 1 109.50000 418.400000
4488 13892 6041 1 109.50000 418.400000
4488 13892 7544 1 109.50000 418.400000
5114 13892 6041 1 109.50000 418.400000
5114 13892 7544 1 109.50000 418.400000
6041 13892 7544 1 109.50000 418.400000
1585 13893 1636 1 109.50000 418.400000
1585 13893 7545 1 109.50000 418.400000
1585 13893 7546 1 109.50000 418.400000
1636 13893 7545 1 109.50000 418.400000
1636 13893 7546 1 109.50000 418.400000
7545 13893 7546 1 109.50000 418.400000
2467 13894 3774 1 109.50000 418.400000
2467 13894 5031 1 109.50000 418.400000
2467 13894 6952 1 109.50000 418.400000
3774 13894 5031 1 109.50000 418.400000
3774 13894 6952 1 109.50000 418.400000
5031 13894 6952 1 109.50000 418.400000
1239 13895 5907 1 109.50000 418.400000
1239 13895 6844 1 109.50000 418.400000
1239 13895 7547 1 109.50000 418.400000
5907 13895 6844 1 109.50000 418.400000
5907 13895 7547 1 109.50000 418.400000
6844 13895 7547 1 109.50000 418.400000
3495 13896 7548 1 109.50000 418.400000
3495 13896 7549 1 109.50000 418.400000
3495 13896 7550 1 109.50000 418.400000
7548 13896 7549 1 109.50000 418.400000
7548 13896 7550 1 109.50000 418.400000
7549 13896 7550 1 109.50000 418.400000
1702 13897 5775 1 109.50000 418.400000
1702 13897 7551 1 109.50000 418.400000
1702 13897 7552 1 109.50000 418.400000
5775 13897 7551 1 109.50000 418.400000
5775 13897 7552 1 109.50000 418.400000
7551 13897 7552 1 109.50000 418.400000
380 13898 3849 1 109.50000 418.400000
380 13898 7553 1 109.50000 418.400000
380 13898 7554 1 109.50000 418.400000
3849 13898 7553 1 109.50000 418.400000
3849 13898 7554 1 109.50000 418.400000
7553 13898 7554 1 109.50000 418.400000
132 13899 3087 1 109.50000 418.400000
132 13899 3247 1 109.50000 418.400000
132 13899 7555 1 109.50000 418.400000
3087 13899 3247 1 109.50000 418.400000
3087 13899 7555 1 109.50000 418.400000
3247 13899 7555 1 109.50000 418.400000
7483 13900 7556 1 109.50000 418.400000
7483 13900 7557 1 109.50000 418.400000
7483 13900 7558 1 109.50000 418.400000
7556 13900 7557 1 109.50000 418.400000
7556 13900 7558 1 109.50000 418.400000
7557 13900 7558 1 109.50000 418.400000
5845 13901 7559 1 109.50000 418.400000
5845 13901 11377 1 109.50000 418.400000
5845 13901 11467 1 109.50000 418.400000
7559 13901 11377 1 109.50000 418.400000
7559 13901 11467 1 109.50000 418.400000
11377 13901 11467 1 109.50000 418.400000
7560 13902 7561 1 109.50000 418.400000
7560 13902 7562 1 109.50000 418.400000
7560 13902 7563 1 109.50000 418.400000
7561 13902 7562 1 109.50000 418.400000
7561 13902 7563 1 109.50000 418.400000
7562 13902 7563 1 109.50000 418.400000
2759 13903 4407 1 109.50000 418.400000
2759 13903 7564 1 109.50000 418.400000
2759 13903 7565 1 109.50000 418.400000
4407 13903 7564 1 109.50000 418.400000
4407 13903 7565 1 109.50000 418.400000
7564 13903 7565 1 109.50000 418.400000
4915 13904 6716 1 109.50000 418.400000
4915 13904 7403 1 109.50000 418.400000
4915 13904 7566 1 109.50000 418.400000
6716 13904 7403 1 109.50000 418.400000
6716 13904 7566 1 109.50000 418.400000
7403 13904 7566 1 109.50000 418.400000
7128 13905 7567 1 109.50000 418.400000
7128 13905 7569 1 109.50000 418.400000
7128 13905 8469 1 109.50000 418.400000
7567 13905 7569 1 109.50000 418.400000
7567 13905 8469 1 109.50000 418.400000
7569 13905 8469 1 109.50000 418.400000
1341 13906 4199 1 109.50000 418.400000
1341 13906 7571 1 109.50000 418.400000
1341 13906 7572 1 109.50000 418.400000
4199 13906 7571 1 109.50000 418.400000
4199 13906 7572 1 109.50000 418.400000
7571 13906 7572 1 109.50000 418.400000
3803 13907 7573 1 109.50000 418.400000
3803 13907 7574 1 109.50000 418.400000
3803 13907 7575 1 109.50000 418.400000
7573 13907 7574 1 109.50000 418.400000
7573 13907 7575 1 109.50000 418.400000
7574 13907 7575 1 109.50000 418.400000
2018 13908 3322 1 109.50000 418.400000
2018 13908 4153 1 109.50000 418.400000
2018 13908 5236 1 109.50000 418.400000
3322 13908 4153 1 109.50000 418.400000
3322 13908 5236 1 109.50000 418.400000
4153 13908 5236 1 109.50000 418.400000
872 13909 3839 1 109.50000 418.400000
872 13909 6761 1 109.50000 418.400000
872 13909 6999 1 109.50000 418.400000
3839 13909 6761 1 109.50000 418.400000
3839 13909 6999 1 109.50000 418.400000
6761 13909 6999 1 109.50000 418.400000
1672 13910 4225 1 109.50000 418.400000
1672 13910 7576 1 109.50000 418.400000
1672 13910 7577 1 109.50000 418.400000
4225 13910 7576 1 109.50000 418.400000
4225 13910 7577 1 109.50000 418.400000
7576 13910 7577 1 109.50000 418.400000
805 13911 1374 1 109.50000 418.400000
805 13911 5787 1 109.50000 418.400000
805 13911 7578 1 109.50000 418.400000
1374 13911 5787 1 109.50000 418.400000
1374 13911 7578 1 109.50000 418.400000
5787 13911 7578 1 109.50000 418.400000
5646 13912 7579 1 109.50000 418.400000
5646 13912 7580 1 109.50000 418.400000
5646 13912 7581 1 109.50000 418.400000
7579 13912 7580 1 109.50000 418.400000
7579 13912 7581 1 109.50000 418.400000
7580 13912 7581 1 109.50000 418.400000
1404 13913 5350 1 109.50000 418.400000
1404 13913 7135 1 109.50000 418.400000
1404 13913 7582 1 109.50000 418.400000
5350 13913 7135 1 109.50000 418.400000
5350 13913 7582 1 109.50000 418.400000
7135 13913 7582 1 109.50000 418.400000
2089 13914 3391 1 109.50000 418.400000
2089 13914 6668 1 109.50000 418.400000
2089 13914 7583 1 109.50000 418.400000
3391 13914 6668 1 109.50000 418.400000
3391 13914 7583 1 109.50000 418.400000
6668 13914 7583 1 109.50000 418.400000
2368 13915 5086 1 109.50000 418.400000
2368 13915 7584 1 109.50000 418.400000
2368 13915 7585 1 109.50000 418.400000
5086 13915 7584 1 109.50000 418.400000
5086 13915 7585 1 109.50000 418.400000
7584 13915 7585 1 109.50000 418.400000
1422 13916 7189 1 109.50000 418.400000
1422 13916 7586 1 109.50000 418.400000
1422 13916 7587 1 109.50000 418.400000
7189 13916 7586 1 109.50000 418.400000
7189 13916 7587 1 109.50000 418.400000
7586 13916 7587 1 109.50000 418.400000
7351 13917 7588 1 109.50000 418.400000
7351 13917 7589 1 109.50000 418.400000
7351 13917 7590 1 109.50000 418.400000
7588 13917 7589 1 109.50000 418.400000
7588 13917 7590 1 109.50000 418.400000
7589 13917 7590 1 109.50000 418.400000
4752 13918 7591 1 109.50000 418.400000
4752 13918 7592 1 109.50000 418.400000
4752 13918 7593 1 109.50000 418.400000
7591 13918 7592 1 109.50000 418.400000
7591 13918 7593 1 109.50000 418.400000
7592 13918 7593 1 109.50000 418.400000
5621 13919 7594 1 109.50000 418.400000
5621 13919 7595 1 109.50000 418.400000
5621 13919 7596 1 109.50000 418.400000
7594 13919 7595 1 109.50000 418.400000
7594 13919 7596 1 109.50000 418.400000
7595 13919 7596 1 109.50000 418.400000
952 13920 2136 1 109.50000 418.400000
952 13920 7597 1 109.50000 418.400000
952 13920 7598 1 109.50000 418.400000
2136 13920 7597 1 109.50000 418.400000
2136 13920 7598 1 109.50000 418.400000
7597 13920 7598 1 109.50000 418.400000
6033 13921 6651 1 109.50000 418.400000
6033 13921 7599 1 109.50000 418.400000
6033 13921 7600 1 109.50000 418.400000
6651 13921 7599 1 109.50000 418.400000
6651 13921 7600 1 109.50000 418.400000
7599 13921 7600 1 109.50000 418.400000
189 13922 5291 1 109.50000 418.400000
189 13922 7601 1 109.50000 418.400000
189 13922 7602 1 109.50000 418.400000
5291 13922 7601 1 109.50000 418.400000
5291 13922 7602 1 109.50000 418.400000
7601 13922 7602 1 109.50000 418.400000
6164 13923 7604 1 109.50000 418.400000
6164 13923 7605 1 109.50000 418.400000
6164 13923 7606 1 109.50000 418.400000
7604 13923 7605 1 109.50000 418.400000
7604 13923 7606 1 109.50000 418.400000
7605 13923 7606 1 109.50000 418.400000
2862 13924 3173 1 109.50000 418.400000
2862 13924 4751 1 109.50000 418.400000
2862 13924 7607 1 109.50000 418.400000
3173 13924 4751 1 109.50000 418.400000
3173 13924 7607 1 109.50000 418.400000
4751 13924 7607 1 109.50000 418.400000
2739 13925 2933 1 109.50000 418.400000
2739 13925 7608 1 109.50000 418.400000
2739 13925 7609 1 109.50000 418.400000
2933 13925 7608 1 109.50000 418.400000
2933 13925 7609 1 109.50000 418.400000
7608 13925 7609 1 109.50000 418.400000
4005 13926 5367 1 109.50000 418.400000
4005 13926 7601 1 109.50000 418.400000
4005 13926 7610 1 109.50000 418.400000
5367 13926 7601 1 109.50000 418.400000
5367 13926 7610 1 109.50000 418.400000
7601 13926 7610 1 109.50000 418.400000
2875 13927 3329 1 109.50000 418.400000
2875 13927 3804 1 109.50000 418.400000
2875 13927 7611 1 109.50000 418.400000
3329 13927 3804 1 109.50000 418.400000
3329 13927 7611 1 109.50000 418.400000
3804 13927 7611 1 109.50000 418.400000
7613 13928 7614 1 109.50000 418.400000
7613 13928 10414 1 109.50000 418.400000
7613 13928 10513 1 109.50000 418.400000
7614 13928 10414 1 109.50000 418.400000
7614 13928 10513 1 109.50000 418.400000
10414 13928 10513 1 109.50000 418.400000
2093 13929 7615 1 109.50000 418.400000
2093 13929 7616 1 109.50000 418.400000
2093 13929 7617 1 109.50000 418.400000
7615 13929 7616 1 109.50000 418.400000
7615 13929 7617 1 109.50000 418.400000
7616 13929 7617 1 109.50000 418.400000
2726 13930 3699 1 109.50000 418.400000
2726 13930 6755 1 109.50000 418.400000
2726 13930 6943 1 109.50000 418.400000
3699 13930 6755 1 109.50000 418.400000
3699 13930 6943 1 109.50000 418.400000
6755 13930 6943 1 109.50000 418.400000
1401 13931 7618 1 109.50000 418.400000
1401 13931 7619 1 109.50000 418.400000
1401 13931 7620 1 109.50000 418.400000
7618 13931 7619 1 109.50000 418.400000
7618 13931 7620 1 109.50000 418.400000
7619 13931 7620 1 109.50000 418.400000
3446 13932 7621 1 109.50000 418.400000
3446 13932 7622 1 109.50000 418.400000
3446 13932 7623 1 109.50000 418.400000
7621 13932 7622 1 109.50000 418.400000
7621 13932 7623 1 109.50000 418.400000
7622 13932 7623 1 109.50000 418.400000
7624 13933 7625 1 109.50000 418.400000
7624 13933 7626 1 109.50000 418.400000
7624 13933 11418 1 109.50000 418.400000
7625 13933 7626 1 109.50000 418.400000
7625 13933 11418 1 109.50000 418.400000
7626 13933 11418 1 109.50000 418.400000
7209 13934 7627 1 109.50000 418.400000
7209 13934 7628 1 109.50000 418.400000
7209 13934 11498 1 109.50000 418.400000
7627 13934 7628 1 109.50000 418.400000
7627 13934 11498 1 109.50000 418.400000
7628 13934 11498 1 109.50000 418.400000
159 13935 7629 1 109.50000 418.400000
159 13935 7630 1 109.50000 418.400000
159 13935 7631 1 109.50000 418.400000
7629 13935 7630 1 109.50000 418.400000
7629 13935 7631 1 109.50000 418.400000
7630 13935 7631 1 109.50000 418.400000
7632 13936 7633 1 109.50000 418.400000
7632 13936 7634 1 109.50000 418.400000
7632 13936 7635 1 109.50000 418.400000
7633 13936 7634 1 109.50000 418.400000
7633 13936 7635 1 109.50000 418.400000
7634 13936 7635 1 109.50000 418.400000
5644 13937 7637 1 109.50000 418.400000
5644 13937 7638 1 109.50000 418.400000
5644 13937 7639 1 109.50000 418.400000
7637 13937 7638 1 109.50000 418.400000
7637 13937 7639 1 109.50000 418.400000
7638 13937 7639 1 109.50000 418.400000
6338 13938 7398 1 109.50000 418.400000
6338 13938 7640 1 109.50000 418.400000
6338 13938 7641 1 109.50000 418.400000
7398 13938 7640 1 109.50000 418.400000
7398 13938 7641 1 109.50000 418.400000
7640 13938 7641 1 109.50000 418.400000
5656 13939 5679 1 109.50000 418.400000
5656 13939 7642 1 109.50000 418.400000
5656 13939 7643 1 109.50000 418.400000
5679 13939 7642 1 109.50000 418.400000
5679 13939 7643 1 109.50000 418.400000
7642 13939 7643 1 109.50000 418.400000
6194 13940 7645 1 109.50000 418.400000
6194 13940 7646 1 109.50000 418.400000
6194 13940 10872 1 109.50000 418.400000
7645 13940 7646 1 109.50000 418.400000
7645 13940 10872 1 109.50000 418.400000
7646 13940 10872 1 109.50000 418.400000
1499 13941 3858 1 109.50000 418.400000
1499 13941 7647 1 109.50000 418.400000
1499 13941 7648 1 109.50000 418.400000
3858 13941 7647 1 109.50000 418.400000
3858 13941 7648 1 109.50000 418.400000
7647 13941 7648 1 109.50000 418.400000
1368 13942 4762 1 109.50000 418.400000
1368 13942 7649 1 109.50000 418.400000
1368 13942 7650 1 109.50000 418.400000
4762 13942 7649 1 109.50000 418.400000
4762 13942 7650 1 109.50000 418.400000
7649 13942 7650 1 109.50000 418.400000
5242 13943 7651 1 109.50000 418.400000
5242 13943 7652 1 109.50000 418.400000
5242 13943 7653 1 109.50000 418.400000
7651 13943 7652 1 109.50000 418.400000
7651 13943 7653 1 109.50000 418.400000
7652 13943 7653 1 109.50000 418.400000
353 13944 2357 1 109.50000 418.400000
353 13944 2976 1 109.50000 418.400000
353 13944 7654 1 109.50000 418.400000
2357 13944 2976 1 109.50000 418.400000
2357 13944 7654 1 109.50000 418.400000
2976 13944 7654 1 109.50000 418.400000
141 13945 693 1 109.50000 418.400000
141 13945 5601 1 109.50000 418.400000
141 13945 7656 1 109.50000 418.400000
693 13945 5601 1 109.50000 418.400000
693 13945 7656 1 109.50000 418.400000
5601 13945 7656 1 109.50000 418.400000
167 13946 4231 1 109.50000 418.400000
167 13946 4658 1 109.50000 418.400000
167 13946 7657 1 109.50000 418.400000
4231 13946 4658 1 109.50000 418.400000
4231 13946 7657 1 109.50000 418.400000
4658 13946 7657 1 109.50000 418.400000
3311 13947 3533 1 109.50000 418.400000
3311 13947 7659 1 109.50000 418.400000
3311 13947 7660 1 109.50000 418.400000
3533 13947 7659 1 109.50000 418.400000
3533 13947 7660 1 109.50000 418.400000
7659 13947 7660 1 109.50000 418.400000
2662 13948 5047 1 109.50000 418.400000
2662 13948 5115 1 109.50000 418.400000
2662 13948 7212 1 109.50000 418.400000
5047 13948 5115 1 109.50000 418.400000
5047 13948 7212 1 109.50000 418.400000
5115 13948 7212 1 109.50000 418.400000
6574 13949 7665 1 109.50000 418.400000
6574 13949 7666 1 109.50000 418.400000
6574 13949 11535 1 109.50000 418.400000
7665 13949 7666 1 109.50000 418.400000
7665 13949 11535 1 109.50000 418.400000
7666 13949 11535 1 109.50000 418.400000
1812 13950 4012 1 109.50000 418.400000
1812 13950 5247 1 109.50000 418.400000
1812 13950 7667 1 109.50000 418.400000
4012 13950 5247 1 109.50000 418.400000
4012 13950 7667 1 109.50000 418.400000
5247 13950 7667 1 109.50000 418.400000
495 13951 497 1 109.50000 418.400000
495 13951 6622 1 109.50000 418.400000
495 13951 7668 1 109.50000 418.400000
497 13951 6622 1 109.50000 418.400000
497 13951 7668 1 109.50000 418.400000
6622 13951 7668 1 109.50000 418.400000
5962 13952 5976 1 109.50000 418.400000
5962 13952 7671 1 109.50000 418.400000
5962 13952 9979 1 109.50000 418.400000
5976 13952 7671 1 109.50000 418.400000
5976 13952 9979 1 109.50000 418.400000
7671 13952 9979 1 109.50000 418.400000
3766 13953 4059 1 109.50000 418.400000
3766 13953 5711 1 109.50000 418.400000
3766 13953 7673 1 109.50000 418.400000
4059 13953 5711 1 109.50000 418.400000
4059 13953 7673 1 109.50000 418.400000
5711 13953 7673 1 109.50000 418.400000
5028 13954 5029 1 109.50000 418.400000
5028 13954 6323 1 109.50000 418.400000
5028 13954 7674 1 109.50000 418.400000
5029 13954 6323 1 109.50000 418.400000
5029 13954 7674 1 109.50000 418.400000
6323 13954 7674 1 109.50000 418.400000
684 13955 7675 1 109.50000 418.400000
684 13955 7676 1 109.50000 418.400000
684 13955 7677 1 109.50000 418.400000
7675 13955 7676 1 109.50000 418.400000
7675 13955 7677 1 109.50000 418.400000
7676 13955 7677 1 109.50000 418.400000
697 13956 7678 1 109.50000 418.400000
697 13956 7679 1 109.50000 418.400000
697 13956 7680 1 109.50000 418.400000
7678 13956 7679 1 109.50000 418.400000
7678 13956 7680 1 109.50000 418.400000
7679 13956 7680 1 109.50000 418.400000
725 13957 5429 1 109.50000 418.400000
725 13957 7681 1 109.50000 418.400000
725 13957 7682 1 109.50000 418.400000
5429 13957 7681 1 109.50000 418.400000
5429 13957 7682 1 109.50000 418.400000
7681 13957 7682 1 109.50000 418.400000
1550 13958 7683 1 109.50000 418.400000
1550 13958 7684 1 109.50000 418.400000
1550 13958 7685 1 109.50000 418.400000
7683 13958 7684 1 109.50000 418.400000
7683 13958 7685 1 109.50000 418.400000
7684 13958 7685 1 109.50000 418.400000
3634 13959 5303 1 109.50000 418.400000
3634 13959 5798 1 109.50000 418.400000
3634 13959 6580 1 109.50000 418.400000
5303 13959 5798 1 109.50000 418.400000
5303 13959 6580 1 109.50000 418.400000
5798 13959 6580 1 109.50000 418.400000
2858 13960 2861 1 109.50000 418.400000
2858 13960 7689 1 109.50000 418.400000
2858 13960 7690 1 109.50000 418.400000
2861 13960 7689 1 109.50000 418.400000
2861 13960 7690 1 109.50000 418.400000
7689 13960 7690 1 109.50000 418.400000
6215 13961 6696 1 109.50000 418.400000
6215 13961 7691 1 109.50000 418.400000
6215 13961 7692 1 109.50000 418.400000
6696 13961 7691 1 109.50000 418.400000
6696 13961 7692 1 109.50000 418.400000
7691 13961 7692 1 109.50000 418.400000
7694 13962 7695 1 109.50000 418.400000
7694 13962 7696 1 109.50000 418.400000
7694 13962 8801 1 109.50000 418.400000
7695 13962 7696 1 109.50000 418.400000
7695 13962 8801 1 109.50000 418.400000
7696 13962 8801 1 109.50000 418.400000
2966 13963 4196 1 109.50000 418.400000
2966 13963 7697 1 109.50000 418.400000
2966 13963 7698 1 109.50000 418.400000
4196 13963 7697 1 109.50000 418.400000
4196 13963 7698 1 109.50000 418.400000
7697 13963 7698 1 109.50000 418.400000
3261 13964 3618 1 109.50000 418.400000
3261 13964 7700 1 109.50000 418.400000
3261 13964 7701 1 109.50000 418.400000
3618 13964 7700 1 109.50000 418.400000
3618 13964 7701 1 109.50000 418.400000
7700 13964 7701 1 109.50000 418.400000
5199 13965 7479 1 109.50000 418.400000
5199 13965 7702 1 109.50000 418.400000
5199 13965 7703 1 109.50000 418.400000
7479 13965 7702 1 109.50000 418.400000
7479 13965 7703 1 109.50000 418.400000
7702 13965 7703 1 109.50000 418.400000
3097 13966 7054 1 109.50000 418.400000
3097 13966 7704 1 109.50000 418.400000
3097 13966 7705 1 109.50000 418.400000
7054 13966 7704 1 109.50000 418.400000
7054 13966 7705 1 109.50000 418.400000
7704 13966 7705 1 109.50000 418.400000
5575 13967 7491 1 109.50000 418.400000
5575 13967 7706 1 109.50000 418.400000
5575 13967 7707 1 109.50000 418.400000
7491 13967 7706 1 109.50000 418.400000
7491 13967 7707 1 109.50000 418.400000
7706 13967 7707 1 109.50000 418.400000
6443 13968 7708 1 109.50000 418.400000
6443 13968 7709 1 109.50000 418.400000
6443 13968 7710 1 109.50000 418.400000
7708 13968 7709 1 109.50000 418.400000
7708 13968 7710 1 109.50000 418.400000
7709 13968 7710 1 109.50000 418.400000
7711 13969 7712 1 109.50000 418.400000
7711 13969 9111 1 109.50000 418.400000
7711 13969 11373 1 109.50000 418.400000
7712 13969 9111 1 109.50000 418.400000
7712 13969 11373 1 109.50000 418.400000
9111 13969 11373 1 109.50000 418.400000
2772 13970 2773 1 109.50000 418.400000
2772 13970 7713 1 109.50000 418.400000
2772 13970 7714 1 109.50000 418.400000
2773 13970 7713 1 109.50000 418.400000
2773 13970 7714 1 109.50000 418.400000
7713 13970 7714 1 109.50000 418.400000
3008 13971 7715 1 109.50000 418.400000
3008 13971 7716 1 109.50000 418.400000
3008 13971 7717 1 109.50000 418.400000
7715 13971 7716 1 109.50000 418.400000
7715 13971 7717 1 109.50000 418.400000
7716 13971 7717 1 109.50000 418.400000
5712 13972 7718 1 109.50000 418.400000
5712 13972 7719 1 109.50000 418.400000
5712 13972 7720 1 109.50000 418.400000
7718 13972 7719 1 109.50000 418.400000
7718 13972 7720 1 109.50000 418.400000
7719 13972 7720 1 109.50000 418.400000
1836 13973 3065 1 109.50000 418.400000
1836 13973 7256 1 109.50000 418.400000
1836 13973 7721 1 109.50000 418.400000
3065 13973 7256 1 109.50000 418.400000
3065 13973 7721 1 109.50000 418.400000
7256 13973 7721 1 109.50000 418.400000
7722 13974 7723 1 109.50000 418.400000
7722 13974 7724 1 109.50000 418.400000
7722 13974 7725 1 109.50000 418.400000
7723 13974 7724 1 109.50000 418.400000
7723 13974 7725 1 109.50000 418.400000
7724 13974 7725 1 109.50000 418.400000
4362 13975 7726 1 109.50000 418.400000
4362 13975 7727 1 109.50000 418.400000
4362 13975 7728 1 109.50000 418.400000
7726 13975 7727 1 109.50000 418.400000
7726 13975 7728 1 109.50000 418.400000
7727 13975 7728 1 109.50000 418.400000
6028 13976 6051 1 109.50000 418.400000
6028 13976 7729 1 109.50000 418.400000
6028 13976 7730 1 109.50000 418.400000
6051 13976 7729 1 109.50000 418.400000
6051 13976 7730 1 109.50000 418.400000
7729 13976 7730 1 109.50000 418.400000
1437 13977 4166 1 109.50000 418.400000
1437 13977 6888 1 109.50000 418.400000
1437 13977 7731 1 109.50000 418.400000
4166 13977 6888 1 109.50000 418.400000
4166 13977 7731 1 109.50000 418.400000
6888 13977 7731 1 109.50000 418.400000
7732 13978 7733 1 109.50000 418.400000
7732 13978 7734 1 109.50000 418.400000
7732 13978 11162 1 109.50000 418.400000
7733 13978 7734 1 109.50000 418.400000
7733 13978 11162 1 109.50000 418.400000
7734 13978 11162 1 109.50000 418.400000
931 13979 7735 1 109.50000 418.400000
931 13979 7736 1 109.50000 418.400000
931 13979 7737 1 109.50000 418.400000
7735 13979 7736 1 109.50000 418.400000
7735 13979 7737 1 109.50000 418.400000
7736 13979 7737 1 109.50000 418.400000
6963 13980 6964 1 109.50000 418.400000
6963 13980 7738 1 109.50000 418.400000
6963 13980 7740 1 109.50000 418.400000
6964 13980 7738 1 109.50000 418.400000
6964 13980 7740 1 109.50000 418.400000
7738 13980 7740 1 109.50000 418.400000
7741 13981 7742 1 109.50000 418.400000
7741 13981 7743 1 109.50000 418.400000
7741 13981 7744 1 109.50000 418.400000
7742 13981 7743 1 109.50000 418.400000
7742 13981 7744 1 109.50000 418.400000
7743 13981 7744 1 109.50000 418.400000
1546 13982 1628 1 109.50000 418.400000
1546 13982 5328 1 109.50000 418.400000
1546 13982 7745 1 109.50000 418.400000
1628 13982 5328 1 109.50000 418.400000
1628 13982 7745 1 109.50000 418.400000
5328 13982 7745 1 109.50000 418.400000
7746 13983 7747 1 109.50000 418.400000
7746 13983 7748 1 109.50000 418.400000
7746 13983 7749 1 109.50000 418.400000
7747 13983 7748 1 109.50000 418.400000
7747 13983 7749 1 109.50000 418.400000
7748 13983 7749 1 109.50000 418.400000
131 13984 4197 1 109.50000 418.400000
131 13984 4376 1 109.50000 418.400000
131 13984 5918 1 109.50000 418.400000
4197 13984 4376 1 109.50000 418.400000
4197 13984 5918 1 109.50000 418.400000
4376 13984 5918 1 109.50000 418.400000
3403 13985 6023 1 109.50000 418.400000
3403 13985 7750 1 109.50000 418.400000
3403 13985 7751 1 109.50000 418.400000
6023 13985 7750 1 109.50000 418.400000
6023 13985 7751 1 109.50000 418.400000
7750 13985 7751 1 109.50000 418.400000
1952 13986 7752 1 109.50000 418.400000
1952 13986 7753 1 109.50000 418.400000
1952 13986 7754 1 109.50000 418.400000
7752 13986 7753 1 109.50000 418.400000
7752 13986 7754 1 109.50000 418.400000
7753 13986 7754 1 109.50000 418.400000
3698 13987 7755 1 109.50000 418.400000
3698 13987 7756 1 109.50000 418.400000
3698 13987 7757 1 109.50000 418.400000
7755 13987 7756 1 109.50000 418.400000
7755 13987 7757 1 109.50000 418.400000
7756 13987 7757 1 109.50000 418.400000
1507 13988 4319 1 109.50000 418.400000
1507 13988 4320 1 109.50000 418.400000
1507 13988 7758 1 109.50000 418.400000
4319 13988 4320 1 109.50000 418.400000
4319 13988 7758 1 109.50000 418.400000
4320 13988 7758 1 109.50000 418.400000
5010 13989 5011 1 109.50000 418.400000
5010 13989 6789 1 109.50000 418.400000
5010 13989 7760 1 109.50000 418.400000
5011 13989 6789 1 109.50000 418.400000
5011 13989 7760 1 109.50000 418.400000
6789 13989 7760 1 109.50000 418.400000
657 13990 1619 1 109.50000 418.400000
657 13990 1620 1 109.50000 418.400000
657 13990 4846 1 109.50000 418.400000
1619 13990 1620 1 109.50000 418.400000
1619 13990 4846 1 109.50000 418.400000
1620 13990 4846 1 109.50000 418.400000
4933 13991 7762 1 109.50000 418.400000
4933 13991 7764 1 109.50000 418.400000
4933 13991 8150 1 109.50000 418.400000
7762 13991 7764 1 109.50000 418.400000
7762 13991 8150 1 109.50000 418.400000
7764 13991 8150 1 109.50000 418.400000
1609 13992 1612 1 109.50000 418.400000
1609 13992 7766 1 109.50000 418.400000
1609 13992 7767 1 109.50000 418.400000
1612 13992 7766 1 109.50000 418.400000
1612 13992 7767 1 109.50000 418.400000
7766 13992 7767 1 109.50000 418.400000
1570 13993 3969 1 109.50000 418.400000
1570 13993 7367 1 109.50000 418.400000
1570 13993 7768 1 109.50000 418.400000
3969 13993 7367 1 109.50000 418.400000
3969 13993 7768 1 109.50000 418.400000
7367 13993 7768 1 109.50000 418.400000
4592 13994 7771 1 109.50000 418.400000
4592 13994 7772 1 109.50000 418.400000
4592 13994 7773 1 109.50000 418.400000
7771 13994 7772 1 109.50000 418.400000
7771 13994 7773 1 109.50000 418.400000
7772 13994 7773 1 109.50000 418.400000
1066 13995 6957 1 109.50000 418.400000
1066 13995 7775 1 109.50000 418.400000
1066 13995 7776 1 109.50000 418.400000
6957 13995 7775 1 109.50000 418.400000
6957 13995 7776 1 109.50000 418.400000
7775 13995 7776 1 109.50000 418.400000
3953 13996 4260 1 109.50000 418.400000
3953 13996 5193 1 109.50000 418.400000
3953 13996 7777 1 109.50000 418.400000
4260 13996 5193 1 109.50000 418.400000
4260 13996 7777 1 109.50000 418.400000
5193 13996 7777 1 109.50000 418.400000
2267 13997 6592 1 109.50000 418.400000
2267 13997 7778 1 109.50000 418.400000
2267 13997 7779 1 109.50000 418.400000
6592 13997 7778 1 109.50000 418.400000
6592 13997 7779 1 109.50000 418.400000
7778 13997 7779 1 109.50000 418.400000
7326 13998 7328 1 109.50000 418.400000
7326 13998 7780 1 109.50000 418.400000
7326 13998 7782 1 109.50000 418.400000
7328 13998 7780 1 109.50000 418.400000
7328 13998 7782 1 109.50000 418.400000
7780 13998 7782 1 109.50000 418.400000
7763 13999 7783 1 109.50000 418.400000
7763 13999 7785 1 109.50000 418.400000
7763 13999 11255 1 109.50000 418.400000
7783 13999 7785 1 109.50000 418.400000
7783 13999 11255 1 109.50000 418.400000
7785 13999 11255 1 109.50000 418.400000
2243 14000 7169 1 109.50000 418.400000
2243 14000 7786 1 109.50000 418.400000
2243 14000 7787 1 109.50000 418.400000
7169 14000 7786 1 109.50000 418.400000
7169 14000 7787 1 109.50000 418.400000
7786 14000 7787 1 109.50000 418.400000
7492 14001 7788 1 109.50000 418.400000
7492 14001 7789 1 109.50000 418.400000
7492 14001 7790 1 109.50000 418.400000
7788 14001 7789 1 109.50000 418.400000
7788 14001 7790 1 109.50000 418.400000
7789 14001 7790 1 109.50000 418.400000
5518 14002 6024 1 109.50000 418.400000
5518 14002 6652 1 109.50000 418.400000
5518 14002 7791 1 109.50000 418.400000
6024 14002 6652 1 109.50000 418.400000
6024 14002 7791 1 109.50000 418.400000
6652 14002 7791 1 109.50000 418.400000
4797 14003 6583 1 109.50000 418.400000
4797 14003 7453 1 109.50000 418.400000
4797 14003 7792 1 109.50000 418.400000
6583 14003 7453 1 109.50000 418.400000
6583 14003 7792 1 109.50000 418.400000
7453 14003 7792 1 109.50000 418.400000
6986 14004 7793 1 109.50000 418.400000
6986 14004 7794 1 109.50000 418.400000
6986 14004 7795 1 109.50000 418.400000
7793 14004 7794 1 109.50000 418.400000
7793 14004 7795 1 109.50000 418.400000
7794 14004 7795 1 109.50000 418.400000
4926 14005 5934 1 109.50000 418.400000
4926 14005 7796 1 109.50000 418.400000
4926 14005 7797 1 109.50000 418.400000
5934 14005 7796 1 109.50000 418.400000
5934 14005 7797 1 109.50000 418.400000
7796 14005 7797 1 109.50000 418.400000
1590 14006 4048 1 109.50000 418.400000
1590 14006 6551 1 109.50000 418.400000
1590 14006 6552 1 109.50000 418.400000
4048 14006 6551 1 109.50000 418.400000
4048 14006 6552 1 109.50000 418.400000
6551 14006 6552 1 109.50000 418.400000
5881 14007 7186 1 109.50000 418.400000
5881 14007 7798 1 109.50000 418.400000
5881 14007 7799 1 109.50000 418.400000
7186 14007 7798 1 109.50000 418.400000
7186 14007 7799 1 109.50000 418.400000
7798 14007 7799 1 109.50000 418.400000
383 14008 1830 1 109.50000 418.400000
383 14008 7800 1 109.50000 418.400000
383 14008 11520 1 109.50000 418.400000
1830 14008 7800 1 109.50000 418.400000
1830 14008 11520 1 109.50000 418.400000
7800 14008 11520 1 109.50000 418.400000
2315 14009 6753 1 109.50000 418.400000
2315 14009 7801 1 109.50000 418.400000
2315 14009 7802 1 109.50000 418.400000
6753 14009 7801 1 109.50000 418.400000
6753 14009 7802 1 109.50000 418.400000
7801 14009 7802 1 109.50000 418.400000
4883 14010 5535 1 109.50000 418.400000
4883 14010 7178 1 109.50000 418.400000
4883 14010 7803 1 109.50000 418.400000
5535 14010 7178 1 109.50000 418.400000
5535 14010 7803 1 109.50000 418.400000
7178 14010 7803 1 109.50000 418.400000
1268 14011 1335 1 109.50000 418.400000
1268 14011 4324 1 109.50000 418.400000
1268 14011 7804 1 109.50000 418.400000
1335 14011 4324 1 109.50000 418.400000
1335 14011 7804 1 109.50000 418.400000
4324 14011 7804 1 109.50000 418.400000
3549 14012 7805 1 109.50000 418.400000
3549 14012 7806 1 109.50000 418.400000
3549 14012 11310 1 109.50000 418.400000
7805 14012 7806 1 109.50000 418.400000
7805 14012 11310 1 109.50000 418.400000
7806 14012 11310 1 109.50000 418.400000
5121 14013 5486 1 109.50000 418.400000
5121 14013 5774 1 109.50000 418.400000
5121 14013 7807 1 109.50000 418.400000
5486 14013 5774 1 109.50000 418.400000
5486 14013 7807 1 109.50000 418.400000
5774 14013 7807 1 109.50000 418.400000
7808 14014 7809 1 109.50000 418.400000
7808 14014 7810 1 109.50000 418.400000
7808 14014 7811 1 109.50000 418.400000
7809 14014 7810 1 109.50000 418.400000
7809 14014 7811 1 109.50000 418.400000
7810 14014 7811 1 109.50000 418.400000
7812 14015 7813 1 109.50000 418.400000
7812 14015 11206 1 109.50000 418.400000
7812 14015 11403 1 109.50000 418.400000
7813 14015 11206 1 109.50000 418.400000
7813 14015 11403 1 109.50000 418.400000
11206 14015 11403 1 109.50000 418.400000
93 14016 4873 1 109.50000 418.400000
93 14016 7814 1 109.50000 418.400000
93 14016 7815 1 109.50000 418.400000
4873 14016 7814 1 109.50000 418.400000
4873 14016 7815 1 109.50000 418.400000
7814 14016 7815 1 109.50000 418.400000
899 14017 933 1 109.50000 418.400000
899 14017 7816 1 109.50000 418.400000
899 14017 7817 1 109.50000 418.400000
933 14017 7816 1 109.50000 418.400000
933 14017 7817 1 109.50000 418.400000
7816 14017 7817 1 109.50000 418.400000
3629 14018 3630 1 109.50000 418.400000
3629 14018 6010 1 109.50000 418.400000
3629 14018 6662 1 109.50000 418.400000
3630 14018 6010 1 109.50000 418.400000
3630 14018 6662 1 109.50000 418.400000
6010 14018 6662 1 109.50000 418.400000
3554 14019 5002 1 109.50000 418.400000
3554 14019 7821 1 109.50000 418.400000
3554 14019 7822 1 109.50000 418.400000
5002 14019 7821 1 109.50000 418.400000
5002 14019 7822 1 109.50000 418.400000
7821 14019 7822 1 109.50000 418.400000
7565 14020 7823 1 109.50000 418.400000
7565 14020 7824 1 109.50000 418.400000
7565 14020 7825 1 109.50000 418.400000
7823 14020 7824 1 109.50000 418.400000
7823 14020 7825 1 109.50000 418.400000
7824 14020 7825 1 109.50000 418.400000
1552 14021 4783 1 109.50000 418.400000
1552 14021 7103 1 109.50000 418.400000
1552 14021 7590 1 109.50000 418.400000
4783 14021 7103 1 109.50000 418.400000
4783 14021 7590 1 109.50000 418.400000
7103 14021 7590 1 109.50000 418.400000
5780 14022 6084 1 109.50000 418.400000
5780 14022 7826 1 109.50000 418.400000
5780 14022 7827 1 109.50000 418.400000
6084 14022 7826 1 109.50000 418.400000
6084 14022 7827 1 109.50000 418.400000
7826 14022 7827 1 109.50000 418.400000
1913 14023 5958 1 109.50000 418.400000
1913 14023 7828 1 109.50000 418.400000
1913 14023 7829 1 109.50000 418.400000
5958 14023 7828 1 109.50000 418.400000
5958 14023 7829 1 109.50000 418.400000
7828 14023 7829 1 109.50000 418.400000
3943 14024 7386 1 109.50000 418.400000
3943 14024 7830 1 109.50000 418.400000
3943 14024 7831 1 109.50000 418.400000
7386 14024 7830 1 109.50000 418.400000
7386 14024 7831 1 109.50000 418.400000
7830 14024 7831 1 109.50000 418.400000
187 14025 5144 1 109.50000 418.400000
187 14025 7650 1 109.50000 418.400000
187 14025 7833 1 109.50000 418.400000
5144 14025 7650 1 109.50000 418.400000
5144 14025 7833 1 109.50000 418.400000
7650 14025 7833 1 109.50000 418.400000
1663 14026 7834 1 109.50000 418.400000
1663 14026 7835 1 109.50000 418.400000
1663 14026 7836 1 109.50000 418.400000
7834 14026 7835 1 109.50000 418.400000
7834 14026 7836 1 109.50000 418.400000
7835 14026 7836 1 109.50000 418.400000
1276 14027 1995 1 109.50000 418.400000
1276 14027 7837 1 109.50000 418.400000
1276 14027 7838 1 109.50000 418.400000
1995 14027 7837 1 109.50000 418.400000
1995 14027 7838 1 109.50000 418.400000
7837 14027 7838 1 109.50000 418.400000
3817 14028 5383 1 109.50000 418.400000
3817 14028 7173 1 109.50000 418.400000
3817 14028 7839 1 109.50000 418.400000
5383 14028 7173 1 109.50000 418.400000
5383 14028 7839 1 109.50000 418.400000
7173 14028 7839 1 109.50000 418.400000
2224 14029 2377 1 109.50000 418.400000
2224 14029 7840 1 109.50000 418.400000
2224 14029 7841 1 109.50000 418.400000
2377 14029 7840 1 109.50000 418.400000
2377 14029 7841 1 109.50000 418.400000
7840 14029 7841 1 109.50000 418.400000
4771 14030 7099 1 109.50000 418.400000
4771 14030 7842 1 109.50000 418.400000
4771 14030 11174 1 109.50000 418.400000
7099 14030 7842 1 109.50000 418.400000
7099 14030 11174 1 109.50000 418.400000
7842 14030 11174 1 109.50000 418.400000
1117 14031 1510 1 109.50000 418.400000
1117 14031 7846 1 109.50000 418.400000
1117 14031 7847 1 109.50000 418.400000
1510 14031 7846 1 109.50000 418.400000
1510 14031 7847 1 109.50000 418.400000
7846 14031 7847 1 109.50000 418.400000
6537 14032 7847 1 109.50000 418.400000
6537 14032 7848 1 109.50000 418.400000
6537 14032 7849 1 109.50000 418.400000
7847 14032 7848 1 109.50000 418.400000
7847 14032 7849 1 109.50000 418.400000
7848 14032 7849 1 109.50000 418.400000
2304 14033 7850 1 109.50000 418.400000
2304 14033 7852 1 109.50000 418.400000
2304 14033 9974 1 109.50000 418.400000
7850 14033 7852 1 109.50000 418.400000
7850 14033 9974 1 109.50000 418.400000
7852 14033 9974 1 109.50000 418.400000
3962 14034 6311 1 109.50000 418.400000
3962 14034 6851 1 109.50000 418.400000
3962 14034 7853 1 109.50000 418.400000
6311 14034 6851 1 109.50000 418.400000
6311 14034 7853 1 109.50000 418.400000
6851 14034 7853 1 109.50000 418.400000
1874 14035 3984 1 109.50000 418.400000
1874 14035 7854 1 109.50000 418.400000
1874 14035 7855 1 109.50000 418.400000
3984 14035 7854 1 109.50000 418.400000
3984 14035 7855 1 109.50000 418.400000
7854 14035 7855 1 109.50000 418.400000
7162 14036 7856 1 109.50000 418.400000
7162 14036 7857 1 109.50000 418.400000
7162 14036 7858 1 109.50000 418.400000
7856 14036 7857 1 109.50000 418.400000
7856 14036 7858 1 109.50000 418.400000
7857 14036 7858 1 109.50000 418.400000
5416 14037 6547 1 109.50000 418.400000
5416 14037 7860 1 109.50000 418.400000
5416 14037 7861 1 109.50000 418.400000
6547 14037 7860 1 109.50000 418.400000
6547 14037 7861 1 109.50000 418.400000
7860 14037 7861 1 109.50000 418.400000
3191 14038 7862 1 109.50000 418.400000
3191 14038 7863 1 109.50000 418.400000
3191 14038 7864 1 109.50000 418.400000
7862 14038 7863 1 109.50000 418.400000
7862 14038 7864 1 109.50000 418.400000
7863 14038 7864 1 109.50000 418.400000
7865 14039 7866 1 109.50000 418.400000
7865 14039 7867 1 109.50000 418.400000
7865 14039 7868 1 109.50000 418.400000
7866 14039 7867 1 109.50000 418.400000
7866 14039 7868 1 109.50000 418.400000
7867 14039 7868 1 109.50000 418.400000
3344 14040 3561 1 109.50000 418.400000
3344 14040 5630 1 109.50000 418.400000
3344 14040 5871 1 109.50000 418.400000
3561 14040 5630 1 109.50000 418.400000
3561 14040 5871 1 109.50000 418.400000
5630 14040 5871 1 109.50000 418.400000
4483 14041 7201 1 109.50000 418.400000
4483 14041 7869 1 109.50000 418.400000
4483 14041 7870 1 109.50000 418.400000
7201 14041 7869 1 109.50000 418.400000
7201 14041 7870 1 109.50000 418.400000
7869 14041 7870 1 109.50000 418.400000
2576 14042 5052 1 109.50000 418.400000
2576 14042 7871 1 109.50000 418.400000
2576 14042 7872 1 109.50000 418.400000
5052 14042 7871 1 109.50000 418.400000
5052 14042 7872 1 109.50000 418.400000
7871 14042 7872 1 109.50000 418.400000
5604 14043 6277 1 109.50000 418.400000
5604 14043 7873 1 109.50000 418.400000
5604 14043 7874 1 109.50000 418.400000
6277 14043 7873 1 109.50000 418.400000
6277 14043 7874 1 109.50000 418.400000
7873 14043 7874 1 109.50000 418.400000
4213 14044 7875 1 109.50000 418.400000
4213 14044 7876 1 109.50000 418.400000
4213 14044 7877 1 109.50000 418.400000
7875 14044 7876 1 109.50000 418.400000
7875 14044 7877 1 109.50000 418.400000
7876 14044 7877 1 109.50000 418.400000
6121 14045 7878 1 109.50000 418.400000
6121 14045 7879 1 109.50000 418.400000
6121 14045 7880 1 109.50000 418.400000
7878 14045 7879 1 109.50000 418.400000
7878 14045 7880 1 109.50000 418.400000
7879 14045 7880 1 109.50000 418.400000
3938 14046 5903 1 109.50000 418.400000
3938 14046 7881 1 109.50000 418.400000
3938 14046 7882 1 109.50000 418.400000
5903 14046 7881 1 109.50000 418.400000
5903 14046 7882 1 109.50000 418.400000
7881 14046 7882 1 109.50000 418.400000
5210 14047 7883 1 109.50000 418.400000
5210 14047 7884 1 109.50000 418.400000
5210 14047 7885 1 109.50000 418.400000
7883 14047 7884 1 109.50000 418.400000
7883 14047 7885 1 109.50000 418.400000
7884 14047 7885 1 109.50000 418.400000
1765 14048 7886 1 109.50000 418.400000
1765 14048 7887 1 109.50000 418.400000
1765 14048 7888 1 109.50000 418.400000
7886 14048 7887 1 109.50000 418.400000
7886 14048 7888 1 109.50000 418.400000
7887 14048 7888 1 109.50000 418.400000
6003 14049 7889 1 109.50000 418.400000
6003 14049 7890 1 109.50000 418.400000
6003 14049 7891 1 109.50000 418.400000
7889 14049 7890 1 109.50000 418.400000
7889 14049 7891 1 109.50000 418.400000
7890 14049 7891 1 109.50000 418.400000
5335 14050 7892 1 109.50000 418.400000
5335 14050 7893 1 109.50000 418.400000
5335 14050 7894 1 109.50000 418.400000
7892 14050 7893 1 109.50000 418.400000
7892 14050 7894 1 109.50000 418.400000
7893 14050 7894 1 109.50000 418.400000
6750 14051 7895 1 109.50000 418.400000
6750 14051 7896 1 109.50000 418.400000
6750 14051 7897 1 109.50000 418.400000
7895 14051 7896 1 109.50000 418.400000
7895 14051 7897 1 109.50000 418.400000
7896 14051 7897 1 109.50000 418.400000
1185 14052 7898 1 109.50000 418.400000
1185 14052 7899 1 109.50000 418.400000
1185 14052 7900 1 109.50000 418.400000
7898 14052 7899 1 109.50000 418.400000
7898 14052 7900 1 109.50000 418.400000
7899 14052 7900 1 109.50000 418.400000
82 14053 2642 1 109.50000 418.400000
82 14053 5387 1 109.50000 418.400000
82 14053 7901 1 109.50000 418.400000
2642 14053 5387 1 109.50000 418.400000
2642 14053 7901 1 109.50000 418.400000
5387 14053 7901 1 109.50000 418.400000
16 14054 3166 1 109.50000 418.400000
16 14054 7902 1 109.50000 418.400000
16 14054 7903 1 109.50000 418.400000
3166 14054 7902 1 109.50000 418.400000
3166 14054 7903 1 109.50000 418.400000
7902 14054 7903 1 109.50000 418.400000
1604 14055 4907 1 109.50000 418.400000
1604 14055 7904 1 109.50000 418.400000
1604 14055 7905 1 109.50000 418.400000
4907 14055 7904 1 109.50000 418.400000
4907 14055 7905 1 109.50000 418.400000
7904 14055 7905 1 109.50000 418.400000
2332 14056 2906 1 109.50000 418.400000
2332 14056 7662 1 109.50000 418.400000
2332 14056 7844 1 109.50000 418.400000
2906 14056 7662 1 109.50000 418.400000
2906 14056 7844 1 109.50000 418.400000
7662 14056 7844 1 109.50000 418.400000
1457 14057 6788 1 109.50000 418.400000
1457 14057 7906 1 109.50000 418.400000
1457 14057 7907 1 109.50000 418.400000
6788 14057 7906 1 109.50000 418.400000
6788 14057 7907 1 109.50000 418.400000
7906 14057 7907 1 109.50000 418.400000
2299 14058 7136 1 109.50000 418.400000
2299 14058 7909 1 109.50000 418.400000
2299 14058 7910 1 109.50000 418.400000
7136 14058 7909 1 109.50000 418.400000
7136 14058 7910 1 109.50000 418.400000
7909 14058 7910 1 109.50000 418.400000
3260 14059 3510 1 109.50000 418.400000
3260 14059 7911 1 109.50000 418.400000
3260 14059 7912 1 109.50000 418.400000
3510 14059 7911 1 109.50000 418.400000
3510 14059 7912 1 109.50000 418.400000
7911 14059 7912 1 109.50000 418.400000
7855 14060 7913 1 109.50000 418.400000
7855 14060 7914 1 109.50000 418.400000
7855 14060 7915 1 109.50000 418.400000
7913 14060 7914 1 109.50000 418.400000
7913 14060 7915 1 109.50000 418.400000
7914 14060 7915 1 109.50000 418.400000
3098 14061 5528 1 109.50000 418.400000
3098 14061 7916 1 109.50000 418.400000
3098 14061 7917 1 109.50000 418.400000
5528 14061 7916 1 109.50000 418.400000
5528 14061 7917 1 109.50000 418.400000
7916 14061 7917 1 109.50000 418.400000
7426 14062 7918 1 109.50000 418.400000
7426 14062 7919 1 109.50000 418.400000
7426 14062 7920 1 109.50000 418.400000
7918 14062 7919 1 109.50000 418.400000
7918 14062 7920 1 109.50000 418.400000
7919 14062 7920 1 109.50000 418.400000
4280 14063 7547 1 109.50000 418.400000
4280 14063 7921 1 109.50000 418.400000
4280 14063 7922 1 109.50000 418.400000
7547 14063 7921 1 109.50000 418.400000
7547 14063 7922 1 109.50000 418.400000
7921 14063 7922 1 109.50000 418.400000
257 14064 7923 1 109.50000 418.400000
257 14064 7924 1 109.50000 418.400000
257 14064 7925 1 109.50000 418.400000
7923 14064 7924 1 109.50000 418.400000
7923 14064 7925 1 109.50000 418.400000
7924 14064 7925 1 109.50000 418.400000
1363 14065 2281 1 109.50000 418.400000
1363 14065 4705 1 109.50000 418.400000
1363 14065 7926 1 109.50000 418.400000
2281 14065 4705 1 109.50000 418.400000
2281 14065 7926 1 109.50000 418.400000
4705 14065 7926 1 109.50000 418.400000
2158 14066 4629 1 109.50000 418.400000
2158 14066 7927 1 109.50000 418.400000
2158 14066 7928 1 109.50000 418.400000
4629 14066 7927 1 109.50000 418.400000
4629 14066 7928 1 109.50000 418.400000
7927 14066 7928 1 109.50000 418.400000
625 14067 7929 1 109.50000 418.400000
625 14067 7930 1 109.50000 418.400000
625 14067 7931 1 109.50000 418.400000
7929 14067 7930 1 109.50000 418.400000
7929 14067 7931 1 109.50000 418.400000
7930 14067 7931 1 109.50000 418.400000
2899 14068 7932 1 109.50000 418.400000
2899 14068 7933 1 109.50000 418.400000
2899 14068 11407 1 109.50000 418.400000
7932 14068 7933 1 109.50000 418.400000
7932 14068 11407 1 109.50000 418.400000
7933 14068 11407 1 109.50000 418.400000
3298 14069 7934 1 109.50000 418.400000
3298 14069 7935 1 109.50000 418.400000
3298 14069 7936 1 109.50000 418.400000
7934 14069 7935 1 109.50000 418.400000
7934 14069 7936 1 109.50000 418.400000
7935 14069 7936 1 109.50000 418.400000
7894 14070 7937 1 109.50000 418.400000
7894 14070 7938 1 109.50000 418.400000
7894 14070 7939 1 109.50000 418.400000
7937 14070 7938 1 109.50000 418.400000
7937 14070 7939 1 109.50000 418.400000
7938 14070 7939 1 109.50000 418.400000
1194 14071 5094 1 109.50000 418.400000
1194 14071 7940 1 109.50000 418.400000
1194 14071 7941 1 109.50000 418.400000
5094 14071 7940 1 109.50000 418.400000
5094 14071 7941 1 109.50000 418.400000
7940 14071 7941 1 109.50000 418.400000
4634 14072 7516 1 109.50000 418.400000
4634 14072 7777 1 109.50000 418.400000
4634 14072 7942 1 109.50000 418.400000
7516 14072 7777 1 109.50000 418.400000
7516 14072 7942 1 109.50000 418.400000
7777 14072 7942 1 109.50000 418.400000
3511 14073 7239 1 109.50000 418.400000
3511 14073 7943 1 109.50000 418.400000
3511 14073 7944 1 109.50000 418.400000
7239 14073 7943 1 109.50000 418.400000
7239 14073 7944 1 109.50000 418.400000
7943 14073 7944 1 109.50000 418.400000
4708 14074 7946 1 109.50000 418.400000
4708 14074 7947 1 109.50000 418.400000
4708 14074 7948 1 109.50000 418.400000
7946 14074 7947 1 109.50000 418.400000
7946 14074 7948 1 109.50000 418.400000
7947 14074 7948 1 109.50000 418.400000
630 14075 2815 1 109.50000 418.400000
630 14075 2817 1 109.50000 418.400000
630 14075 7949 1 109.50000 418.400000
2815 14075 2817 1 109.50000 418.400000
2815 14075 7949 1 109.50000 418.400000
2817 14075 7949 1 109.50000 418.400000
5820 14076 6461 1 109.50000 418.400000
5820 14076 6611 1 109.50000 418.400000
5820 14076 7950 1 109.50000 418.400000
6461 14076 6611 1 109.50000 418.400000
6461 14076 7950 1 109.50000 418.400000
6611 14076 7950 1 109.50000 418.400000
6402 14077 7951 1 109.50000 418.400000
6402 14077 7952 1 109.50000 418.400000
6402 14077 7953 1 109.50000 418.400000
7951 14077 7952 1 109.50000 418.400000
7951 14077 7953 1 109.50000 418.400000
7952 14077 7953 1 109.50000 418.400000
3351 14078 5490 1 109.50000 418.400000
3351 14078 5593 1 109.50000 418.400000
3351 14078 7954 1 109.50000 418.400000
5490 14078 5593 1 109.50000 418.400000
5490 14078 7954 1 109.50000 418.400000
5593 14078 7954 1 109.50000 418.400000
2117 14079 2118 1 109.50000 418.400000
2117 14079 5311 1 109.50000 418.400000
2117 14079 7955 1 109.50000 418.400000
2118 14079 5311 1 109.50000 418.400000
2118 14079 7955 1 109.50000 418.400000
5311 14079 7955 1 109.50000 418.400000
181 14080 6515 1 109.50000 418.400000
181 14080 7956 1 109.50000 418.400000
181 14080 11430 1 109.50000 418.400000
6515 14080 7956 1 109.50000 418.400000
6515 14080 11430 1 109.50000 418.400000
7956 14080 11430 1 109.50000 418.400000
5140 14081 7957 1 109.50000 418.400000
5140 14081 7958 1 109.50000 418.400000
5140 14081 7959 1 109.50000 418.400000
7957 14081 7958 1 109.50000 418.400000
7957 14081 7959 1 109.50000 418.400000
7958 14081 7959 1 109.50000 418.400000
2205 14082 4171 1 109.50000 418.400000
2205 14082 7960 1 109.50000 418.400000
2205 14082 7961 1 109.50000 418.400000
4171 14082 7960 1 109.50000 418.400000
4171 14082 7961 1 109.50000 418.400000
7960 14082 7961 1 109.50000 418.400000
71 14083 777 1 109.50000 418.400000
71 14083 778 1 109.50000 418.400000
71 14083 7962 1 109.50000 418.400000
777 14083 778 1 109.50000 418.400000
777 14083 7962 1 109.50000 418.400000
778 14083 7962 1 109.50000 418.400000
7963 14084 7964 1 109.50000 418.400000
7963 14084 7965 1 109.50000 418.400000
7963 14084 7966 1 109.50000 418.400000
7964 14084 7965 1 109.50000 418.400000
7964 14084 7966 1 109.50000 418.400000
7965 14084 7966 1 109.50000 418.400000
5369 14085 6800 1 109.50000 418.400000
5369 14085 7967 1 109.50000 418.400000
5369 14085 7968 1 109.50000 418.400000
6800 14085 7967 1 109.50000 418.400000
6800 14085 7968 1 109.50000 418.400000
7967 14085 7968 1 109.50000 418.400000
2713 14086 4084 1 109.50000 418.400000
2713 14086 4135 1 109.50000 418.400000
2713 14086 5120 1 109.50000 418.400000
4084 14086 4135 1 109.50000 418.400000
4084 14086 5120 1 109.50000 418.400000
4135 14086 5120 1 109.50000 418.400000
3165 14087 7969 1 109.50000 418.400000
3165 14087 7970 1 109.50000 418.400000
3165 14087 7971 1 109.50000 418.400000
7969 14087 7970 1 109.50000 418.400000
7969 14087 7971 1 109.50000 418.400000
7970 14087 7971 1 109.50000 418.400000
1673 14088 4295 1 109.50000 418.400000
1673 14088 7974 1 109.50000 418.400000
1673 14088 9837 1 109.50000 418.400000
4295 14088 7974 1 109.50000 418.400000
4295 14088 9837 1 109.50000 418.400000
7974 14088 9837 1 109.50000 418.400000
5023 14089 7208 1 109.50000 418.400000
5023 14089 7975 1 109.50000 418.400000
5023 14089 7976 1 109.50000 418.400000
7208 14089 7975 1 109.50000 418.400000
7208 14089 7976 1 109.50000 418.400000
7975 14089 7976 1 109.50000 418.400000
3202 14090 3666 1 109.50000 418.400000
3202 14090 7870 1 109.50000 418.400000
3202 14090 7977 1 109.50000 418.400000
3666 14090 7870 1 109.50000 418.400000
3666 14090 7977 1 109.50000 418.400000
7870 14090 7977 1 109.50000 418.400000
3595 14091 7978 1 109.50000 418.400000
3595 14091 7979 1 109.50000 418.400000
3595 14091 7980 1 109.50000 418.400000
7978 14091 7979 1 109.50000 418.400000
7978 14091 7980 1 109.50000 418.400000
7979 14091 7980 1 109.50000 418.400000
780 14092 1209 1 109.50000 418.400000
780 14092 6123 1 109.50000 418.400000
780 14092 7981 1 109.50000 418.400000
1209 14092 6123 1 109.50000 418.400000
1209 14092 7981 1 109.50000 418.400000
6123 14092 7981 1 109.50000 418.400000
297 14093 3682 1 109.50000 418.400000
297 14093 7982 1 109.50000 418.400000
297 14093 7983 1 109.50000 418.400000
3682 14093 7982 1 109.50000 418.400000
3682 14093 7983 1 109.50000 418.400000
7982 14093 7983 1 109.50000 418.400000
225 14094 7048 1 109.50000 418.400000
225 14094 7984 1 109.50000 418.400000
225 14094 7985 1 109.50000 418.400000
7048 14094 7984 1 109.50000 418.400000
7048 14094 7985 1 109.50000 418.400000
7984 14094 7985 1 109.50000 418.400000
6905 14095 7986 1 109.50000 418.400000
6905 14095 7987 1 109.50000 418.400000
6905 14095 7988 1 109.50000 418.400000
7986 14095 7987 1 109.50000 418.400000
7986 14095 7988 1 109.50000 418.400000
7987 14095 7988 1 109.50000 418.400000
1529 14096 7989 1 109.50000 418.400000
1529 14096 7990 1 109.50000 418.400000
1529 14096 7991 1 109.50000 418.400000
7989 14096 7990 1 109.50000 418.400000
7989 14096 7991 1 109.50000 418.400000
7990 14096 7991 1 109.50000 418.400000
27 14097 2877 1 109.50000 418.400000
27 14097 7992 1 109.50000 418.400000
27 14097 7993 1 109.50000 418.400000
2877 14097 7992 1 109.50000 418.400000
2877 14097 7993 1 109.50000 418.400000
7992 14097 7993 1 109.50000 418.400000
3655 14098 3657 1 109.50000 418.400000
3655 14098 5882 1 109.50000 418.400000
3655 14098 7994 1 109.50000 418.400000
3657 14098 5882 1 109.50000 418.400000
3657 14098 7994 1 109.50000 418.400000
5882 14098 7994 1 109.50000 418.400000
3252 14099 7995 1 109.50000 418.400000
3252 14099 7996 1 109.50000 418.400000
3252 14099 7997 1 109.50000 418.400000
7995 14099 7996 1 109.50000 418.400000
7995 14099 7997 1 109.50000 418.400000
7996 14099 7997 1 109.50000 418.400000
148 14100 7998 1 109.50000 418.400000
148 14100 7999 1 109.50000 418.400000
148 14100 8000 1 109.50000 418.400000
7998 14100 7999 1 109.50000 418.400000
7998 14100 8000 1 109.50000 418.400000
7999 14100 8000 1 109.50000 418.400000
1491 14101 4271 1 109.50000 418.400000
1491 14101 6243 1 109.50000 418.400000
1491 14101 7182 1 109.50000 418.400000
4271 14101 6243 1 109.50000 418.400000
4271 14101 7182 1 109.50000 418.400000
6243 14101 7182 1 109.50000 418.400000
4720 14102 8001 1 109.50000 418.400000
4720 14102 8002 1 109.50000 418.400000
4720 14102 8003 1 109.50000 418.400000
8001 14102 8002 1 109.50000 418.400000
8001 14102 8003 1 109.50000 418.400000
8002 14102 8003 1 109.50000 418.400000
8004 14103 8005 1 109.50000 418.400000
8004 14103 8006 1 109.50000 418.400000
8004 14103 8007 1 109.50000 418.400000
8005 14103 8006 1 109.50000 418.400000
8005 14103 8007 1 109.50000 418.400000
8006 14103 8007 1 109.50000 418.400000
1229 14104 7815 1 109.50000 418.400000
1229 14104 8008 1 109.50000 418.400000
1229 14104 8009 1 109.50000 418.400000
7815 14104 8008 1 109.50000 418.400000
7815 14104 8009 1 109.50000 418.400000
8008 14104 8009 1 109.50000 418.400000
3501 14105 5360 1 109.50000 418.400000
3501 14105 8010 1 109.50000 418.400000
3501 14105 8011 1 109.50000 418.400000
5360 14105 8010 1 109.50000 418.400000
5360 14105 8011 1 109.50000 418.400000
8010 14105 8011 1 109.50000 418.400000
8012 14106 8013 1 109.50000 418.400000
8012 14106 11146 1 109.50000 418.400000
8012 14106 11304 1 109.50000 418.400000
8013 14106 11146 1 109.50000 418.400000
8013 14106 11304 1 109.50000 418.400000
11146 14106 11304 1 109.50000 418.400000
4884 14107 5484 1 109.50000 418.400000
4884 14107 7514 1 109.50000 418.400000
4884 14107 8014 1 109.50000 418.400000
5484 14107 7514 1 109.50000 418.400000
5484 14107 8014 1 109.50000 418.400000
7514 14107 8014 1 109.50000 418.400000
8015 14108 8016 1 109.50000 418.400000
8015 14108 8017 1 109.50000 418.400000
8015 14108 8018 1 109.50000 418.400000
8016 14108 8017 1 109.50000 418.400000
8016 14108 8018 1 109.50000 418.400000
8017 14108 8018 1 109.50000 418.400000
8019 14109 8020 1 109.50000 418.400000
8019 14109 8021 1 109.50000 418.400000
8019 14109 8022 1 109.50000 418.400000
8020 14109 8021 1 109.50000 418.400000
8020 14109 8022 1 109.50000 418.400000
8021 14109 8022 1 109.50000 418.400000
2140 14110 3903 1 109.50000 418.400000
2140 14110 8023 1 109.50000 418.400000
2140 14110 8024 1 109.50000 418.400000
3903 14110 8023 1 109.50000 418.400000
3903 14110 8024 1 109.50000 418.400000
8023 14110 8024 1 109.50000 418.400000
2982 14111 8025 1 109.50000 418.400000
2982 14111 8026 1 109.50000 418.400000
2982 14111 8027 1 109.50000 418.400000
8025 14111 8026 1 109.50000 418.400000
8025 14111 8027 1 109.50000 418.400000
8026 14111 8027 1 109.50000 418.400000
3004 14112 5313 1 109.50000 418.400000
3004 14112 6683 1 109.50000 418.400000
3004 14112 8028 1 109.50000 418.400000
5313 14112 6683 1 109.50000 418.400000
5313 14112 8028 1 109.50000 418.400000
6683 14112 8028 1 109.50000 418.400000
8029 14113 8030 1 109.50000 418.400000
8029 14113 8031 1 109.50000 418.400000
8029 14113 8032 1 109.50000 418.400000
8030 14113 8031 1 109.50000 418.400000
8030 14113 8032 1 109.50000 418.400000
8031 14113 8032 1 109.50000 418.400000
6469 14114 8033 1 109.50000 418.400000
6469 14114 8034 1 109.50000 418.400000
6469 14114 8035 1 109.50000 418.400000
8033 14114 8034 1 109.50000 418.400000
8033 14114 8035 1 109.50000 418.400000
8034 14114 8035 1 109.50000 418.400000
4136 14115 8036 1 109.50000 418.400000
4136 14115 8037 1 109.50000 418.400000
4136 14115 8939 1 109.50000 418.400000
8036 14115 8037 1 109.50000 418.400000
8036 14115 8939 1 109.50000 418.400000
8037 14115 8939 1 109.50000 418.400000
4126 14116 6387 1 109.50000 418.400000
4126 14116 8038 1 109.50000 418.400000
4126 14116 8039 1 109.50000 418.400000
6387 14116 8038 1 109.50000 418.400000
6387 14116 8039 1 109.50000 418.400000
8038 14116 8039 1 109.50000 418.400000
5692 14117 7563 1 109.50000 418.400000
5692 14117 8040 1 109.50000 418.400000
5692 14117 8041 1 109.50000 418.400000
7563 14117 8040 1 109.50000 418.400000
7563 14117 8041 1 109.50000 418.400000
8040 14117 8041 1 109.50000 418.400000
2191 14118 2612 1 109.50000 418.400000
2191 14118 7422 1 109.50000 418.400000
2191 14118 8042 1 109.50000 418.400000
2612 14118 7422 1 109.50000 418.400000
2612 14118 8042 1 109.50000 418.400000
7422 14118 8042 1 109.50000 418.400000
4607 14119 4608 1 109.50000 418.400000
4607 14119 8045 1 109.50000 418.400000
4607 14119 11505 1 109.50000 418.400000
4608 14119 8045 1 109.50000 418.400000
4608 14119 11505 1 109.50000 418.400000
8045 14119 11505 1 109.50000 418.400000
2855 14120 4664 1 109.50000 418.400000
2855 14120 5930 1 109.50000 418.400000
2855 14120 8046 1 109.50000 418.400000
4664 14120 5930 1 109.50000 418.400000
4664 14120 8046 1 109.50000 418.400000
5930 14120 8046 1 109.50000 418.400000
5402 14121 6037 1 109.50000 418.400000
5402 14121 8047 1 109.50000 418.400000
5402 14121 8048 1 109.50000 418.400000
6037 14121 8047 1 109.50000 418.400000
6037 14121 8048 1 109.50000 418.400000
8047 14121 8048 1 109.50000 418.400000
926 14122 2449 1 109.50000 418.400000
926 14122 8049 1 109.50000 418.400000
926 14122 8050 1 109.50000 418.400000
2449 14122 8049 1 109.50000 418.400000
2449 14122 8050 1 109.50000 418.400000
8049 14122 8050 1 109.50000 418.400000
99 14123 7925 1 109.50000 418.400000
99 14123 8051 1 109.50000 418.400000
99 14123 8052 1 109.50000 418.400000
7925 14123 8051 1 109.50000 418.400000
7925 14123 8052 1 109.50000 418.400000
8051 14123 8052 1 109.50000 418.400000
32 14124 3401 1 109.50000 418.400000
32 14124 4064 1 109.50000 418.400000
32 14124 6276 1 109.50000 418.400000
3401 14124 4064 1 109.50000 418.400000
3401 14124 6276 1 109.50000 418.400000
4064 14124 6276 1 109.50000 418.400000
368 14125 3179 1 109.50000 418.400000
368 14125 8053 1 109.50000 418.400000
368 14125 8054 1 109.50000 418.400000
3179 14125 8053 1 109.50000 418.400000
3179 14125 8054 1 109.50000 418.400000
8053 14125 8054 1 109.50000 418.400000
6456 14126 8055 1 109.50000 418.400000
6456 14126 8056 1 109.50000 418.400000
6456 14126 8057 1 109.50000 418.400000
8055 14126 8056 1 109.50000 418.400000
8055 14126 8057 1 109.50000 418.400000
8056 14126 8057 1 109.50000 418.400000
2581 14127 7001 1 109.50000 418.400000
2581 14127 8060 1 109.50000 418.400000
2581 14127 8061 1 109.50000 418.400000
7001 14127 8060 1 109.50000 418.400000
7001 14127 8061 1 109.50000 418.400000
8060 14127 8061 1 109.50000 418.400000
4056 14128 5880 1 109.50000 418.400000
4056 14128 7188 1 109.50000 418.400000
4056 14128 8062 1 109.50000 418.400000
5880 14128 7188 1 109.50000 418.400000
5880 14128 8062 1 109.50000 418.400000
7188 14128 8062 1 109.50000 418.400000
4090 14129 4793 1 109.50000 418.400000
4090 14129 6139 1 109.50000 418.400000
4090 14129 8063 1 109.50000 418.400000
4793 14129 6139 1 109.50000 418.400000
4793 14129 8063 1 109.50000 418.400000
6139 14129 8063 1 109.50000 418.400000
3157 14130 8064 1 109.50000 418.400000
3157 14130 8065 1 109.50000 418.400000
3157 14130 8066 1 109.50000 418.400000
8064 14130 8065 1 109.50000 418.400000
8064 14130 8066 1 109.50000 418.400000
8065 14130 8066 1 109.50000 418.400000
2465 14131 5267 1 109.50000 418.400000
2465 14131 8068 1 109.50000 418.400000
2465 14131 8069 1 109.50000 418.400000
5267 14131 8068 1 109.50000 418.400000
5267 14131 8069 1 109.50000 418.400000
8068 14131 8069 1 109.50000 418.400000
58 14132 7841 1 109.50000 418.400000
58 14132 8070 1 109.50000 418.400000
58 14132 8071 1 109.50000 418.400000
7841 14132 8070 1 109.50000 418.400000
7841 14132 8071 1 109.50000 418.400000
8070 14132 8071 1 109.50000 418.400000
2183 14133 3483 1 109.50000 418.400000
2183 14133 3703 1 109.50000 418.400000
2183 14133 8072 1 109.50000 418.400000
3483 14133 3703 1 109.50000 418.400000
3483 14133 8072 1 109.50000 418.400000
3703 14133 8072 1 109.50000 418.400000
1136 14134 1524 1 109.50000 418.400000
1136 14134 4898 1 109.50000 418.400000
1136 14134 8073 1 109.50000 418.400000
1524 14134 4898 1 109.50000 418.400000
1524 14134 8073 1 109.50000 418.400000
4898 14134 8073 1 109.50000 418.400000
1600 14135 5149 1 109.50000 418.400000
1600 14135 7931 1 109.50000 418.400000
1600 14135 8074 1 109.50000 418.400000
5149 14135 7931 1 109.50000 418.400000
5149 14135 8074 1 109.50000 418.400000
7931 14135 8074 1 109.50000 418.400000
2815 14136 8075 1 109.50000 418.400000
2815 14136 8076 1 109.50000 418.400000
2815 14136 8077 1 109.50000 418.400000
8075 14136 8076 1 109.50000 418.400000
8075 14136 8077 1 109.50000 418.400000
8076 14136 8077 1 109.50000 418.400000
1078 14137 8078 1 109.50000 418.400000
1078 14137 8079 1 109.50000 418.400000
1078 14137 8080 1 109.50000 418.400000
8078 14137 8079 1 109.50000 418.400000
8078 14137 8080 1 109.50000 418.400000
8079 14137 8080 1 109.50000 418.400000
4023 14138 5727 1 109.50000 418.400000
4023 14138 8081 1 109.50000 418.400000
4023 14138 11439 1 109.50000 418.400000
5727 14138 8081 1 109.50000 418.400000
5727 14138 11439 1 109.50000 418.400000
8081 14138 11439 1 109.50000 418.400000
6702 14139 7254 1 109.50000 418.400000
6702 14139 8082 1 109.50000 418.400000
6702 14139 8083 1 109.50000 418.400000
7254 14139 8082 1 109.50000 418.400000
7254 14139 8083 1 109.50000 418.400000
8082 14139 8083 1 109.50000 418.400000
2091 14140 7885 1 109.50000 418.400000
2091 14140 8085 1 109.50000 418.400000
2091 14140 8086 1 109.50000 418.400000
7885 14140 8085 1 109.50000 418.400000
7885 14140 8086 1 109.50000 418.400000
8085 14140 8086 1 109.50000 418.400000
3064 14141 7452 1 109.50000 418.400000
3064 14141 8087 1 109.50000 418.400000
3064 14141 8088 1 109.50000 418.400000
7452 14141 8087 1 109.50000 418.400000
7452 14141 8088 1 109.50000 418.400000
8087 14141 8088 1 109.50000 418.400000
8089 14142 8090 1 109.50000 418.400000
8089 14142 10514 1 109.50000 418.400000
8089 14142 11431 1 109.50000 418.400000
8090 14142 10514 1 109.50000 418.400000
8090 14142 11431 1 109.50000 418.400000
10514 14142 11431 1 109.50000 418.400000
7597 14143 8094 1 109.50000 418.400000
7597 14143 8095 1 109.50000 418.400000
7597 14143 10370 1 109.50000 418.400000
8094 14143 8095 1 109.50000 418.400000
8094 14143 10370 1 109.50000 418.400000
8095 14143 10370 1 109.50000 418.400000
1783 14144 4250 1 109.50000 418.400000
1783 14144 8096 1 109.50000 418.400000
1783 14144 8097 1 109.50000 418.400000
4250 14144 8096 1 109.50000 418.400000
4250 14144 8097 1 109.50000 418.400000
8096 14144 8097 1 109.50000 418.400000
2235 14145 8098 1 109.50000 418.400000
2235 14145 8100 1 109.50000 418.400000
2235 14145 8101 1 109.50000 418.400000
8098 14145 8100 1 109.50000 418.400000
8098 14145 8101 1 109.50000 418.400000
8100 14145 8101 1 109.50000 418.400000
2665 14146 8102 1 109.50000 418.400000
2665 14146 8103 1 109.50000 418.400000
2665 14146 8104 1 109.50000 418.400000
8102 14146 8103 1 109.50000 418.400000
8102 14146 8104 1 109.50000 418.400000
8103 14146 8104 1 109.50000 418.400000
2303 14147 5330 1 109.50000 418.400000
2303 14147 7419 1 109.50000 418.400000
2303 14147 7549 1 109.50000 418.400000
5330 14147 7419 1 109.50000 418.400000
5330 14147 7549 1 109.50000 418.400000
7419 14147 7549 1 109.50000 418.400000
4236 14148 8106 1 109.50000 418.400000
4236 14148 9180 1 109.50000 418.400000
4236 14148 11413 1 109.50000 418.400000
8106 14148 9180 1 109.50000 418.400000
8106 14148 11413 1 109.50000 418.400000
9180 14148 11413 1 109.50000 418.400000
4599 14149 4841 1 109.50000 418.400000
4599 14149 6446 1 109.50000 418.400000
4599 14149 7533 1 109.50000 418.400000
4841 14149 6446 1 109.50000 418.400000
4841 14149 7533 1 109.50000 418.400000
6446 14149 7533 1 109.50000 418.400000
1961 14150 3531 1 109.50000 418.400000
1961 14150 5847 1 109.50000 418.400000
1961 14150 8107 1 109.50000 418.400000
3531 14150 5847 1 109.50000 418.400000
3531 14150 8107 1 109.50000 418.400000
5847 14150 8107 1 109.50000 418.400000
2072 14151 8108 1 109.50000 418.400000
2072 14151 8109 1 109.50000 418.400000
2072 14151 8110 1 109.50000 418.400000
8108 14151 8109 1 109.50000 418.400000
8108 14151 8110 1 109.50000 418.400000
8109 14151 8110 1 109.50000 418.400000
4760 14152 6591 1 109.50000 418.400000
4760 14152 8111 1 109.50000 418.400000
4760 14152 8112 1 109.50000 418.400000
6591 14152 8111 1 109.50000 418.400000
6591 14152 8112 1 109.50000 418.400000
8111 14152 8112 1 109.50000 418.400000
1692 14153 3240 1 109.50000 418.400000
1692 14153 8113 1 109.50000 418.400000
1692 14153 8114 1 109.50000 418.400000
3240 14153 8113 1 109.50000 418.400000
3240 14153 8114 1 109.50000 418.400000
8113 14153 8114 1 109.50000 418.400000
1618 14154 5664 1 109.50000 418.400000
1618 14154 6890 1 109.50000 418.400000
1618 14154 8116 1 109.50000 418.400000
5664 14154 6890 1 109.50000 418.400000
5664 14154 8116 1 109.50000 418.400000
6890 14154 8116 1 109.50000 418.400000
4559 14155 6166 1 109.50000 418.400000
4559 14155 8117 1 109.50000 418.400000
4559 14155 8118 1 109.50000 418.400000
6166 14155 8117 1 109.50000 418.400000
6166 14155 8118 1 109.50000 418.400000
8117 14155 8118 1 109.50000 418.400000
816 14156 8119 1 109.50000 418.400000
816 14156 8120 1 109.50000 418.400000
816 14156 8121 1 109.50000 418.400000
8119 14156 8120 1 109.50000 418.400000
8119 14156 8121 1 109.50000 418.400000
8120 14156 8121 1 109.50000 418.400000
3008 14157 3010 1 109.50000 418.400000
3008 14157 4640 1 109.50000 418.400000
3008 14157 8122 1 109.50000 418.400000
3010 14157 4640 1 109.50000 418.400000
3010 14157 8122 1 109.50000 418.400000
4640 14157 8122 1 109.50000 418.400000
5657 14158 7252 1 109.50000 418.400000
5657 14158 8123 1 109.50000 418.400000
5657 14158 8124 1 109.50000 418.400000
7252 14158 8123 1 109.50000 418.400000
7252 14158 8124 1 109.50000 418.400000
8123 14158 8124 1 109.50000 418.400000
475 14159 3947 1 109.50000 418.400000
475 14159 8125 1 109.50000 418.400000
475 14159 8126 1 109.50000 418.400000
3947 14159 8125 1 109.50000 418.400000
3947 14159 8126 1 109.50000 418.400000
8125 14159 8126 1 109.50000 418.400000
7389 14160 8127 1 109.50000 418.400000
7389 14160 8128 1 109.50000 418.400000
7389 14160 8129 1 109.50000 418.400000
8127 14160 8128 1 109.50000 418.400000
8127 14160 8129 1 109.50000 418.400000
8128 14160 8129 1 109.50000 418.400000
6808 14161 8114 1 109.50000 418.400000
6808 14161 8130 1 109.50000 418.400000
6808 14161 8131 1 109.50000 418.400000
8114 14161 8130 1 109.50000 418.400000
8114 14161 8131 1 109.50000 418.400000
8130 14161 8131 1 109.50000 418.400000
1246 14162 3235 1 109.50000 418.400000
1246 14162 8132 1 109.50000 418.400000
1246 14162 8133 1 109.50000 418.400000
3235 14162 8132 1 109.50000 418.400000
3235 14162 8133 1 109.50000 418.400000
8132 14162 8133 1 109.50000 418.400000
2484 14163 7859 1 109.50000 418.400000
2484 14163 8134 1 109.50000 418.400000
2484 14163 8135 1 109.50000 418.400000
7859 14163 8134 1 109.50000 418.400000
7859 14163 8135 1 109.50000 418.400000
8134 14163 8135 1 109.50000 418.400000
5950 14164 8136 1 109.50000 418.400000
5950 14164 8137 1 109.50000 418.400000
5950 14164 8138 1 109.50000 418.400000
8136 14164 8137 1 109.50000 418.400000
8136 14164 8138 1 109.50000 418.400000
8137 14164 8138 1 109.50000 418.400000
6599 14165 8139 1 109.50000 418.400000
6599 14165 8140 1 109.50000 418.400000
6599 14165 8141 1 109.50000 418.400000
8139 14165 8140 1 109.50000 418.400000
8139 14165 8141 1 109.50000 418.400000
8140 14165 8141 1 109.50000 418.400000
6056 14166 7529 1 109.50000 418.400000
6056 14166 8142 1 109.50000 418.400000
6056 14166 11139 1 109.50000 418.400000
7529 14166 8142 1 109.50000 418.400000
7529 14166 11139 1 109.50000 418.400000
8142 14166 11139 1 109.50000 418.400000
6922 14167 8143 1 109.50000 418.400000
6922 14167 8144 1 109.50000 418.400000
6922 14167 10063 1 109.50000 418.400000
8143 14167 8144 1 109.50000 418.400000
8143 14167 10063 1 109.50000 418.400000
8144 14167 10063 1 109.50000 418.400000
765 14168 5877 1 109.50000 418.400000
765 14168 6358 1 109.50000 418.400000
765 14168 8145 1 109.50000 418.400000
5877 14168 6358 1 109.50000 418.400000
5877 14168 8145 1 109.50000 418.400000
6358 14168 8145 1 109.50000 418.400000
2957 14169 3150 1 109.50000 418.400000
2957 14169 8146 1 109.50000 418.400000
2957 14169 8147 1 109.50000 418.400000
3150 14169 8146 1 109.50000 418.400000
3150 14169 8147 1 109.50000 418.400000
8146 14169 8147 1 109.50000 418.400000
467 14170 3028 1 109.50000 418.400000
467 14170 8149 1 109.50000 418.400000
467 14170 10793 1 109.50000 418.400000
3028 14170 8149 1 109.50000 418.400000
3028 14170 10793 1 109.50000 418.400000
8149 14170 10793 1 109.50000 418.400000
2848 14171 7213 1 109.50000 418.400000
2848 14171 8151 1 109.50000 418.400000
2848 14171 8152 1 109.50000 418.400000
7213 14171 8151 1 109.50000 418.400000
7213 14171 8152 1 109.50000 418.400000
8151 14171 8152 1 109.50000 418.400000
2441 14172 8154 1 109.50000 418.400000
2441 14172 8155 1 109.50000 418.400000
2441 14172 8157 1 109.50000 418.400000
8154 14172 8155 1 109.50000 418.400000
8154 14172 8157 1 109.50000 418.400000
8155 14172 8157 1 109.50000 418.400000
2691 14173 7559 1 109.50000 418.400000
2691 14173 8158 1 109.50000 418.400000
2691 14173 8159 1 109.50000 418.400000
7559 14173 8158 1 109.50000 418.400000
7559 14173 8159 1 109.50000 418.400000
8158 14173 8159 1 109.50000 418.400000
1463 14174 3263 1 109.50000 418.400000
1463 14174 8160 1 109.50000 418.400000
1463 14174 8162 1 109.50000 418.400000
3263 14174 8160 1 109.50000 418.400000
3263 14174 8162 1 109.50000 418.400000
8160 14174 8162 1 109.50000 418.400000
7321 14175 8052 1 109.50000 418.400000
7321 14175 8163 1 109.50000 418.400000
7321 14175 8164 1 109.50000 418.400000
8052 14175 8163 1 109.50000 418.400000
8052 14175 8164 1 109.50000 418.400000
8163 14175 8164 1 109.50000 418.400000
679 14176 1133 1 109.50000 418.400000
679 14176 1440 1 109.50000 418.400000
679 14176 8165 1 109.50000 418.400000
1133 14176 1440 1 109.50000 418.400000
1133 14176 8165 1 109.50000 418.400000
1440 14176 8165 1 109.50000 418.400000
3025 14177 5292 1 109.50000 418.400000
3025 14177 6318 1 109.50000 418.400000
3025 14177 8167 1 109.50000 418.400000
5292 14177 6318 1 109.50000 418.400000
5292 14177 8167 1 109.50000 418.400000
6318 14177 8167 1 109.50000 418.400000
1172 14178 5801 1 109.50000 418.400000
1172 14178 7307 1 109.50000 418.400000
1172 14178 8168 1 109.50000 418.400000
5801 14178 7307 1 109.50000 418.400000
5801 14178 8168 1 109.50000 418.400000
7307 14178 8168 1 109.50000 418.400000
327 14179 8169 1 109.50000 418.400000
327 14179 8170 1 109.50000 418.400000
327 14179 8171 1 109.50000 418.400000
8169 14179 8170 1 109.50000 418.400000
8169 14179 8171 1 109.50000 418.400000
8170 14179 8171 1 109.50000 418.400000
8172 14180 8173 1 109.50000 418.400000
8172 14180 8174 1 109.50000 418.400000
8172 14180 11220 1 109.50000 418.400000
8173 14180 8174 1 109.50000 418.400000
8173 14180 11220 1 109.50000 418.400000
8174 14180 11220 1 109.50000 418.400000
8175 14181 8176 1 109.50000 418.400000
8175 14181 8177 1 109.50000 418.400000
8175 14181 8178 1 109.50000 418.400000
8176 14181 8177 1 109.50000 418.400000
8176 14181 8178 1 109.50000 418.400000
8177 14181 8178 1 109.50000 418.400000
8179 14182 8180 1 109.50000 418.400000
8179 14182 8181 1 109.50000 418.400000
8179 14182 8182 1 109.50000 418.400000
8180 14182 8181 1 109.50000 418.400000
8180 14182 8182 1 109.50000 418.400000
8181 14182 8182 1 109.50000 418.400000
4743 14183 6159 1 109.50000 418.400000
4743 14183 8183 1 109.50000 418.400000
4743 14183 8184 1 109.50000 418.400000
6159 14183 8183 1 109.50000 418.400000
6159 14183 8184 1 109.50000 418.400000
8183 14183 8184 1 109.50000 418.400000
341 14184 3143 1 109.50000 418.400000
341 14184 3934 1 109.50000 418.400000
341 14184 8185 1 109.50000 418.400000
3143 14184 3934 1 109.50000 418.400000
3143 14184 8185 1 109.50000 418.400000
3934 14184 8185 1 109.50000 418.400000
7648 14185 8186 1 109.50000 418.400000
7648 14185 8187 1 109.50000 418.400000
7648 14185 8188 1 109.50000 418.400000
8186 14185 8187 1 109.50000 418.400000
8186 14185 8188 1 109.50000 418.400000
8187 14185 8188 1 109.50000 418.400000
2033 14186 8189 1 109.50000 418.400000
2033 14186 8190 1 109.50000 418.400000
2033 14186 8191 1 109.50000 418.400000
8189 14186 8190 1 109.50000 418.400000
8189 14186 8191 1 109.50000 418.400000
8190 14186 8191 1 109.50000 418.400000
2412 14187 8192 1 109.50000 418.400000
2412 14187 8193 1 109.50000 418.400000
2412 14187 8194 1 109.50000 418.400000
8192 14187 8193 1 109.50000 418.400000
8192 14187 8194 1 109.50000 418.400000
8193 14187 8194 1 109.50000 418.400000
7379 14188 8136 1 109.50000 418.400000
7379 14188 8195 1 109.50000 418.400000
7379 14188 8196 1 109.50000 418.400000
8136 14188 8195 1 109.50000 418.400000
8136 14188 8196 1 109.50000 418.400000
8195 14188 8196 1 109.50000 418.400000
5719 14189 6887 1 109.50000 418.400000
5719 14189 7028 1 109.50000 418.400000
5719 14189 8197 1 109.50000 418.400000
6887 14189 7028 1 109.50000 418.400000
6887 14189 8197 1 109.50000 418.400000
7028 14189 8197 1 109.50000 418.400000
5561 14190 8198 1 109.50000 418.400000
5561 14190 11385 1 109.50000 418.400000
5561 14190 11492 1 109.50000 418.400000
8198 14190 11385 1 109.50000 418.400000
8198 14190 11492 1 109.50000 418.400000
11385 14190 11492 1 109.50000 418.400000
6720 14191 8199 1 109.50000 418.400000
6720 14191 8200 1 109.50000 418.400000
6720 14191 8201 1 109.50000 418.400000
8199 14191 8200 1 109.50000 418.400000
8199 14191 8201 1 109.50000 418.400000
8200 14191 8201 1 109.50000 418.400000
2004 14192 5006 1 109.50000 418.400000
2004 14192 7500 1 109.50000 418.400000
2004 14192 8202 1 109.50000 418.400000
5006 14192 7500 1 109.50000 418.400000
5006 14192 8202 1 109.50000 418.400000
7500 14192 8202 1 109.50000 418.400000
4838 14193 7191 1 109.50000 418.400000
4838 14193 8203 1 109.50000 418.400000
4838 14193 8204 1 109.50000 418.400000
7191 14193 8203 1 109.50000 418.400000
7191 14193 8204 1 109.50000 418.400000
8203 14193 8204 1 109.50000 418.400000
3767 14194 8205 1 109.50000 418.400000
3767 14194 8206 1 109.50000 418.400000
3767 14194 8207 1 109.50000 418.400000
8205 14194 8206 1 109.50000 418.400000
8205 14194 8207 1 109.50000 418.400000
8206 14194 8207 1 109.50000 418.400000
4092 14195 6995 1 109.50000 418.400000
4092 14195 8208 1 109.50000 418.400000
4092 14195 8209 1 109.50000 418.400000
6995 14195 8208 1 109.50000 418.400000
6995 14195 8209 1 109.50000 418.400000
8208 14195 8209 1 109.50000 418.400000
2166 14196 4676 1 109.50000 418.400000
2166 14196 6497 1 109.50000 418.400000
2166 14196 8210 1 109.50000 418.400000
4676 14196 6497 1 109.50000 418.400000
4676 14196 8210 1 109.50000 418.400000
6497 14196 8210 1 109.50000 418.400000
1272 14197 3919 1 109.50000 418.400000
1272 14197 3920 1 109.50000 418.400000
1272 14197 5706 1 109.50000 418.400000
3919 14197 3920 1 109.50000 418.400000
3919 14197 5706 1 109.50000 418.400000
3920 14197 5706 1 109.50000 418.400000
4810 14198 4811 1 109.50000 418.400000
4810 14198 5151 1 109.50000 418.400000
4810 14198 8213 1 109.50000 418.400000
4811 14198 5151 1 109.50000 418.400000
4811 14198 8213 1 109.50000 418.400000
5151 14198 8213 1 109.50000 418.400000
6657 14199 7619 1 109.50000 418.400000
6657 14199 8214 1 109.50000 418.400000
6657 14199 8215 1 109.50000 418.400000
7619 14199 8214 1 109.50000 418.400000
7619 14199 8215 1 109.50000 418.400000
8214 14199 8215 1 109.50000 418.400000
4406 14200 6240 1 109.50000 418.400000
4406 14200 6882 1 109.50000 418.400000
4406 14200 8217 1 109.50000 418.400000
6240 14200 6882 1 109.50000 418.400000
6240 14200 8217 1 109.50000 418.400000
6882 14200 8217 1 109.50000 418.400000
2944 14201 5406 1 109.50000 418.400000
2944 14201 8218 1 109.50000 418.400000
2944 14201 8219 1 109.50000 418.400000
5406 14201 8218 1 109.50000 418.400000
5406 14201 8219 1 109.50000 418.400000
8218 14201 8219 1 109.50000 418.400000
282 14202 1533 1 109.50000 418.400000
282 14202 3821 1 109.50000 418.400000
282 14202 8220 1 109.50000 418.400000
1533 14202 3821 1 109.50000 418.400000
1533 14202 8220 1 109.50000 418.400000
3821 14202 8220 1 109.50000 418.400000
6093 14203 8223 1 109.50000 418.400000
6093 14203 8224 1 109.50000 418.400000
6093 14203 8225 1 109.50000 418.400000
8223 14203 8224 1 109.50000 418.400000
8223 14203 8225 1 109.50000 418.400000
8224 14203 8225 1 109.50000 418.400000
335 14204 8226 1 109.50000 418.400000
335 14204 8227 1 109.50000 418.400000
335 14204 8228 1 109.50000 418.400000
8226 14204 8227 1 109.50000 418.400000
8226 14204 8228 1 109.50000 418.400000
8227 14204 8228 1 109.50000 418.400000
2329 14205 4034 1 109.50000 418.400000
2329 14205 6481 1 109.50000 418.400000
2329 14205 7317 1 109.50000 418.400000
4034 14205 6481 1 109.50000 418.400000
4034 14205 7317 1 109.50000 418.400000
6481 14205 7317 1 109.50000 418.400000
8229 14206 8230 1 109.50000 418.400000
8229 14206 8231 1 109.50000 418.400000
8229 14206 8232 1 109.50000 418.400000
8230 14206 8231 1 109.50000 418.400000
8230 14206 8232 1 109.50000 418.400000
8231 14206 8232 1 109.50000 418.400000
558 14207 1991 1 109.50000 418.400000
558 14207 8233 1 109.50000 418.400000
558 14207 8234 1 109.50000 418.400000
1991 14207 8233 1 109.50000 418.400000
1991 14207 8234 1 109.50000 418.400000
8233 14207 8234 1 109.50000 418.400000
51 14208 2888 1 109.50000 418.400000
51 14208 8235 1 109.50000 418.400000
51 14208 8236 1 109.50000 418.400000
2888 14208 8235 1 109.50000 418.400000
2888 14208 8236 1 109.50000 418.400000
8235 14208 8236 1 109.50000 418.400000
6157 14209 6334 1 109.50000 418.400000
6157 14209 8238 1 109.50000 418.400000
6157 14209 8239 1 109.50000 418.400000
6334 14209 8238 1 109.50000 418.400000
6334 14209 8239 1 109.50000 418.400000
8238 14209 8239 1 109.50000 418.400000
5196 14210 8241 1 109.50000 418.400000
5196 14210 8242 1 109.50000 418.400000
5196 14210 8609 1 109.50000 418.400000
8241 14210 8242 1 109.50000 418.400000
8241 14210 8609 1 109.50000 418.400000
8242 14210 8609 1 109.50000 418.400000
5034 14211 8243 1 109.50000 418.400000
5034 14211 8244 1 109.50000 418.400000
5034 14211 8245 1 109.50000 418.400000
8243 14211 8244 1 109.50000 418.400000
8243 14211 8245 1 109.50000 418.400000
8244 14211 8245 1 109.50000 418.400000
4516 14212 6448 1 109.50000 418.400000
4516 14212 8246 1 109.50000 418.400000
4516 14212 11331 1 109.50000 418.400000
6448 14212 8246 1 109.50000 418.400000
6448 14212 11331 1 109.50000 418.400000
8246 14212 11331 1 109.50000 418.400000
5854 14213 7800 1 109.50000 418.400000
5854 14213 8247 1 109.50000 418.400000
5854 14213 11209 1 109.50000 418.400000
7800 14213 8247 1 109.50000 418.400000
7800 14213 11209 1 109.50000 418.400000
8247 14213 11209 1 109.50000 418.400000
3840 14214 7122 1 109.50000 418.400000
3840 14214 8199 1 109.50000 418.400000
3840 14214 8248 1 109.50000 418.400000
7122 14214 8199 1 109.50000 418.400000
7122 14214 8248 1 109.50000 418.400000
8199 14214 8248 1 109.50000 418.400000
8249 14215 8250 1 109.50000 418.400000
8249 14215 8251 1 109.50000 418.400000
8249 14215 8252 1 109.50000 418.400000
8250 14215 8251 1 109.50000 418.400000
8250 14215 8252 1 109.50000 418.400000
8251 14215 8252 1 109.50000 418.400000
5855 14216 8253 1 109.50000 418.400000
5855 14216 8254 1 109.50000 418.400000
5855 14216 8255 1 109.50000 418.400000
8253 14216 8254 1 109.50000 418.400000
8253 14216 8255 1 109.50000 418.400000
8254 14216 8255 1 109.50000 418.400000
4220 14217 8256 1 109.50000 418.400000
4220 14217 8257 1 109.50000 418.400000
4220 14217 8258 1 109.50000 418.400000
8256 14217 8257 1 109.50000 418.400000
8256 14217 8258 1 109.50000 418.400000
8257 14217 8258 1 109.50000 418.400000
3862 14218 6438 1 109.50000 418.400000
3862 14218 8260 1 109.50000 418.400000
3862 14218 8261 1 109.50000 418.400000
6438 14218 8260 1 109.50000 418.400000
6438 14218 8261 1 109.50000 418.400000
8260 14218 8261 1 109.50000 418.400000
1167 14219 3724 1 109.50000 418.400000
1167 14219 8263 1 109.50000 418.400000
1167 14219 8264 1 109.50000 418.400000
3724 14219 8263 1 109.50000 418.400000
3724 14219 8264 1 109.50000 418.400000
8263 14219 8264 1 109.50000 418.400000
5459 14220 8266 1 109.50000 418.400000
5459 14220 8267 1 109.50000 418.400000
5459 14220 8268 1 109.50000 418.400000
8266 14220 8267 1 109.50000 418.400000
8266 14220 8268 1 109.50000 418.400000
8267 14220 8268 1 109.50000 418.400000
4707 14221 5374 1 109.50000 418.400000
4707 14221 7666 1 109.50000 418.400000
4707 14221 11395 1 109.50000 418.400000
5374 14221 7666 1 109.50000 418.400000
5374 14221 11395 1 109.50000 418.400000
7666 14221 11395 1 109.50000 418.400000
102 14222 8269 1 109.50000 418.400000
102 14222 8270 1 109.50000 418.400000
102 14222 8271 1 109.50000 418.400000
8269 14222 8270 1 109.50000 418.400000
8269 14222 8271 1 109.50000 418.400000
8270 14222 8271 1 109.50000 418.400000
2819 14223 4755 1 109.50000 418.400000
2819 14223 8042 1 109.50000 418.400000
2819 14223 8272 1 109.50000 418.400000
4755 14223 8042 1 109.50000 418.400000
4755 14223 8272 1 109.50000 418.400000
8042 14223 8272 1 109.50000 418.400000
438 14224 1211 1 109.50000 418.400000
438 14224 5074 1 109.50000 418.400000
438 14224 8273 1 109.50000 418.400000
1211 14224 5074 1 109.50000 418.400000
1211 14224 8273 1 109.50000 418.400000
5074 14224 8273 1 109.50000 418.400000
1135 14225 2679 1 109.50000 418.400000
1135 14225 7370 1 109.50000 418.400000
1135 14225 8274 1 109.50000 418.400000
2679 14225 7370 1 109.50000 418.400000
2679 14225 8274 1 109.50000 418.400000
7370 14225 8274 1 109.50000 418.400000
2256 14226 5191 1 109.50000 418.400000
2256 14226 5726 1 109.50000 418.400000
2256 14226 8275 1 109.50000 418.400000
5191 14226 5726 1 109.50000 418.400000
5191 14226 8275 1 109.50000 418.400000
5726 14226 8275 1 109.50000 418.400000
8276 14227 10397 1 109.50000 418.400000
8276 14227 11361 1 109.50000 418.400000
8276 14227 11460 1 109.50000 418.400000
10397 14227 11361 1 109.50000 418.400000
10397 14227 11460 1 109.50000 418.400000
11361 14227 11460 1 109.50000 418.400000
4822 14228 6545 1 109.50000 418.400000
4822 14228 6546 1 109.50000 418.400000
4822 14228 8278 1 109.50000 418.400000
6545 14228 6546 1 109.50000 418.400000
6545 14228 8278 1 109.50000 418.400000
6546 14228 8278 1 109.50000 418.400000
694 14229 6361 1 109.50000 418.400000
694 14229 6363 1 109.50000 418.400000
694 14229 8280 1 109.50000 418.400000
6361 14229 6363 1 109.50000 418.400000
6361 14229 8280 1 109.50000 418.400000
6363 14229 8280 1 109.50000 418.400000
7722 14230 8281 1 109.50000 418.400000
7722 14230 8282 1 109.50000 418.400000
7722 14230 8998 1 109.50000 418.400000
8281 14230 8282 1 109.50000 418.400000
8281 14230 8998 1 109.50000 418.400000
8282 14230 8998 1 109.50000 418.400000
8284 14231 8285 1 109.50000 418.400000
8284 14231 8286 1 109.50000 418.400000
8284 14231 8287 1 109.50000 418.400000
8285 14231 8286 1 109.50000 418.400000
8285 14231 8287 1 109.50000 418.400000
8286 14231 8287 1 109.50000 418.400000
8288 14232 8289 1 109.50000 418.400000
8288 14232 11314 1 109.50000 418.400000
8288 14232 11413 1 109.50000 418.400000
8289 14232 11314 1 109.50000 418.400000
8289 14232 11413 1 109.50000 418.400000
11314 14232 11413 1 109.50000 418.400000
8290 14233 8291 1 109.50000 418.400000
8290 14233 9568 1 109.50000 418.400000
8290 14233 10944 1 109.50000 418.400000
8291 14233 9568 1 109.50000 418.400000
8291 14233 10944 1 109.50000 418.400000
9568 14233 10944 1 109.50000 418.400000
198 14234 6468 1 109.50000 418.400000
198 14234 8292 1 109.50000 418.400000
198 14234 8293 1 109.50000 418.400000
6468 14234 8292 1 109.50000 418.400000
6468 14234 8293 1 109.50000 418.400000
8292 14234 8293 1 109.50000 418.400000
6449 14235 6742 1 109.50000 418.400000
6449 14235 8295 1 109.50000 418.400000
6449 14235 8296 1 109.50000 418.400000
6742 14235 8295 1 109.50000 418.400000
6742 14235 8296 1 109.50000 418.400000
8295 14235 8296 1 109.50000 418.400000
2121 14236 3819 1 109.50000 418.400000
2121 14236 4294 1 109.50000 418.400000
2121 14236 8297 1 109.50000 418.400000
3819 14236 4294 1 109.50000 418.400000
3819 14236 8297 1 109.50000 418.400000
4294 14236 8297 1 109.50000 418.400000
1831 14237 8299 1 109.50000 418.400000
1831 14237 8300 1 109.50000 418.400000
1831 14237 8301 1 109.50000 418.400000
8299 14237 8300 1 109.50000 418.400000
8299 14237 8301 1 109.50000 418.400000
8300 14237 8301 1 109.50000 418.400000
4998 14238 8302 1 109.50000 418.400000
4998 14238 8303 1 109.50000 418.400000
4998 14238 8304 1 109.50000 418.400000
8302 14238 8303 1 109.50000 418.400000
8302 14238 8304 1 109.50000 418.400000
8303 14238 8304 1 109.50000 418.400000
3827 14239 4543 1 109.50000 418.400000
3827 14239 8305 1 109.50000 418.400000
3827 14239 8306 1 109.50000 418.400000
4543 14239 8305 1 109.50000 418.400000
4543 14239 8306 1 109.50000 418.400000
8305 14239 8306 1 109.50000 418.400000
2422 14240 4700 1 109.50000 418.400000
2422 14240 8307 1 109.50000 418.400000
2422 14240 8308 1 109.50000 418.400000
4700 14240 8307 1 109.50000 418.400000
4700 14240 8308 1 109.50000 418.400000
8307 14240 8308 1 109.50000 418.400000
1626 14241 8309 1 109.50000 418.400000
1626 14241 8310 1 109.50000 418.400000
1626 14241 8311 1 109.50000 418.400000
8309 14241 8310 1 109.50000 418.400000
8309 14241 8311 1 109.50000 418.400000
8310 14241 8311 1 109.50000 418.400000
5794 14242 5797 1 109.50000 418.400000
5794 14242 8312 1 109.50000 418.400000
5794 14242 8313 1 109.50000 418.400000
5797 14242 8312 1 109.50000 418.400000
5797 14242 8313 1 109.50000 418.400000
8312 14242 8313 1 109.50000 418.400000
8316 14243 8317 1 109.50000 418.400000
8316 14243 8318 1 109.50000 418.400000
8316 14243 8319 1 109.50000 418.400000
8317 14243 8318 1 109.50000 418.400000
8317 14243 8319 1 109.50000 418.400000
8318 14243 8319 1 109.50000 418.400000
922 14244 1193 1 109.50000 418.400000
922 14244 7809 1 109.50000 418.400000
922 14244 8320 1 109.50000 418.400000
1193 14244 7809 1 109.50000 418.400000
1193 14244 8320 1 109.50000 418.400000
7809 14244 8320 1 109.50000 418.400000
6217 14245 8029 1 109.50000 418.400000
6217 14245 8321 1 109.50000 418.400000
6217 14245 8322 1 109.50000 418.400000
8029 14245 8321 1 109.50000 418.400000
8029 14245 8322 1 109.50000 418.400000
8321 14245 8322 1 109.50000 418.400000
422 14246 5953 1 109.50000 418.400000
422 14246 8323 1 109.50000 418.400000
422 14246 8324 1 109.50000 418.400000
5953 14246 8323 1 109.50000 418.400000
5953 14246 8324 1 109.50000 418.400000
8323 14246 8324 1 109.50000 418.400000
3297 14247 8186 1 109.50000 418.400000
3297 14247 8325 1 109.50000 418.400000
3297 14247 8326 1 109.50000 418.400000
8186 14247 8325 1 109.50000 418.400000
8186 14247 8326 1 109.50000 418.400000
8325 14247 8326 1 109.50000 418.400000
8327 14248 8328 1 109.50000 418.400000
8327 14248 8329 1 109.50000 418.400000
8327 14248 8330 1 109.50000 418.400000
8328 14248 8329 1 109.50000 418.400000
8328 14248 8330 1 109.50000 418.400000
8329 14248 8330 1 109.50000 418.400000
5463 14249 8331 1 109.50000 418.400000
5463 14249 8332 1 109.50000 418.400000
5463 14249 11423 1 109.50000 418.400000
8331 14249 8332 1 109.50000 418.400000
8331 14249 11423 1 109.50000 418.400000
8332 14249 11423 1 109.50000 418.400000
3836 14250 8333 1 109.50000 418.400000
3836 14250 8334 1 109.50000 418.400000
3836 14250 8335 1 109.50000 418.400000
8333 14250 8334 1 109.50000 418.400000
8333 14250 8335 1 109.50000 418.400000
8334 14250 8335 1 109.50000 418.400000
8336 14251 8337 1 109.50000 418.400000
8336 14251 8338 1 109.50000 418.400000
8336 14251 8339 1 109.50000 418.400000
8337 14251 8338 1 109.50000 418.400000
8337 14251 8339 1 109.50000 418.400000
8338 14251 8339 1 109.50000 418.400000
2788 14252 3197 1 109.50000 418.400000
2788 14252 8340 1 109.50000 418.400000
2788 14252 8341 1 109.50000 418.400000
3197 14252 8340 1 109.50000 418.400000
3197 14252 8341 1 109.50000 418.400000
8340 14252 8341 1 109.50000 418.400000
5653 14253 5654 1 109.50000 418.400000
5653 14253 7451 1 109.50000 418.400000
5653 14253 8342 1 109.50000 418.400000
5654 14253 7451 1 109.50000 418.400000
5654 14253 8342 1 109.50000 418.400000
7451 14253 8342 1 109.50000 418.400000
2831 14254 8343 1 109.50000 418.400000
2831 14254 8344 1 109.50000 418.400000
2831 14254 8345 1 109.50000 418.400000
8343 14254 8344 1 109.50000 418.400000
8343 14254 8345 1 109.50000 418.400000
8344 14254 8345 1 109.50000 418.400000
6294 14255 6588 1 109.50000 418.400000
6294 14255 8346 1 109.50000 418.400000
6294 14255 8347 1 109.50000 418.400000
6588 14255 8346 1 109.50000 418.400000
6588 14255 8347 1 109.50000 418.400000
8346 14255 8347 1 109.50000 418.400000
539 14256 8348 1 109.50000 418.400000
539 14256 8349 1 109.50000 418.400000
539 14256 8350 1 109.50000 418.400000
8348 14256 8349 1 109.50000 418.400000
8348 14256 8350 1 109.50000 418.400000
8349 14256 8350 1 109.50000 418.400000
3427 14257 5046 1 109.50000 418.400000
3427 14257 6930 1 109.50000 418.400000
3427 14257 8104 1 109.50000 418.400000
5046 14257 6930 1 109.50000 418.400000
5046 14257 8104 1 109.50000 418.400000
6930 14257 8104 1 109.50000 418.400000
5827 14258 8351 1 109.50000 418.400000
5827 14258 8352 1 109.50000 418.400000
5827 14258 8353 1 109.50000 418.400000
8351 14258 8352 1 109.50000 418.400000
8351 14258 8353 1 109.50000 418.400000
8352 14258 8353 1 109.50000 418.400000
6490 14259 8355 1 109.50000 418.400000
6490 14259 8356 1 109.50000 418.400000
6490 14259 10119 1 109.50000 418.400000
8355 14259 8356 1 109.50000 418.400000
8355 14259 10119 1 109.50000 418.400000
8356 14259 10119 1 109.50000 418.400000
633 14260 6275 1 109.50000 418.400000
633 14260 8357 1 109.50000 418.400000
633 14260 8358 1 109.50000 418.400000
6275 14260 8357 1 109.50000 418.400000
6275 14260 8358 1 109.50000 418.400000
8357 14260 8358 1 109.50000 418.400000
6079 14261 8359 1 109.50000 418.400000
6079 14261 8360 1 109.50000 418.400000
6079 14261 8361 1 109.50000 418.400000
8359 14261 8360 1 109.50000 418.400000
8359 14261 8361 1 109.50000 418.400000
8360 14261 8361 1 109.50000 418.400000
6532 14262 7465 1 109.50000 418.400000
6532 14262 7948 1 109.50000 418.400000
6532 14262 8362 1 109.50000 418.400000
7465 14262 7948 1 109.50000 418.400000
7465 14262 8362 1 109.50000 418.400000
7948 14262 8362 1 109.50000 418.400000
5968 14263 8363 1 109.50000 418.400000
5968 14263 8364 1 109.50000 418.400000
5968 14263 8365 1 109.50000 418.400000
8363 14263 8364 1 109.50000 418.400000
8363 14263 8365 1 109.50000 418.400000
8364 14263 8365 1 109.50000 418.400000
3606 14264 3979 1 109.50000 418.400000
3606 14264 8366 1 109.50000 418.400000
3606 14264 8367 1 109.50000 418.400000
3979 14264 8366 1 109.50000 418.400000
3979 14264 8367 1 109.50000 418.400000
8366 14264 8367 1 109.50000 418.400000
8368 14265 8369 1 109.50000 418.400000
8368 14265 8370 1 109.50000 418.400000
8368 14265 11253 1 109.50000 418.400000
8369 14265 8370 1 109.50000 418.400000
8369 14265 11253 1 109.50000 418.400000
8370 14265 11253 1 109.50000 418.400000
4772 14266 6039 1 109.50000 418.400000
4772 14266 7687 1 109.50000 418.400000
4772 14266 8372 1 109.50000 418.400000
6039 14266 7687 1 109.50000 418.400000
6039 14266 8372 1 109.50000 418.400000
7687 14266 8372 1 109.50000 418.400000
1985 14267 5388 1 109.50000 418.400000
1985 14267 8374 1 109.50000 418.400000
1985 14267 8375 1 109.50000 418.400000
5388 14267 8374 1 109.50000 418.400000
5388 14267 8375 1 109.50000 418.400000
8374 14267 8375 1 109.50000 418.400000
359 14268 1686 1 109.50000 418.400000
359 14268 1687 1 109.50000 418.400000
359 14268 8377 1 109.50000 418.400000
1686 14268 1687 1 109.50000 418.400000
1686 14268 8377 1 109.50000 418.400000
1687 14268 8377 1 109.50000 418.400000
2521 14269 5750 1 109.50000 418.400000
2521 14269 5770 1 109.50000 418.400000
2521 14269 8378 1 109.50000 418.400000
5750 14269 5770 1 109.50000 418.400000
5750 14269 8378 1 109.50000 418.400000
5770 14269 8378 1 109.50000 418.400000
2797 14270 4346 1 109.50000 418.400000
2797 14270 8379 1 109.50000 418.400000
2797 14270 8380 1 109.50000 418.400000
4346 14270 8379 1 109.50000 418.400000
4346 14270 8380 1 109.50000 418.400000
8379 14270 8380 1 109.50000 418.400000
767 14271 1936 1 109.50000 418.400000
767 14271 8382 1 109.50000 418.400000
767 14271 8383 1 109.50000 418.400000
1936 14271 8382 1 109.50000 418.400000
1936 14271 8383 1 109.50000 418.400000
8382 14271 8383 1 109.50000 418.400000
256 14272 1827 1 109.50000 418.400000
256 14272 6834 1 109.50000 418.400000
256 14272 8384 1 109.50000 418.400000
1827 14272 6834 1 109.50000 418.400000
1827 14272 8384 1 109.50000 418.400000
6834 14272 8384 1 109.50000 418.400000
480 14273 5688 1 109.50000 418.400000
480 14273 8010 1 109.50000 418.400000
480 14273 8385 1 109.50000 418.400000
5688 14273 8010 1 109.50000 418.400000
5688 14273 8385 1 109.50000 418.400000
8010 14273 8385 1 109.50000 418.400000
3722 14274 8386 1 109.50000 418.400000
3722 14274 8387 1 109.50000 418.400000
3722 14274 8388 1 109.50000 418.400000
8386 14274 8387 1 109.50000 418.400000
8386 14274 8388 1 109.50000 418.400000
8387 14274 8388 1 109.50000 418.400000
1752 14275 5552 1 109.50000 418.400000
1752 14275 7255 1 109.50000 418.400000
1752 14275 8389 1 109.50000 418.400000
5552 14275 7255 1 109.50000 418.400000
5552 14275 8389 1 109.50000 418.400000
7255 14275 8389 1 109.50000 418.400000
6234 14276 8390 1 109.50000 418.400000
6234 14276 8391 1 109.50000 418.400000
6234 14276 10272 1 109.50000 418.400000
8390 14276 8391 1 109.50000 418.400000
8390 14276 10272 1 109.50000 418.400000
8391 14276 10272 1 109.50000 418.400000
3656 14277 5310 1 109.50000 418.400000
3656 14277 8392 1 109.50000 418.400000
3656 14277 8393 1 109.50000 418.400000
5310 14277 8392 1 109.50000 418.400000
5310 14277 8393 1 109.50000 418.400000
8392 14277 8393 1 109.50000 418.400000
4851 14278 8394 1 109.50000 418.400000
4851 14278 8395 1 109.50000 418.400000
4851 14278 8396 1 109.50000 418.400000
8394 14278 8395 1 109.50000 418.400000
8394 14278 8396 1 109.50000 418.400000
8395 14278 8396 1 109.50000 418.400000
1794 14279 6524 1 109.50000 418.400000
1794 14279 8397 1 109.50000 418.400000
1794 14279 8398 1 109.50000 418.400000
6524 14279 8397 1 109.50000 418.400000
6524 14279 8398 1 109.50000 418.400000
8397 14279 8398 1 109.50000 418.400000
53 14280 6471 1 109.50000 418.400000
53 14280 8399 1 109.50000 418.400000
53 14280 8400 1 109.50000 418.400000
6471 14280 8399 1 109.50000 418.400000
6471 14280 8400 1 109.50000 418.400000
8399 14280 8400 1 109.50000 418.400000
492 14281 5751 1 109.50000 418.400000
492 14281 8401 1 109.50000 418.400000
492 14281 8402 1 109.50000 418.400000
5751 14281 8401 1 109.50000 418.400000
5751 14281 8402 1 109.50000 418.400000
8401 14281 8402 1 109.50000 418.400000
229 14282 4242 1 109.50000 418.400000
229 14282 6526 1 109.50000 418.400000
229 14282 7153 1 109.50000 418.400000
4242 14282 6526 1 109.50000 418.400000
4242 14282 7153 1 109.50000 418.400000
6526 14282 7153 1 109.50000 418.400000
1556 14283 1892 1 109.50000 418.400000
1556 14283 1894 1 109.50000 418.400000
1556 14283 8403 1 109.50000 418.400000
1892 14283 1894 1 109.50000 418.400000
1892 14283 8403 1 109.50000 418.400000
1894 14283 8403 1 109.50000 418.400000
3335 14284 7913 1 109.50000 418.400000
3335 14284 8406 1 109.50000 418.400000
3335 14284 8407 1 109.50000 418.400000
7913 14284 8406 1 109.50000 418.400000
7913 14284 8407 1 109.50000 418.400000
8406 14284 8407 1 109.50000 418.400000
8408 14285 8409 1 109.50000 418.400000
8408 14285 8410 1 109.50000 418.400000
8408 14285 9452 1 109.50000 418.400000
8409 14285 8410 1 109.50000 418.400000
8409 14285 9452 1 109.50000 418.400000
8410 14285 9452 1 109.50000 418.400000
4315 14286 5789 1 109.50000 418.400000
4315 14286 8411 1 109.50000 418.400000
4315 14286 10028 1 109.50000 418.400000
5789 14286 8411 1 109.50000 418.400000
5789 14286 10028 1 109.50000 418.400000
8411 14286 10028 1 109.50000 418.400000
723 14287 724 1 109.50000 418.400000
723 14287 8413 1 109.50000 418.400000
723 14287 8414 1 109.50000 418.400000
724 14287 8413 1 109.50000 418.400000
724 14287 8414 1 109.50000 418.400000
8413 14287 8414 1 109.50000 418.400000
4512 14288 8415 1 109.50000 418.400000
4512 14288 8416 1 109.50000 418.400000
4512 14288 8417 1 109.50000 418.400000
8415 14288 8416 1 109.50000 418.400000
8415 14288 8417 1 109.50000 418.400000
8416 14288 8417 1 109.50000 418.400000
7428 14289 8418 1 109.50000 418.400000
7428 14289 8419 1 109.50000 418.400000
7428 14289 8420 1 109.50000 418.400000
8418 14289 8419 1 109.50000 418.400000
8418 14289 8420 1 109.50000 418.400000
8419 14289 8420 1 109.50000 418.400000
3384 14290 5223 1 109.50000 418.400000
3384 14290 5224 1 109.50000 418.400000
3384 14290 8422 1 109.50000 418.400000
5223 14290 5224 1 109.50000 418.400000
5223 14290 8422 1 109.50000 418.400000
5224 14290 8422 1 109.50000 418.400000
8367 14291 8423 1 109.50000 418.400000
8367 14291 8424 1 109.50000 418.400000
8367 14291 8425 1 109.50000 418.400000
8423 14291 8424 1 109.50000 418.400000
8423 14291 8425 1 109.50000 418.400000
8424 14291 8425 1 109.50000 418.400000
1018 14292 7611 1 109.50000 418.400000
1018 14292 7812 1 109.50000 418.400000
1018 14292 8427 1 109.50000 418.400000
7611 14292 7812 1 109.50000 418.400000
7611 14292 8427 1 109.50000 418.400000
7812 14292 8427 1 109.50000 418.400000
3883 14293 5131 1 109.50000 418.400000
3883 14293 8430 1 109.50000 418.400000
3883 14293 8431 1 109.50000 418.400000
5131 14293 8430 1 109.50000 418.400000
5131 14293 8431 1 109.50000 418.400000
8430 14293 8431 1 109.50000 418.400000
7569 14294 7968 1 109.50000 418.400000
7569 14294 8432 1 109.50000 418.400000
7569 14294 8433 1 109.50000 418.400000
7968 14294 8432 1 109.50000 418.400000
7968 14294 8433 1 109.50000 418.400000
8432 14294 8433 1 109.50000 418.400000
1151 14295 7600 1 109.50000 418.400000
1151 14295 8434 1 109.50000 418.400000
1151 14295 8435 1 109.50000 418.400000
7600 14295 8434 1 109.50000 418.400000
7600 14295 8435 1 109.50000 418.400000
8434 14295 8435 1 109.50000 418.400000
887 14296 8369 1 109.50000 418.400000
887 14296 8438 1 109.50000 418.400000
887 14296 8439 1 109.50000 418.400000
8369 14296 8438 1 109.50000 418.400000
8369 14296 8439 1 109.50000 418.400000
8438 14296 8439 1 109.50000 418.400000
3941 14297 4544 1 109.50000 418.400000
3941 14297 8440 1 109.50000 418.400000
3941 14297 8441 1 109.50000 418.400000
4544 14297 8440 1 109.50000 418.400000
4544 14297 8441 1 109.50000 418.400000
8440 14297 8441 1 109.50000 418.400000
4828 14298 5309 1 109.50000 418.400000
4828 14298 7694 1 109.50000 418.400000
4828 14298 8442 1 109.50000 418.400000
5309 14298 7694 1 109.50000 418.400000
5309 14298 8442 1 109.50000 418.400000
7694 14298 8442 1 109.50000 418.400000
809 14299 2792 1 109.50000 418.400000
809 14299 8151 1 109.50000 418.400000
809 14299 8443 1 109.50000 418.400000
2792 14299 8151 1 109.50000 418.400000
2792 14299 8443 1 109.50000 418.400000
8151 14299 8443 1 109.50000 418.400000
1737 14300 5982 1 109.50000 418.400000
1737 14300 8444 1 109.50000 418.400000
1737 14300 10296 1 109.50000 418.400000
5982 14300 8444 1 109.50000 418.400000
5982 14300 10296 1 109.50000 418.400000
8444 14300 10296 1 109.50000 418.400000
2120 14301 8445 1 109.50000 418.400000
2120 14301 8446 1 109.50000 418.400000
2120 14301 8447 1 109.50000 418.400000
8445 14301 8446 1 109.50000 418.400000
8445 14301 8447 1 109.50000 418.400000
8446 14301 8447 1 109.50000 418.400000
1255 14302 4993 1 109.50000 418.400000
1255 14302 8448 1 109.50000 418.400000
1255 14302 8449 1 109.50000 418.400000
4993 14302 8448 1 109.50000 418.400000
4993 14302 8449 1 109.50000 418.400000
8448 14302 8449 1 109.50000 418.400000
8451 14303 8452 1 109.50000 418.400000
8451 14303 8453 1 109.50000 418.400000
8451 14303 10489 1 109.50000 418.400000
8452 14303 8453 1 109.50000 418.400000
8452 14303 10489 1 109.50000 418.400000
8453 14303 10489 1 109.50000 418.400000
40 14304 3667 1 109.50000 418.400000
40 14304 5549 1 109.50000 418.400000
40 14304 8455 1 109.50000 418.400000
3667 14304 5549 1 109.50000 418.400000
3667 14304 8455 1 109.50000 418.400000
5549 14304 8455 1 109.50000 418.400000
2182 14305 5336 1 109.50000 418.400000
2182 14305 5337 1 109.50000 418.400000
2182 14305 8193 1 109.50000 418.400000
5336 14305 5337 1 109.50000 418.400000
5336 14305 8193 1 109.50000 418.400000
5337 14305 8193 1 109.50000 418.400000
1785 14306 3637 1 109.50000 418.400000
1785 14306 8457 1 109.50000 418.400000
1785 14306 8458 1 109.50000 418.400000
3637 14306 8457 1 109.50000 418.400000
3637 14306 8458 1 109.50000 418.400000
8457 14306 8458 1 109.50000 418.400000
3714 14307 3955 1 109.50000 418.400000
3714 14307 7185 1 109.50000 418.400000
3714 14307 8460 1 109.50000 418.400000
3955 14307 7185 1 109.50000 418.400000
3955 14307 8460 1 109.50000 418.400000
7185 14307 8460 1 109.50000 418.400000
57 14308 8462 1 109.50000 418.400000
57 14308 8463 1 109.50000 418.400000
57 14308 8464 1 109.50000 418.400000
8462 14308 8463 1 109.50000 418.400000
8462 14308 8464 1 109.50000 418.400000
8463 14308 8464 1 109.50000 418.400000
158 14309 5937 1 109.50000 418.400000
158 14309 8465 1 109.50000 418.400000
158 14309 8466 1 109.50000 418.400000
5937 14309 8465 1 109.50000 418.400000
5937 14309 8466 1 109.50000 418.400000
8465 14309 8466 1 109.50000 418.400000
1564 14310 5066 1 109.50000 418.400000
1564 14310 6326 1 109.50000 418.400000
1564 14310 8467 1 109.50000 418.400000
5066 14310 6326 1 109.50000 418.400000
5066 14310 8467 1 109.50000 418.400000
6326 14310 8467 1 109.50000 418.400000
8468 14311 8469 1 109.50000 418.400000
8468 14311 8470 1 109.50000 418.400000
8468 14311 8471 1 109.50000 418.400000
8469 14311 8470 1 109.50000 418.400000
8469 14311 8471 1 109.50000 418.400000
8470 14311 8471 1 109.50000 418.400000
2766 14312 3469 1 109.50000 418.400000
2766 14312 6723 1 109.50000 418.400000
2766 14312 8472 1 109.50000 418.400000
3469 14312 6723 1 109.50000 418.400000
3469 14312 8472 1 109.50000 418.400000
6723 14312 8472 1 109.50000 418.400000
1365 14313 5944 1 109.50000 418.400000
1365 14313 7058 1 109.50000 418.400000
1365 14313 7397 1 109.50000 418.400000
5944 14313 7058 1 109.50000 418.400000
5944 14313 7397 1 109.50000 418.400000
7058 14313 7397 1 109.50000 418.400000
8473 14314 8474 1 109.50000 418.400000
8473 14314 8829 1 109.50000 418.400000
8473 14314 11355 1 109.50000 418.400000
8474 14314 8829 1 109.50000 418.400000
8474 14314 11355 1 109.50000 418.400000
8829 14314 11355 1 109.50000 418.400000
1336 14315 6940 1 109.50000 418.400000
1336 14315 7618 1 109.50000 418.400000
1336 14315 8475 1 109.50000 418.400000
6940 14315 7618 1 109.50000 418.400000
6940 14315 8475 1 109.50000 418.400000
7618 14315 8475 1 109.50000 418.400000
4655 14316 7737 1 109.50000 418.400000
4655 14316 8476 1 109.50000 418.400000
4655 14316 8477 1 109.50000 418.400000
7737 14316 8476 1 109.50000 418.400000
7737 14316 8477 1 109.50000 418.400000
8476 14316 8477 1 109.50000 418.400000
5729 14317 8478 1 109.50000 418.400000
5729 14317 8479 1 109.50000 418.400000
5729 14317 8480 1 109.50000 418.400000
8478 14317 8479 1 109.50000 418.400000
8478 14317 8480 1 109.50000 418.400000
8479 14317 8480 1 109.50000 418.400000
5250 14318 6998 1 109.50000 418.400000
5250 14318 8481 1 109.50000 418.400000
5250 14318 8482 1 109.50000 418.400000
6998 14318 8481 1 109.50000 418.400000
6998 14318 8482 1 109.50000 418.400000
8481 14318 8482 1 109.50000 418.400000
2973 14319 3357 1 109.50000 418.400000
2973 14319 3359 1 109.50000 418.400000
2973 14319 8483 1 109.50000 418.400000
3357 14319 3359 1 109.50000 418.400000
3357 14319 8483 1 109.50000 418.400000
3359 14319 8483 1 109.50000 418.400000
4402 14320 5663 1 109.50000 418.400000
4402 14320 8484 1 109.50000 418.400000
4402 14320 8485 1 109.50000 418.400000
5663 14320 8484 1 109.50000 418.400000
5663 14320 8485 1 109.50000 418.400000
8484 14320 8485 1 109.50000 418.400000
3433 14321 8486 1 109.50000 418.400000
3433 14321 8487 1 109.50000 418.400000
3433 14321 8488 1 109.50000 418.400000
8486 14321 8487 1 109.50000 418.400000
8486 14321 8488 1 109.50000 418.400000
8487 14321 8488 1 109.50000 418.400000
3334 14322 8489 1 109.50000 418.400000
3334 14322 8490 1 109.50000 418.400000
3334 14322 8491 1 109.50000 418.400000
8489 14322 8490 1 109.50000 418.400000
8489 14322 8491 1 109.50000 418.400000
8490 14322 8491 1 109.50000 418.400000
5040 14323 7525 1 109.50000 418.400000
5040 14323 8493 1 109.50000 418.400000
5040 14323 8494 1 109.50000 418.400000
7525 14323 8493 1 109.50000 418.400000
7525 14323 8494 1 109.50000 418.400000
8493 14323 8494 1 109.50000 418.400000
4823 14324 7480 1 109.50000 418.400000
4823 14324 8495 1 109.50000 418.400000
4823 14324 8496 1 109.50000 418.400000
7480 14324 8495 1 109.50000 418.400000
7480 14324 8496 1 109.50000 418.400000
8495 14324 8496 1 109.50000 418.400000
7637 14325 8498 1 109.50000 418.400000
7637 14325 8500 1 109.50000 418.400000
7637 14325 10407 1 109.50000 418.400000
8498 14325 8500 1 109.50000 418.400000
8498 14325 10407 1 109.50000 418.400000
8500 14325 10407 1 109.50000 418.400000
7298 14326 8502 1 109.50000 418.400000
7298 14326 8503 1 109.50000 418.400000
7298 14326 8504 1 109.50000 418.400000
8502 14326 8503 1 109.50000 418.400000
8502 14326 8504 1 109.50000 418.400000
8503 14326 8504 1 109.50000 418.400000
3133 14327 3134 1 109.50000 418.400000
3133 14327 3135 1 109.50000 418.400000
3133 14327 5068 1 109.50000 418.400000
3134 14327 3135 1 109.50000 418.400000
3134 14327 5068 1 109.50000 418.400000
3135 14327 5068 1 109.50000 418.400000
3415 14328 8257 1 109.50000 418.400000
3415 14328 8507 1 109.50000 418.400000
3415 14328 10406 1 109.50000 418.400000
8257 14328 8507 1 109.50000 418.400000
8257 14328 10406 1 109.50000 418.400000
8507 14328 10406 1 109.50000 418.400000
3708 14329 8508 1 109.50000 418.400000
3708 14329 8509 1 109.50000 418.400000
3708 14329 8510 1 109.50000 418.400000
8508 14329 8509 1 109.50000 418.400000
8508 14329 8510 1 109.50000 418.400000
8509 14329 8510 1 109.50000 418.400000
3914 14330 4325 1 109.50000 418.400000
3914 14330 6721 1 109.50000 418.400000
3914 14330 11434 1 109.50000 418.400000
4325 14330 6721 1 109.50000 418.400000
4325 14330 11434 1 109.50000 418.400000
6721 14330 11434 1 109.50000 418.400000
3773 14331 8511 1 109.50000 418.400000
3773 14331 8512 1 109.50000 418.400000
3773 14331 11424 1 109.50000 418.400000
8511 14331 8512 1 109.50000 418.400000
8511 14331 11424 1 109.50000 418.400000
8512 14331 11424 1 109.50000 418.400000
898 14332 1403 1 109.50000 418.400000
898 14332 1405 1 109.50000 418.400000
898 14332 8513 1 109.50000 418.400000
1403 14332 1405 1 109.50000 418.400000
1403 14332 8513 1 109.50000 418.400000
1405 14332 8513 1 109.50000 418.400000
2401 14333 8514 1 109.50000 418.400000
2401 14333 8515 1 109.50000 418.400000
2401 14333 8516 1 109.50000 418.400000
8514 14333 8515 1 109.50000 418.400000
8514 14333 8516 1 109.50000 418.400000
8515 14333 8516 1 109.50000 418.400000
447 14334 3811 1 109.50000 418.400000
447 14334 4226 1 109.50000 418.400000
447 14334 8517 1 109.50000 418.400000
3811 14334 4226 1 109.50000 418.400000
3811 14334 8517 1 109.50000 418.400000
4226 14334 8517 1 109.50000 418.400000
975 14335 2445 1 109.50000 418.400000
975 14335 8518 1 109.50000 418.400000
975 14335 11269 1 109.50000 418.400000
2445 14335 8518 1 109.50000 418.400000
2445 14335 11269 1 109.50000 418.400000
8518 14335 11269 1 109.50000 418.400000
3076 14336 8078 1 109.50000 418.400000
3076 14336 8445 1 109.50000 418.400000
3076 14336 8519 1 109.50000 418.400000
8078 14336 8445 1 109.50000 418.400000
8078 14336 8519 1 109.50000 418.400000
8445 14336 8519 1 109.50000 418.400000
3144 14337 8521 1 109.50000 418.400000
3144 14337 8522 1 109.50000 418.400000
3144 14337 10638 1 109.50000 418.400000
8521 14337 8522 1 109.50000 418.400000
8521 14337 10638 1 109.50000 418.400000
8522 14337 10638 1 109.50000 418.400000
259 14338 8163 1 109.50000 418.400000
259 14338 8523 1 109.50000 418.400000
259 14338 8524 1 109.50000 418.400000
8163 14338 8523 1 109.50000 418.400000
8163 14338 8524 1 109.50000 418.400000
8523 14338 8524 1 109.50000 418.400000
235 14339 236 1 109.50000 418.400000
235 14339 237 1 109.50000 418.400000
235 14339 238 1 109.50000 418.400000
236 14339 237 1 109.50000 418.400000
236 14339 238 1 109.50000 418.400000
237 14339 238 1 109.50000 418.400000
6903 14340 8353 1 109.50000 418.400000
6903 14340 8528 1 109.50000 418.400000
6903 14340 8529 1 109.50000 418.400000
8353 14340 8528 1 109.50000 418.400000
8353 14340 8529 1 109.50000 418.400000
8528 14340 8529 1 109.50000 418.400000
5258 14341 6199 1 109.50000 418.400000
5258 14341 11157 1 109.50000 418.400000
5258 14341 11275 1 109.50000 418.400000
6199 14341 11157 1 109.50000 418.400000
6199 14341 11275 1 109.50000 418.400000
11157 14341 11275 1 109.50000 418.400000
683 14342 685 1 109.50000 418.400000
683 14342 8530 1 109.50000 418.400000
683 14342 8531 1 109.50000 418.400000
685 14342 8530 1 109.50000 418.400000
685 14342 8531 1 109.50000 418.400000
8530 14342 8531 1 109.50000 418.400000
1675 14343 8532 1 109.50000 418.400000
1675 14343 8533 1 109.50000 418.400000
1675 14343 8534 1 109.50000 418.400000
8532 14343 8533 1 109.50000 418.400000
8532 14343 8534 1 109.50000 418.400000
8533 14343 8534 1 109.50000 418.400000
4442 14344 8535 1 109.50000 418.400000
4442 14344 8536 1 109.50000 418.400000
4442 14344 8537 1 109.50000 418.400000
8535 14344 8536 1 109.50000 418.400000
8535 14344 8537 1 109.50000 418.400000
8536 14344 8537 1 109.50000 418.400000
1799 14345 8506 1 109.50000 418.400000
1799 14345 8538 1 109.50000 418.400000
1799 14345 8539 1 109.50000 418.400000
8506 14345 8538 1 109.50000 418.400000
8506 14345 8539 1 109.50000 418.400000
8538 14345 8539 1 109.50000 418.400000
1087 14346 8540 1 109.50000 418.400000
1087 14346 8541 1 109.50000 418.400000
1087 14346 8542 1 109.50000 418.400000
8540 14346 8541 1 109.50000 418.400000
8540 14346 8542 1 109.50000 418.400000
8541 14346 8542 1 109.50000 418.400000
567 14347 8543 1 109.50000 418.400000
567 14347 8544 1 109.50000 418.400000
567 14347 8545 1 109.50000 418.400000
8543 14347 8544 1 109.50000 418.400000
8543 14347 8545 1 109.50000 418.400000
8544 14347 8545 1 109.50000 418.400000
421 14348 4011 1 109.50000 418.400000
421 14348 8343 1 109.50000 418.400000
421 14348 8546 1 109.50000 418.400000
4011 14348 8343 1 109.50000 418.400000
4011 14348 8546 1 109.50000 418.400000
8343 14348 8546 1 109.50000 418.400000
4212 14349 8547 1 109.50000 418.400000
4212 14349 8548 1 109.50000 418.400000
4212 14349 8549 1 109.50000 418.400000
8547 14349 8548 1 109.50000 418.400000
8547 14349 8549 1 109.50000 418.400000
8548 14349 8549 1 109.50000 418.400000
21 14350 8550 1 109.50000 418.400000
21 14350 11334 1 109.50000 418.400000
21 14350 11488 1 109.50000 418.400000
8550 14350 11334 1 109.50000 418.400000
8550 14350 11488 1 109.50000 418.400000
11334 14350 11488 1 109.50000 418.400000
565 14351 8551 1 109.50000 418.400000
565 14351 8552 1 109.50000 418.400000
565 14351 8553 1 109.50000 418.400000
8551 14351 8552 1 109.50000 418.400000
8551 14351 8553 1 109.50000 418.400000
8552 14351 8553 1 109.50000 418.400000
1948 14352 6145 1 109.50000 418.400000
1948 14352 6146 1 109.50000 418.400000
1948 14352 6147 1 109.50000 418.400000
6145 14352 6146 1 109.50000 418.400000
6145 14352 6147 1 109.50000 418.400000
6146 14352 6147 1 109.50000 418.400000
7075 14353 7999 1 109.50000 418.400000
7075 14353 8554 1 109.50000 418.400000
7075 14353 8555 1 109.50000 418.400000
7999 14353 8554 1 109.50000 418.400000
7999 14353 8555 1 109.50000 418.400000
8554 14353 8555 1 109.50000 418.400000
6370 14354 8007 1 109.50000 418.400000
6370 14354 8556 1 109.50000 418.400000
6370 14354 8557 1 109.50000 418.400000
8007 14354 8556 1 109.50000 418.400000
8007 14354 8557 1 109.50000 418.400000
8556 14354 8557 1 109.50000 418.400000
4453 14355 4712 1 109.50000 418.400000
4453 14355 8558 1 109.50000 418.400000
4453 14355 8559 1 109.50000 418.400000
4712 14355 8558 1 109.50000 418.400000
4712 14355 8559 1 109.50000 418.400000
8558 14355 8559 1 109.50000 418.400000
5758 14356 8338 1 109.50000 418.400000
5758 14356 8560 1 109.50000 418.400000
5758 14356 8561 1 109.50000 418.400000
8338 14356 8560 1 109.50000 418.400000
8338 14356 8561 1 109.50000 418.400000
8560 14356 8561 1 109.50000 418.400000
2733 14357 8562 1 109.50000 418.400000
2733 14357 11294 1 109.50000 418.400000
2733 14357 11311 1 109.50000 418.400000
8562 14357 11294 1 109.50000 418.400000
8562 14357 11311 1 109.50000 418.400000
11294 14357 11311 1 109.50000 418.400000
2512 14358 7876 1 109.50000 418.400000
2512 14358 8414 1 109.50000 418.400000
2512 14358 8563 1 109.50000 418.400000
7876 14358 8414 1 109.50000 418.400000
7876 14358 8563 1 109.50000 418.400000
8414 14358 8563 1 109.50000 418.400000
192 14359 6424 1 109.50000 418.400000
192 14359 8564 1 109.50000 418.400000
192 14359 8565 1 109.50000 418.400000
6424 14359 8564 1 109.50000 418.400000
6424 14359 8565 1 109.50000 418.400000
8564 14359 8565 1 109.50000 418.400000
705 14360 6707 1 109.50000 418.400000
705 14360 6769 1 109.50000 418.400000
705 14360 8566 1 109.50000 418.400000
6707 14360 6769 1 109.50000 418.400000
6707 14360 8566 1 109.50000 418.400000
6769 14360 8566 1 109.50000 418.400000
1883 14361 5101 1 109.50000 418.400000
1883 14361 8171 1 109.50000 418.400000
1883 14361 8567 1 109.50000 418.400000
5101 14361 8171 1 109.50000 418.400000
5101 14361 8567 1 109.50000 418.400000
8171 14361 8567 1 109.50000 418.400000
5752 14362 6385 1 109.50000 418.400000
5752 14362 8568 1 109.50000 418.400000
5752 14362 8569 1 109.50000 418.400000
6385 14362 8568 1 109.50000 418.400000
6385 14362 8569 1 109.50000 418.400000
8568 14362 8569 1 109.50000 418.400000
5541 14363 8570 1 109.50000 418.400000
5541 14363 8571 1 109.50000 418.400000
5541 14363 8572 1 109.50000 418.400000
8570 14363 8571 1 109.50000 418.400000
8570 14363 8572 1 109.50000 418.400000
8571 14363 8572 1 109.50000 418.400000
642 14364 4906 1 109.50000 418.400000
642 14364 7467 1 109.50000 418.400000
642 14364 8100 1 109.50000 418.400000
4906 14364 7467 1 109.50000 418.400000
4906 14364 8100 1 109.50000 418.400000
7467 14364 8100 1 109.50000 418.400000
2530 14365 4395 1 109.50000 418.400000
2530 14365 8318 1 109.50000 418.400000
2530 14365 8575 1 109.50000 418.400000
4395 14365 8318 1 109.50000 418.400000
4395 14365 8575 1 109.50000 418.400000
8318 14365 8575 1 109.50000 418.400000
8576 14366 8577 1 109.50000 418.400000
8576 14366 8578 1 109.50000 418.400000
8576 14366 8579 1 109.50000 418.400000
8577 14366 8578 1 109.50000 418.400000
8577 14366 8579 1 109.50000 418.400000
8578 14366 8579 1 109.50000 418.400000
1545 14367 7839 1 109.50000 418.400000
1545 14367 8580 1 109.50000 418.400000
1545 14367 8581 1 109.50000 418.400000
7839 14367 8580 1 109.50000 418.400000
7839 14367 8581 1 109.50000 418.400000
8580 14367 8581 1 109.50000 418.400000
2306 14368 5192 1 109.50000 418.400000
2306 14368 6231 1 109.50000 418.400000
2306 14368 8582 1 109.50000 418.400000
5192 14368 6231 1 109.50000 418.400000
5192 14368 8582 1 109.50000 418.400000
6231 14368 8582 1 109.50000 418.400000
8583 14369 8584 1 109.50000 418.400000
8583 14369 8585 1 109.50000 418.400000
8583 14369 10727 1 109.50000 418.400000
8584 14369 8585 1 109.50000 418.400000
8584 14369 10727 1 109.50000 418.400000
8585 14369 10727 1 109.50000 418.400000
5568 14370 6462 1 109.50000 418.400000
5568 14370 8586 1 109.50000 418.400000
5568 14370 8587 1 109.50000 418.400000
6462 14370 8586 1 109.50000 418.400000
6462 14370 8587 1 109.50000 418.400000
8586 14370 8587 1 109.50000 418.400000
798 14371 4736 1 109.50000 418.400000
798 14371 8588 1 109.50000 418.400000
798 14371 8589 1 109.50000 418.400000
4736 14371 8588 1 109.50000 418.400000
4736 14371 8589 1 109.50000 418.400000
8588 14371 8589 1 109.50000 418.400000
1371 14372 8590 1 109.50000 418.400000
1371 14372 8591 1 109.50000 418.400000
1371 14372 8592 1 109.50000 418.400000
8590 14372 8591 1 109.50000 418.400000
8590 14372 8592 1 109.50000 418.400000
8591 14372 8592 1 109.50000 418.400000
5445 14373 5446 1 109.50000 418.400000
5445 14373 8594 1 109.50000 418.400000
5445 14373 8595 1 109.50000 418.400000
5446 14373 8594 1 109.50000 418.400000
5446 14373 8595 1 109.50000 418.400000
8594 14373 8595 1 109.50000 418.400000
273 14374 8596 1 109.50000 418.400000
273 14374 8597 1 109.50000 418.400000
273 14374 8598 1 109.50000 418.400000
8596 14374 8597 1 109.50000 418.400000
8596 14374 8598 1 109.50000 418.400000
8597 14374 8598 1 109.50000 418.400000
8068 14375 8599 1 109.50000 418.400000
8068 14375 8600 1 109.50000 418.400000
8068 14375 8601 1 109.50000 418.400000
8599 14375 8600 1 109.50000 418.400000
8599 14375 8601 1 109.50000 418.400000
8600 14375 8601 1 109.50000 418.400000
7823 14376 8244 1 109.50000 418.400000
7823 14376 8602 1 109.50000 418.400000
7823 14376 8603 1 109.50000 418.400000
8244 14376 8602 1 109.50000 418.400000
8244 14376 8603 1 109.50000 418.400000
8602 14376 8603 1 109.50000 418.400000
2359 14377 3926 1 109.50000 418.400000
2359 14377 6933 1 109.50000 418.400000
2359 14377 8125 1 109.50000 418.400000
3926 14377 6933 1 109.50000 418.400000
3926 14377 8125 1 109.50000 418.400000
6933 14377 8125 1 109.50000 418.400000
1249 14378 5587 1 109.50000 418.400000
1249 14378 6876 1 109.50000 418.400000
1249 14378 8604 1 109.50000 418.400000
5587 14378 6876 1 109.50000 418.400000
5587 14378 8604 1 109.50000 418.400000
6876 14378 8604 1 109.50000 418.400000
8605 14379 8606 1 109.50000 418.400000
8605 14379 8607 1 109.50000 418.400000
8605 14379 8608 1 109.50000 418.400000
8606 14379 8607 1 109.50000 418.400000
8606 14379 8608 1 109.50000 418.400000
8607 14379 8608 1 109.50000 418.400000
169 14380 7251 1 109.50000 418.400000
169 14380 7252 1 109.50000 418.400000
169 14380 8609 1 109.50000 418.400000
7251 14380 7252 1 109.50000 418.400000
7251 14380 8609 1 109.50000 418.400000
7252 14380 8609 1 109.50000 418.400000
1911 14381 1912 1 109.50000 418.400000
1911 14381 8610 1 109.50000 418.400000
1911 14381 8611 1 109.50000 418.400000
1912 14381 8610 1 109.50000 418.400000
1912 14381 8611 1 109.50000 418.400000
8610 14381 8611 1 109.50000 418.400000
6155 14382 7907 1 109.50000 418.400000
6155 14382 8613 1 109.50000 418.400000
6155 14382 8614 1 109.50000 418.400000
7907 14382 8613 1 109.50000 418.400000
7907 14382 8614 1 109.50000 418.400000
8613 14382 8614 1 109.50000 418.400000
6228 14383 8041 1 109.50000 418.400000
6228 14383 8615 1 109.50000 418.400000
6228 14383 8616 1 109.50000 418.400000
8041 14383 8615 1 109.50000 418.400000
8041 14383 8616 1 109.50000 418.400000
8615 14383 8616 1 109.50000 418.400000
8617 14384 8618 1 109.50000 418.400000
8617 14384 11316 1 109.50000 418.400000
8617 14384 11329 1 109.50000 418.400000
8618 14384 11316 1 109.50000 418.400000
8618 14384 11329 1 109.50000 418.400000
11316 14384 11329 1 109.50000 418.400000
5526 14385 8555 1 109.50000 418.400000
5526 14385 8619 1 109.50000 418.400000
5526 14385 8620 1 109.50000 418.400000
8555 14385 8619 1 109.50000 418.400000
8555 14385 8620 1 109.50000 418.400000
8619 14385 8620 1 109.50000 418.400000
671 14386 673 1 109.50000 418.400000
671 14386 8623 1 109.50000 418.400000
671 14386 8624 1 109.50000 418.400000
673 14386 8623 1 109.50000 418.400000
673 14386 8624 1 109.50000 418.400000
8623 14386 8624 1 109.50000 418.400000
1089 14387 1175 1 109.50000 418.400000
1089 14387 4769 1 109.50000 418.400000
1089 14387 8625 1 109.50000 418.400000
1175 14387 4769 1 109.50000 418.400000
1175 14387 8625 1 109.50000 418.400000
4769 14387 8625 1 109.50000 418.400000
8626 14388 8627 1 109.50000 418.400000
8626 14388 8628 1 109.50000 418.400000
8626 14388 8629 1 109.50000 418.400000
8627 14388 8628 1 109.50000 418.400000
8627 14388 8629 1 109.50000 418.400000
8628 14388 8629 1 109.50000 418.400000
5249 14389 6101 1 109.50000 418.400000
5249 14389 6759 1 109.50000 418.400000
5249 14389 8630 1 109.50000 418.400000
6101 14389 6759 1 109.50000 418.400000
6101 14389 8630 1 109.50000 418.400000
6759 14389 8630 1 109.50000 418.400000
6154 14390 8631 1 109.50000 418.400000
6154 14390 8632 1 109.50000 418.400000
6154 14390 8633 1 109.50000 418.400000
8631 14390 8632 1 109.50000 418.400000
8631 14390 8633 1 109.50000 418.400000
8632 14390 8633 1 109.50000 418.400000
8634 14391 8635 1 109.50000 418.400000
8634 14391 8636 1 109.50000 418.400000
8634 14391 11340 1 109.50000 418.400000
8635 14391 8636 1 109.50000 418.400000
8635 14391 11340 1 109.50000 418.400000
8636 14391 11340 1 109.50000 418.400000
2753 14392 3208 1 109.50000 418.400000
2753 14392 5620 1 109.50000 418.400000
2753 14392 8639 1 109.50000 418.400000
3208 14392 5620 1 109.50000 418.400000
3208 14392 8639 1 109.50000 418.400000
5620 14392 8639 1 109.50000 418.400000
1431 14393 3863 1 109.50000 418.400000
1431 14393 8640 1 109.50000 418.400000
1431 14393 10134 1 109.50000 418.400000
3863 14393 8640 1 109.50000 418.400000
3863 14393 10134 1 109.50000 418.400000
8640 14393 10134 1 109.50000 418.400000
1885 14394 5835 1 109.50000 418.400000
1885 14394 8641 1 109.50000 418.400000
1885 14394 8642 1 109.50000 418.400000
5835 14394 8641 1 109.50000 418.400000
5835 14394 8642 1 109.50000 418.400000
8641 14394 8642 1 109.50000 418.400000
1953 14395 7589 1 109.50000 418.400000
1953 14395 8643 1 109.50000 418.400000
1953 14395 8644 1 109.50000 418.400000
7589 14395 8643 1 109.50000 418.400000
7589 14395 8644 1 109.50000 418.400000
8643 14395 8644 1 109.50000 418.400000
3541 14396 4399 1 109.50000 418.400000
3541 14396 8645 1 109.50000 418.400000
3541 14396 8646 1 109.50000 418.400000
4399 14396 8645 1 109.50000 418.400000
4399 14396 8646 1 109.50000 418.400000
8645 14396 8646 1 109.50000 418.400000
1599 14397 1771 1 109.50000 418.400000
1599 14397 8649 1 109.50000 418.400000
1599 14397 8650 1 109.50000 418.400000
1771 14397 8649 1 109.50000 418.400000
1771 14397 8650 1 109.50000 418.400000
8649 14397 8650 1 109.50000 418.400000
1353 14398 5796 1 109.50000 418.400000
1353 14398 7943 1 109.50000 418.400000
1353 14398 8651 1 109.50000 418.400000
5796 14398 7943 1 109.50000 418.400000
5796 14398 8651 1 109.50000 418.400000
7943 14398 8651 1 109.50000 418.400000
3022 14399 4984 1 109.50000 418.400000
3022 14399 8386 1 109.50000 418.400000
3022 14399 8652 1 109.50000 418.400000
4984 14399 8386 1 109.50000 418.400000
4984 14399 8652 1 109.50000 418.400000
8386 14399 8652 1 109.50000 418.400000
2079 14400 3092 1 109.50000 418.400000
2079 14400 8653 1 109.50000 418.400000
2079 14400 8654 1 109.50000 418.400000
3092 14400 8653 1 109.50000 418.400000
3092 14400 8654 1 109.50000 418.400000
8653 14400 8654 1 109.50000 418.400000
2423 14401 5314 1 109.50000 418.400000
2423 14401 8655 1 109.50000 418.400000
2423 14401 8656 1 109.50000 418.400000
5314 14401 8655 1 109.50000 418.400000
5314 14401 8656 1 109.50000 418.400000
8655 14401 8656 1 109.50000 418.400000
6224 14402 8657 1 109.50000 418.400000
6224 14402 8658 1 109.50000 418.400000
6224 14402 11453 1 109.50000 418.400000
8657 14402 8658 1 109.50000 418.400000
8657 14402 11453 1 109.50000 418.400000
8658 14402 11453 1 109.50000 418.400000
349 14403 4436 1 109.50000 418.400000
349 14403 8231 1 109.50000 418.400000
349 14403 8659 1 109.50000 418.400000
4436 14403 8231 1 109.50000 418.400000
4436 14403 8659 1 109.50000 418.400000
8231 14403 8659 1 109.50000 418.400000
3226 14404 6832 1 109.50000 418.400000
3226 14404 8660 1 109.50000 418.400000
3226 14404 8661 1 109.50000 418.400000
6832 14404 8660 1 109.50000 418.400000
6832 14404 8661 1 109.50000 418.400000
8660 14404 8661 1 109.50000 418.400000
8662 14405 8663 1 109.50000 418.400000
8662 14405 8664 1 109.50000 418.400000
8662 14405 8665 1 109.50000 418.400000
8663 14405 8664 1 109.50000 418.400000
8663 14405 8665 1 109.50000 418.400000
8664 14405 8665 1 109.50000 418.400000
2810 14406 7035 1 109.50000 418.400000
2810 14406 8668 1 109.50000 418.400000
2810 14406 10862 1 109.50000 418.400000
7035 14406 8668 1 109.50000 418.400000
7035 14406 10862 1 109.50000 418.400000
8668 14406 10862 1 109.50000 418.400000
2931 14407 4113 1 109.50000 418.400000
2931 14407 7501 1 109.50000 418.400000
2931 14407 8669 1 109.50000 418.400000
4113 14407 7501 1 109.50000 418.400000
4113 14407 8669 1 109.50000 418.400000
7501 14407 8669 1 109.50000 418.400000
771 14408 4490 1 109.50000 418.400000
771 14408 8670 1 109.50000 418.400000
771 14408 8671 1 109.50000 418.400000
4490 14408 8670 1 109.50000 418.400000
4490 14408 8671 1 109.50000 418.400000
8670 14408 8671 1 109.50000 418.400000
2387 14409 4945 1 109.50000 418.400000
2387 14409 5421 1 109.50000 418.400000
2387 14409 8484 1 109.50000 418.400000
4945 14409 5421 1 109.50000 418.400000
4945 14409 8484 1 109.50000 418.400000
5421 14409 8484 1 109.50000 418.400000
3478 14410 7440 1 109.50000 418.400000
3478 14410 8672 1 109.50000 418.400000
3478 14410 11492 1 109.50000 418.400000
7440 14410 8672 1 109.50000 418.400000
7440 14410 11492 1 109.50000 418.400000
8672 14410 11492 1 109.50000 418.400000
2137 14411 2853 1 109.50000 418.400000
2137 14411 8673 1 109.50000 418.400000
2137 14411 8674 1 109.50000 418.400000
2853 14411 8673 1 109.50000 418.400000
2853 14411 8674 1 109.50000 418.400000
8673 14411 8674 1 109.50000 418.400000
832 14412 8476 1 109.50000 418.400000
832 14412 8528 1 109.50000 418.400000
832 14412 8628 1 109.50000 418.400000
8476 14412 8528 1 109.50000 418.400000
8476 14412 8628 1 109.50000 418.400000
8528 14412 8628 1 109.50000 418.400000
7612 14413 8675 1 109.50000 418.400000
7612 14413 8676 1 109.50000 418.400000
7612 14413 8677 1 109.50000 418.400000
8675 14413 8676 1 109.50000 418.400000
8675 14413 8677 1 109.50000 418.400000
8676 14413 8677 1 109.50000 418.400000
2856 14414 6536 1 109.50000 418.400000
2856 14414 8594 1 109.50000 418.400000
2856 14414 8678 1 109.50000 418.400000
6536 14414 8594 1 109.50000 418.400000
6536 14414 8678 1 109.50000 418.400000
8594 14414 8678 1 109.50000 418.400000
1506 14415 2943 1 109.50000 418.400000
1506 14415 8680 1 109.50000 418.400000
1506 14415 10884 1 109.50000 418.400000
2943 14415 8680 1 109.50000 418.400000
2943 14415 10884 1 109.50000 418.400000
8680 14415 10884 1 109.50000 418.400000
8681 14416 8682 1 109.50000 418.400000
8681 14416 8683 1 109.50000 418.400000
8681 14416 8684 1 109.50000 418.400000
8682 14416 8683 1 109.50000 418.400000
8682 14416 8684 1 109.50000 418.400000
8683 14416 8684 1 109.50000 418.400000
5028 14417 5781 1 109.50000 418.400000
5028 14417 5932 1 109.50000 418.400000
5028 14417 8685 1 109.50000 418.400000
5781 14417 5932 1 109.50000 418.400000
5781 14417 8685 1 109.50000 418.400000
5932 14417 8685 1 109.50000 418.400000
6935 14418 8686 1 109.50000 418.400000
6935 14418 8687 1 109.50000 418.400000
6935 14418 9384 1 109.50000 418.400000
8686 14418 8687 1 109.50000 418.400000
8686 14418 9384 1 109.50000 418.400000
8687 14418 9384 1 109.50000 418.400000
37 14419 5203 1 109.50000 418.400000
37 14419 8688 1 109.50000 418.400000
37 14419 8689 1 109.50000 418.400000
5203 14419 8688 1 109.50000 418.400000
5203 14419 8689 1 109.50000 418.400000
8688 14419 8689 1 109.50000 418.400000
1832 14420 7406 1 109.50000 418.400000
1832 14420 7799 1 109.50000 418.400000
1832 14420 8690 1 109.50000 418.400000
7406 14420 7799 1 109.50000 418.400000
7406 14420 8690 1 109.50000 418.400000
7799 14420 8690 1 109.50000 418.400000
8691 14421 8692 1 109.50000 418.400000
8691 14421 8693 1 109.50000 418.400000
8691 14421 8694 1 109.50000 418.400000
8692 14421 8693 1 109.50000 418.400000
8692 14421 8694 1 109.50000 418.400000
8693 14421 8694 1 109.50000 418.400000
747 14422 7297 1 109.50000 418.400000
747 14422 8211 1 109.50000 418.400000
747 14422 8695 1 109.50000 418.400000
7297 14422 8211 1 109.50000 418.400000
7297 14422 8695 1 109.50000 418.400000
8211 14422 8695 1 109.50000 418.400000
3833 14423 5545 1 109.50000 418.400000
3833 14423 8696 1 109.50000 418.400000
3833 14423 9940 1 109.50000 418.400000
5545 14423 8696 1 109.50000 418.400000
5545 14423 9940 1 109.50000 418.400000
8696 14423 9940 1 109.50000 418.400000
5304 14424 6528 1 109.50000 418.400000
5304 14424 7394 1 109.50000 418.400000
5304 14424 8697 1 109.50000 418.400000
6528 14424 7394 1 109.50000 418.400000
6528 14424 8697 1 109.50000 418.400000
7394 14424 8697 1 109.50000 418.400000
402 14425 6739 1 109.50000 418.400000
402 14425 8698 1 109.50000 418.400000
402 14425 8699 1 109.50000 418.400000
6739 14425 8698 1 109.50000 418.400000
6739 14425 8699 1 109.50000 418.400000
8698 14425 8699 1 109.50000 418.400000
6600 14426 8700 1 109.50000 418.400000
6600 14426 8701 1 109.50000 418.400000
6600 14426 11221 1 109.50000 418.400000
8700 14426 8701 1 109.50000 418.400000
8700 14426 11221 1 109.50000 418.400000
8701 14426 11221 1 109.50000 418.400000
649 14427 1639 1 109.50000 418.400000
649 14427 8702 1 109.50000 418.400000
649 14427 8703 1 109.50000 418.400000
1639 14427 8702 1 109.50000 418.400000
1639 14427 8703 1 109.50000 418.400000
8702 14427 8703 1 109.50000 418.400000
1798 14428 6143 1 109.50000 418.400000
1798 14428 8704 1 109.50000 418.400000
1798 14428 8705 1 109.50000 418.400000
6143 14428 8704 1 109.50000 418.400000
6143 14428 8705 1 109.50000 418.400000
8704 14428 8705 1 109.50000 418.400000
3482 14429 3579 1 109.50000 418.400000
3482 14429 8504 1 109.50000 418.400000
3482 14429 8706 1 109.50000 418.400000
3579 14429 8504 1 109.50000 418.400000
3579 14429 8706 1 109.50000 418.400000
8504 14429 8706 1 109.50000 418.400000
1398 14430 3999 1 109.50000 418.400000
1398 14430 6183 1 109.50000 418.400000
1398 14430 7603 1 109.50000 418.400000
3999 14430 6183 1 109.50000 418.400000
3999 14430 7603 1 109.50000 418.400000
6183 14430 7603 1 109.50000 418.400000
4249 14431 8707 1 109.50000 418.400000
4249 14431 8708 1 109.50000 418.400000
4249 14431 8709 1 109.50000 418.400000
8707 14431 8708 1 109.50000 418.400000
8707 14431 8709 1 109.50000 418.400000
8708 14431 8709 1 109.50000 418.400000
7706 14432 7905 1 109.50000 418.400000
7706 14432 8710 1 109.50000 418.400000
7706 14432 8711 1 109.50000 418.400000
7905 14432 8710 1 109.50000 418.400000
7905 14432 8711 1 109.50000 418.400000
8710 14432 8711 1 109.50000 418.400000
3113 14433 4742 1 109.50000 418.400000
3113 14433 7215 1 109.50000 418.400000
3113 14433 8712 1 109.50000 418.400000
4742 14433 7215 1 109.50000 418.400000
4742 14433 8712 1 109.50000 418.400000
7215 14433 8712 1 109.50000 418.400000
20 14434 1035 1 109.50000 418.400000
20 14434 8713 1 109.50000 418.400000
20 14434 8714 1 109.50000 418.400000
1035 14434 8713 1 109.50000 418.400000
1035 14434 8714 1 109.50000 418.400000
8713 14434 8714 1 109.50000 418.400000
2874 14435 6910 1 109.50000 418.400000
2874 14435 7025 1 109.50000 418.400000
2874 14435 8715 1 109.50000 418.400000
6910 14435 7025 1 109.50000 418.400000
6910 14435 8715 1 109.50000 418.400000
7025 14435 8715 1 109.50000 418.400000
3118 14436 8716 1 109.50000 418.400000
3118 14436 8717 1 109.50000 418.400000
3118 14436 8718 1 109.50000 418.400000
8716 14436 8717 1 109.50000 418.400000
8716 14436 8718 1 109.50000 418.400000
8717 14436 8718 1 109.50000 418.400000
706 14437 5985 1 109.50000 418.400000
706 14437 8719 1 109.50000 418.400000
706 14437 8720 1 109.50000 418.400000
5985 14437 8719 1 109.50000 418.400000
5985 14437 8720 1 109.50000 418.400000
8719 14437 8720 1 109.50000 418.400000
381 14438 5281 1 109.50000 418.400000
381 14438 8721 1 109.50000 418.400000
381 14438 8722 1 109.50000 418.400000
5281 14438 8721 1 109.50000 418.400000
5281 14438 8722 1 109.50000 418.400000
8721 14438 8722 1 109.50000 418.400000
2622 14439 8723 1 109.50000 418.400000
2622 14439 8724 1 109.50000 418.400000
2622 14439 8725 1 109.50000 418.400000
8723 14439 8724 1 109.50000 418.400000
8723 14439 8725 1 109.50000 418.400000
8724 14439 8725 1 109.50000 418.400000
2936 14440 8227 1 109.50000 418.400000
2936 14440 8726 1 109.50000 418.400000
2936 14440 8727 1 109.50000 418.400000
8227 14440 8726 1 109.50000 418.400000
8227 14440 8727 1 109.50000 418.400000
8726 14440 8727 1 109.50000 418.400000
3641 14441 8728 1 109.50000 418.400000
3641 14441 8729 1 109.50000 418.400000
3641 14441 8730 1 109.50000 418.400000
8728 14441 8729 1 109.50000 418.400000
8728 14441 8730 1 109.50000 418.400000
8729 14441 8730 1 109.50000 418.400000
1814 14442 7104 1 109.50000 418.400000
1814 14442 8287 1 109.50000 418.400000
1814 14442 8733 1 109.50000 418.400000
7104 14442 8287 1 109.50000 418.400000
7104 14442 8733 1 109.50000 418.400000
8287 14442 8733 1 109.50000 418.400000
967 14443 6867 1 109.50000 418.400000
967 14443 6869 1 109.50000 418.400000
967 14443 8734 1 109.50000 418.400000
6867 14443 6869 1 109.50000 418.400000
6867 14443 8734 1 109.50000 418.400000
6869 14443 8734 1 109.50000 418.400000
2655 14444 2844 1 109.50000 418.400000
2655 14444 8579 1 109.50000 418.400000
2655 14444 8736 1 109.50000 418.400000
2844 14444 8579 1 109.50000 418.400000
2844 14444 8736 1 109.50000 418.400000
8579 14444 8736 1 109.50000 418.400000
411 14445 7570 1 109.50000 418.400000
411 14445 7571 1 109.50000 418.400000
411 14445 8737 1 109.50000 418.400000
7570 14445 7571 1 109.50000 418.400000
7570 14445 8737 1 109.50000 418.400000
7571 14445 8737 1 109.50000 418.400000
7511 14446 8738 1 109.50000 418.400000
7511 14446 8739 1 109.50000 418.400000
7511 14446 8740 1 109.50000 418.400000
8738 14446 8739 1 109.50000 418.400000
8738 14446 8740 1 109.50000 418.400000
8739 14446 8740 1 109.50000 418.400000
5110 14447 7513 1 109.50000 418.400000
5110 14447 7514 1 109.50000 418.400000
5110 14447 8741 1 109.50000 418.400000
7513 14447 7514 1 109.50000 418.400000
7513 14447 8741 1 109.50000 418.400000
7514 14447 8741 1 109.50000 418.400000
3764 14448 7088 1 109.50000 418.400000
3764 14448 8742 1 109.50000 418.400000
3764 14448 8743 1 109.50000 418.400000
7088 14448 8742 1 109.50000 418.400000
7088 14448 8743 1 109.50000 418.400000
8742 14448 8743 1 109.50000 418.400000
486 14449 7797 1 109.50000 418.400000
486 14449 8744 1 109.50000 418.400000
486 14449 8745 1 109.50000 418.400000
7797 14449 8744 1 109.50000 418.400000
7797 14449 8745 1 109.50000 418.400000
8744 14449 8745 1 109.50000 418.400000
3397 14450 8419 1 109.50000 418.400000
3397 14450 8746 1 109.50000 418.400000
3397 14450 10677 1 109.50000 418.400000
8419 14450 8746 1 109.50000 418.400000
8419 14450 10677 1 109.50000 418.400000
8746 14450 10677 1 109.50000 418.400000
653 14451 3264 1 109.50000 418.400000
653 14451 7669 1 109.50000 418.400000
653 14451 8711 1 109.50000 418.400000
3264 14451 7669 1 109.50000 418.400000
3264 14451 8711 1 109.50000 418.400000
7669 14451 8711 1 109.50000 418.400000
2674 14452 8747 1 109.50000 418.400000
2674 14452 8748 1 109.50000 418.400000
2674 14452 8749 1 109.50000 418.400000
8747 14452 8748 1 109.50000 418.400000
8747 14452 8749 1 109.50000 418.400000
8748 14452 8749 1 109.50000 418.400000
618 14453 3405 1 109.50000 418.400000
618 14453 4704 1 109.50000 418.400000
618 14453 8750 1 109.50000 418.400000
3405 14453 4704 1 109.50000 418.400000
3405 14453 8750 1 109.50000 418.400000
4704 14453 8750 1 109.50000 418.400000
2391 14454 4154 1 109.50000 418.400000
2391 14454 4731 1 109.50000 418.400000
2391 14454 8751 1 109.50000 418.400000
4154 14454 4731 1 109.50000 418.400000
4154 14454 8751 1 109.50000 418.400000
4731 14454 8751 1 109.50000 418.400000
2061 14455 4164 1 109.50000 418.400000
2061 14455 8752 1 109.50000 418.400000
2061 14455 8753 1 109.50000 418.400000
4164 14455 8752 1 109.50000 418.400000
4164 14455 8753 1 109.50000 418.400000
8752 14455 8753 1 109.50000 418.400000
5650 14456 8754 1 109.50000 418.400000
5650 14456 8755 1 109.50000 418.400000
5650 14456 8756 1 109.50000 418.400000
8754 14456 8755 1 109.50000 418.400000
8754 14456 8756 1 109.50000 418.400000
8755 14456 8756 1 109.50000 418.400000
2772 14457 6264 1 109.50000 418.400000
2772 14457 6709 1 109.50000 418.400000
2772 14457 6946 1 109.50000 418.400000
6264 14457 6709 1 109.50000 418.400000
6264 14457 6946 1 109.50000 418.400000
6709 14457 6946 1 109.50000 418.400000
4563 14458 5495 1 109.50000 418.400000
4563 14458 8752 1 109.50000 418.400000
4563 14458 8757 1 109.50000 418.400000
5495 14458 8752 1 109.50000 418.400000
5495 14458 8757 1 109.50000 418.400000
8752 14458 8757 1 109.50000 418.400000
1280 14459 2321 1 109.50000 418.400000
1280 14459 8758 1 109.50000 418.400000
1280 14459 8759 1 109.50000 418.400000
2321 14459 8758 1 109.50000 418.400000
2321 14459 8759 1 109.50000 418.400000
8758 14459 8759 1 109.50000 418.400000
1486 14460 3674 1 109.50000 418.400000
1486 14460 8031 1 109.50000 418.400000
1486 14460 8762 1 109.50000 418.400000
3674 14460 8031 1 109.50000 418.400000
3674 14460 8762 1 109.50000 418.400000
8031 14460 8762 1 109.50000 418.400000
1469 14461 7938 1 109.50000 418.400000
1469 14461 8545 1 109.50000 418.400000
1469 14461 8763 1 109.50000 418.400000
7938 14461 8545 1 109.50000 418.400000
7938 14461 8763 1 109.50000 418.400000
8545 14461 8763 1 109.50000 418.400000
7496 14462 8175 1 109.50000 418.400000
7496 14462 8764 1 109.50000 418.400000
7496 14462 8765 1 109.50000 418.400000
8175 14462 8764 1 109.50000 418.400000
8175 14462 8765 1 109.50000 418.400000
8764 14462 8765 1 109.50000 418.400000
6458 14463 6893 1 109.50000 418.400000
6458 14463 8766 1 109.50000 418.400000
6458 14463 8767 1 109.50000 418.400000
6893 14463 8766 1 109.50000 418.400000
6893 14463 8767 1 109.50000 418.400000
8766 14463 8767 1 109.50000 418.400000
4397 14464 4461 1 109.50000 418.400000
4397 14464 8768 1 109.50000 418.400000
4397 14464 8769 1 109.50000 418.400000
4461 14464 8768 1 109.50000 418.400000
4461 14464 8769 1 109.50000 418.400000
8768 14464 8769 1 109.50000 418.400000
6048 14465 6550 1 109.50000 418.400000
6048 14465 8770 1 109.50000 418.400000
6048 14465 8771 1 109.50000 418.400000
6550 14465 8770 1 109.50000 418.400000
6550 14465 8771 1 109.50000 418.400000
8770 14465 8771 1 109.50000 418.400000
318 14466 4157 1 109.50000 418.400000
318 14466 6701 1 109.50000 418.400000
318 14466 8747 1 109.50000 418.400000
4157 14466 6701 1 109.50000 418.400000
4157 14466 8747 1 109.50000 418.400000
6701 14466 8747 1 109.50000 418.400000
5284 14467 5492 1 109.50000 418.400000
5284 14467 8764 1 109.50000 418.400000
5284 14467 8772 1 109.50000 418.400000
5492 14467 8764 1 109.50000 418.400000
5492 14467 8772 1 109.50000 418.400000
8764 14467 8772 1 109.50000 418.400000
2187 14468 4069 1 109.50000 418.400000
2187 14468 8773 1 109.50000 418.400000
2187 14468 8774 1 109.50000 418.400000
4069 14468 8773 1 109.50000 418.400000
4069 14468 8774 1 109.50000 418.400000
8773 14468 8774 1 109.50000 418.400000
33 14469 1850 1 109.50000 418.400000
33 14469 8775 1 109.50000 418.400000
33 14469 8776 1 109.50000 418.400000
1850 14469 8775 1 109.50000 418.400000
1850 14469 8776 1 109.50000 418.400000
8775 14469 8776 1 109.50000 418.400000
4330 14470 6695 1 109.50000 418.400000
4330 14470 8777 1 109.50000 418.400000
4330 14470 11288 1 109.50000 418.400000
6695 14470 8777 1 109.50000 418.400000
6695 14470 11288 1 109.50000 418.400000
8777 14470 11288 1 109.50000 418.400000
1879 14471 7414 1 109.50000 418.400000
1879 14471 8778 1 109.50000 418.400000
1879 14471 8779 1 109.50000 418.400000
7414 14471 8778 1 109.50000 418.400000
7414 14471 8779 1 109.50000 418.400000
8778 14471 8779 1 109.50000 418.400000
2786 14472 8780 1 109.50000 418.400000
2786 14472 8781 1 109.50000 418.400000
2786 14472 8782 1 109.50000 418.400000
8780 14472 8781 1 109.50000 418.400000
8780 14472 8782 1 109.50000 418.400000
8781 14472 8782 1 109.50000 418.400000
429 14473 5607 1 109.50000 418.400000
429 14473 8783 1 109.50000 418.400000
429 14473 8784 1 109.50000 418.400000
5607 14473 8783 1 109.50000 418.400000
5607 14473 8784 1 109.50000 418.400000
8783 14473 8784 1 109.50000 418.400000
3006 14474 5305 1 109.50000 418.400000
3006 14474 6641 1 109.50000 418.400000
3006 14474 8785 1 109.50000 418.400000
5305 14474 6641 1 109.50000 418.400000
5305 14474 8785 1 109.50000 418.400000
6641 14474 8785 1 109.50000 418.400000
3067 14475 5005 1 109.50000 418.400000
3067 14475 8786 1 109.50000 418.400000
3067 14475 8787 1 109.50000 418.400000
5005 14475 8786 1 109.50000 418.400000
5005 14475 8787 1 109.50000 418.400000
8786 14475 8787 1 109.50000 418.400000
5212 14476 8674 1 109.50000 418.400000
5212 14476 8788 1 109.50000 418.400000
5212 14476 8789 1 109.50000 418.400000
8674 14476 8788 1 109.50000 418.400000
8674 14476 8789 1 109.50000 418.400000
8788 14476 8789 1 109.50000 418.400000
2763 14477 8790 1 109.50000 418.400000
2763 14477 8791 1 109.50000 418.400000
2763 14477 8792 1 109.50000 418.400000
8790 14477 8791 1 109.50000 418.400000
8790 14477 8792 1 109.50000 418.400000
8791 14477 8792 1 109.50000 418.400000
4645 14478 8793 1 109.50000 418.400000
4645 14478 8794 1 109.50000 418.400000
4645 14478 11509 1 109.50000 418.400000
8793 14478 8794 1 109.50000 418.400000
8793 14478 11509 1 109.50000 418.400000
8794 14478 11509 1 109.50000 418.400000
5631 14479 5674 1 109.50000 418.400000
5631 14479 6092 1 109.50000 418.400000
5631 14479 8795 1 109.50000 418.400000
5674 14479 6092 1 109.50000 418.400000
5674 14479 8795 1 109.50000 418.400000
6092 14479 8795 1 109.50000 418.400000
3610 14480 6521 1 109.50000 418.400000
3610 14480 8796 1 109.50000 418.400000
3610 14480 8797 1 109.50000 418.400000
6521 14480 8796 1 109.50000 418.400000
6521 14480 8797 1 109.50000 418.400000
8796 14480 8797 1 109.50000 418.400000
4932 14481 6306 1 109.50000 418.400000
4932 14481 8798 1 109.50000 418.400000
4932 14481 8799 1 109.50000 418.400000
6306 14481 8798 1 109.50000 418.400000
6306 14481 8799 1 109.50000 418.400000
8798 14481 8799 1 109.50000 418.400000
7555 14482 8800 1 109.50000 418.400000
7555 14482 8801 1 109.50000 418.400000
7555 14482 8802 1 109.50000 418.400000
8800 14482 8801 1 109.50000 418.400000
8800 14482 8802 1 109.50000 418.400000
8801 14482 8802 1 109.50000 418.400000
215 14483 6196 1 109.50000 418.400000
215 14483 8803 1 109.50000 418.400000
215 14483 8804 1 109.50000 418.400000
6196 14483 8803 1 109.50000 418.400000
6196 14483 8804 1 109.50000 418.400000
8803 14483 8804 1 109.50000 418.400000
1954 14484 8805 1 109.50000 418.400000
1954 14484 8806 1 109.50000 418.400000
1954 14484 8807 1 109.50000 418.400000
8805 14484 8806 1 109.50000 418.400000
8805 14484 8807 1 109.50000 418.400000
8806 14484 8807 1 109.50000 418.400000
5615 14485 5670 1 109.50000 418.400000
5615 14485 5821 1 109.50000 418.400000
5615 14485 8808 1 109.50000 418.400000
5670 14485 5821 1 109.50000 418.400000
5670 14485 8808 1 109.50000 418.400000
5821 14485 8808 1 109.50000 418.400000
8804 14486 8809 1 109.50000 418.400000
8804 14486 8810 1 109.50000 418.400000
8804 14486 8811 1 109.50000 418.400000
8809 14486 8810 1 109.50000 418.400000
8809 14486 8811 1 109.50000 418.400000
8810 14486 8811 1 109.50000 418.400000
5206 14487 5207 1 109.50000 418.400000
5206 14487 6503 1 109.50000 418.400000
5206 14487 8812 1 109.50000 418.400000
5207 14487 6503 1 109.50000 418.400000
5207 14487 8812 1 109.50000 418.400000
6503 14487 8812 1 109.50000 418.400000
3838 14488 4964 1 109.50000 418.400000
3838 14488 6719 1 109.50000 418.400000
3838 14488 8814 1 109.50000 418.400000
4964 14488 6719 1 109.50000 418.400000
4964 14488 8814 1 109.50000 418.400000
6719 14488 8814 1 109.50000 418.400000
4899 14489 4900 1 109.50000 418.400000
4899 14489 7224 1 109.50000 418.400000
4899 14489 8816 1 109.50000 418.400000
4900 14489 7224 1 109.50000 418.400000
4900 14489 8816 1 109.50000 418.400000
7224 14489 8816 1 109.50000 418.400000
5338 14490 6780 1 109.50000 418.400000
5338 14490 6781 1 109.50000 418.400000
5338 14490 8817 1 109.50000 418.400000
6780 14490 6781 1 109.50000 418.400000
6780 14490 8817 1 109.50000 418.400000
6781 14490 8817 1 109.50000 418.400000
7548 14491 8818 1 109.50000 418.400000
7548 14491 8819 1 109.50000 418.400000
7548 14491 9922 1 109.50000 418.400000
8818 14491 8819 1 109.50000 418.400000
8818 14491 9922 1 109.50000 418.400000
8819 14491 9922 1 109.50000 418.400000
4684 14492 5275 1 109.50000 418.400000
4684 14492 7412 1 109.50000 418.400000
4684 14492 8820 1 109.50000 418.400000
5275 14492 7412 1 109.50000 418.400000
5275 14492 8820 1 109.50000 418.400000
7412 14492 8820 1 109.50000 418.400000
5182 14493 8821 1 109.50000 418.400000
5182 14493 11248 1 109.50000 418.400000
5182 14493 11278 1 109.50000 418.400000
8821 14493 11248 1 109.50000 418.400000
8821 14493 11278 1 109.50000 418.400000
11248 14493 11278 1 109.50000 418.400000
7450 14494 8823 1 109.50000 418.400000
7450 14494 8824 1 109.50000 418.400000
7450 14494 11006 1 109.50000 418.400000
8823 14494 8824 1 109.50000 418.400000
8823 14494 11006 1 109.50000 418.400000
8824 14494 11006 1 109.50000 418.400000
5315 14495 5813 1 109.50000 418.400000
5315 14495 8307 1 109.50000 418.400000
5315 14495 8825 1 109.50000 418.400000
5813 14495 8307 1 109.50000 418.400000
5813 14495 8825 1 109.50000 418.400000
8307 14495 8825 1 109.50000 418.400000
3210 14496 7543 1 109.50000 418.400000
3210 14496 8666 1 109.50000 418.400000
3210 14496 8667 1 109.50000 418.400000
7543 14496 8666 1 109.50000 418.400000
7543 14496 8667 1 109.50000 418.400000
8666 14496 8667 1 109.50000 418.400000
325 14497 4040 1 109.50000 418.400000
325 14497 6439 1 109.50000 418.400000
325 14497 8642 1 109.50000 418.400000
4040 14497 6439 1 109.50000 418.400000
4040 14497 8642 1 109.50000 418.400000
6439 14497 8642 1 109.50000 418.400000
47 14498 217 1 109.50000 418.400000
47 14498 7159 1 109.50000 418.400000
47 14498 7470 1 109.50000 418.400000
217 14498 7159 1 109.50000 418.400000
217 14498 7470 1 109.50000 418.400000
7159 14498 7470 1 109.50000 418.400000
3461 14499 8827 1 109.50000 418.400000
3461 14499 8828 1 109.50000 418.400000
3461 14499 8829 1 109.50000 418.400000
8827 14499 8828 1 109.50000 418.400000
8827 14499 8829 1 109.50000 418.400000
8828 14499 8829 1 109.50000 418.400000
1007 14500 6259 1 109.50000 418.400000
1007 14500 6357 1 109.50000 418.400000
1007 14500 8830 1 109.50000 418.400000
6259 14500 6357 1 109.50000 418.400000
6259 14500 8830 1 109.50000 418.400000
6357 14500 8830 1 109.50000 418.400000
8831 14501 8832 1 109.50000 418.400000
8831 14501 8833 1 109.50000 418.400000
8831 14501 8834 1 109.50000 418.400000
8832 14501 8833 1 109.50000 418.400000
8832 14501 8834 1 109.50000 418.400000
8833 14501 8834 1 109.50000 418.400000
3020 14502 5070 1 109.50000 418.400000
3020 14502 5323 1 109.50000 418.400000
3020 14502 8835 1 109.50000 418.400000
5070 14502 5323 1 109.50000 418.400000
5070 14502 8835 1 109.50000 418.400000
5323 14502 8835 1 109.50000 418.400000
1606 14503 3257 1 109.50000 418.400000
1606 14503 4614 1 109.50000 418.400000
1606 14503 8836 1 109.50000 418.400000
3257 14503 4614 1 109.50000 418.400000
3257 14503 8836 1 109.50000 418.400000
4614 14503 8836 1 109.50000 418.400000
1094 14504 4980 1 109.50000 418.400000
1094 14504 5957 1 109.50000 418.400000
1094 14504 8837 1 109.50000 418.400000
4980 14504 5957 1 109.50000 418.400000
4980 14504 8837 1 109.50000 418.400000
5957 14504 8837 1 109.50000 418.400000
1254 14505 8838 1 109.50000 418.400000
1254 14505 8839 1 109.50000 418.400000
1254 14505 8840 1 109.50000 418.400000
8838 14505 8839 1 109.50000 418.400000
8838 14505 8840 1 109.50000 418.400000
8839 14505 8840 1 109.50000 418.400000
6131 14506 6636 1 109.50000 418.400000
6131 14506 8841 1 109.50000 418.400000
6131 14506 8842 1 109.50000 418.400000
6636 14506 8841 1 109.50000 418.400000
6636 14506 8842 1 109.50000 418.400000
8841 14506 8842 1 109.50000 418.400000
7892 14507 8094 1 109.50000 418.400000
7892 14507 8843 1 109.50000 418.400000
7892 14507 8844 1 109.50000 418.400000
8094 14507 8843 1 109.50000 418.400000
8094 14507 8844 1 109.50000 418.400000
8843 14507 8844 1 109.50000 418.400000
1482 14508 4548 1 109.50000 418.400000
1482 14508 8845 1 109.50000 418.400000
1482 14508 8846 1 109.50000 418.400000
4548 14508 8845 1 109.50000 418.400000
4548 14508 8846 1 109.50000 418.400000
8845 14508 8846 1 109.50000 418.400000
5208 14509 6167 1 109.50000 418.400000
5208 14509 6170 1 109.50000 418.400000
5208 14509 8847 1 109.50000 418.400000
6167 14509 6170 1 109.50000 418.400000
6167 14509 8847 1 109.50000 418.400000
6170 14509 8847 1 109.50000 418.400000
3756 14510 4192 1 109.50000 418.400000
3756 14510 5933 1 109.50000 418.400000
3756 14510 8849 1 109.50000 418.400000
4192 14510 5933 1 109.50000 418.400000
4192 14510 8849 1 109.50000 418.400000
5933 14510 8849 1 109.50000 418.400000
1768 14511 4525 1 109.50000 418.400000
1768 14511 5084 1 109.50000 418.400000
1768 14511 8850 1 109.50000 418.400000
4525 14511 5084 1 109.50000 418.400000
4525 14511 8850 1 109.50000 418.400000
5084 14511 8850 1 109.50000 418.400000
4701 14512 7064 1 109.50000 418.400000
4701 14512 11369 1 109.50000 418.400000
4701 14512 11412 1 109.50000 418.400000
7064 14512 11369 1 109.50000 418.400000
7064 14512 11412 1 109.50000 418.400000
11369 14512 11412 1 109.50000 418.400000
397 14513 8852 1 109.50000 418.400000
397 14513 8853 1 109.50000 418.400000
397 14513 8854 1 109.50000 418.400000
8852 14513 8853 1 109.50000 418.400000
8852 14513 8854 1 109.50000 418.400000
8853 14513 8854 1 109.50000 418.400000
1774 14514 7441 1 109.50000 418.400000
1774 14514 8198 1 109.50000 418.400000
1774 14514 11303 1 109.50000 418.400000
7441 14514 8198 1 109.50000 418.400000
7441 14514 11303 1 109.50000 418.400000
8198 14514 11303 1 109.50000 418.400000
4347 14515 5629 1 109.50000 418.400000
4347 14515 8856 1 109.50000 418.400000
4347 14515 8857 1 109.50000 418.400000
5629 14515 8856 1 109.50000 418.400000
5629 14515 8857 1 109.50000 418.400000
8856 14515 8857 1 109.50000 418.400000
2873 14516 8858 1 109.50000 418.400000
2873 14516 8859 1 109.50000 418.400000
2873 14516 8860 1 109.50000 418.400000
8858 14516 8859 1 109.50000 418.400000
8858 14516 8860 1 109.50000 418.400000
8859 14516 8860 1 109.50000 418.400000
252 14517 8861 1 109.50000 418.400000
252 14517 8862 1 109.50000 418.400000
252 14517 8863 1 109.50000 418.400000
8861 14517 8862 1 109.50000 418.400000
8861 14517 8863 1 109.50000 418.400000
8862 14517 8863 1 109.50000 418.400000
4894 14518 8864 1 109.50000 418.400000
4894 14518 8865 1 109.50000 418.400000
4894 14518 11244 1 109.50000 418.400000
8864 14518 8865 1 109.50000 418.400000
8864 14518 11244 1 109.50000 418.400000
8865 14518 11244 1 109.50000 418.400000
8866 14519 8867 1 109.50000 418.400000
8866 14519 11237 1 109.50000 418.400000
8866 14519 11466 1 109.50000 418.400000
8867 14519 11237 1 109.50000 418.400000
8867 14519 11466 1 109.50000 418.400000
11237 14519 11466 1 109.50000 418.400000
3112 14520 5160 1 109.50000 418.400000
3112 14520 6426 1 109.50000 418.400000
3112 14520 8868 1 109.50000 418.400000
5160 14520 6426 1 109.50000 418.400000
5160 14520 8868 1 109.50000 418.400000
6426 14520 8868 1 109.50000 418.400000
5491 14521 7325 1 109.50000 418.400000
5491 14521 8870 1 109.50000 418.400000
5491 14521 8871 1 109.50000 418.400000
7325 14521 8870 1 109.50000 418.400000
7325 14521 8871 1 109.50000 418.400000
8870 14521 8871 1 109.50000 418.400000
199 14522 3306 1 109.50000 418.400000
199 14522 6686 1 109.50000 418.400000
199 14522 7402 1 109.50000 418.400000
3306 14522 6686 1 109.50000 418.400000
3306 14522 7402 1 109.50000 418.400000
6686 14522 7402 1 109.50000 418.400000
3392 14523 3781 1 109.50000 418.400000
3392 14523 5083 1 109.50000 418.400000
3392 14523 8872 1 109.50000 418.400000
3781 14523 5083 1 109.50000 418.400000
3781 14523 8872 1 109.50000 418.400000
5083 14523 8872 1 109.50000 418.400000
8873 14524 8874 1 109.50000 418.400000
8873 14524 8875 1 109.50000 418.400000
8873 14524 11522 1 109.50000 418.400000
8874 14524 8875 1 109.50000 418.400000
8874 14524 11522 1 109.50000 418.400000
8875 14524 11522 1 109.50000 418.400000
799 14525 1269 1 109.50000 418.400000
799 14525 8876 1 109.50000 418.400000
799 14525 11438 1 109.50000 418.400000
1269 14525 8876 1 109.50000 418.400000
1269 14525 11438 1 109.50000 418.400000
8876 14525 11438 1 109.50000 418.400000
3525 14526 5307 1 109.50000 418.400000
3525 14526 8877 1 109.50000 418.400000
3525 14526 11539 1 109.50000 418.400000
5307 14526 8877 1 109.50000 418.400000
5307 14526 11539 1 109.50000 418.400000
8877 14526 11539 1 109.50000 418.400000
4674 14527 8878 1 109.50000 418.400000
4674 14527 8879 1 109.50000 418.400000
4674 14527 11437 1 109.50000 418.400000
8878 14527 8879 1 109.50000 418.400000
8878 14527 11437 1 109.50000 418.400000
8879 14527 11437 1 109.50000 418.400000
830 14528 1868 1 109.50000 418.400000
830 14528 3991 1 109.50000 418.400000
830 14528 8880 1 109.50000 418.400000
1868 14528 3991 1 109.50000 418.400000
1868 14528 8880 1 109.50000 418.400000
3991 14528 8880 1 109.50000 418.400000
1096 14529 1610 1 109.50000 418.400000
1096 14529 8881 1 109.50000 418.400000
1096 14529 8882 1 109.50000 418.400000
1610 14529 8881 1 109.50000 418.400000
1610 14529 8882 1 109.50000 418.400000
8881 14529 8882 1 109.50000 418.400000
3251 14530 5609 1 109.50000 418.400000
3251 14530 6254 1 109.50000 418.400000
3251 14530 8883 1 109.50000 418.400000
5609 14530 6254 1 109.50000 418.400000
5609 14530 8883 1 109.50000 418.400000
6254 14530 8883 1 109.50000 418.400000
3646 14531 5053 1 109.50000 418.400000
3646 14531 8884 1 109.50000 418.400000
3646 14531 8885 1 109.50000 418.400000
5053 14531 8884 1 109.50000 418.400000
5053 14531 8885 1 109.50000 418.400000
8884 14531 8885 1 109.50000 418.400000
2807 14532 3049 1 109.50000 418.400000
2807 14532 8886 1 109.50000 418.400000
2807 14532 8887 1 109.50000 418.400000
3049 14532 8886 1 109.50000 418.400000
3049 14532 8887 1 109.50000 418.400000
8886 14532 8887 1 109.50000 418.400000
3506 14533 3966 1 109.50000 418.400000
3506 14533 4918 1 109.50000 418.400000
3506 14533 7059 1 109.50000 418.400000
3966 14533 4918 1 109.50000 418.400000
3966 14533 7059 1 109.50000 418.400000
4918 14533 7059 1 109.50000 418.400000
2534 14534 8888 1 109.50000 418.400000
2534 14534 8889 1 109.50000 418.400000
2534 14534 8890 1 109.50000 418.400000
8888 14534 8889 1 109.50000 418.400000
8888 14534 8890 1 109.50000 418.400000
8889 14534 8890 1 109.50000 418.400000
5154 14535 7487 1 109.50000 418.400000
5154 14535 8891 1 109.50000 418.400000
5154 14535 8892 1 109.50000 418.400000
7487 14535 8891 1 109.50000 418.400000
7487 14535 8892 1 109.50000 418.400000
8891 14535 8892 1 109.50000 418.400000
3723 14536 7214 1 109.50000 418.400000
3723 14536 7216 1 109.50000 418.400000
3723 14536 8893 1 109.50000 418.400000
7214 14536 7216 1 109.50000 418.400000
7214 14536 8893 1 109.50000 418.400000
7216 14536 8893 1 109.50000 418.400000
2693 14537 5978 1 109.50000 418.400000
2693 14537 6190 1 109.50000 418.400000
2693 14537 8895 1 109.50000 418.400000
5978 14537 6190 1 109.50000 418.400000
5978 14537 8895 1 109.50000 418.400000
6190 14537 8895 1 109.50000 418.400000
8075 14538 8896 1 109.50000 418.400000
8075 14538 8897 1 109.50000 418.400000
8075 14538 8898 1 109.50000 418.400000
8896 14538 8897 1 109.50000 418.400000
8896 14538 8898 1 109.50000 418.400000
8897 14538 8898 1 109.50000 418.400000
1817 14539 5732 1 109.50000 418.400000
1817 14539 8631 1 109.50000 418.400000
1817 14539 8899 1 109.50000 418.400000
5732 14539 8631 1 109.50000 418.400000
5732 14539 8899 1 109.50000 418.400000
8631 14539 8899 1 109.50000 418.400000
4960 14540 7053 1 109.50000 418.400000
4960 14540 8900 1 109.50000 418.400000
4960 14540 8901 1 109.50000 418.400000
7053 14540 8900 1 109.50000 418.400000
7053 14540 8901 1 109.50000 418.400000
8900 14540 8901 1 109.50000 418.400000
2360 14541 7922 1 109.50000 418.400000
2360 14541 8902 1 109.50000 418.400000
2360 14541 8903 1 109.50000 418.400000
7922 14541 8902 1 109.50000 418.400000
7922 14541 8903 1 109.50000 418.400000
8902 14541 8903 1 109.50000 418.400000
7653 14542 8904 1 109.50000 418.400000
7653 14542 8905 1 109.50000 418.400000
7653 14542 8906 1 109.50000 418.400000
8904 14542 8905 1 109.50000 418.400000
8904 14542 8906 1 109.50000 418.400000
8905 14542 8906 1 109.50000 418.400000
1753 14543 1759 1 109.50000 418.400000
1753 14543 7369 1 109.50000 418.400000
1753 14543 8907 1 109.50000 418.400000
1759 14543 7369 1 109.50000 418.400000
1759 14543 8907 1 109.50000 418.400000
7369 14543 8907 1 109.50000 418.400000
6836 14544 8237 1 109.50000 418.400000
6836 14544 8908 1 109.50000 418.400000
6836 14544 11231 1 109.50000 418.400000
8237 14544 8908 1 109.50000 418.400000
8237 14544 11231 1 109.50000 418.400000
8908 14544 11231 1 109.50000 418.400000
4256 14545 5014 1 109.50000 418.400000
4256 14545 5746 1 109.50000 418.400000
4256 14545 8285 1 109.50000 418.400000
5014 14545 5746 1 109.50000 418.400000
5014 14545 8285 1 109.50000 418.400000
5746 14545 8285 1 109.50000 418.400000
1339 14546 3998 1 109.50000 418.400000
1339 14546 8909 1 109.50000 418.400000
1339 14546 8910 1 109.50000 418.400000
3998 14546 8909 1 109.50000 418.400000
3998 14546 8910 1 109.50000 418.400000
8909 14546 8910 1 109.50000 418.400000
7576 14547 8334 1 109.50000 418.400000
7576 14547 8911 1 109.50000 418.400000
7576 14547 8912 1 109.50000 418.400000
8334 14547 8911 1 109.50000 418.400000
8334 14547 8912 1 109.50000 418.400000
8911 14547 8912 1 109.50000 418.400000
3494 14548 5256 1 109.50000 418.400000
3494 14548 8913 1 109.50000 418.400000
3494 14548 11412 1 109.50000 418.400000
5256 14548 8913 1 109.50000 418.400000
5256 14548 11412 1 109.50000 418.400000
8913 14548 11412 1 109.50000 418.400000
5971 14549 8755 1 109.50000 418.400000
5971 14549 8914 1 109.50000 418.400000
5971 14549 8915 1 109.50000 418.400000
8755 14549 8914 1 109.50000 418.400000
8755 14549 8915 1 109.50000 418.400000
8914 14549 8915 1 109.50000 418.400000
61 14550 8916 1 109.50000 418.400000
61 14550 11256 1 109.50000 418.400000
61 14550 11481 1 109.50000 418.400000
8916 14550 11256 1 109.50000 418.400000
8916 14550 11481 1 109.50000 418.400000
11256 14550 11481 1 109.50000 418.400000
304 14551 3553 1 109.50000 418.400000
304 14551 5890 1 109.50000 418.400000
304 14551 8917 1 109.50000 418.400000
3553 14551 5890 1 109.50000 418.400000
3553 14551 8917 1 109.50000 418.400000
5890 14551 8917 1 109.50000 418.400000
4123 14552 8918 1 109.50000 418.400000
4123 14552 8919 1 109.50000 418.400000
4123 14552 8920 1 109.50000 418.400000
8918 14552 8919 1 109.50000 418.400000
8918 14552 8920 1 109.50000 418.400000
8919 14552 8920 1 109.50000 418.400000
4568 14553 6156 1 109.50000 418.400000
4568 14553 8921 1 109.50000 418.400000
4568 14553 8922 1 109.50000 418.400000
6156 14553 8921 1 109.50000 418.400000
6156 14553 8922 1 109.50000 418.400000
8921 14553 8922 1 109.50000 418.400000
1939 14554 2165 1 109.50000 418.400000
1939 14554 7449 1 109.50000 418.400000
1939 14554 11247 1 109.50000 418.400000
2165 14554 7449 1 109.50000 418.400000
2165 14554 11247 1 109.50000 418.400000
7449 14554 11247 1 109.50000 418.400000
6205 14555 8924 1 109.50000 418.400000
6205 14555 8925 1 109.50000 418.400000
6205 14555 8926 1 109.50000 418.400000
8924 14555 8925 1 109.50000 418.400000
8924 14555 8926 1 109.50000 418.400000
8925 14555 8926 1 109.50000 418.400000
7510 14556 8407 1 109.50000 418.400000
7510 14556 8927 1 109.50000 418.400000
7510 14556 11193 1 109.50000 418.400000
8407 14556 8927 1 109.50000 418.400000
8407 14556 11193 1 109.50000 418.400000
8927 14556 11193 1 109.50000 418.400000
788 14557 3608 1 109.50000 418.400000
788 14557 4974 1 109.50000 418.400000
788 14557 8929 1 109.50000 418.400000
3608 14557 4974 1 109.50000 418.400000
3608 14557 8929 1 109.50000 418.400000
4974 14557 8929 1 109.50000 418.400000
8930 14558 8931 1 109.50000 418.400000
8930 14558 8932 1 109.50000 418.400000
8930 14558 8933 1 109.50000 418.400000
8931 14558 8932 1 109.50000 418.400000
8931 14558 8933 1 109.50000 418.400000
8932 14558 8933 1 109.50000 418.400000
1253 14559 6609 1 109.50000 418.400000
1253 14559 8934 1 109.50000 418.400000
1253 14559 8935 1 109.50000 418.400000
6609 14559 8934 1 109.50000 418.400000
6609 14559 8935 1 109.50000 418.400000
8934 14559 8935 1 109.50000 418.400000
1164 14560 5514 1 109.50000 418.400000
1164 14560 7958 1 109.50000 418.400000
1164 14560 8936 1 109.50000 418.400000
5514 14560 7958 1 109.50000 418.400000
5514 14560 8936 1 109.50000 418.400000
7958 14560 8936 1 109.50000 418.400000
3476 14561 5828 1 109.50000 418.400000
3476 14561 8937 1 109.50000 418.400000
3476 14561 8938 1 109.50000 418.400000
5828 14561 8937 1 109.50000 418.400000
5828 14561 8938 1 109.50000 418.400000
8937 14561 8938 1 109.50000 418.400000
2579 14562 7057 1 109.50000 418.400000
2579 14562 7903 1 109.50000 418.400000
2579 14562 8939 1 109.50000 418.400000
7057 14562 7903 1 109.50000 418.400000
7057 14562 8939 1 109.50000 418.400000
7903 14562 8939 1 109.50000 418.400000
2705 14563 7558 1 109.50000 418.400000
2705 14563 7584 1 109.50000 418.400000
2705 14563 8940 1 109.50000 418.400000
7558 14563 7584 1 109.50000 418.400000
7558 14563 8940 1 109.50000 418.400000
7584 14563 8940 1 109.50000 418.400000
2954 14564 5970 1 109.50000 418.400000
2954 14564 5973 1 109.50000 418.400000
2954 14564 8941 1 109.50000 418.400000
5970 14564 5973 1 109.50000 418.400000
5970 14564 8941 1 109.50000 418.400000
5973 14564 8941 1 109.50000 418.400000
8943 14565 8944 1 109.50000 418.400000
8943 14565 8945 1 109.50000 418.400000
8943 14565 8946 1 109.50000 418.400000
8944 14565 8945 1 109.50000 418.400000
8944 14565 8946 1 109.50000 418.400000
8945 14565 8946 1 109.50000 418.400000
1695 14566 2785 1 109.50000 418.400000
1695 14566 8947 1 109.50000 418.400000
1695 14566 8948 1 109.50000 418.400000
2785 14566 8947 1 109.50000 418.400000
2785 14566 8948 1 109.50000 418.400000
8947 14566 8948 1 109.50000 418.400000
8949 14567 8950 1 109.50000 418.400000
8949 14567 8951 1 109.50000 418.400000
8949 14567 8952 1 109.50000 418.400000
8950 14567 8951 1 109.50000 418.400000
8950 14567 8952 1 109.50000 418.400000
8951 14567 8952 1 109.50000 418.400000
1740 14568 2379 1 109.50000 418.400000
1740 14568 4546 1 109.50000 418.400000
1740 14568 8953 1 109.50000 418.400000
2379 14568 4546 1 109.50000 418.400000
2379 14568 8953 1 109.50000 418.400000
4546 14568 8953 1 109.50000 418.400000
2876 14569 8954 1 109.50000 418.400000
2876 14569 8955 1 109.50000 418.400000
2876 14569 8956 1 109.50000 418.400000
8954 14569 8955 1 109.50000 418.400000
8954 14569 8956 1 109.50000 418.400000
8955 14569 8956 1 109.50000 418.400000
7989 14570 8957 1 109.50000 418.400000
7989 14570 8958 1 109.50000 418.400000
7989 14570 8959 1 109.50000 418.400000
8957 14570 8958 1 109.50000 418.400000
8957 14570 8959 1 109.50000 418.400000
8958 14570 8959 1 109.50000 418.400000
2650 14571 5326 1 109.50000 418.400000
2650 14571 5363 1 109.50000 418.400000
2650 14571 5382 1 109.50000 418.400000
5326 14571 5363 1 109.50000 418.400000
5326 14571 5382 1 109.50000 418.400000
5363 14571 5382 1 109.50000 418.400000
424 14572 638 1 109.50000 418.400000
424 14572 5150 1 109.50000 418.400000
424 14572 8960 1 109.50000 418.400000
638 14572 5150 1 109.50000 418.400000
638 14572 8960 1 109.50000 418.400000
5150 14572 8960 1 109.50000 418.400000
7288 14573 8084 1 109.50000 418.400000
7288 14573 8961 1 109.50000 418.400000
7288 14573 11190 1 109.50000 418.400000
8084 14573 8961 1 109.50000 418.400000
8084 14573 11190 1 109.50000 418.400000
8961 14573 11190 1 109.50000 418.400000
1465 14574 5851 1 109.50000 418.400000
1465 14574 8248 1 109.50000 418.400000
1465 14574 8963 1 109.50000 418.400000
5851 14574 8248 1 109.50000 418.400000
5851 14574 8963 1 109.50000 418.400000
8248 14574 8963 1 109.50000 418.400000
8129 14575 8964 1 109.50000 418.400000
8129 14575 8965 1 109.50000 418.400000
8129 14575 8966 1 109.50000 418.400000
8964 14575 8965 1 109.50000 418.400000
8964 14575 8966 1 109.50000 418.400000
8965 14575 8966 1 109.50000 418.400000
1729 14576 3174 1 109.50000 418.400000
1729 14576 8960 1 109.50000 418.400000
1729 14576 8967 1 109.50000 418.400000
3174 14576 8960 1 109.50000 418.400000
3174 14576 8967 1 109.50000 418.400000
8960 14576 8967 1 109.50000 418.400000
7224 14577 7225 1 109.50000 418.400000
7224 14577 8968 1 109.50000 418.400000
7224 14577 8969 1 109.50000 418.400000
7225 14577 8968 1 109.50000 418.400000
7225 14577 8969 1 109.50000 418.400000
8968 14577 8969 1 109.50000 418.400000
1518 14578 3058 1 109.50000 418.400000
1518 14578 4201 1 109.50000 418.400000
1518 14578 7266 1 109.50000 418.400000
3058 14578 4201 1 109.50000 418.400000
3058 14578 7266 1 109.50000 418.400000
4201 14578 7266 1 109.50000 418.400000
4732 14579 8971 1 109.50000 418.400000
4732 14579 8972 1 109.50000 418.400000
4732 14579 8973 1 109.50000 418.400000
8971 14579 8972 1 109.50000 418.400000
8971 14579 8973 1 109.50000 418.400000
8972 14579 8973 1 109.50000 418.400000
4172 14580 8974 1 109.50000 418.400000
4172 14580 11259 1 109.50000 418.400000
4172 14580 11477 1 109.50000 418.400000
8974 14580 11259 1 109.50000 418.400000
8974 14580 11477 1 109.50000 418.400000
11259 14580 11477 1 109.50000 418.400000
2800 14581 2802 1 109.50000 418.400000
2800 14581 8977 1 109.50000 418.400000
2800 14581 8978 1 109.50000 418.400000
2802 14581 8977 1 109.50000 418.400000
2802 14581 8978 1 109.50000 418.400000
8977 14581 8978 1 109.50000 418.400000
8385 14582 8979 1 109.50000 418.400000
8385 14582 8980 1 109.50000 418.400000
8385 14582 8981 1 109.50000 418.400000
8979 14582 8980 1 109.50000 418.400000
8979 14582 8981 1 109.50000 418.400000
8980 14582 8981 1 109.50000 418.400000
5624 14583 5936 1 109.50000 418.400000
5624 14583 8982 1 109.50000 418.400000
5624 14583 8983 1 109.50000 418.400000
5936 14583 8982 1 109.50000 418.400000
5936 14583 8983 1 109.50000 418.400000
8982 14583 8983 1 109.50000 418.400000
2666 14584 5800 1 109.50000 418.400000
2666 14584 8984 1 109.50000 418.400000
2666 14584 8985 1 109.50000 418.400000
5800 14584 8984 1 109.50000 418.400000
5800 14584 8985 1 109.50000 418.400000
8984 14584 8985 1 109.50000 418.400000
1200 14585 1304 1 109.50000 418.400000
1200 14585 1305 1 109.50000 418.400000
1200 14585 3190 1 109.50000 418.400000
1304 14585 1305 1 109.50000 418.400000
1304 14585 3190 1 109.50000 418.400000
1305 14585 3190 1 109.50000 418.400000
8016 14586 8987 1 109.50000 418.400000
8016 14586 8988 1 109.50000 418.400000
8016 14586 8989 1 109.50000 418.400000
8987 14586 8988 1 109.50000 418.400000
8987 14586 8989 1 109.50000 418.400000
8988 14586 8989 1 109.50000 418.400000
3772 14587 6488 1 109.50000 418.400000
3772 14587 8990 1 109.50000 418.400000
3772 14587 11371 1 109.50000 418.400000
6488 14587 8990 1 109.50000 418.400000
6488 14587 11371 1 109.50000 418.400000
8990 14587 11371 1 109.50000 418.400000
5863 14588 6075 1 109.50000 418.400000
5863 14588 7049 1 109.50000 418.400000
5863 14588 7504 1 109.50000 418.400000
6075 14588 7049 1 109.50000 418.400000
6075 14588 7504 1 109.50000 418.400000
7049 14588 7504 1 109.50000 418.400000
849 14589 4266 1 109.50000 418.400000
849 14589 8991 1 109.50000 418.400000
849 14589 8992 1 109.50000 418.400000
4266 14589 8991 1 109.50000 418.400000
4266 14589 8992 1 109.50000 418.400000
8991 14589 8992 1 109.50000 418.400000
702 14590 8527 1 109.50000 418.400000
702 14590 8993 1 109.50000 418.400000
702 14590 8994 1 109.50000 418.400000
8527 14590 8993 1 109.50000 418.400000
8527 14590 8994 1 109.50000 418.400000
8993 14590 8994 1 109.50000 418.400000
1098 14591 6160 1 109.50000 418.400000
1098 14591 8549 1 109.50000 418.400000
1098 14591 8995 1 109.50000 418.400000
6160 14591 8549 1 109.50000 418.400000
6160 14591 8995 1 109.50000 418.400000
8549 14591 8995 1 109.50000 418.400000
6256 14592 6258 1 109.50000 418.400000
6256 14592 6884 1 109.50000 418.400000
6256 14592 8271 1 109.50000 418.400000
6258 14592 6884 1 109.50000 418.400000
6258 14592 8271 1 109.50000 418.400000
6884 14592 8271 1 109.50000 418.400000
6973 14593 7356 1 109.50000 418.400000
6973 14593 8996 1 109.50000 418.400000
6973 14593 8997 1 109.50000 418.400000
7356 14593 8996 1 109.50000 418.400000
7356 14593 8997 1 109.50000 418.400000
8996 14593 8997 1 109.50000 418.400000
6074 14594 7503 1 109.50000 418.400000
6074 14594 8282 1 109.50000 418.400000
6074 14594 8283 1 109.50000 418.400000
7503 14594 8282 1 109.50000 418.400000
7503 14594 8283 1 109.50000 418.400000
8282 14594 8283 1 109.50000 418.400000
5926 14595 8196 1 109.50000 418.400000
5926 14595 8999 1 109.50000 418.400000
5926 14595 9000 1 109.50000 418.400000
8196 14595 8999 1 109.50000 418.400000
8196 14595 9000 1 109.50000 418.400000
8999 14595 9000 1 109.50000 418.400000
5555 14596 9002 1 109.50000 418.400000
5555 14596 9003 1 109.50000 418.400000
5555 14596 9004 1 109.50000 418.400000
9002 14596 9003 1 109.50000 418.400000
9002 14596 9004 1 109.50000 418.400000
9003 14596 9004 1 109.50000 418.400000
3983 14597 5833 1 109.50000 418.400000
3983 14597 9005 1 109.50000 418.400000
3983 14597 11150 1 109.50000 418.400000
5833 14597 9005 1 109.50000 418.400000
5833 14597 11150 1 109.50000 418.400000
9005 14597 11150 1 109.50000 418.400000
1347 14598 9006 1 109.50000 418.400000
1347 14598 9007 1 109.50000 418.400000
1347 14598 9008 1 109.50000 418.400000
9006 14598 9007 1 109.50000 418.400000
9006 14598 9008 1 109.50000 418.400000
9007 14598 9008 1 109.50000 418.400000
2132 14599 6633 1 109.50000 418.400000
2132 14599 8827 1 109.50000 418.400000
2132 14599 9009 1 109.50000 418.400000
6633 14599 8827 1 109.50000 418.400000
6633 14599 9009 1 109.50000 418.400000
8827 14599 9009 1 109.50000 418.400000
3845 14600 4340 1 109.50000 418.400000
3845 14600 9010 1 109.50000 418.400000
3845 14600 11312 1 109.50000 418.400000
4340 14600 9010 1 109.50000 418.400000
4340 14600 11312 1 109.50000 418.400000
9010 14600 11312 1 109.50000 418.400000
75 14601 9011 1 109.50000 418.400000
75 14601 9012 1 109.50000 418.400000
75 14601 11494 1 109.50000 418.400000
9011 14601 9012 1 109.50000 418.400000
9011 14601 11494 1 109.50000 418.400000
9012 14601 11494 1 109.50000 418.400000
4356 14602 6106 1 109.50000 418.400000
4356 14602 9013 1 109.50000 418.400000
4356 14602 9014 1 109.50000 418.400000
6106 14602 9013 1 109.50000 418.400000
6106 14602 9014 1 109.50000 418.400000
9013 14602 9014 1 109.50000 418.400000
8252 14603 9015 1 109.50000 418.400000
8252 14603 9017 1 109.50000 418.400000
8252 14603 10315 1 109.50000 418.400000
9015 14603 9017 1 109.50000 418.400000
9015 14603 10315 1 109.50000 418.400000
9017 14603 10315 1 109.50000 418.400000
549 14604 3741 1 109.50000 418.400000
549 14604 7803 1 109.50000 418.400000
549 14604 9018 1 109.50000 418.400000
3741 14604 7803 1 109.50000 418.400000
3741 14604 9018 1 109.50000 418.400000
7803 14604 9018 1 109.50000 418.400000
2438 14605 3891 1 109.50000 418.400000
2438 14605 6184 1 109.50000 418.400000
2438 14605 9019 1 109.50000 418.400000
3891 14605 6184 1 109.50000 418.400000
3891 14605 9019 1 109.50000 418.400000
6184 14605 9019 1 109.50000 418.400000
3902 14606 4470 1 109.50000 418.400000
3902 14606 9020 1 109.50000 418.400000
3902 14606 9021 1 109.50000 418.400000
4470 14606 9020 1 109.50000 418.400000
4470 14606 9021 1 109.50000 418.400000
9020 14606 9021 1 109.50000 418.400000
5559 14607 8071 1 109.50000 418.400000
5559 14607 9022 1 109.50000 418.400000
5559 14607 9023 1 109.50000 418.400000
8071 14607 9022 1 109.50000 418.400000
8071 14607 9023 1 109.50000 418.400000
9022 14607 9023 1 109.50000 418.400000
5344 14608 9024 1 109.50000 418.400000
5344 14608 9025 1 109.50000 418.400000
5344 14608 11457 1 109.50000 418.400000
9024 14608 9025 1 109.50000 418.400000
9024 14608 11457 1 109.50000 418.400000
9025 14608 11457 1 109.50000 418.400000
7936 14609 9026 1 109.50000 418.400000
7936 14609 9027 1 109.50000 418.400000
7936 14609 9028 1 109.50000 418.400000
9026 14609 9027 1 109.50000 418.400000
9026 14609 9028 1 109.50000 418.400000
9027 14609 9028 1 109.50000 418.400000
7045 14610 8941 1 109.50000 418.400000
7045 14610 9029 1 109.50000 418.400000
7045 14610 9030 1 109.50000 418.400000
8941 14610 9029 1 109.50000 418.400000
8941 14610 9030 1 109.50000 418.400000
9029 14610 9030 1 109.50000 418.400000
3544 14611 9031 1 109.50000 418.400000
3544 14611 9032 1 109.50000 418.400000
3544 14611 9033 1 109.50000 418.400000
9031 14611 9032 1 109.50000 418.400000
9031 14611 9033 1 109.50000 418.400000
9032 14611 9033 1 109.50000 418.400000
1328 14612 4875 1 109.50000 418.400000
1328 14612 6236 1 109.50000 418.400000
1328 14612 9034 1 109.50000 418.400000
4875 14612 6236 1 109.50000 418.400000
4875 14612 9034 1 109.50000 418.400000
6236 14612 9034 1 109.50000 418.400000
4535 14613 5828 1 109.50000 418.400000
4535 14613 5829 1 109.50000 418.400000
4535 14613 6960 1 109.50000 418.400000
5828 14613 5829 1 109.50000 418.400000
5828 14613 6960 1 109.50000 418.400000
5829 14613 6960 1 109.50000 418.400000
1466 14614 3017 1 109.50000 418.400000
1466 14614 9036 1 109.50000 418.400000
1466 14614 9037 1 109.50000 418.400000
3017 14614 9036 1 109.50000 418.400000
3017 14614 9037 1 109.50000 418.400000
9036 14614 9037 1 109.50000 418.400000
2703 14615 4770 1 109.50000 418.400000
2703 14615 9038 1 109.50000 418.400000
2703 14615 9039 1 109.50000 418.400000
4770 14615 9038 1 109.50000 418.400000
4770 14615 9039 1 109.50000 418.400000
9038 14615 9039 1 109.50000 418.400000
6485 14616 9040 1 109.50000 418.400000
6485 14616 9042 1 109.50000 418.400000
6485 14616 9043 1 109.50000 418.400000
9040 14616 9042 1 109.50000 418.400000
9040 14616 9043 1 109.50000 418.400000
9042 14616 9043 1 109.50000 418.400000
2351 14617 3317 1 109.50000 418.400000
2351 14617 5078 1 109.50000 418.400000
2351 14617 9044 1 109.50000 418.400000
3317 14617 5078 1 109.50000 418.400000
3317 14617 9044 1 109.50000 418.400000
5078 14617 9044 1 109.50000 418.400000
117 14618 6388 1 109.50000 418.400000
117 14618 8806 1 109.50000 418.400000
117 14618 9045 1 109.50000 418.400000
6388 14618 8806 1 109.50000 418.400000
6388 14618 9045 1 109.50000 418.400000
8806 14618 9045 1 109.50000 418.400000
7928 14619 8360 1 109.50000 418.400000
7928 14619 9046 1 109.50000 418.400000
7928 14619 9047 1 109.50000 418.400000
8360 14619 9046 1 109.50000 418.400000
8360 14619 9047 1 109.50000 418.400000
9046 14619 9047 1 109.50000 418.400000
3443 14620 8413 1 109.50000 418.400000
3443 14620 9048 1 109.50000 418.400000
3443 14620 11422 1 109.50000 418.400000
8413 14620 9048 1 109.50000 418.400000
8413 14620 11422 1 109.50000 418.400000
9048 14620 11422 1 109.50000 418.400000
2288 14621 5838 1 109.50000 418.400000
2288 14621 9049 1 109.50000 418.400000
2288 14621 9050 1 109.50000 418.400000
5838 14621 9049 1 109.50000 418.400000
5838 14621 9050 1 109.50000 418.400000
9049 14621 9050 1 109.50000 418.400000
6365 14622 8381 1 109.50000 418.400000
6365 14622 9051 1 109.50000 418.400000
6365 14622 9052 1 109.50000 418.400000
8381 14622 9051 1 109.50000 418.400000
8381 14622 9052 1 109.50000 418.400000
9051 14622 9052 1 109.50000 418.400000
2811 14623 5037 1 109.50000 418.400000
2811 14623 7070 1 109.50000 418.400000
2811 14623 9053 1 109.50000 418.400000
5037 14623 7070 1 109.50000 418.400000
5037 14623 9053 1 109.50000 418.400000
7070 14623 9053 1 109.50000 418.400000
1563 14624 9054 1 109.50000 418.400000
1563 14624 9055 1 109.50000 418.400000
1563 14624 11339 1 109.50000 418.400000
9054 14624 9055 1 109.50000 418.400000
9054 14624 11339 1 109.50000 418.400000
9055 14624 11339 1 109.50000 418.400000
722 14625 724 1 109.50000 418.400000
722 14625 2383 1 109.50000 418.400000
722 14625 4214 1 109.50000 418.400000
724 14625 2383 1 109.50000 418.400000
724 14625 4214 1 109.50000 418.400000
2383 14625 4214 1 109.50000 418.400000
5602 14626 7375 1 109.50000 418.400000
5602 14626 8530 1 109.50000 418.400000
5602 14626 9056 1 109.50000 418.400000
7375 14626 8530 1 109.50000 418.400000
7375 14626 9056 1 109.50000 418.400000
8530 14626 9056 1 109.50000 418.400000
6793 14627 9057 1 109.50000 418.400000
6793 14627 9058 1 109.50000 418.400000
6793 14627 9059 1 109.50000 418.400000
9057 14627 9058 1 109.50000 418.400000
9057 14627 9059 1 109.50000 418.400000
9058 14627 9059 1 109.50000 418.400000
7061 14628 7063 1 109.50000 418.400000
7061 14628 8913 1 109.50000 418.400000
7061 14628 9060 1 109.50000 418.400000
7063 14628 8913 1 109.50000 418.400000
7063 14628 9060 1 109.50000 418.400000
8913 14628 9060 1 109.50000 418.400000
6875 14629 9062 1 109.50000 418.400000
6875 14629 9063 1 109.50000 418.400000
6875 14629 9064 1 109.50000 418.400000
9062 14629 9063 1 109.50000 418.400000
9062 14629 9064 1 109.50000 418.400000
9063 14629 9064 1 109.50000 418.400000
1177 14630 2276 1 109.50000 418.400000
1177 14630 6421 1 109.50000 418.400000
1177 14630 9065 1 109.50000 418.400000
2276 14630 6421 1 109.50000 418.400000
2276 14630 9065 1 109.50000 418.400000
6421 14630 9065 1 109.50000 418.400000
1182 14631 2335 1 109.50000 418.400000
1182 14631 6774 1 109.50000 418.400000
1182 14631 9066 1 109.50000 418.400000
2335 14631 6774 1 109.50000 418.400000
2335 14631 9066 1 109.50000 418.400000
6774 14631 9066 1 109.50000 418.400000
3968 14632 6918 1 109.50000 418.400000
3968 14632 9068 1 109.50000 418.400000
3968 14632 10459 1 109.50000 418.400000
6918 14632 9068 1 109.50000 418.400000
6918 14632 10459 1 109.50000 418.400000
9068 14632 10459 1 109.50000 418.400000
4484 14633 4989 1 109.50000 418.400000
4484 14633 9070 1 109.50000 418.400000
4484 14633 9071 1 109.50000 418.400000
4989 14633 9070 1 109.50000 418.400000
4989 14633 9071 1 109.50000 418.400000
9070 14633 9071 1 109.50000 418.400000
4760 14634 4761 1 109.50000 418.400000
4760 14634 8148 1 109.50000 418.400000
4760 14634 9072 1 109.50000 418.400000
4761 14634 8148 1 109.50000 418.400000
4761 14634 9072 1 109.50000 418.400000
8148 14634 9072 1 109.50000 418.400000
4672 14635 5901 1 109.50000 418.400000
4672 14635 9074 1 109.50000 418.400000
4672 14635 9075 1 109.50000 418.400000
5901 14635 9074 1 109.50000 418.400000
5901 14635 9075 1 109.50000 418.400000
9074 14635 9075 1 109.50000 418.400000
9076 14636 9077 1 109.50000 418.400000
9076 14636 9078 1 109.50000 418.400000
9076 14636 9079 1 109.50000 418.400000
9077 14636 9078 1 109.50000 418.400000
9077 14636 9079 1 109.50000 418.400000
9078 14636 9079 1 109.50000 418.400000
4904 14637 9080 1 109.50000 418.400000
4904 14637 9081 1 109.50000 418.400000
4904 14637 9083 1 109.50000 418.400000
9080 14637 9081 1 109.50000 418.400000
9080 14637 9083 1 109.50000 418.400000
9081 14637 9083 1 109.50000 418.400000
5795 14638 7269 1 109.50000 418.400000
5795 14638 8397 1 109.50000 418.400000
5795 14638 9084 1 109.50000 418.400000
7269 14638 8397 1 109.50000 418.400000
7269 14638 9084 1 109.50000 418.400000
8397 14638 9084 1 109.50000 418.400000
3734 14639 5329 1 109.50000 418.400000
3734 14639 6336 1 109.50000 418.400000
3734 14639 6337 1 109.50000 418.400000
5329 14639 6336 1 109.50000 418.400000
5329 14639 6337 1 109.50000 418.400000
6336 14639 6337 1 109.50000 418.400000
6165 14640 6620 1 109.50000 418.400000
6165 14640 6622 1 109.50000 418.400000
6165 14640 9086 1 109.50000 418.400000
6620 14640 6622 1 109.50000 418.400000
6620 14640 9086 1 109.50000 418.400000
6622 14640 9086 1 109.50000 418.400000
453 14641 1519 1 109.50000 418.400000
453 14641 7381 1 109.50000 418.400000
453 14641 9087 1 109.50000 418.400000
1519 14641 7381 1 109.50000 418.400000
1519 14641 9087 1 109.50000 418.400000
7381 14641 9087 1 109.50000 418.400000
9088 14642 9089 1 109.50000 418.400000
9088 14642 9090 1 109.50000 418.400000
9088 14642 11238 1 109.50000 418.400000
9089 14642 9090 1 109.50000 418.400000
9089 14642 11238 1 109.50000 418.400000
9090 14642 11238 1 109.50000 418.400000
435 14643 9091 1 109.50000 418.400000
435 14643 9092 1 109.50000 418.400000
435 14643 9093 1 109.50000 418.400000
9091 14643 9092 1 109.50000 418.400000
9091 14643 9093 1 109.50000 418.400000
9092 14643 9093 1 109.50000 418.400000
5546 14644 9093 1 109.50000 418.400000
5546 14644 9094 1 109.50000 418.400000
5546 14644 9095 1 109.50000 418.400000
9093 14644 9094 1 109.50000 418.400000
9093 14644 9095 1 109.50000 418.400000
9094 14644 9095 1 109.50000 418.400000
6499 14645 9081 1 109.50000 418.400000
6499 14645 9096 1 109.50000 418.400000
6499 14645 9097 1 109.50000 418.400000
9081 14645 9096 1 109.50000 418.400000
9081 14645 9097 1 109.50000 418.400000
9096 14645 9097 1 109.50000 418.400000
8173 14646 9098 1 109.50000 418.400000
8173 14646 11374 1 109.50000 418.400000
8173 14646 11414 1 109.50000 418.400000
9098 14646 11374 1 109.50000 418.400000
9098 14646 11414 1 109.50000 418.400000
11374 14646 11414 1 109.50000 418.400000
3605 14647 8424 1 109.50000 418.400000
3605 14647 9099 1 109.50000 418.400000
3605 14647 9100 1 109.50000 418.400000
8424 14647 9099 1 109.50000 418.400000
8424 14647 9100 1 109.50000 418.400000
9099 14647 9100 1 109.50000 418.400000
5564 14648 6312 1 109.50000 418.400000
5564 14648 9101 1 109.50000 418.400000
5564 14648 9102 1 109.50000 418.400000
6312 14648 9101 1 109.50000 418.400000
6312 14648 9102 1 109.50000 418.400000
9101 14648 9102 1 109.50000 418.400000
7202 14649 9105 1 109.50000 418.400000
7202 14649 9106 1 109.50000 418.400000
7202 14649 9107 1 109.50000 418.400000
9105 14649 9106 1 109.50000 418.400000
9105 14649 9107 1 109.50000 418.400000
9106 14649 9107 1 109.50000 418.400000
4428 14650 7498 1 109.50000 418.400000
4428 14650 7518 1 109.50000 418.400000
4428 14650 9108 1 109.50000 418.400000
7498 14650 7518 1 109.50000 418.400000
7498 14650 9108 1 109.50000 418.400000
7518 14650 9108 1 109.50000 418.400000
6708 14651 8322 1 109.50000 418.400000
6708 14651 9060 1 109.50000 418.400000
6708 14651 9109 1 109.50000 418.400000
8322 14651 9060 1 109.50000 418.400000
8322 14651 9109 1 109.50000 418.400000
9060 14651 9109 1 109.50000 418.400000
6174 14652 7712 1 109.50000 418.400000
6174 14652 9110 1 109.50000 418.400000
6174 14652 9112 1 109.50000 418.400000
7712 14652 9110 1 109.50000 418.400000
7712 14652 9112 1 109.50000 418.400000
9110 14652 9112 1 109.50000 418.400000
5942 14653 6487 1 109.50000 418.400000
5942 14653 6488 1 109.50000 418.400000
5942 14653 9113 1 109.50000 418.400000
6487 14653 6488 1 109.50000 418.400000
6487 14653 9113 1 109.50000 418.400000
6488 14653 9113 1 109.50000 418.400000
4219 14654 9114 1 109.50000 418.400000
4219 14654 9115 1 109.50000 418.400000
4219 14654 9116 1 109.50000 418.400000
9114 14654 9115 1 109.50000 418.400000
9114 14654 9116 1 109.50000 418.400000
9115 14654 9116 1 109.50000 418.400000
7786 14655 9117 1 109.50000 418.400000
7786 14655 9118 1 109.50000 418.400000
7786 14655 9120 1 109.50000 418.400000
9117 14655 9118 1 109.50000 418.400000
9117 14655 9120 1 109.50000 418.400000
9118 14655 9120 1 109.50000 418.400000
7724 14656 8033 1 109.50000 418.400000
7724 14656 9121 1 109.50000 418.400000
7724 14656 9122 1 109.50000 418.400000
8033 14656 9121 1 109.50000 418.400000
8033 14656 9122 1 109.50000 418.400000
9121 14656 9122 1 109.50000 418.400000
5042 14657 9123 1 109.50000 418.400000
5042 14657 9124 1 109.50000 418.400000
5042 14657 9125 1 109.50000 418.400000
9123 14657 9124 1 109.50000 418.400000
9123 14657 9125 1 109.50000 418.400000
9124 14657 9125 1 109.50000 418.400000
3205 14658 9107 1 109.50000 418.400000
3205 14658 9127 1 109.50000 418.400000
3205 14658 9128 1 109.50000 418.400000
9107 14658 9127 1 109.50000 418.400000
9107 14658 9128 1 109.50000 418.400000
9127 14658 9128 1 109.50000 418.400000
1192 14659 5619 1 109.50000 418.400000
1192 14659 5625 1 109.50000 418.400000
1192 14659 7699 1 109.50000 418.400000
5619 14659 5625 1 109.50000 418.400000
5619 14659 7699 1 109.50000 418.400000
5625 14659 7699 1 109.50000 418.400000
1378 14660 4375 1 109.50000 418.400000
1378 14660 8737 1 109.50000 418.400000
1378 14660 9129 1 109.50000 418.400000
4375 14660 8737 1 109.50000 418.400000
4375 14660 9129 1 109.50000 418.400000
8737 14660 9129 1 109.50000 418.400000
9130 14661 9131 1 109.50000 418.400000
9130 14661 9132 1 109.50000 418.400000
9130 14661 9133 1 109.50000 418.400000
9131 14661 9132 1 109.50000 418.400000
9131 14661 9133 1 109.50000 418.400000
9132 14661 9133 1 109.50000 418.400000
1621 14662 2525 1 109.50000 418.400000
1621 14662 7275 1 109.50000 418.400000
1621 14662 8699 1 109.50000 418.400000
2525 14662 7275 1 109.50000 418.400000
2525 14662 8699 1 109.50000 418.400000
7275 14662 8699 1 109.50000 418.400000
3326 14663 3328 1 109.50000 418.400000
3326 14663 4686 1 109.50000 418.400000
3326 14663 4893 1 109.50000 418.400000
3328 14663 4686 1 109.50000 418.400000
3328 14663 4893 1 109.50000 418.400000
4686 14663 4893 1 109.50000 418.400000
1334 14664 3691 1 109.50000 418.400000
1334 14664 9135 1 109.50000 418.400000
1334 14664 9136 1 109.50000 418.400000
3691 14664 9135 1 109.50000 418.400000
3691 14664 9136 1 109.50000 418.400000
9135 14664 9136 1 109.50000 418.400000
1445 14665 7010 1 109.50000 418.400000
1445 14665 9137 1 109.50000 418.400000
1445 14665 9138 1 109.50000 418.400000
7010 14665 9137 1 109.50000 418.400000
7010 14665 9138 1 109.50000 418.400000
9137 14665 9138 1 109.50000 418.400000
2827 14666 5097 1 109.50000 418.400000
2827 14666 7206 1 109.50000 418.400000
2827 14666 9141 1 109.50000 418.400000
5097 14666 7206 1 109.50000 418.400000
5097 14666 9141 1 109.50000 418.400000
7206 14666 9141 1 109.50000 418.400000
2076 14667 8157 1 109.50000 418.400000
2076 14667 9019 1 109.50000 418.400000
2076 14667 9142 1 109.50000 418.400000
8157 14667 9019 1 109.50000 418.400000
8157 14667 9142 1 109.50000 418.400000
9019 14667 9142 1 109.50000 418.400000
367 14668 7898 1 109.50000 418.400000
367 14668 8366 1 109.50000 418.400000
367 14668 9145 1 109.50000 418.400000
7898 14668 8366 1 109.50000 418.400000
7898 14668 9145 1 109.50000 418.400000
8366 14668 9145 1 109.50000 418.400000
2881 14669 3960 1 109.50000 418.400000
2881 14669 7867 1 109.50000 418.400000
2881 14669 7993 1 109.50000 418.400000
3960 14669 7867 1 109.50000 418.400000
3960 14669 7993 1 109.50000 418.400000
7867 14669 7993 1 109.50000 418.400000
2489 14670 5655 1 109.50000 418.400000
2489 14670 8753 1 109.50000 418.400000
2489 14670 9148 1 109.50000 418.400000
5655 14670 8753 1 109.50000 418.400000
5655 14670 9148 1 109.50000 418.400000
8753 14670 9148 1 109.50000 418.400000
5216 14671 7142 1 109.50000 418.400000
5216 14671 7842 1 109.50000 418.400000
5216 14671 11272 1 109.50000 418.400000
7142 14671 7842 1 109.50000 418.400000
7142 14671 11272 1 109.50000 418.400000
7842 14671 11272 1 109.50000 418.400000
5605 14672 9149 1 109.50000 418.400000
5605 14672 9150 1 109.50000 418.400000
5605 14672 9151 1 109.50000 418.400000
9149 14672 9150 1 109.50000 418.400000
9149 14672 9151 1 109.50000 418.400000
9150 14672 9151 1 109.50000 418.400000
7420 14673 9152 1 109.50000 418.400000
7420 14673 9153 1 109.50000 418.400000
7420 14673 9154 1 109.50000 418.400000
9152 14673 9153 1 109.50000 418.400000
9152 14673 9154 1 109.50000 418.400000
9153 14673 9154 1 109.50000 418.400000
4625 14674 5562 1 109.50000 418.400000
4625 14674 7334 1 109.50000 418.400000
4625 14674 9155 1 109.50000 418.400000
5562 14674 7334 1 109.50000 418.400000
5562 14674 9155 1 109.50000 418.400000
7334 14674 9155 1 109.50000 418.400000
1505 14675 3583 1 109.50000 418.400000
1505 14675 9156 1 109.50000 418.400000
1505 14675 9157 1 109.50000 418.400000
3583 14675 9156 1 109.50000 418.400000
3583 14675 9157 1 109.50000 418.400000
9156 14675 9157 1 109.50000 418.400000
2505 14676 2507 1 109.50000 418.400000
2505 14676 5438 1 109.50000 418.400000
2505 14676 9158 1 109.50000 418.400000
2507 14676 5438 1 109.50000 418.400000
2507 14676 9158 1 109.50000 418.400000
5438 14676 9158 1 109.50000 418.400000
7748 14677 9160 1 109.50000 418.400000
7748 14677 9161 1 109.50000 418.400000
7748 14677 9162 1 109.50000 418.400000
9160 14677 9161 1 109.50000 418.400000
9160 14677 9162 1 109.50000 418.400000
9161 14677 9162 1 109.50000 418.400000
3431 14678 9163 1 109.50000 418.400000
3431 14678 9164 1 109.50000 418.400000
3431 14678 9165 1 109.50000 418.400000
9163 14678 9164 1 109.50000 418.400000
9163 14678 9165 1 109.50000 418.400000
9164 14678 9165 1 109.50000 418.400000
8258 14679 8871 1 109.50000 418.400000
8258 14679 9166 1 109.50000 418.400000
8258 14679 9167 1 109.50000 418.400000
8871 14679 9166 1 109.50000 418.400000
8871 14679 9167 1 109.50000 418.400000
9166 14679 9167 1 109.50000 418.400000
6073 14680 6173 1 109.50000 418.400000
6073 14680 9168 1 109.50000 418.400000
6073 14680 11276 1 109.50000 418.400000
6173 14680 9168 1 109.50000 418.400000
6173 14680 11276 1 109.50000 418.400000
9168 14680 11276 1 109.50000 418.400000
2163 14681 4480 1 109.50000 418.400000
2163 14681 5434 1 109.50000 418.400000
2163 14681 9110 1 109.50000 418.400000
4480 14681 5434 1 109.50000 418.400000
4480 14681 9110 1 109.50000 418.400000
5434 14681 9110 1 109.50000 418.400000
351 14682 1775 1 109.50000 418.400000
351 14682 2869 1 109.50000 418.400000
351 14682 9169 1 109.50000 418.400000
1775 14682 2869 1 109.50000 418.400000
1775 14682 9169 1 109.50000 418.400000
2869 14682 9169 1 109.50000 418.400000
1058 14683 6661 1 109.50000 418.400000
1058 14683 7014 1 109.50000 418.400000
1058 14683 9084 1 109.50000 418.400000
6661 14683 7014 1 109.50000 418.400000
6661 14683 9084 1 109.50000 418.400000
7014 14683 9084 1 109.50000 418.400000
3911 14684 8395 1 109.50000 418.400000
3911 14684 9170 1 109.50000 418.400000
3911 14684 9171 1 109.50000 418.400000
8395 14684 9170 1 109.50000 418.400000
8395 14684 9171 1 109.50000 418.400000
9170 14684 9171 1 109.50000 418.400000
786 14685 2180 1 109.50000 418.400000
786 14685 3607 1 109.50000 418.400000
786 14685 9173 1 109.50000 418.400000
2180 14685 3607 1 109.50000 418.400000
2180 14685 9173 1 109.50000 418.400000
3607 14685 9173 1 109.50000 418.400000
6253 14686 7246 1 109.50000 418.400000
6253 14686 9176 1 109.50000 418.400000
6253 14686 9177 1 109.50000 418.400000
7246 14686 9176 1 109.50000 418.400000
7246 14686 9177 1 109.50000 418.400000
9176 14686 9177 1 109.50000 418.400000
7495 14687 7857 1 109.50000 418.400000
7495 14687 8721 1 109.50000 418.400000
7495 14687 9178 1 109.50000 418.400000
7857 14687 8721 1 109.50000 418.400000
7857 14687 9178 1 109.50000 418.400000
8721 14687 9178 1 109.50000 418.400000
8105 14688 8106 1 109.50000 418.400000
8105 14688 9179 1 109.50000 418.400000
8105 14688 9181 1 109.50000 418.400000
8106 14688 9179 1 109.50000 418.400000
8106 14688 9181 1 109.50000 418.400000
9179 14688 9181 1 109.50000 418.400000
888 14689 8499 1 109.50000 418.400000
888 14689 9182 1 109.50000 418.400000
888 14689 10755 1 109.50000 418.400000
8499 14689 9182 1 109.50000 418.400000
8499 14689 10755 1 109.50000 418.400000
9182 14689 10755 1 109.50000 418.400000
4467 14690 7166 1 109.50000 418.400000
4467 14690 7779 1 109.50000 418.400000
4467 14690 8461 1 109.50000 418.400000
7166 14690 7779 1 109.50000 418.400000
7166 14690 8461 1 109.50000 418.400000
7779 14690 8461 1 109.50000 418.400000
4434 14691 6199 1 109.50000 418.400000
4434 14691 9183 1 109.50000 418.400000
4434 14691 9184 1 109.50000 418.400000
6199 14691 9183 1 109.50000 418.400000
6199 14691 9184 1 109.50000 418.400000
9183 14691 9184 1 109.50000 418.400000
1647 14692 6689 1 109.50000 418.400000
1647 14692 8503 1 109.50000 418.400000
1647 14692 9185 1 109.50000 418.400000
6689 14692 8503 1 109.50000 418.400000
6689 14692 9185 1 109.50000 418.400000
8503 14692 9185 1 109.50000 418.400000
2001 14693 2545 1 109.50000 418.400000
2001 14693 7946 1 109.50000 418.400000
2001 14693 8034 1 109.50000 418.400000
2545 14693 7946 1 109.50000 418.400000
2545 14693 8034 1 109.50000 418.400000
7946 14693 8034 1 109.50000 418.400000
2910 14694 4299 1 109.50000 418.400000
2910 14694 5482 1 109.50000 418.400000
2910 14694 9186 1 109.50000 418.400000
4299 14694 5482 1 109.50000 418.400000
4299 14694 9186 1 109.50000 418.400000
5482 14694 9186 1 109.50000 418.400000
4999 14695 5713 1 109.50000 418.400000
4999 14695 7644 1 109.50000 418.400000
4999 14695 9187 1 109.50000 418.400000
5713 14695 7644 1 109.50000 418.400000
5713 14695 9187 1 109.50000 418.400000
7644 14695 9187 1 109.50000 418.400000
5584 14696 7481 1 109.50000 418.400000
5584 14696 8765 1 109.50000 418.400000
5584 14696 9188 1 109.50000 418.400000
7481 14696 8765 1 109.50000 418.400000
7481 14696 9188 1 109.50000 418.400000
8765 14696 9188 1 109.50000 418.400000
9189 14697 9190 1 109.50000 418.400000
9189 14697 9191 1 109.50000 418.400000
9189 14697 11496 1 109.50000 418.400000
9190 14697 9191 1 109.50000 418.400000
9190 14697 11496 1 109.50000 418.400000
9191 14697 11496 1 109.50000 418.400000
3018 14698 3390 1 109.50000 418.400000
3018 14698 8539 1 109.50000 418.400000
3018 14698 9192 1 109.50000 418.400000
3390 14698 8539 1 109.50000 418.400000
3390 14698 9192 1 109.50000 418.400000
8539 14698 9192 1 109.50000 418.400000
598 14699 9194 1 109.50000 418.400000
598 14699 11297 1 109.50000 418.400000
598 14699 11321 1 109.50000 418.400000
9194 14699 11297 1 109.50000 418.400000
9194 14699 11321 1 109.50000 418.400000
11297 14699 11321 1 109.50000 418.400000
2159 14700 6561 1 109.50000 418.400000
2159 14700 8370 1 109.50000 418.400000
2159 14700 9195 1 109.50000 418.400000
6561 14700 8370 1 109.50000 418.400000
6561 14700 9195 1 109.50000 418.400000
8370 14700 9195 1 109.50000 418.400000
5531 14701 8263 1 109.50000 418.400000
5531 14701 9196 1 109.50000 418.400000
5531 14701 9197 1 109.50000 418.400000
8263 14701 9196 1 109.50000 418.400000
8263 14701 9197 1 109.50000 418.400000
9196 14701 9197 1 109.50000 418.400000
4827 14702 9198 1 109.50000 418.400000
4827 14702 9199 1 109.50000 418.400000
4827 14702 9200 1 109.50000 418.400000
9198 14702 9199 1 109.50000 418.400000
9198 14702 9200 1 109.50000 418.400000
9199 14702 9200 1 109.50000 418.400000
5375 14703 7144 1 109.50000 418.400000
5375 14703 9201 1 109.50000 418.400000
5375 14703 9202 1 109.50000 418.400000
7144 14703 9201 1 109.50000 418.400000
7144 14703 9202 1 109.50000 418.400000
9201 14703 9202 1 109.50000 418.400000
2977 14704 8293 1 109.50000 418.400000
2977 14704 9203 1 109.50000 418.400000
2977 14704 9204 1 109.50000 418.400000
8293 14704 9203 1 109.50000 418.400000
8293 14704 9204 1 109.50000 418.400000
9203 14704 9204 1 109.50000 418.400000
1522 14705 5271 1 109.50000 418.400000
1522 14705 9205 1 109.50000 418.400000
1522 14705 9206 1 109.50000 418.400000
5271 14705 9205 1 109.50000 418.400000
5271 14705 9206 1 109.50000 418.400000
9205 14705 9206 1 109.50000 418.400000
398 14706 400 1 109.50000 418.400000
398 14706 2911 1 109.50000 418.400000
398 14706 6209 1 109.50000 418.400000
400 14706 2911 1 109.50000 418.400000
400 14706 6209 1 109.50000 418.400000
2911 14706 6209 1 109.50000 418.400000
778 14707 9207 1 109.50000 418.400000
778 14707 9208 1 109.50000 418.400000
778 14707 9209 1 109.50000 418.400000
9207 14707 9208 1 109.50000 418.400000
9207 14707 9209 1 109.50000 418.400000
9208 14707 9209 1 109.50000 418.400000
597 14708 9210 1 109.50000 418.400000
597 14708 9211 1 109.50000 418.400000
597 14708 9212 1 109.50000 418.400000
9210 14708 9211 1 109.50000 418.400000
9210 14708 9212 1 109.50000 418.400000
9211 14708 9212 1 109.50000 418.400000
3187 14709 5684 1 109.50000 418.400000
3187 14709 5911 1 109.50000 418.400000
3187 14709 9213 1 109.50000 418.400000
5684 14709 5911 1 109.50000 418.400000
5684 14709 9213 1 109.50000 418.400000
5911 14709 9213 1 109.50000 418.400000
2071 14710 5035 1 109.50000 418.400000
2071 14710 5076 1 109.50000 418.400000
2071 14710 9214 1 109.50000 418.400000
5035 14710 5076 1 109.50000 418.400000
5035 14710 9214 1 109.50000 418.400000
5076 14710 9214 1 109.50000 418.400000
6185 14711 9215 1 109.50000 418.400000
6185 14711 9362 1 109.50000 418.400000
6185 14711 10920 1 109.50000 418.400000
9215 14711 9362 1 109.50000 418.400000
9215 14711 10920 1 109.50000 418.400000
9362 14711 10920 1 109.50000 418.400000
3597 14712 8501 1 109.50000 418.400000
3597 14712 8777 1 109.50000 418.400000
3597 14712 9218 1 109.50000 418.400000
8501 14712 8777 1 109.50000 418.400000
8501 14712 9218 1 109.50000 418.400000
8777 14712 9218 1 109.50000 418.400000
2782 14713 6255 1 109.50000 418.400000
2782 14713 8254 1 109.50000 418.400000
2782 14713 9219 1 109.50000 418.400000
6255 14713 8254 1 109.50000 418.400000
6255 14713 9219 1 109.50000 418.400000
8254 14713 9219 1 109.50000 418.400000
3319 14714 6208 1 109.50000 418.400000
3319 14714 9220 1 109.50000 418.400000
3319 14714 9221 1 109.50000 418.400000
6208 14714 9220 1 109.50000 418.400000
6208 14714 9221 1 109.50000 418.400000
9220 14714 9221 1 109.50000 418.400000
1311 14715 1320 1 109.50000 418.400000
1311 14715 6637 1 109.50000 418.400000
1311 14715 9222 1 109.50000 418.400000
1320 14715 6637 1 109.50000 418.400000
1320 14715 9222 1 109.50000 418.400000
6637 14715 9222 1 109.50000 418.400000
1902 14716 1905 1 109.50000 418.400000
1902 14716 9223 1 109.50000 418.400000
1902 14716 9224 1 109.50000 418.400000
1905 14716 9223 1 109.50000 418.400000
1905 14716 9224 1 109.50000 418.400000
9223 14716 9224 1 109.50000 418.400000
4335 14717 4788 1 109.50000 418.400000
4335 14717 6777 1 109.50000 418.400000
4335 14717 9225 1 109.50000 418.400000
4788 14717 6777 1 109.50000 418.400000
4788 14717 9225 1 109.50000 418.400000
6777 14717 9225 1 109.50000 418.400000
2750 14718 8051 1 109.50000 418.400000
2750 14718 9226 1 109.50000 418.400000
2750 14718 9227 1 109.50000 418.400000
8051 14718 9226 1 109.50000 418.400000
8051 14718 9227 1 109.50000 418.400000
9226 14718 9227 1 109.50000 418.400000
6797 14719 7227 1 109.50000 418.400000
6797 14719 8066 1 109.50000 418.400000
6797 14719 9228 1 109.50000 418.400000
7227 14719 8066 1 109.50000 418.400000
7227 14719 9228 1 109.50000 418.400000
8066 14719 9228 1 109.50000 418.400000
1477 14720 9229 1 109.50000 418.400000
1477 14720 9230 1 109.50000 418.400000
1477 14720 9231 1 109.50000 418.400000
9229 14720 9230 1 109.50000 418.400000
9229 14720 9231 1 109.50000 418.400000
9230 14720 9231 1 109.50000 418.400000
2084 14721 3816 1 109.50000 418.400000
2084 14721 5748 1 109.50000 418.400000
2084 14721 7106 1 109.50000 418.400000
3816 14721 5748 1 109.50000 418.400000
3816 14721 7106 1 109.50000 418.400000
5748 14721 7106 1 109.50000 418.400000
906 14722 909 1 109.50000 418.400000
906 14722 6923 1 109.50000 418.400000
906 14722 6924 1 109.50000 418.400000
909 14722 6923 1 109.50000 418.400000
909 14722 6924 1 109.50000 418.400000
6923 14722 6924 1 109.50000 418.400000
5125 14723 6770 1 109.50000 418.400000
5125 14723 9232 1 109.50000 418.400000
5125 14723 9233 1 109.50000 418.400000
6770 14723 9232 1 109.50000 418.400000
6770 14723 9233 1 109.50000 418.400000
9232 14723 9233 1 109.50000 418.400000
386 14724 4588 1 109.50000 418.400000
386 14724 8021 1 109.50000 418.400000
386 14724 9219 1 109.50000 418.400000
4588 14724 8021 1 109.50000 418.400000
4588 14724 9219 1 109.50000 418.400000
8021 14724 9219 1 109.50000 418.400000
455 14725 5669 1 109.50000 418.400000
455 14725 9234 1 109.50000 418.400000
455 14725 9235 1 109.50000 418.400000
5669 14725 9234 1 109.50000 418.400000
5669 14725 9235 1 109.50000 418.400000
9234 14725 9235 1 109.50000 418.400000
616 14726 8056 1 109.50000 418.400000
616 14726 9236 1 109.50000 418.400000
616 14726 9237 1 109.50000 418.400000
8056 14726 9236 1 109.50000 418.400000
8056 14726 9237 1 109.50000 418.400000
9236 14726 9237 1 109.50000 418.400000
4622 14727 5687 1 109.50000 418.400000
4622 14727 9238 1 109.50000 418.400000
4622 14727 9239 1 109.50000 418.400000
5687 14727 9238 1 109.50000 418.400000
5687 14727 9239 1 109.50000 418.400000
9238 14727 9239 1 109.50000 418.400000
2168 14728 9240 1 109.50000 418.400000
2168 14728 9241 1 109.50000 418.400000
2168 14728 9242 1 109.50000 418.400000
9240 14728 9241 1 109.50000 418.400000
9240 14728 9242 1 109.50000 418.400000
9241 14728 9242 1 109.50000 418.400000
5098 14729 7235 1 109.50000 418.400000
5098 14729 9243 1 109.50000 418.400000
5098 14729 9244 1 109.50000 418.400000
7235 14729 9243 1 109.50000 418.400000
7235 14729 9244 1 109.50000 418.400000
9243 14729 9244 1 109.50000 418.400000
3412 14730 9245 1 109.50000 418.400000
3412 14730 9246 1 109.50000 418.400000
3412 14730 9247 1 109.50000 418.400000
9245 14730 9246 1 109.50000 418.400000
9245 14730 9247 1 109.50000 418.400000
9246 14730 9247 1 109.50000 418.400000
7040 14731 9248 1 109.50000 418.400000
7040 14731 9249 1 109.50000 418.400000
7040 14731 9250 1 109.50000 418.400000
9248 14731 9249 1 109.50000 418.400000
9248 14731 9250 1 109.50000 418.400000
9249 14731 9250 1 109.50000 418.400000
2503 14732 8525 1 109.50000 418.400000
2503 14732 9251 1 109.50000 418.400000
2503 14732 9252 1 109.50000 418.400000
8525 14732 9251 1 109.50000 418.400000
8525 14732 9252 1 109.50000 418.400000
9251 14732 9252 1 109.50000 418.400000
4421 14733 6606 1 109.50000 418.400000
4421 14733 7682 1 109.50000 418.400000
4421 14733 9253 1 109.50000 418.400000
6606 14733 7682 1 109.50000 418.400000
6606 14733 9253 1 109.50000 418.400000
7682 14733 9253 1 109.50000 418.400000
6350 14734 6380 1 109.50000 418.400000
6350 14734 9254 1 109.50000 418.400000
6350 14734 11530 1 109.50000 418.400000
6380 14734 9254 1 109.50000 418.400000
6380 14734 11530 1 109.50000 418.400000
9254 14734 11530 1 109.50000 418.400000
6044 14735 7352 1 109.50000 418.400000
6044 14735 9255 1 109.50000 418.400000
6044 14735 9256 1 109.50000 418.400000
7352 14735 9255 1 109.50000 418.400000
7352 14735 9256 1 109.50000 418.400000
9255 14735 9256 1 109.50000 418.400000
472 14736 5524 1 109.50000 418.400000
472 14736 9257 1 109.50000 418.400000
472 14736 9258 1 109.50000 418.400000
5524 14736 9257 1 109.50000 418.400000
5524 14736 9258 1 109.50000 418.400000
9257 14736 9258 1 109.50000 418.400000
5757 14737 7292 1 109.50000 418.400000
5757 14737 9259 1 109.50000 418.400000
5757 14737 9260 1 109.50000 418.400000
7292 14737 9259 1 109.50000 418.400000
7292 14737 9260 1 109.50000 418.400000
9259 14737 9260 1 109.50000 418.400000
306 14738 8635 1 109.50000 418.400000
306 14738 11208 1 109.50000 418.400000
306 14738 11332 1 109.50000 418.400000
8635 14738 11208 1 109.50000 418.400000
8635 14738 11332 1 109.50000 418.400000
11208 14738 11332 1 109.50000 418.400000
4716 14739 4892 1 109.50000 418.400000
4716 14739 9261 1 109.50000 418.400000
4716 14739 9262 1 109.50000 418.400000
4892 14739 9261 1 109.50000 418.400000
4892 14739 9262 1 109.50000 418.400000
9261 14739 9262 1 109.50000 418.400000
9263 14740 9264 1 109.50000 418.400000
9263 14740 11192 1 109.50000 418.400000
9263 14740 11348 1 109.50000 418.400000
9264 14740 11192 1 109.50000 418.400000
9264 14740 11348 1 109.50000 418.400000
11192 14740 11348 1 109.50000 418.400000
2096 14741 6192 1 109.50000 418.400000
2096 14741 9249 1 109.50000 418.400000
2096 14741 9265 1 109.50000 418.400000
6192 14741 9249 1 109.50000 418.400000
6192 14741 9265 1 109.50000 418.400000
9249 14741 9265 1 109.50000 418.400000
302 14742 3673 1 109.50000 418.400000
302 14742 7089 1 109.50000 418.400000
302 14742 9063 1 109.50000 418.400000
3673 14742 7089 1 109.50000 418.400000
3673 14742 9063 1 109.50000 418.400000
7089 14742 9063 1 109.50000 418.400000
5069 14743 7625 1 109.50000 418.400000
5069 14743 11285 1 109.50000 418.400000
5069 14743 11458 1 109.50000 418.400000
7625 14743 11285 1 109.50000 418.400000
7625 14743 11458 1 109.50000 418.400000
11285 14743 11458 1 109.50000 418.400000
6857 14744 9266 1 109.50000 418.400000
6857 14744 9267 1 109.50000 418.400000
6857 14744 9268 1 109.50000 418.400000
9266 14744 9267 1 109.50000 418.400000
9266 14744 9268 1 109.50000 418.400000
9267 14744 9268 1 109.50000 418.400000
1889 14745 7433 1 109.50000 418.400000
1889 14745 9269 1 109.50000 418.400000
1889 14745 11313 1 109.50000 418.400000
7433 14745 9269 1 109.50000 418.400000
7433 14745 11313 1 109.50000 418.400000
9269 14745 11313 1 109.50000 418.400000
3919 14746 6397 1 109.50000 418.400000
3919 14746 9012 1 109.50000 418.400000
3919 14746 9270 1 109.50000 418.400000
6397 14746 9012 1 109.50000 418.400000
6397 14746 9270 1 109.50000 418.400000
9012 14746 9270 1 109.50000 418.400000
7044 14747 9272 1 109.50000 418.400000
7044 14747 9273 1 109.50000 418.400000
7044 14747 9274 1 109.50000 418.400000
9272 14747 9273 1 109.50000 418.400000
9272 14747 9274 1 109.50000 418.400000
9273 14747 9274 1 109.50000 418.400000
1219 14748 4551 1 109.50000 418.400000
1219 14748 5837 1 109.50000 418.400000
1219 14748 9275 1 109.50000 418.400000
4551 14748 5837 1 109.50000 418.400000
4551 14748 9275 1 109.50000 418.400000
5837 14748 9275 1 109.50000 418.400000
184 14749 278 1 109.50000 418.400000
184 14749 3009 1 109.50000 418.400000
184 14749 9277 1 109.50000 418.400000
278 14749 3009 1 109.50000 418.400000
278 14749 9277 1 109.50000 418.400000
3009 14749 9277 1 109.50000 418.400000
3573 14750 4475 1 109.50000 418.400000
3573 14750 7572 1 109.50000 418.400000
3573 14750 9278 1 109.50000 418.400000
4475 14750 7572 1 109.50000 418.400000
4475 14750 9278 1 109.50000 418.400000
7572 14750 9278 1 109.50000 418.400000
265 14751 9279 1 109.50000 418.400000
265 14751 9280 1 109.50000 418.400000
265 14751 9281 1 109.50000 418.400000
9279 14751 9280 1 109.50000 418.400000
9279 14751 9281 1 109.50000 418.400000
9280 14751 9281 1 109.50000 418.400000
1997 14752 2669 1 109.50000 418.400000
1997 14752 8796 1 109.50000 418.400000
1997 14752 9282 1 109.50000 418.400000
2669 14752 8796 1 109.50000 418.400000
2669 14752 9282 1 109.50000 418.400000
8796 14752 9282 1 109.50000 418.400000
1454 14753 2473 1 109.50000 418.400000
1454 14753 4854 1 109.50000 418.400000
1454 14753 5444 1 109.50000 418.400000
2473 14753 4854 1 109.50000 418.400000
2473 14753 5444 1 109.50000 418.400000
4854 14753 5444 1 109.50000 418.400000
2298 14754 9090 1 109.50000 418.400000
2298 14754 11302 1 109.50000 418.400000
2298 14754 11518 1 109.50000 418.400000
9090 14754 11302 1 109.50000 418.400000
9090 14754 11518 1 109.50000 418.400000
11302 14754 11518 1 109.50000 418.400000
354 14755 1839 1 109.50000 418.400000
354 14755 6493 1 109.50000 418.400000
354 14755 9285 1 109.50000 418.400000
1839 14755 6493 1 109.50000 418.400000
1839 14755 9285 1 109.50000 418.400000
6493 14755 9285 1 109.50000 418.400000
6460 14756 7333 1 109.50000 418.400000
6460 14756 9287 1 109.50000 418.400000
6460 14756 9288 1 109.50000 418.400000
7333 14756 9287 1 109.50000 418.400000
7333 14756 9288 1 109.50000 418.400000
9287 14756 9288 1 109.50000 418.400000
7392 14757 9289 1 109.50000 418.400000
7392 14757 9290 1 109.50000 418.400000
7392 14757 9291 1 109.50000 418.400000
9289 14757 9290 1 109.50000 418.400000
9289 14757 9291 1 109.50000 418.400000
9290 14757 9291 1 109.50000 418.400000
1359 14758 9213 1 109.50000 418.400000
1359 14758 9292 1 109.50000 418.400000
1359 14758 9293 1 109.50000 418.400000
9213 14758 9292 1 109.50000 418.400000
9213 14758 9293 1 109.50000 418.400000
9292 14758 9293 1 109.50000 418.400000
4747 14759 7608 1 109.50000 418.400000
4747 14759 8320 1 109.50000 418.400000
4747 14759 8835 1 109.50000 418.400000
7608 14759 8320 1 109.50000 418.400000
7608 14759 8835 1 109.50000 418.400000
8320 14759 8835 1 109.50000 418.400000
1682 14760 4350 1 109.50000 418.400000
1682 14760 6725 1 109.50000 418.400000
1682 14760 9294 1 109.50000 418.400000
4350 14760 6725 1 109.50000 418.400000
4350 14760 9294 1 109.50000 418.400000
6725 14760 9294 1 109.50000 418.400000
604 14761 6948 1 109.50000 418.400000
604 14761 9295 1 109.50000 418.400000
604 14761 9296 1 109.50000 418.400000
6948 14761 9295 1 109.50000 418.400000
6948 14761 9296 1 109.50000 418.400000
9295 14761 9296 1 109.50000 418.400000
2593 14762 9297 1 109.50000 418.400000
2593 14762 9298 1 109.50000 418.400000
2593 14762 9299 1 109.50000 418.400000
9297 14762 9298 1 109.50000 418.400000
9297 14762 9299 1 109.50000 418.400000
9298 14762 9299 1 109.50000 418.400000
2978 14763 6429 1 109.50000 418.400000
2978 14763 9300 1 109.50000 418.400000
2978 14763 9301 1 109.50000 418.400000
6429 14763 9300 1 109.50000 418.400000
6429 14763 9301 1 109.50000 418.400000
9300 14763 9301 1 109.50000 418.400000
1851 14764 8192 1 109.50000 418.400000
1851 14764 9302 1 109.50000 418.400000
1851 14764 9303 1 109.50000 418.400000
8192 14764 9302 1 109.50000 418.400000
8192 14764 9303 1 109.50000 418.400000
9302 14764 9303 1 109.50000 418.400000
5768 14765 8204 1 109.50000 418.400000
5768 14765 9280 1 109.50000 418.400000
5768 14765 9304 1 109.50000 418.400000
8204 14765 9280 1 109.50000 418.400000
8204 14765 9304 1 109.50000 418.400000
9280 14765 9304 1 109.50000 418.400000
793 14766 9305 1 109.50000 418.400000
793 14766 9306 1 109.50000 418.400000
793 14766 9307 1 109.50000 418.400000
9305 14766 9306 1 109.50000 418.400000
9305 14766 9307 1 109.50000 418.400000
9306 14766 9307 1 109.50000 418.400000
3272 14767 7165 1 109.50000 418.400000
3272 14767 8890 1 109.50000 418.400000
3272 14767 9308 1 109.50000 418.400000
7165 14767 8890 1 109.50000 418.400000
7165 14767 9308 1 109.50000 418.400000
8890 14767 9308 1 109.50000 418.400000
857 14768 6099 1 109.50000 418.400000
857 14768 8573 1 109.50000 418.400000
857 14768 8701 1 109.50000 418.400000
6099 14768 8573 1 109.50000 418.400000
6099 14768 8701 1 109.50000 418.400000
8573 14768 8701 1 109.50000 418.400000
1842 14769 3856 1 109.50000 418.400000
1842 14769 8779 1 109.50000 418.400000
1842 14769 9309 1 109.50000 418.400000
3856 14769 8779 1 109.50000 418.400000
3856 14769 9309 1 109.50000 418.400000
8779 14769 9309 1 109.50000 418.400000
3985 14770 6083 1 109.50000 418.400000
3985 14770 9310 1 109.50000 418.400000
3985 14770 9311 1 109.50000 418.400000
6083 14770 9310 1 109.50000 418.400000
6083 14770 9311 1 109.50000 418.400000
9310 14770 9311 1 109.50000 418.400000
8168 14771 9312 1 109.50000 418.400000
8168 14771 9313 1 109.50000 418.400000
8168 14771 9314 1 109.50000 418.400000
9312 14771 9313 1 109.50000 418.400000
9312 14771 9314 1 109.50000 418.400000
9313 14771 9314 1 109.50000 418.400000
2664 14772 7415 1 109.50000 418.400000
2664 14772 8216 1 109.50000 418.400000
2664 14772 8217 1 109.50000 418.400000
7415 14772 8216 1 109.50000 418.400000
7415 14772 8217 1 109.50000 418.400000
8216 14772 8217 1 109.50000 418.400000
5511 14773 8695 1 109.50000 418.400000
5511 14773 9315 1 109.50000 418.400000
5511 14773 9316 1 109.50000 418.400000
8695 14773 9315 1 109.50000 418.400000
8695 14773 9316 1 109.50000 418.400000
9315 14773 9316 1 109.50000 418.400000
1965 14774 2371 1 109.50000 418.400000
1965 14774 3102 1 109.50000 418.400000
1965 14774 9317 1 109.50000 418.400000
2371 14774 3102 1 109.50000 418.400000
2371 14774 9317 1 109.50000 418.400000
3102 14774 9317 1 109.50000 418.400000
6301 14775 7641 1 109.50000 418.400000
6301 14775 8868 1 109.50000 418.400000
6301 14775 9085 1 109.50000 418.400000
7641 14775 8868 1 109.50000 418.400000
7641 14775 9085 1 109.50000 418.400000
8868 14775 9085 1 109.50000 418.400000
1400 14776 6249 1 109.50000 418.400000
1400 14776 6542 1 109.50000 418.400000
1400 14776 8857 1 109.50000 418.400000
6249 14776 6542 1 109.50000 418.400000
6249 14776 8857 1 109.50000 418.400000
6542 14776 8857 1 109.50000 418.400000
6085 14777 9318 1 109.50000 418.400000
6085 14777 9319 1 109.50000 418.400000
6085 14777 9320 1 109.50000 418.400000
9318 14777 9319 1 109.50000 418.400000
9318 14777 9320 1 109.50000 418.400000
9319 14777 9320 1 109.50000 418.400000
6546 14778 7320 1 109.50000 418.400000
6546 14778 9321 1 109.50000 418.400000
6546 14778 9322 1 109.50000 418.400000
7320 14778 9321 1 109.50000 418.400000
7320 14778 9322 1 109.50000 418.400000
9321 14778 9322 1 109.50000 418.400000
3070 14779 5523 1 109.50000 418.400000
3070 14779 5603 1 109.50000 418.400000
3070 14779 9323 1 109.50000 418.400000
5523 14779 5603 1 109.50000 418.400000
5523 14779 9323 1 109.50000 418.400000
5603 14779 9323 1 109.50000 418.400000
1084 14780 8891 1 109.50000 418.400000
1084 14780 9324 1 109.50000 418.400000
1084 14780 9325 1 109.50000 418.400000
8891 14780 9324 1 109.50000 418.400000
8891 14780 9325 1 109.50000 418.400000
9324 14780 9325 1 109.50000 418.400000
7339 14781 7448 1 109.50000 418.400000
7339 14781 7743 1 109.50000 418.400000
7339 14781 9138 1 109.50000 418.400000
7448 14781 7743 1 109.50000 418.400000
7448 14781 9138 1 109.50000 418.400000
7743 14781 9138 1 109.50000 418.400000
3130 14782 3349 1 109.50000 418.400000
3130 14782 9326 1 109.50000 418.400000
3130 14782 9327 1 109.50000 418.400000
3349 14782 9326 1 109.50000 418.400000
3349 14782 9327 1 109.50000 418.400000
9326 14782 9327 1 109.50000 418.400000
1532 14783 5265 1 109.50000 418.400000
1532 14783 7158 1 109.50000 418.400000
1532 14783 9328 1 109.50000 418.400000
5265 14783 7158 1 109.50000 418.400000
5265 14783 9328 1 109.50000 418.400000
7158 14783 9328 1 109.50000 418.400000
6034 14784 6464 1 109.50000 418.400000
6034 14784 8089 1 109.50000 418.400000
6034 14784 9330 1 109.50000 418.400000
6464 14784 8089 1 109.50000 418.400000
6464 14784 9330 1 109.50000 418.400000
8089 14784 9330 1 109.50000 418.400000
9244 14785 9331 1 109.50000 418.400000
9244 14785 9332 1 109.50000 418.400000
9244 14785 9333 1 109.50000 418.400000
9331 14785 9332 1 109.50000 418.400000
9331 14785 9333 1 109.50000 418.400000
9332 14785 9333 1 109.50000 418.400000
5594 14786 7703 1 109.50000 418.400000
5594 14786 9334 1 109.50000 418.400000
5594 14786 9335 1 109.50000 418.400000
7703 14786 9334 1 109.50000 418.400000
7703 14786 9335 1 109.50000 418.400000
9334 14786 9335 1 109.50000 418.400000
1900 14787 3915 1 109.50000 418.400000
1900 14787 8036 1 109.50000 418.400000
1900 14787 9336 1 109.50000 418.400000
3915 14787 8036 1 109.50000 418.400000
3915 14787 9336 1 109.50000 418.400000
8036 14787 9336 1 109.50000 418.400000
8452 14788 8989 1 109.50000 418.400000
8452 14788 9337 1 109.50000 418.400000
8452 14788 9338 1 109.50000 418.400000
8989 14788 9337 1 109.50000 418.400000
8989 14788 9338 1 109.50000 418.400000
9337 14788 9338 1 109.50000 418.400000
1114 14789 4138 1 109.50000 418.400000
1114 14789 8377 1 109.50000 418.400000
1114 14789 9339 1 109.50000 418.400000
4138 14789 8377 1 109.50000 418.400000
4138 14789 9339 1 109.50000 418.400000
8377 14789 9339 1 109.50000 418.400000
4962 14790 9340 1 109.50000 418.400000
4962 14790 9341 1 109.50000 418.400000
4962 14790 10737 1 109.50000 418.400000
9340 14790 9341 1 109.50000 418.400000
9340 14790 10737 1 109.50000 418.400000
9341 14790 10737 1 109.50000 418.400000
831 14791 1680 1 109.50000 418.400000
831 14791 9342 1 109.50000 418.400000
831 14791 9343 1 109.50000 418.400000
1680 14791 9342 1 109.50000 418.400000
1680 14791 9343 1 109.50000 418.400000
9342 14791 9343 1 109.50000 418.400000
2618 14792 2805 1 109.50000 418.400000
2618 14792 9344 1 109.50000 418.400000
2618 14792 9345 1 109.50000 418.400000
2805 14792 9344 1 109.50000 418.400000
2805 14792 9345 1 109.50000 418.400000
9344 14792 9345 1 109.50000 418.400000
3675 14793 4035 1 109.50000 418.400000
3675 14793 7034 1 109.50000 418.400000
3675 14793 9346 1 109.50000 418.400000
4035 14793 7034 1 109.50000 418.400000
4035 14793 9346 1 109.50000 418.400000
7034 14793 9346 1 109.50000 418.400000
3621 14794 6193 1 109.50000 418.400000
3621 14794 7327 1 109.50000 418.400000
3621 14794 9347 1 109.50000 418.400000
6193 14794 7327 1 109.50000 418.400000
6193 14794 9347 1 109.50000 418.400000
7327 14794 9347 1 109.50000 418.400000
8368 14795 9054 1 109.50000 418.400000
8368 14795 9348 1 109.50000 418.400000
8368 14795 11444 1 109.50000 418.400000
9054 14795 9348 1 109.50000 418.400000
9054 14795 11444 1 109.50000 418.400000
9348 14795 11444 1 109.50000 418.400000
886 14796 6635 1 109.50000 418.400000
886 14796 9151 1 109.50000 418.400000
886 14796 9349 1 109.50000 418.400000
6635 14796 9151 1 109.50000 418.400000
6635 14796 9349 1 109.50000 418.400000
9151 14796 9349 1 109.50000 418.400000
4173 14797 7977 1 109.50000 418.400000
4173 14797 8976 1 109.50000 418.400000
4173 14797 9350 1 109.50000 418.400000
7977 14797 8976 1 109.50000 418.400000
7977 14797 9350 1 109.50000 418.400000
8976 14797 9350 1 109.50000 418.400000
1607 14798 5689 1 109.50000 418.400000
1607 14798 9351 1 109.50000 418.400000
1607 14798 9352 1 109.50000 418.400000
5689 14798 9351 1 109.50000 418.400000
5689 14798 9352 1 109.50000 418.400000
9351 14798 9352 1 109.50000 418.400000
6335 14799 6384 1 109.50000 418.400000
6335 14799 9353 1 109.50000 418.400000
6335 14799 11172 1 109.50000 418.400000
6384 14799 9353 1 109.50000 418.400000
6384 14799 11172 1 109.50000 418.400000
9353 14799 11172 1 109.50000 418.400000
49 14800 766 1 109.50000 418.400000
49 14800 5432 1 109.50000 418.400000
49 14800 9354 1 109.50000 418.400000
766 14800 5432 1 109.50000 418.400000
766 14800 9354 1 109.50000 418.400000
5432 14800 9354 1 109.50000 418.400000
6212 14801 8623 1 109.50000 418.400000
6212 14801 9355 1 109.50000 418.400000
6212 14801 9356 1 109.50000 418.400000
8623 14801 9355 1 109.50000 418.400000
8623 14801 9356 1 109.50000 418.400000
9355 14801 9356 1 109.50000 418.400000
666 14802 1511 1 109.50000 418.400000
666 14802 3824 1 109.50000 418.400000
666 14802 9357 1 109.50000 418.400000
1511 14802 3824 1 109.50000 418.400000
1511 14802 9357 1 109.50000 418.400000
3824 14802 9357 1 109.50000 418.400000
6980 14803 7277 1 109.50000 418.400000
6980 14803 9358 1 109.50000 418.400000
6980 14803 9360 1 109.50000 418.400000
7277 14803 9358 1 109.50000 418.400000
7277 14803 9360 1 109.50000 418.400000
9358 14803 9360 1 109.50000 418.400000
2533 14804 4472 1 109.50000 418.400000
2533 14804 6972 1 109.50000 418.400000
2533 14804 9361 1 109.50000 418.400000
4472 14804 6972 1 109.50000 418.400000
4472 14804 9361 1 109.50000 418.400000
6972 14804 9361 1 109.50000 418.400000
6539 14805 6757 1 109.50000 418.400000
6539 14805 8948 1 109.50000 418.400000
6539 14805 9216 1 109.50000 418.400000
6757 14805 8948 1 109.50000 418.400000
6757 14805 9216 1 109.50000 418.400000
8948 14805 9216 1 109.50000 418.400000
2767 14806 7872 1 109.50000 418.400000
2767 14806 9363 1 109.50000 418.400000
2767 14806 9364 1 109.50000 418.400000
7872 14806 9363 1 109.50000 418.400000
7872 14806 9364 1 109.50000 418.400000
9363 14806 9364 1 109.50000 418.400000
6996 14807 9365 1 109.50000 418.400000
6996 14807 9366 1 109.50000 418.400000
6996 14807 9367 1 109.50000 418.400000
9365 14807 9366 1 109.50000 418.400000
9365 14807 9367 1 109.50000 418.400000
9366 14807 9367 1 109.50000 418.400000
6453 14808 6631 1 109.50000 418.400000
6453 14808 9368 1 109.50000 418.400000
6453 14808 9369 1 109.50000 418.400000
6631 14808 9368 1 109.50000 418.400000
6631 14808 9369 1 109.50000 418.400000
9368 14808 9369 1 109.50000 418.400000
7410 14809 7901 1 109.50000 418.400000
7410 14809 7919 1 109.50000 418.400000
7410 14809 9370 1 109.50000 418.400000
7901 14809 7919 1 109.50000 418.400000
7901 14809 9370 1 109.50000 418.400000
7919 14809 9370 1 109.50000 418.400000
236 14810 6964 1 109.50000 418.400000
236 14810 9371 1 109.50000 418.400000
236 14810 9372 1 109.50000 418.400000
6964 14810 9371 1 109.50000 418.400000
6964 14810 9372 1 109.50000 418.400000
9371 14810 9372 1 109.50000 418.400000
963 14811 2448 1 109.50000 418.400000
963 14811 6846 1 109.50000 418.400000
963 14811 9373 1 109.50000 418.400000
2448 14811 6846 1 109.50000 418.400000
2448 14811 9373 1 109.50000 418.400000
6846 14811 9373 1 109.50000 418.400000
3449 14812 5026 1 109.50000 418.400000
3449 14812 9374 1 109.50000 418.400000
3449 14812 10082 1 109.50000 418.400000
5026 14812 9374 1 109.50000 418.400000
5026 14812 10082 1 109.50000 418.400000
9374 14812 10082 1 109.50000 418.400000
2783 14813 8277 1 109.50000 418.400000
2783 14813 9376 1 109.50000 418.400000
2783 14813 9377 1 109.50000 418.400000
8277 14813 9376 1 109.50000 418.400000
8277 14813 9377 1 109.50000 418.400000
9376 14813 9377 1 109.50000 418.400000
42 14814 9378 1 109.50000 418.400000
42 14814 9379 1 109.50000 418.400000
42 14814 9777 1 109.50000 418.400000
9378 14814 9379 1 109.50000 418.400000
9378 14814 9777 1 109.50000 418.400000
9379 14814 9777 1 109.50000 418.400000
3812 14815 3815 1 109.50000 418.400000
3812 14815 9380 1 109.50000 418.400000
3812 14815 9381 1 109.50000 418.400000
3815 14815 9380 1 109.50000 418.400000
3815 14815 9381 1 109.50000 418.400000
9380 14815 9381 1 109.50000 418.400000
6779 14816 9382 1 109.50000 418.400000
6779 14816 9383 1 109.50000 418.400000
6779 14816 9485 1 109.50000 418.400000
9382 14816 9383 1 109.50000 418.400000
9382 14816 9485 1 109.50000 418.400000
9383 14816 9485 1 109.50000 418.400000
845 14817 3628 1 109.50000 418.400000
845 14817 5348 1 109.50000 418.400000
845 14817 11149 1 109.50000 418.400000
3628 14817 5348 1 109.50000 418.400000
3628 14817 11149 1 109.50000 418.400000
5348 14817 11149 1 109.50000 418.400000
5715 14818 6813 1 109.50000 418.400000
5715 14818 7665 1 109.50000 418.400000
5715 14818 9384 1 109.50000 418.400000
6813 14818 7665 1 109.50000 418.400000
6813 14818 9384 1 109.50000 418.400000
7665 14818 9384 1 109.50000 418.400000
8203 14819 9385 1 109.50000 418.400000
8203 14819 9386 1 109.50000 418.400000
8203 14819 9387 1 109.50000 418.400000
9385 14819 9386 1 109.50000 418.400000
9385 14819 9387 1 109.50000 418.400000
9386 14819 9387 1 109.50000 418.400000
1789 14820 8357 1 109.50000 418.400000
1789 14820 9389 1 109.50000 418.400000
1789 14820 9390 1 109.50000 418.400000
8357 14820 9389 1 109.50000 418.400000
8357 14820 9390 1 109.50000 418.400000
9389 14820 9390 1 109.50000 418.400000
5241 14821 6703 1 109.50000 418.400000
5241 14821 6704 1 109.50000 418.400000
5241 14821 9391 1 109.50000 418.400000
6703 14821 6704 1 109.50000 418.400000
6703 14821 9391 1 109.50000 418.400000
6704 14821 9391 1 109.50000 418.400000
4935 14822 5939 1 109.50000 418.400000
4935 14822 8441 1 109.50000 418.400000
4935 14822 9392 1 109.50000 418.400000
5939 14822 8441 1 109.50000 418.400000
5939 14822 9392 1 109.50000 418.400000
8441 14822 9392 1 109.50000 418.400000
7067 14823 9393 1 109.50000 418.400000
7067 14823 9394 1 109.50000 418.400000
7067 14823 9395 1 109.50000 418.400000
9393 14823 9394 1 109.50000 418.400000
9393 14823 9395 1 109.50000 418.400000
9394 14823 9395 1 109.50000 418.400000
5470 14824 6472 1 109.50000 418.400000
5470 14824 8797 1 109.50000 418.400000
5470 14824 9396 1 109.50000 418.400000
6472 14824 8797 1 109.50000 418.400000
6472 14824 9396 1 109.50000 418.400000
8797 14824 9396 1 109.50000 418.400000
663 14825 2803 1 109.50000 418.400000
663 14825 5494 1 109.50000 418.400000
663 14825 7731 1 109.50000 418.400000
2803 14825 5494 1 109.50000 418.400000
2803 14825 7731 1 109.50000 418.400000
5494 14825 7731 1 109.50000 418.400000
2722 14826 9397 1 109.50000 418.400000
2722 14826 9398 1 109.50000 418.400000
2722 14826 9399 1 109.50000 418.400000
9397 14826 9398 1 109.50000 418.400000
9397 14826 9399 1 109.50000 418.400000
9398 14826 9399 1 109.50000 418.400000
2225 14827 4310 1 109.50000 418.400000
2225 14827 5569 1 109.50000 418.400000
2225 14827 9400 1 109.50000 418.400000
4310 14827 5569 1 109.50000 418.400000
4310 14827 9400 1 109.50000 418.400000
5569 14827 9400 1 109.50000 418.400000
4296 14828 6111 1 109.50000 418.400000
4296 14828 7651 1 109.50000 418.400000
4296 14828 9401 1 109.50000 418.400000
6111 14828 7651 1 109.50000 418.400000
6111 14828 9401 1 109.50000 418.400000
7651 14828 9401 1 109.50000 418.400000
7784 14829 7785 1 109.50000 418.400000
7784 14829 9402 1 109.50000 418.400000
7784 14829 9403 1 109.50000 418.400000
7785 14829 9402 1 109.50000 418.400000
7785 14829 9403 1 109.50000 418.400000
9402 14829 9403 1 109.50000 418.400000
3545 14830 7622 1 109.50000 418.400000
3545 14830 8481 1 109.50000 418.400000
3545 14830 9404 1 109.50000 418.400000
7622 14830 8481 1 109.50000 418.400000
7622 14830 9404 1 109.50000 418.400000
8481 14830 9404 1 109.50000 418.400000
2292 14831 4925 1 109.50000 418.400000
2292 14831 7393 1 109.50000 418.400000
2292 14831 8660 1 109.50000 418.400000
4925 14831 7393 1 109.50000 418.400000
4925 14831 8660 1 109.50000 418.400000
7393 14831 8660 1 109.50000 418.400000
1907 14832 4440 1 109.50000 418.400000
1907 14832 4843 1 109.50000 418.400000
1907 14832 8652 1 109.50000 418.400000
4440 14832 4843 1 109.50000 418.400000
4440 14832 8652 1 109.50000 418.400000
4843 14832 8652 1 109.50000 418.400000
1270 14833 1321 1 109.50000 418.400000
1270 14833 7295 1 109.50000 418.400000
1270 14833 9406 1 109.50000 418.400000
1321 14833 7295 1 109.50000 418.400000
1321 14833 9406 1 109.50000 418.400000
7295 14833 9406 1 109.50000 418.400000
7640 14834 8356 1 109.50000 418.400000
7640 14834 9407 1 109.50000 418.400000
7640 14834 9408 1 109.50000 418.400000
8356 14834 9407 1 109.50000 418.400000
8356 14834 9408 1 109.50000 418.400000
9407 14834 9408 1 109.50000 418.400000
195 14835 3958 1 109.50000 418.400000
195 14835 7728 1 109.50000 418.400000
195 14835 9409 1 109.50000 418.400000
3958 14835 7728 1 109.50000 418.400000
3958 14835 9409 1 109.50000 418.400000
7728 14835 9409 1 109.50000 418.400000
288 14836 4007 1 109.50000 418.400000
288 14836 9410 1 109.50000 418.400000
288 14836 9411 1 109.50000 418.400000
4007 14836 9410 1 109.50000 418.400000
4007 14836 9411 1 109.50000 418.400000
9410 14836 9411 1 109.50000 418.400000
3452 14837 5127 1 109.50000 418.400000
3452 14837 9412 1 109.50000 418.400000
3452 14837 9413 1 109.50000 418.400000
5127 14837 9412 1 109.50000 418.400000
5127 14837 9413 1 109.50000 418.400000
9412 14837 9413 1 109.50000 418.400000
3361 14838 4473 1 109.50000 418.400000
3361 14838 8001 1 109.50000 418.400000
3361 14838 9414 1 109.50000 418.400000
4473 14838 8001 1 109.50000 418.400000
4473 14838 9414 1 109.50000 418.400000
8001 14838 9414 1 109.50000 418.400000
9415 14839 9416 1 109.50000 418.400000
9415 14839 9417 1 109.50000 418.400000
9415 14839 9418 1 109.50000 418.400000
9416 14839 9417 1 109.50000 418.400000
9416 14839 9418 1 109.50000 418.400000
9417 14839 9418 1 109.50000 418.400000
2508 14840 2668 1 109.50000 418.400000
2508 14840 7837 1 109.50000 418.400000
2508 14840 9419 1 109.50000 418.400000
2668 14840 7837 1 109.50000 418.400000
2668 14840 9419 1 109.50000 418.400000
7837 14840 9419 1 109.50000 418.400000
5895 14841 9420 1 109.50000 418.400000
5895 14841 9421 1 109.50000 418.400000
5895 14841 9422 1 109.50000 418.400000
9420 14841 9421 1 109.50000 418.400000
9420 14841 9422 1 109.50000 418.400000
9421 14841 9422 1 109.50000 418.400000
2889 14842 9423 1 109.50000 418.400000
2889 14842 9424 1 109.50000 418.400000
2889 14842 9425 1 109.50000 418.400000
9423 14842 9424 1 109.50000 418.400000
9423 14842 9425 1 109.50000 418.400000
9424 14842 9425 1 109.50000 418.400000
3792 14843 5682 1 109.50000 418.400000
3792 14843 7683 1 109.50000 418.400000
3792 14843 9426 1 109.50000 418.400000
5682 14843 7683 1 109.50000 418.400000
5682 14843 9426 1 109.50000 418.400000
7683 14843 9426 1 109.50000 418.400000
1582 14844 4289 1 109.50000 418.400000
1582 14844 6292 1 109.50000 418.400000
1582 14844 9427 1 109.50000 418.400000
4289 14844 6292 1 109.50000 418.400000
4289 14844 9427 1 109.50000 418.400000
6292 14844 9427 1 109.50000 418.400000
881 14845 7866 1 109.50000 418.400000
881 14845 9428 1 109.50000 418.400000
881 14845 9429 1 109.50000 418.400000
7866 14845 9428 1 109.50000 418.400000
7866 14845 9429 1 109.50000 418.400000
9428 14845 9429 1 109.50000 418.400000
5504 14846 9430 1 109.50000 418.400000
5504 14846 11257 1 109.50000 418.400000
5504 14846 11482 1 109.50000 418.400000
9430 14846 11257 1 109.50000 418.400000
9430 14846 11482 1 109.50000 418.400000
11257 14846 11482 1 109.50000 418.400000
7507 14847 7508 1 109.50000 418.400000
7507 14847 8392 1 109.50000 418.400000
7507 14847 9431 1 109.50000 418.400000
7508 14847 8392 1 109.50000 418.400000
7508 14847 9431 1 109.50000 418.400000
8392 14847 9431 1 109.50000 418.400000
2434 14848 9432 1 109.50000 418.400000
2434 14848 9433 1 109.50000 418.400000
2434 14848 9567 1 109.50000 418.400000
9432 14848 9433 1 109.50000 418.400000
9432 14848 9567 1 109.50000 418.400000
9433 14848 9567 1 109.50000 418.400000
4233 14849 7371 1 109.50000 418.400000
4233 14849 7384 1 109.50000 418.400000
4233 14849 9434 1 109.50000 418.400000
7371 14849 7384 1 109.50000 418.400000
7371 14849 9434 1 109.50000 418.400000
7384 14849 9434 1 109.50000 418.400000
1191 14850 4169 1 109.50000 418.400000
1191 14850 9435 1 109.50000 418.400000
1191 14850 9436 1 109.50000 418.400000
4169 14850 9435 1 109.50000 418.400000
4169 14850 9436 1 109.50000 418.400000
9435 14850 9436 1 109.50000 418.400000
703 14851 1322 1 109.50000 418.400000
703 14851 1804 1 109.50000 418.400000
703 14851 9437 1 109.50000 418.400000
1322 14851 1804 1 109.50000 418.400000
1322 14851 9437 1 109.50000 418.400000
1804 14851 9437 1 109.50000 418.400000
713 14852 2250 1 109.50000 418.400000
713 14852 3931 1 109.50000 418.400000
713 14852 5756 1 109.50000 418.400000
2250 14852 3931 1 109.50000 418.400000
2250 14852 5756 1 109.50000 418.400000
3931 14852 5756 1 109.50000 418.400000
6984 14853 8131 1 109.50000 418.400000
6984 14853 9438 1 109.50000 418.400000
6984 14853 9439 1 109.50000 418.400000
8131 14853 9438 1 109.50000 418.400000
8131 14853 9439 1 109.50000 418.400000
9438 14853 9439 1 109.50000 418.400000
1778 14854 5868 1 109.50000 418.400000
1778 14854 7445 1 109.50000 418.400000
1778 14854 9440 1 109.50000 418.400000
5868 14854 7445 1 109.50000 418.400000
5868 14854 9440 1 109.50000 418.400000
7445 14854 9440 1 109.50000 418.400000
5235 14855 9094 1 109.50000 418.400000
5235 14855 9250 1 109.50000 418.400000
5235 14855 9441 1 109.50000 418.400000
9094 14855 9250 1 109.50000 418.400000
9094 14855 9441 1 109.50000 418.400000
9250 14855 9441 1 109.50000 418.400000
5122 14856 8886 1 109.50000 418.400000
5122 14856 9442 1 109.50000 418.400000
5122 14856 9443 1 109.50000 418.400000
8886 14856 9442 1 109.50000 418.400000
8886 14856 9443 1 109.50000 418.400000
9442 14856 9443 1 109.50000 418.400000
3042 14857 7664 1 109.50000 418.400000
3042 14857 7726 1 109.50000 418.400000
3042 14857 9444 1 109.50000 418.400000
7664 14857 7726 1 109.50000 418.400000
7664 14857 9444 1 109.50000 418.400000
7726 14857 9444 1 109.50000 418.400000
9227 14858 9445 1 109.50000 418.400000
9227 14858 9446 1 109.50000 418.400000
9227 14858 9447 1 109.50000 418.400000
9445 14858 9446 1 109.50000 418.400000
9445 14858 9447 1 109.50000 418.400000
9446 14858 9447 1 109.50000 418.400000
6726 14859 9448 1 109.50000 418.400000
6726 14859 9449 1 109.50000 418.400000
6726 14859 9450 1 109.50000 418.400000
9448 14859 9449 1 109.50000 418.400000
9448 14859 9450 1 109.50000 418.400000
9449 14859 9450 1 109.50000 418.400000
2968 14860 7698 1 109.50000 418.400000
2968 14860 8410 1 109.50000 418.400000
2968 14860 9451 1 109.50000 418.400000
7698 14860 8410 1 109.50000 418.400000
7698 14860 9451 1 109.50000 418.400000
8410 14860 9451 1 109.50000 418.400000
6608 14861 7332 1 109.50000 418.400000
6608 14861 9453 1 109.50000 418.400000
6608 14861 9454 1 109.50000 418.400000
7332 14861 9453 1 109.50000 418.400000
7332 14861 9454 1 109.50000 418.400000
9453 14861 9454 1 109.50000 418.400000
1429 14862 5558 1 109.50000 418.400000
1429 14862 7840 1 109.50000 418.400000
1429 14862 9455 1 109.50000 418.400000
5558 14862 7840 1 109.50000 418.400000
5558 14862 9455 1 109.50000 418.400000
7840 14862 9455 1 109.50000 418.400000
9102 14863 9282 1 109.50000 418.400000
9102 14863 9412 1 109.50000 418.400000
9102 14863 9457 1 109.50000 418.400000
9282 14863 9412 1 109.50000 418.400000
9282 14863 9457 1 109.50000 418.400000
9412 14863 9457 1 109.50000 418.400000
1240 14864 2991 1 109.50000 418.400000
1240 14864 9458 1 109.50000 418.400000
1240 14864 11319 1 109.50000 418.400000
2991 14864 9458 1 109.50000 418.400000
2991 14864 11319 1 109.50000 418.400000
9458 14864 11319 1 109.50000 418.400000
4008 14865 8340 1 109.50000 418.400000
4008 14865 9459 1 109.50000 418.400000
4008 14865 9460 1 109.50000 418.400000
8340 14865 9459 1 109.50000 418.400000
8340 14865 9460 1 109.50000 418.400000
9459 14865 9460 1 109.50000 418.400000
890 14866 9461 1 109.50000 418.400000
890 14866 9462 1 109.50000 418.400000
890 14866 9463 1 109.50000 418.400000
9461 14866 9462 1 109.50000 418.400000
9461 14866 9463 1 109.50000 418.400000
9462 14866 9463 1 109.50000 418.400000
5257 14867 5448 1 109.50000 418.400000
5257 14867 11225 1 109.50000 418.400000
5257 14867 11450 1 109.50000 418.400000
5448 14867 11225 1 109.50000 418.400000
5448 14867 11450 1 109.50000 418.400000
11225 14867 11450 1 109.50000 418.400000
1658 14868 5822 1 109.50000 418.400000
1658 14868 8428 1 109.50000 418.400000
1658 14868 9466 1 109.50000 418.400000
5822 14868 8428 1 109.50000 418.400000
5822 14868 9466 1 109.50000 418.400000
8428 14868 9466 1 109.50000 418.400000
3126 14869 7774 1 109.50000 418.400000
3126 14869 9467 1 109.50000 418.400000
3126 14869 9468 1 109.50000 418.400000
7774 14869 9467 1 109.50000 418.400000
7774 14869 9468 1 109.50000 418.400000
9467 14869 9468 1 109.50000 418.400000
4344 14870 9469 1 109.50000 418.400000
4344 14870 9470 1 109.50000 418.400000
4344 14870 9471 1 109.50000 418.400000
9469 14870 9470 1 109.50000 418.400000
9469 14870 9471 1 109.50000 418.400000
9470 14870 9471 1 109.50000 418.400000
5169 14871 7083 1 109.50000 418.400000
5169 14871 8810 1 109.50000 418.400000
5169 14871 9187 1 109.50000 418.400000
7083 14871 8810 1 109.50000 418.400000
7083 14871 9187 1 109.50000 418.400000
8810 14871 9187 1 109.50000 418.400000
343 14872 2170 1 109.50000 418.400000
343 14872 6713 1 109.50000 418.400000
343 14872 9472 1 109.50000 418.400000
2170 14872 6713 1 109.50000 418.400000
2170 14872 9472 1 109.50000 418.400000
6713 14872 9472 1 109.50000 418.400000
1453 14873 9364 1 109.50000 418.400000
1453 14873 9473 1 109.50000 418.400000
1453 14873 9474 1 109.50000 418.400000
9364 14873 9473 1 109.50000 418.400000
9364 14873 9474 1 109.50000 418.400000
9473 14873 9474 1 109.50000 418.400000
6320 14874 9475 1 109.50000 418.400000
6320 14874 9476 1 109.50000 418.400000
6320 14874 9477 1 109.50000 418.400000
9475 14874 9476 1 109.50000 418.400000
9475 14874 9477 1 109.50000 418.400000
9476 14874 9477 1 109.50000 418.400000
308 14875 4996 1 109.50000 418.400000
308 14875 7456 1 109.50000 418.400000
308 14875 9478 1 109.50000 418.400000
4996 14875 7456 1 109.50000 418.400000
4996 14875 9478 1 109.50000 418.400000
7456 14875 9478 1 109.50000 418.400000
621 14876 5628 1 109.50000 418.400000
621 14876 9479 1 109.50000 418.400000
621 14876 9480 1 109.50000 418.400000
5628 14876 9479 1 109.50000 418.400000
5628 14876 9480 1 109.50000 418.400000
9479 14876 9480 1 109.50000 418.400000
2570 14877 5079 1 109.50000 418.400000
2570 14877 6736 1 109.50000 418.400000
2570 14877 9481 1 109.50000 418.400000
5079 14877 6736 1 109.50000 418.400000
5079 14877 9481 1 109.50000 418.400000
6736 14877 9481 1 109.50000 418.400000
6413 14878 6665 1 109.50000 418.400000
6413 14878 7234 1 109.50000 418.400000
6413 14878 9482 1 109.50000 418.400000
6665 14878 7234 1 109.50000 418.400000
6665 14878 9482 1 109.50000 418.400000
7234 14878 9482 1 109.50000 418.400000
1540 14879 2111 1 109.50000 418.400000
1540 14879 7620 1 109.50000 418.400000
1540 14879 9483 1 109.50000 418.400000
2111 14879 7620 1 109.50000 418.400000
2111 14879 9483 1 109.50000 418.400000
7620 14879 9483 1 109.50000 418.400000
485 14880 8616 1 109.50000 418.400000
485 14880 9383 1 109.50000 418.400000
485 14880 9484 1 109.50000 418.400000
8616 14880 9383 1 109.50000 418.400000
8616 14880 9484 1 109.50000 418.400000
9383 14880 9484 1 109.50000 418.400000
3896 14881 3977 1 109.50000 418.400000
3896 14881 8002 1 109.50000 418.400000
3896 14881 9487 1 109.50000 418.400000
3977 14881 8002 1 109.50000 418.400000
3977 14881 9487 1 109.50000 418.400000
8002 14881 9487 1 109.50000 418.400000
1067 14882 8957 1 109.50000 418.400000
1067 14882 9488 1 109.50000 418.400000
1067 14882 9489 1 109.50000 418.400000
8957 14882 9488 1 109.50000 418.400000
8957 14882 9489 1 109.50000 418.400000
9488 14882 9489 1 109.50000 418.400000
152 14883 8297 1 109.50000 418.400000
152 14883 9490 1 109.50000 418.400000
152 14883 9491 1 109.50000 418.400000
8297 14883 9490 1 109.50000 418.400000
8297 14883 9491 1 109.50000 418.400000
9490 14883 9491 1 109.50000 418.400000
1318 14884 8774 1 109.50000 418.400000
1318 14884 8842 1 109.50000 418.400000
1318 14884 9493 1 109.50000 418.400000
8774 14884 8842 1 109.50000 418.400000
8774 14884 9493 1 109.50000 418.400000
8842 14884 9493 1 109.50000 418.400000
5009 14885 9057 1 109.50000 418.400000
5009 14885 9452 1 109.50000 418.400000
5009 14885 9494 1 109.50000 418.400000
9057 14885 9452 1 109.50000 418.400000
9057 14885 9494 1 109.50000 418.400000
9452 14885 9494 1 109.50000 418.400000
2425 14886 3218 1 109.50000 418.400000
2425 14886 7468 1 109.50000 418.400000
2425 14886 9495 1 109.50000 418.400000
3218 14886 7468 1 109.50000 418.400000
3218 14886 9495 1 109.50000 418.400000
7468 14886 9495 1 109.50000 418.400000
1899 14887 7273 1 109.50000 418.400000
1899 14887 7591 1 109.50000 418.400000
1899 14887 9496 1 109.50000 418.400000
7273 14887 7591 1 109.50000 418.400000
7273 14887 9496 1 109.50000 418.400000
7591 14887 9496 1 109.50000 418.400000
7444 14888 8632 1 109.50000 418.400000
7444 14888 9497 1 109.50000 418.400000
7444 14888 9498 1 109.50000 418.400000
8632 14888 9497 1 109.50000 418.400000
8632 14888 9498 1 109.50000 418.400000
9497 14888 9498 1 109.50000 418.400000
3376 14889 6836 1 109.50000 418.400000
3376 14889 6837 1 109.50000 418.400000
3376 14889 9499 1 109.50000 418.400000
6836 14889 6837 1 109.50000 418.400000
6836 14889 9499 1 109.50000 418.400000
6837 14889 9499 1 109.50000 418.400000
2176 14890 9500 1 109.50000 418.400000
2176 14890 11353 1 109.50000 418.400000
2176 14890 11502 1 109.50000 418.400000
9500 14890 11353 1 109.50000 418.400000
9500 14890 11502 1 109.50000 418.400000
11353 14890 11502 1 109.50000 418.400000
7567 14891 7568 1 109.50000 418.400000
7567 14891 9230 1 109.50000 418.400000
7567 14891 11151 1 109.50000 418.400000
7568 14891 9230 1 109.50000 418.400000
7568 14891 11151 1 109.50000 418.400000
9230 14891 11151 1 109.50000 418.400000
5488 14892 9256 1 109.50000 418.400000
5488 14892 9501 1 109.50000 418.400000
5488 14892 9502 1 109.50000 418.400000
9256 14892 9501 1 109.50000 418.400000
9256 14892 9502 1 109.50000 418.400000
9501 14892 9502 1 109.50000 418.400000
2330 14893 2332 1 109.50000 418.400000
2330 14893 6201 1 109.50000 418.400000
2330 14893 11145 1 109.50000 418.400000
2332 14893 6201 1 109.50000 418.400000
2332 14893 11145 1 109.50000 418.400000
6201 14893 11145 1 109.50000 418.400000
2258 14894 6372 1 109.50000 418.400000
2258 14894 7595 1 109.50000 418.400000
2258 14894 9503 1 109.50000 418.400000
6372 14894 7595 1 109.50000 418.400000
6372 14894 9503 1 109.50000 418.400000
7595 14894 9503 1 109.50000 418.400000
2342 14895 2343 1 109.50000 418.400000
2342 14895 4493 1 109.50000 418.400000
2342 14895 9504 1 109.50000 418.400000
2343 14895 4493 1 109.50000 418.400000
2343 14895 9504 1 109.50000 418.400000
4493 14895 9504 1 109.50000 418.400000
4425 14896 9506 1 109.50000 418.400000
4425 14896 10887 1 109.50000 418.400000
4425 14896 11472 1 109.50000 418.400000
9506 14896 10887 1 109.50000 418.400000
9506 14896 11472 1 109.50000 418.400000
10887 14896 11472 1 109.50000 418.400000
1557 14897 4114 1 109.50000 418.400000
1557 14897 9507 1 109.50000 418.400000
1557 14897 9508 1 109.50000 418.400000
4114 14897 9507 1 109.50000 418.400000
4114 14897 9508 1 109.50000 418.400000
9507 14897 9508 1 109.50000 418.400000
4000 14898 5398 1 109.50000 418.400000
4000 14898 7573 1 109.50000 418.400000
4000 14898 9509 1 109.50000 418.400000
5398 14898 7573 1 109.50000 418.400000
5398 14898 9509 1 109.50000 418.400000
7573 14898 9509 1 109.50000 418.400000
4495 14899 4496 1 109.50000 418.400000
4495 14899 9511 1 109.50000 418.400000
4495 14899 9512 1 109.50000 418.400000
4496 14899 9511 1 109.50000 418.400000
4496 14899 9512 1 109.50000 418.400000
9511 14899 9512 1 109.50000 418.400000
3354 14900 3897 1 109.50000 418.400000
3354 14900 8324 1 109.50000 418.400000
3354 14900 8726 1 109.50000 418.400000
3897 14900 8324 1 109.50000 418.400000
3897 14900 8726 1 109.50000 418.400000
8324 14900 8726 1 109.50000 418.400000
9513 14901 9514 1 109.50000 418.400000
9513 14901 9515 1 109.50000 418.400000
9513 14901 9516 1 109.50000 418.400000
9514 14901 9515 1 109.50000 418.400000
9514 14901 9516 1 109.50000 418.400000
9515 14901 9516 1 109.50000 418.400000
2894 14902 2895 1 109.50000 418.400000
2894 14902 5331 1 109.50000 418.400000
2894 14902 6124 1 109.50000 418.400000
2895 14902 5331 1 109.50000 418.400000
2895 14902 6124 1 109.50000 418.400000
5331 14902 6124 1 109.50000 418.400000
3992 14903 6412 1 109.50000 418.400000
3992 14903 7243 1 109.50000 418.400000
3992 14903 9518 1 109.50000 418.400000
6412 14903 7243 1 109.50000 418.400000
6412 14903 9518 1 109.50000 418.400000
7243 14903 9518 1 109.50000 418.400000
578 14904 4001 1 109.50000 418.400000
578 14904 6675 1 109.50000 418.400000
578 14904 9519 1 109.50000 418.400000
4001 14904 6675 1 109.50000 418.400000
4001 14904 9519 1 109.50000 418.400000
6675 14904 9519 1 109.50000 418.400000
7200 14905 7301 1 109.50000 418.400000
7200 14905 9520 1 109.50000 418.400000
7200 14905 11497 1 109.50000 418.400000
7301 14905 9520 1 109.50000 418.400000
7301 14905 11497 1 109.50000 418.400000
9520 14905 11497 1 109.50000 418.400000
2762 14906 4633 1 109.50000 418.400000
2762 14906 7747 1 109.50000 418.400000
2762 14906 9521 1 109.50000 418.400000
4633 14906 7747 1 109.50000 418.400000
4633 14906 9521 1 109.50000 418.400000
7747 14906 9521 1 109.50000 418.400000
3933 14907 4850 1 109.50000 418.400000
3933 14907 5749 1 109.50000 418.400000
3933 14907 9522 1 109.50000 418.400000
4850 14907 5749 1 109.50000 418.400000
4850 14907 9522 1 109.50000 418.400000
5749 14907 9522 1 109.50000 418.400000
294 14908 6669 1 109.50000 418.400000
294 14908 9523 1 109.50000 418.400000
294 14908 9524 1 109.50000 418.400000
6669 14908 9523 1 109.50000 418.400000
6669 14908 9524 1 109.50000 418.400000
9523 14908 9524 1 109.50000 418.400000
4540 14909 8161 1 109.50000 418.400000
4540 14909 8300 1 109.50000 418.400000
4540 14909 9525 1 109.50000 418.400000
8161 14909 8300 1 109.50000 418.400000
8161 14909 9525 1 109.50000 418.400000
8300 14909 9525 1 109.50000 418.400000
8011 14910 9479 1 109.50000 418.400000
8011 14910 9526 1 109.50000 418.400000
8011 14910 11154 1 109.50000 418.400000
9479 14910 9526 1 109.50000 418.400000
9479 14910 11154 1 109.50000 418.400000
9526 14910 11154 1 109.50000 418.400000
3874 14911 9390 1 109.50000 418.400000
3874 14911 9400 1 109.50000 418.400000
3874 14911 9501 1 109.50000 418.400000
9390 14911 9400 1 109.50000 418.400000
9390 14911 9501 1 109.50000 418.400000
9400 14911 9501 1 109.50000 418.400000
1068 14912 1527 1 109.50000 418.400000
1068 14912 9527 1 109.50000 418.400000
1068 14912 9528 1 109.50000 418.400000
1527 14912 9527 1 109.50000 418.400000
1527 14912 9528 1 109.50000 418.400000
9527 14912 9528 1 109.50000 418.400000
8766 14913 9529 1 109.50000 418.400000
8766 14913 9530 1 109.50000 418.400000
8766 14913 9531 1 109.50000 418.400000
9529 14913 9530 1 109.50000 418.400000
9529 14913 9531 1 109.50000 418.400000
9530 14913 9531 1 109.50000 418.400000
1523 14914 7087 1 109.50000 418.400000
1523 14914 9533 1 109.50000 418.400000
1523 14914 9534 1 109.50000 418.400000
7087 14914 9533 1 109.50000 418.400000
7087 14914 9534 1 109.50000 418.400000
9533 14914 9534 1 109.50000 418.400000
589 14915 8784 1 109.50000 418.400000
589 14915 9426 1 109.50000 418.400000
589 14915 9535 1 109.50000 418.400000
8784 14915 9426 1 109.50000 418.400000
8784 14915 9535 1 109.50000 418.400000
9426 14915 9535 1 109.50000 418.400000
648 14916 3438 1 109.50000 418.400000
648 14916 9536 1 109.50000 418.400000
648 14916 9537 1 109.50000 418.400000
3438 14916 9536 1 109.50000 418.400000
3438 14916 9537 1 109.50000 418.400000
9536 14916 9537 1 109.50000 418.400000
3571 14917 7100 1 109.50000 418.400000
3571 14917 9538 1 109.50000 418.400000
3571 14917 9539 1 109.50000 418.400000
7100 14917 9538 1 109.50000 418.400000
7100 14917 9539 1 109.50000 418.400000
9538 14917 9539 1 109.50000 418.400000
6598 14918 7080 1 109.50000 418.400000
6598 14918 7082 1 109.50000 418.400000
6598 14918 9540 1 109.50000 418.400000
7080 14918 7082 1 109.50000 418.400000
7080 14918 9540 1 109.50000 418.400000
7082 14918 9540 1 109.50000 418.400000
9541 14919 9542 1 109.50000 418.400000
9541 14919 9543 1 109.50000 418.400000
9541 14919 9544 1 109.50000 418.400000
9542 14919 9543 1 109.50000 418.400000
9542 14919 9544 1 109.50000 418.400000
9543 14919 9544 1 109.50000 418.400000
3420 14920 3820 1 109.50000 418.400000
3420 14920 7973 1 109.50000 418.400000
3420 14920 9545 1 109.50000 418.400000
3820 14920 7973 1 109.50000 418.400000
3820 14920 9545 1 109.50000 418.400000
7973 14920 9545 1 109.50000 418.400000
962 14921 1012 1 109.50000 418.400000
962 14921 8744 1 109.50000 418.400000
962 14921 9546 1 109.50000 418.400000
1012 14921 8744 1 109.50000 418.400000
1012 14921 9546 1 109.50000 418.400000
8744 14921 9546 1 109.50000 418.400000
9547 14922 9548 1 109.50000 418.400000
9547 14922 11174 1 109.50000 418.400000
9547 14922 11516 1 109.50000 418.400000
9548 14922 11174 1 109.50000 418.400000
9548 14922 11516 1 109.50000 418.400000
11174 14922 11516 1 109.50000 418.400000
6658 14923 6825 1 109.50000 418.400000
6658 14923 7098 1 109.50000 418.400000
6658 14923 8665 1 109.50000 418.400000
6825 14923 7098 1 109.50000 418.400000
6825 14923 8665 1 109.50000 418.400000
7098 14923 8665 1 109.50000 418.400000
2986 14924 4060 1 109.50000 418.400000
2986 14924 11204 1 109.50000 418.400000
2986 14924 11457 1 109.50000 418.400000
4060 14924 11204 1 109.50000 418.400000
4060 14924 11457 1 109.50000 418.400000
11204 14924 11457 1 109.50000 418.400000
2485 14925 4711 1 109.50000 418.400000
2485 14925 9550 1 109.50000 418.400000
2485 14925 9551 1 109.50000 418.400000
4711 14925 9550 1 109.50000 418.400000
4711 14925 9551 1 109.50000 418.400000
9550 14925 9551 1 109.50000 418.400000
8009 14926 9552 1 109.50000 418.400000
8009 14926 9553 1 109.50000 418.400000
8009 14926 9554 1 109.50000 418.400000
9552 14926 9553 1 109.50000 418.400000
9552 14926 9554 1 109.50000 418.400000
9553 14926 9554 1 109.50000 418.400000
5295 14927 9015 1 109.50000 418.400000
5295 14927 9016 1 109.50000 418.400000
5295 14927 9555 1 109.50000 418.400000
9015 14927 9016 1 109.50000 418.400000
9015 14927 9555 1 109.50000 418.400000
9016 14927 9555 1 109.50000 418.400000
944 14928 4758 1 109.50000 418.400000
944 14928 9556 1 109.50000 418.400000
944 14928 9557 1 109.50000 418.400000
4758 14928 9556 1 109.50000 418.400000
4758 14928 9557 1 109.50000 418.400000
9556 14928 9557 1 109.50000 418.400000
6862 14929 7196 1 109.50000 418.400000
6862 14929 9559 1 109.50000 418.400000
6862 14929 9560 1 109.50000 418.400000
7196 14929 9559 1 109.50000 418.400000
7196 14929 9560 1 109.50000 418.400000
9559 14929 9560 1 109.50000 418.400000
2754 14930 2756 1 109.50000 418.400000
2754 14930 9561 1 109.50000 418.400000
2754 14930 9562 1 109.50000 418.400000
2756 14930 9561 1 109.50000 418.400000
2756 14930 9562 1 109.50000 418.400000
9561 14930 9562 1 109.50000 418.400000
5462 14931 9563 1 109.50000 418.400000
5462 14931 11165 1 109.50000 418.400000
5462 14931 11426 1 109.50000 418.400000
9563 14931 11165 1 109.50000 418.400000
9563 14931 11426 1 109.50000 418.400000
11165 14931 11426 1 109.50000 418.400000
3793 14932 6976 1 109.50000 418.400000
3793 14932 8823 1 109.50000 418.400000
3793 14932 9564 1 109.50000 418.400000
6976 14932 8823 1 109.50000 418.400000
6976 14932 9564 1 109.50000 418.400000
8823 14932 9564 1 109.50000 418.400000
7168 14933 9144 1 109.50000 418.400000
7168 14933 9565 1 109.50000 418.400000
7168 14933 9566 1 109.50000 418.400000
9144 14933 9565 1 109.50000 418.400000
9144 14933 9566 1 109.50000 418.400000
9565 14933 9566 1 109.50000 418.400000
594 14934 2960 1 109.50000 418.400000
594 14934 6107 1 109.50000 418.400000
594 14934 9432 1 109.50000 418.400000
2960 14934 6107 1 109.50000 418.400000
2960 14934 9432 1 109.50000 418.400000
6107 14934 9432 1 109.50000 418.400000
2498 14935 9568 1 109.50000 418.400000
2498 14935 11178 1 109.50000 418.400000
2498 14935 11523 1 109.50000 418.400000
9568 14935 11178 1 109.50000 418.400000
9568 14935 11523 1 109.50000 418.400000
11178 14935 11523 1 109.50000 418.400000
8899 14936 9184 1 109.50000 418.400000
8899 14936 9569 1 109.50000 418.400000
8899 14936 9570 1 109.50000 418.400000
9184 14936 9569 1 109.50000 418.400000
9184 14936 9570 1 109.50000 418.400000
9569 14936 9570 1 109.50000 418.400000
2265 14937 5723 1 109.50000 418.400000
2265 14937 8306 1 109.50000 418.400000
2265 14937 9571 1 109.50000 418.400000
5723 14937 8306 1 109.50000 418.400000
5723 14937 9571 1 109.50000 418.400000
8306 14937 9571 1 109.50000 418.400000
2835 14938 6895 1 109.50000 418.400000
2835 14938 8323 1 109.50000 418.400000
2835 14938 9487 1 109.50000 418.400000
6895 14938 8323 1 109.50000 418.400000
6895 14938 9487 1 109.50000 418.400000
8323 14938 9487 1 109.50000 418.400000
1887 14939 8132 1 109.50000 418.400000
1887 14939 9513 1 109.50000 418.400000
1887 14939 9572 1 109.50000 418.400000
8132 14939 9513 1 109.50000 418.400000
8132 14939 9572 1 109.50000 418.400000
9513 14939 9572 1 109.50000 418.400000
1380 14940 6145 1 109.50000 418.400000
1380 14940 8878 1 109.50000 418.400000
1380 14940 9573 1 109.50000 418.400000
6145 14940 8878 1 109.50000 418.400000
6145 14940 9573 1 109.50000 418.400000
8878 14940 9573 1 109.50000 418.400000
6649 14941 8232 1 109.50000 418.400000
6649 14941 9574 1 109.50000 418.400000
6649 14941 9575 1 109.50000 418.400000
8232 14941 9574 1 109.50000 418.400000
8232 14941 9575 1 109.50000 418.400000
9574 14941 9575 1 109.50000 418.400000
3928 14942 4865 1 109.50000 418.400000
3928 14942 9576 1 109.50000 418.400000
3928 14942 9577 1 109.50000 418.400000
4865 14942 9576 1 109.50000 418.400000
4865 14942 9577 1 109.50000 418.400000
9576 14942 9577 1 109.50000 418.400000
1542 14943 1707 1 109.50000 418.400000
1542 14943 6917 1 109.50000 418.400000
1542 14943 9578 1 109.50000 418.400000
1707 14943 6917 1 109.50000 418.400000
1707 14943 9578 1 109.50000 418.400000
6917 14943 9578 1 109.50000 418.400000
1051 14944 3068 1 109.50000 418.400000
1051 14944 3356 1 109.50000 418.400000
1051 14944 9579 1 109.50000 418.400000
3068 14944 3356 1 109.50000 418.400000
3068 14944 9579 1 109.50000 418.400000
3356 14944 9579 1 109.50000 418.400000
3981 14945 6331 1 109.50000 418.400000
3981 14945 7906 1 109.50000 418.400000
3981 14945 9580 1 109.50000 418.400000
6331 14945 7906 1 109.50000 418.400000
6331 14945 9580 1 109.50000 418.400000
7906 14945 9580 1 109.50000 418.400000
3602 14946 9581 1 109.50000 418.400000
3602 14946 9582 1 109.50000 418.400000
3602 14946 9583 1 109.50000 418.400000
9581 14946 9582 1 109.50000 418.400000
9581 14946 9583 1 109.50000 418.400000
9582 14946 9583 1 109.50000 418.400000
2734 14947 3669 1 109.50000 418.400000
2734 14947 7848 1 109.50000 418.400000
2734 14947 8593 1 109.50000 418.400000
3669 14947 7848 1 109.50000 418.400000
3669 14947 8593 1 109.50000 418.400000
7848 14947 8593 1 109.50000 418.400000
2293 14948 6511 1 109.50000 418.400000
2293 14948 8684 1 109.50000 418.400000
2293 14948 9318 1 109.50000 418.400000
6511 14948 8684 1 109.50000 418.400000
6511 14948 9318 1 109.50000 418.400000
8684 14948 9318 1 109.50000 418.400000
917 14949 8568 1 109.50000 418.400000
917 14949 9584 1 109.50000 418.400000
917 14949 9585 1 109.50000 418.400000
8568 14949 9584 1 109.50000 418.400000
8568 14949 9585 1 109.50000 418.400000
9584 14949 9585 1 109.50000 418.400000
2008 14950 2185 1 109.50000 418.400000
2008 14950 2846 1 109.50000 418.400000
2008 14950 9586 1 109.50000 418.400000
2185 14950 2846 1 109.50000 418.400000
2185 14950 9586 1 109.50000 418.400000
2846 14950 9586 1 109.50000 418.400000
166 14951 5065 1 109.50000 418.400000
166 14951 5645 1 109.50000 418.400000
166 14951 9587 1 109.50000 418.400000
5065 14951 5645 1 109.50000 418.400000
5065 14951 9587 1 109.50000 418.400000
5645 14951 9587 1 109.50000 418.400000
9000 14952 9588 1 109.50000 418.400000
9000 14952 9589 1 109.50000 418.400000
9000 14952 9590 1 109.50000 418.400000
9588 14952 9589 1 109.50000 418.400000
9588 14952 9590 1 109.50000 418.400000
9589 14952 9590 1 109.50000 418.400000
968 14953 3429 1 109.50000 418.400000
968 14953 6790 1 109.50000 418.400000
968 14953 9006 1 109.50000 418.400000
3429 14953 6790 1 109.50000 418.400000
3429 14953 9006 1 109.50000 418.400000
6790 14953 9006 1 109.50000 418.400000
1806 14954 5280 1 109.50000 418.400000
1806 14954 9591 1 109.50000 418.400000
1806 14954 9592 1 109.50000 418.400000
5280 14954 9591 1 109.50000 418.400000
5280 14954 9592 1 109.50000 418.400000
9591 14954 9592 1 109.50000 418.400000
7717 14955 8973 1 109.50000 418.400000
7717 14955 9593 1 109.50000 418.400000
7717 14955 9594 1 109.50000 418.400000
8973 14955 9593 1 109.50000 418.400000
8973 14955 9594 1 109.50000 418.400000
9593 14955 9594 1 109.50000 418.400000
3382 14956 8422 1 109.50000 418.400000
3382 14956 9595 1 109.50000 418.400000
3382 14956 9596 1 109.50000 418.400000
8422 14956 9595 1 109.50000 418.400000
8422 14956 9596 1 109.50000 418.400000
9595 14956 9596 1 109.50000 418.400000
1413 14957 8061 1 109.50000 418.400000
1413 14957 9598 1 109.50000 418.400000
1413 14957 9599 1 109.50000 418.400000
8061 14957 9598 1 109.50000 418.400000
8061 14957 9599 1 109.50000 418.400000
9598 14957 9599 1 109.50000 418.400000
109 14958 4885 1 109.50000 418.400000
109 14958 8862 1 109.50000 418.400000
109 14958 9600 1 109.50000 418.400000
4885 14958 8862 1 109.50000 418.400000
4885 14958 9600 1 109.50000 418.400000
8862 14958 9600 1 109.50000 418.400000
3417 14959 7460 1 109.50000 418.400000
3417 14959 9034 1 109.50000 418.400000
3417 14959 9603 1 109.50000 418.400000
7460 14959 9034 1 109.50000 418.400000
7460 14959 9603 1 109.50000 418.400000
9034 14959 9603 1 109.50000 418.400000
1464 14960 7570 1 109.50000 418.400000
1464 14960 9604 1 109.50000 418.400000
1464 14960 9605 1 109.50000 418.400000
7570 14960 9604 1 109.50000 418.400000
7570 14960 9605 1 109.50000 418.400000
9604 14960 9605 1 109.50000 418.400000
7399 14961 7490 1 109.50000 418.400000
7399 14961 9606 1 109.50000 418.400000
7399 14961 11146 1 109.50000 418.400000
7490 14961 9606 1 109.50000 418.400000
7490 14961 11146 1 109.50000 418.400000
9606 14961 11146 1 109.50000 418.400000
4408 14962 7875 1 109.50000 418.400000
4408 14962 9607 1 109.50000 418.400000
4408 14962 9608 1 109.50000 418.400000
7875 14962 9607 1 109.50000 418.400000
7875 14962 9608 1 109.50000 418.400000
9607 14962 9608 1 109.50000 418.400000
9609 14963 9969 1 109.50000 418.400000
9609 14963 11054 1 109.50000 418.400000
9609 14963 11055 1 109.50000 418.400000
9969 14963 11054 1 109.50000 418.400000
9969 14963 11055 1 109.50000 418.400000
11054 14963 11055 1 109.50000 418.400000
3454 14964 8792 1 109.50000 418.400000
3454 14964 9612 1 109.50000 418.400000
3454 14964 9613 1 109.50000 418.400000
8792 14964 9612 1 109.50000 418.400000
8792 14964 9613 1 109.50000 418.400000
9612 14964 9613 1 109.50000 418.400000
1646 14965 4088 1 109.50000 418.400000
1646 14965 9614 1 109.50000 418.400000
1646 14965 9615 1 109.50000 418.400000
4088 14965 9614 1 109.50000 418.400000
4088 14965 9615 1 109.50000 418.400000
9614 14965 9615 1 109.50000 418.400000
5764 14966 6274 1 109.50000 418.400000
5764 14966 6275 1 109.50000 418.400000
5764 14966 9511 1 109.50000 418.400000
6274 14966 6275 1 109.50000 418.400000
6274 14966 9511 1 109.50000 418.400000
6275 14966 9511 1 109.50000 418.400000
4581 14967 8521 1 109.50000 418.400000
4581 14967 9616 1 109.50000 418.400000
4581 14967 9617 1 109.50000 418.400000
8521 14967 9616 1 109.50000 418.400000
8521 14967 9617 1 109.50000 418.400000
9616 14967 9617 1 109.50000 418.400000
205 14968 207 1 109.50000 418.400000
205 14968 4963 1 109.50000 418.400000
205 14968 11501 1 109.50000 418.400000
207 14968 4963 1 109.50000 418.400000
207 14968 11501 1 109.50000 418.400000
4963 14968 11501 1 109.50000 418.400000
714 14969 715 1 109.50000 418.400000
714 14969 8692 1 109.50000 418.400000
714 14969 9618 1 109.50000 418.400000
715 14969 8692 1 109.50000 418.400000
715 14969 9618 1 109.50000 418.400000
8692 14969 9618 1 109.50000 418.400000
506 14970 2172 1 109.50000 418.400000
506 14970 2718 1 109.50000 418.400000
506 14970 9619 1 109.50000 418.400000
2172 14970 2718 1 109.50000 418.400000
2172 14970 9619 1 109.50000 418.400000
2718 14970 9619 1 109.50000 418.400000
81 14971 1307 1 109.50000 418.400000
81 14971 8914 1 109.50000 418.400000
81 14971 9620 1 109.50000 418.400000
1307 14971 8914 1 109.50000 418.400000
1307 14971 9620 1 109.50000 418.400000
8914 14971 9620 1 109.50000 418.400000
2922 14972 7019 1 109.50000 418.400000
2922 14972 7204 1 109.50000 418.400000
2922 14972 7534 1 109.50000 418.400000
7019 14972 7204 1 109.50000 418.400000
7019 14972 7534 1 109.50000 418.400000
7204 14972 7534 1 109.50000 418.400000
583 14973 3089 1 109.50000 418.400000
583 14973 3188 1 109.50000 418.400000
583 14973 5135 1 109.50000 418.400000
3089 14973 3188 1 109.50000 418.400000
3089 14973 5135 1 109.50000 418.400000
3188 14973 5135 1 109.50000 418.400000
4068 14974 7124 1 109.50000 418.400000
4068 14974 7126 1 109.50000 418.400000
4068 14974 7374 1 109.50000 418.400000
7124 14974 7126 1 109.50000 418.400000
7124 14974 7374 1 109.50000 418.400000
7126 14974 7374 1 109.50000 418.400000
1032 14975 9623 1 109.50000 418.400000
1032 14975 9624 1 109.50000 418.400000
1032 14975 9625 1 109.50000 418.400000
9623 14975 9624 1 109.50000 418.400000
9623 14975 9625 1 109.50000 418.400000
9624 14975 9625 1 109.50000 418.400000
8215 14976 8856 1 109.50000 418.400000
8215 14976 8910 1 109.50000 418.400000
8215 14976 9137 1 109.50000 418.400000
8856 14976 8910 1 109.50000 418.400000
8856 14976 9137 1 109.50000 418.400000
8910 14976 9137 1 109.50000 418.400000
9626 14977 9627 1 109.50000 418.400000
9626 14977 9628 1 109.50000 418.400000
9626 14977 9629 1 109.50000 418.400000
9627 14977 9628 1 109.50000 418.400000
9627 14977 9629 1 109.50000 418.400000
9628 14977 9629 1 109.50000 418.400000
1714 14978 6756 1 109.50000 418.400000
1714 14978 9630 1 109.50000 418.400000
1714 14978 9631 1 109.50000 418.400000
6756 14978 9630 1 109.50000 418.400000
6756 14978 9631 1 109.50000 418.400000
9630 14978 9631 1 109.50000 418.400000
2755 14979 9632 1 109.50000 418.400000
2755 14979 9634 1 109.50000 418.400000
2755 14979 10819 1 109.50000 418.400000
9632 14979 9634 1 109.50000 418.400000
9632 14979 10819 1 109.50000 418.400000
9634 14979 10819 1 109.50000 418.400000
977 14980 2450 1 109.50000 418.400000
977 14980 9635 1 109.50000 418.400000
977 14980 9636 1 109.50000 418.400000
2450 14980 9635 1 109.50000 418.400000
2450 14980 9636 1 109.50000 418.400000
9635 14980 9636 1 109.50000 418.400000
8181 14981 8463 1 109.50000 418.400000
8181 14981 9454 1 109.50000 418.400000
8181 14981 9637 1 109.50000 418.400000
8463 14981 9454 1 109.50000 418.400000
8463 14981 9637 1 109.50000 418.400000
9454 14981 9637 1 109.50000 418.400000
8997 14982 9235 1 109.50000 418.400000
8997 14982 9638 1 109.50000 418.400000
8997 14982 9639 1 109.50000 418.400000
9235 14982 9638 1 109.50000 418.400000
9235 14982 9639 1 109.50000 418.400000
9638 14982 9639 1 109.50000 418.400000
772 14983 7260 1 109.50000 418.400000
772 14983 7850 1 109.50000 418.400000
772 14983 9640 1 109.50000 418.400000
7260 14983 7850 1 109.50000 418.400000
7260 14983 9640 1 109.50000 418.400000
7850 14983 9640 1 109.50000 418.400000
3435 14984 5990 1 109.50000 418.400000
3435 14984 8703 1 109.50000 418.400000
3435 14984 9641 1 109.50000 418.400000
5990 14984 8703 1 109.50000 418.400000
5990 14984 9641 1 109.50000 418.400000
8703 14984 9641 1 109.50000 418.400000
9140 14985 9288 1 109.50000 418.400000
9140 14985 9642 1 109.50000 418.400000
9140 14985 9643 1 109.50000 418.400000
9288 14985 9642 1 109.50000 418.400000
9288 14985 9643 1 109.50000 418.400000
9642 14985 9643 1 109.50000 418.400000
3913 14986 7102 1 109.50000 418.400000
3913 14986 9646 1 109.50000 418.400000
3913 14986 9647 1 109.50000 418.400000
7102 14986 9646 1 109.50000 418.400000
7102 14986 9647 1 109.50000 418.400000
9646 14986 9647 1 109.50000 418.400000
6558 14987 7278 1 109.50000 418.400000
6558 14987 9648 1 109.50000 418.400000
6558 14987 11258 1 109.50000 418.400000
7278 14987 9648 1 109.50000 418.400000
7278 14987 11258 1 109.50000 418.400000
9648 14987 11258 1 109.50000 418.400000
3458 14988 4019 1 109.50000 418.400000
3458 14988 4390 1 109.50000 418.400000
3458 14988 5372 1 109.50000 418.400000
4019 14988 4390 1 109.50000 418.400000
4019 14988 5372 1 109.50000 418.400000
4390 14988 5372 1 109.50000 418.400000
6017 14989 9649 1 109.50000 418.400000
6017 14989 9650 1 109.50000 418.400000
6017 14989 9651 1 109.50000 418.400000
9649 14989 9650 1 109.50000 418.400000
9649 14989 9651 1 109.50000 418.400000
9650 14989 9651 1 109.50000 418.400000
84 14990 1388 1 109.50000 418.400000
84 14990 4400 1 109.50000 418.400000
84 14990 9652 1 109.50000 418.400000
1388 14990 4400 1 109.50000 418.400000
1388 14990 9652 1 109.50000 418.400000
4400 14990 9652 1 109.50000 418.400000
3885 14991 5130 1 109.50000 418.400000
3885 14991 9653 1 109.50000 418.400000
3885 14991 11166 1 109.50000 418.400000
5130 14991 9653 1 109.50000 418.400000
5130 14991 11166 1 109.50000 418.400000
9653 14991 11166 1 109.50000 418.400000
974 14992 4593 1 109.50000 418.400000
974 14992 6671 1 109.50000 418.400000
974 14992 9529 1 109.50000 418.400000
4593 14992 6671 1 109.50000 418.400000
4593 14992 9529 1 109.50000 418.400000
6671 14992 9529 1 109.50000 418.400000
905 14993 1534 1 109.50000 418.400000
905 14993 1719 1 109.50000 418.400000
905 14993 8768 1 109.50000 418.400000
1534 14993 1719 1 109.50000 418.400000
1534 14993 8768 1 109.50000 418.400000
1719 14993 8768 1 109.50000 418.400000
2455 14994 8091 1 109.50000 418.400000
2455 14994 9654 1 109.50000 418.400000
2455 14994 11342 1 109.50000 418.400000
8091 14994 9654 1 109.50000 418.400000
8091 14994 11342 1 109.50000 418.400000
9654 14994 11342 1 109.50000 418.400000
710 14995 3550 1 109.50000 418.400000
710 14995 8404 1 109.50000 418.400000
710 14995 9656 1 109.50000 418.400000
3550 14995 8404 1 109.50000 418.400000
3550 14995 9656 1 109.50000 418.400000
8404 14995 9656 1 109.50000 418.400000
605 14996 2683 1 109.50000 418.400000
605 14996 9657 1 109.50000 418.400000
605 14996 10521 1 109.50000 418.400000
2683 14996 9657 1 109.50000 418.400000
2683 14996 10521 1 109.50000 418.400000
9657 14996 10521 1 109.50000 418.400000
9521 14997 9658 1 109.50000 418.400000
9521 14997 9659 1 109.50000 418.400000
9521 14997 9660 1 109.50000 418.400000
9658 14997 9659 1 109.50000 418.400000
9658 14997 9660 1 109.50000 418.400000
9659 14997 9660 1 109.50000 418.400000
3769 14998 9661 1 109.50000 418.400000
3769 14998 9662 1 109.50000 418.400000
3769 14998 9663 1 109.50000 418.400000
9661 14998 9662 1 109.50000 418.400000
9661 14998 9663 1 109.50000 418.400000
9662 14998 9663 1 109.50000 418.400000
1629 14999 5897 1 109.50000 418.400000
1629 14999 9473 1 109.50000 418.400000
1629 14999 9664 1 109.50000 418.400000
5897 14999 9473 1 109.50000 418.400000
5897 14999 9664 1 109.50000 418.400000
9473 14999 9664 1 109.50000 418.400000
4808 15000 7485 1 109.50000 418.400000
4808 15000 9665 1 109.50000 418.400000
4808 15000 9666 1 109.50000 418.400000
7485 15000 9665 1 109.50000 418.400000
7485 15000 9666 1 109.50000 418.400000
9665 15000 9666 1 109.50000 418.400000
9667 15001 9668 1 109.50000 418.400000
9667 15001 9669 1 109.50000 418.400000
9667 15001 9670 1 109.50000 418.400000
9668 15001 9669 1 109.50000 418.400000
9668 15001 9670 1 109.50000 418.400000
9669 15001 9670 1 109.50000 418.400000
1745 15002 1975 1 109.50000 418.400000
1745 15002 8184 1 109.50000 418.400000
1745 15002 9671 1 109.50000 418.400000
1975 15002 8184 1 109.50000 418.400000
1975 15002 9671 1 109.50000 418.400000
8184 15002 9671 1 109.50000 418.400000
4553 15003 4556 1 109.50000 418.400000
4553 15003 9672 1 109.50000 418.400000
4553 15003 11390 1 109.50000 418.400000
4556 15003 9672 1 109.50000 418.400000
4556 15003 11390 1 109.50000 418.400000
9672 15003 11390 1 109.50000 418.400000
7126 15004 7862 1 109.50000 418.400000
7126 15004 9673 1 109.50000 418.400000
7126 15004 11405 1 109.50000 418.400000
7862 15004 9673 1 109.50000 418.400000
7862 15004 11405 1 109.50000 418.400000
9673 15004 11405 1 109.50000 418.400000
5152 15005 6367 1 109.50000 418.400000
5152 15005 7976 1 109.50000 418.400000
5152 15005 9674 1 109.50000 418.400000
6367 15005 7976 1 109.50000 418.400000
6367 15005 9674 1 109.50000 418.400000
7976 15005 9674 1 109.50000 418.400000
154 15006 9223 1 109.50000 418.400000
154 15006 9401 1 109.50000 418.400000
154 15006 9675 1 109.50000 418.400000
9223 15006 9401 1 109.50000 418.400000
9223 15006 9675 1 109.50000 418.400000
9401 15006 9675 1 109.50000 418.400000
768 15007 7118 1 109.50000 418.400000
768 15007 8137 1 109.50000 418.400000
768 15007 9676 1 109.50000 418.400000
7118 15007 8137 1 109.50000 418.400000
7118 15007 9676 1 109.50000 418.400000
8137 15007 9676 1 109.50000 418.400000
4586 15008 9677 1 109.50000 418.400000
4586 15008 9678 1 109.50000 418.400000
4586 15008 9679 1 109.50000 418.400000
9677 15008 9678 1 109.50000 418.400000
9677 15008 9679 1 109.50000 418.400000
9678 15008 9679 1 109.50000 418.400000
8465 15009 9680 1 109.50000 418.400000
8465 15009 9681 1 109.50000 418.400000
8465 15009 9682 1 109.50000 418.400000
9680 15009 9681 1 109.50000 418.400000
9680 15009 9682 1 109.50000 418.400000
9681 15009 9682 1 109.50000 418.400000
7632 15010 9131 1 109.50000 418.400000
7632 15010 9206 1 109.50000 418.400000
7632 15010 9684 1 109.50000 418.400000
9131 15010 9206 1 109.50000 418.400000
9131 15010 9684 1 109.50000 418.400000
9206 15010 9684 1 109.50000 418.400000
7139 15011 7146 1 109.50000 418.400000
7139 15011 9685 1 109.50000 418.400000
7139 15011 9686 1 109.50000 418.400000
7146 15011 9685 1 109.50000 418.400000
7146 15011 9686 1 109.50000 418.400000
9685 15011 9686 1 109.50000 418.400000
194 15012 3825 1 109.50000 418.400000
194 15012 3959 1 109.50000 418.400000
194 15012 9688 1 109.50000 418.400000
3825 15012 3959 1 109.50000 418.400000
3825 15012 9688 1 109.50000 418.400000
3959 15012 9688 1 109.50000 418.400000
5836 15013 5837 1 109.50000 418.400000
5836 15013 5838 1 109.50000 418.400000
5836 15013 9689 1 109.50000 418.400000
5837 15013 5838 1 109.50000 418.400000
5837 15013 9689 1 109.50000 418.400000
5838 15013 9689 1 109.50000 418.400000
6489 15014 9556 1 109.50000 418.400000
6489 15014 9691 1 109.50000 418.400000
6489 15014 11322 1 109.50000 418.400000
9556 15014 9691 1 109.50000 418.400000
9556 15014 11322 1 109.50000 418.400000
9691 15014 11322 1 109.50000 418.400000
1578 15015 2841 1 109.50000 418.400000
1578 15015 4140 1 109.50000 418.400000
1578 15015 9692 1 109.50000 418.400000
2841 15015 4140 1 109.50000 418.400000
2841 15015 9692 1 109.50000 418.400000
4140 15015 9692 1 109.50000 418.400000
5606 15016 5648 1 109.50000 418.400000
5606 15016 9299 1 109.50000 418.400000
5606 15016 9693 1 109.50000 418.400000
5648 15016 9299 1 109.50000 418.400000
5648 15016 9693 1 109.50000 418.400000
9299 15016 9693 1 109.50000 418.400000
5102 15017 9694 1 109.50000 418.400000
5102 15017 9695 1 109.50000 418.400000
5102 15017 10680 1 109.50000 418.400000
9694 15017 9695 1 109.50000 418.400000
9694 15017 10680 1 109.50000 418.400000
9695 15017 10680 1 109.50000 418.400000
846 15018 8240 1 109.50000 418.400000
846 15018 9696 1 109.50000 418.400000
846 15018 9697 1 109.50000 418.400000
8240 15018 9696 1 109.50000 418.400000
8240 15018 9697 1 109.50000 418.400000
9696 15018 9697 1 109.50000 418.400000
2458 15019 8915 1 109.50000 418.400000
2458 15019 9030 1 109.50000 418.400000
2458 15019 9698 1 109.50000 418.400000
8915 15019 9030 1 109.50000 418.400000
8915 15019 9698 1 109.50000 418.400000
9030 15019 9698 1 109.50000 418.400000
4509 15020 9699 1 109.50000 418.400000
4509 15020 9700 1 109.50000 418.400000
4509 15020 9701 1 109.50000 418.400000
9699 15020 9700 1 109.50000 418.400000
9699 15020 9701 1 109.50000 418.400000
9700 15020 9701 1 109.50000 418.400000
2361 15021 9702 1 109.50000 418.400000
2361 15021 9703 1 109.50000 418.400000
2361 15021 9704 1 109.50000 418.400000
9702 15021 9703 1 109.50000 418.400000
9702 15021 9704 1 109.50000 418.400000
9703 15021 9704 1 109.50000 418.400000
329 15022 8502 1 109.50000 418.400000
329 15022 9705 1 109.50000 418.400000
329 15022 9706 1 109.50000 418.400000
8502 15022 9705 1 109.50000 418.400000
8502 15022 9706 1 109.50000 418.400000
9705 15022 9706 1 109.50000 418.400000
7628 15023 7945 1 109.50000 418.400000
7628 15023 9708 1 109.50000 418.400000
7628 15023 10467 1 109.50000 418.400000
7945 15023 9708 1 109.50000 418.400000
7945 15023 10467 1 109.50000 418.400000
9708 15023 10467 1 109.50000 418.400000
3831 15024 6470 1 109.50000 418.400000
3831 15024 8834 1 109.50000 418.400000
3831 15024 9709 1 109.50000 418.400000
6470 15024 8834 1 109.50000 418.400000
6470 15024 9709 1 109.50000 418.400000
8834 15024 9709 1 109.50000 418.400000
3951 15025 9494 1 109.50000 418.400000
3951 15025 9710 1 109.50000 418.400000
3951 15025 9711 1 109.50000 418.400000
9494 15025 9710 1 109.50000 418.400000
9494 15025 9711 1 109.50000 418.400000
9710 15025 9711 1 109.50000 418.400000
7659 15026 9712 1 109.50000 418.400000
7659 15026 9713 1 109.50000 418.400000
7659 15026 10259 1 109.50000 418.400000
9712 15026 9713 1 109.50000 418.400000
9712 15026 10259 1 109.50000 418.400000
9713 15026 10259 1 109.50000 418.400000
5728 15027 9163 1 109.50000 418.400000
5728 15027 9714 1 109.50000 418.400000
5728 15027 9715 1 109.50000 418.400000
9163 15027 9714 1 109.50000 418.400000
9163 15027 9715 1 109.50000 418.400000
9714 15027 9715 1 109.50000 418.400000
3094 15028 5099 1 109.50000 418.400000
3094 15028 9716 1 109.50000 418.400000
3094 15028 9717 1 109.50000 418.400000
5099 15028 9716 1 109.50000 418.400000
5099 15028 9717 1 109.50000 418.400000
9716 15028 9717 1 109.50000 418.400000
844 15029 6717 1 109.50000 418.400000
844 15029 8526 1 109.50000 418.400000
844 15029 9718 1 109.50000 418.400000
6717 15029 8526 1 109.50000 418.400000
6717 15029 9718 1 109.50000 418.400000
8526 15029 9718 1 109.50000 418.400000
6226 15030 9719 1 109.50000 418.400000
6226 15030 9720 1 109.50000 418.400000
6226 15030 9721 1 109.50000 418.400000
9719 15030 9720 1 109.50000 418.400000
9719 15030 9721 1 109.50000 418.400000
9720 15030 9721 1 109.50000 418.400000
3104 15031 4081 1 109.50000 418.400000
3104 15031 7579 1 109.50000 418.400000
3104 15031 9298 1 109.50000 418.400000
4081 15031 7579 1 109.50000 418.400000
4081 15031 9298 1 109.50000 418.400000
7579 15031 9298 1 109.50000 418.400000
7133 15032 7899 1 109.50000 418.400000
7133 15032 9722 1 109.50000 418.400000
7133 15032 9723 1 109.50000 418.400000
7899 15032 9722 1 109.50000 418.400000
7899 15032 9723 1 109.50000 418.400000
9722 15032 9723 1 109.50000 418.400000
1043 15033 2382 1 109.50000 418.400000
1043 15033 9403 1 109.50000 418.400000
1043 15033 11164 1 109.50000 418.400000
2382 15033 9403 1 109.50000 418.400000
2382 15033 11164 1 109.50000 418.400000
9403 15033 11164 1 109.50000 418.400000
7707 15034 7721 1 109.50000 418.400000
7707 15034 7767 1 109.50000 418.400000
7707 15034 9724 1 109.50000 418.400000
7721 15034 7767 1 109.50000 418.400000
7721 15034 9724 1 109.50000 418.400000
7767 15034 9724 1 109.50000 418.400000
9037 15035 9437 1 109.50000 418.400000
9037 15035 9718 1 109.50000 418.400000
9037 15035 9725 1 109.50000 418.400000
9437 15035 9718 1 109.50000 418.400000
9437 15035 9725 1 109.50000 418.400000
9718 15035 9725 1 109.50000 418.400000
3323 15036 5935 1 109.50000 418.400000
3323 15036 8638 1 109.50000 418.400000
3323 15036 9726 1 109.50000 418.400000
5935 15036 8638 1 109.50000 418.400000
5935 15036 9726 1 109.50000 418.400000
8638 15036 9726 1 109.50000 418.400000
4261 15037 7346 1 109.50000 418.400000
4261 15037 9059 1 109.50000 418.400000
4261 15037 9728 1 109.50000 418.400000
7346 15037 9059 1 109.50000 418.400000
7346 15037 9728 1 109.50000 418.400000
9059 15037 9728 1 109.50000 418.400000
3465 15038 6839 1 109.50000 418.400000
3465 15038 9596 1 109.50000 418.400000
3465 15038 9730 1 109.50000 418.400000
6839 15038 9596 1 109.50000 418.400000
6839 15038 9730 1 109.50000 418.400000
9596 15038 9730 1 109.50000 418.400000
5905 15039 6873 1 109.50000 418.400000
5905 15039 9260 1 109.50000 418.400000
5905 15039 9702 1 109.50000 418.400000
6873 15039 9260 1 109.50000 418.400000
6873 15039 9702 1 109.50000 418.400000
9260 15039 9702 1 109.50000 418.400000
4121 15040 8086 1 109.50000 418.400000
4121 15040 8553 1 109.50000 418.400000
4121 15040 9731 1 109.50000 418.400000
8086 15040 8553 1 109.50000 418.400000
8086 15040 9731 1 109.50000 418.400000
8553 15040 9731 1 109.50000 418.400000
9732 15041 9733 1 109.50000 418.400000
9732 15041 9734 1 109.50000 418.400000
9732 15041 9735 1 109.50000 418.400000
9733 15041 9734 1 109.50000 418.400000
9733 15041 9735 1 109.50000 418.400000
9734 15041 9735 1 109.50000 418.400000
9351 15042 9736 1 109.50000 418.400000
9351 15042 9737 1 109.50000 418.400000
9351 15042 9738 1 109.50000 418.400000
9736 15042 9737 1 109.50000 418.400000
9736 15042 9738 1 109.50000 418.400000
9737 15042 9738 1 109.50000 418.400000
4134 15043 7739 1 109.50000 418.400000
4134 15043 8529 1 109.50000 418.400000
4134 15043 9739 1 109.50000 418.400000
7739 15043 8529 1 109.50000 418.400000
7739 15043 9739 1 109.50000 418.400000
8529 15043 9739 1 109.50000 418.400000
4177 15044 5759 1 109.50000 418.400000
4177 15044 5760 1 109.50000 418.400000
4177 15044 6978 1 109.50000 418.400000
5759 15044 5760 1 109.50000 418.400000
5759 15044 6978 1 109.50000 418.400000
5760 15044 6978 1 109.50000 418.400000
1236 15045 1554 1 109.50000 418.400000
1236 15045 6389 1 109.50000 418.400000
1236 15045 9741 1 109.50000 418.400000
1554 15045 6389 1 109.50000 418.400000
1554 15045 9741 1 109.50000 418.400000
6389 15045 9741 1 109.50000 418.400000
1681 15046 7596 1 109.50000 418.400000
1681 15046 9742 1 109.50000 418.400000
1681 15046 9743 1 109.50000 418.400000
7596 15046 9742 1 109.50000 418.400000
7596 15046 9743 1 109.50000 418.400000
9742 15046 9743 1 109.50000 418.400000
1155 15047 8974 1 109.50000 418.400000
1155 15047 9744 1 109.50000 418.400000
1155 15047 9745 1 109.50000 418.400000
8974 15047 9744 1 109.50000 418.400000
8974 15047 9745 1 109.50000 418.400000
9744 15047 9745 1 109.50000 418.400000
3348 15048 9159 1 109.50000 418.400000
3348 15048 9746 1 109.50000 418.400000
3348 15048 9747 1 109.50000 418.400000
9159 15048 9746 1 109.50000 418.400000
9159 15048 9747 1 109.50000 418.400000
9746 15048 9747 1 109.50000 418.400000
1417 15049 6270 1 109.50000 418.400000
1417 15049 7238 1 109.50000 418.400000
1417 15049 9748 1 109.50000 418.400000
6270 15049 7238 1 109.50000 418.400000
6270 15049 9748 1 109.50000 418.400000
7238 15049 9748 1 109.50000 418.400000
7686 15050 9548 1 109.50000 418.400000
7686 15050 9749 1 109.50000 418.400000
7686 15050 9750 1 109.50000 418.400000
9548 15050 9749 1 109.50000 418.400000
9548 15050 9750 1 109.50000 418.400000
9749 15050 9750 1 109.50000 418.400000
4052 15051 9751 1 109.50000 418.400000
4052 15051 9752 1 109.50000 418.400000
4052 15051 9753 1 109.50000 418.400000
9751 15051 9752 1 109.50000 418.400000
9751 15051 9753 1 109.50000 418.400000
9752 15051 9753 1 109.50000 418.400000
1790 15052 4943 1 109.50000 418.400000
1790 15052 7891 1 109.50000 418.400000
1790 15052 9754 1 109.50000 418.400000
4943 15052 7891 1 109.50000 418.400000
4943 15052 9754 1 109.50000 418.400000
7891 15052 9754 1 109.50000 418.400000
6590 15053 9246 1 109.50000 418.400000
6590 15053 9755 1 109.50000 418.400000
6590 15053 9756 1 109.50000 418.400000
9246 15053 9755 1 109.50000 418.400000
9246 15053 9756 1 109.50000 418.400000
9755 15053 9756 1 109.50000 418.400000
1090 15054 7562 1 109.50000 418.400000
1090 15054 9310 1 109.50000 418.400000
1090 15054 9540 1 109.50000 418.400000
7562 15054 9310 1 109.50000 418.400000
7562 15054 9540 1 109.50000 418.400000
9310 15054 9540 1 109.50000 418.400000
5707 15055 7296 1 109.50000 418.400000
5707 15055 7462 1 109.50000 418.400000
5707 15055 9251 1 109.50000 418.400000
7296 15055 7462 1 109.50000 418.400000
7296 15055 9251 1 109.50000 418.400000
7462 15055 9251 1 109.50000 418.400000
2261 15056 4329 1 109.50000 418.400000
2261 15056 7009 1 109.50000 418.400000
2261 15056 8618 1 109.50000 418.400000
4329 15056 7009 1 109.50000 418.400000
4329 15056 8618 1 109.50000 418.400000
7009 15056 8618 1 109.50000 418.400000
275 15057 6663 1 109.50000 418.400000
275 15057 9757 1 109.50000 418.400000
275 15057 9758 1 109.50000 418.400000
6663 15057 9757 1 109.50000 418.400000
6663 15057 9758 1 109.50000 418.400000
9757 15057 9758 1 109.50000 418.400000
3169 15058 7416 1 109.50000 418.400000
3169 15058 7693 1 109.50000 418.400000
3169 15058 7695 1 109.50000 418.400000
7416 15058 7693 1 109.50000 418.400000
7416 15058 7695 1 109.50000 418.400000
7693 15058 7695 1 109.50000 418.400000
1999 15059 7985 1 109.50000 418.400000
1999 15059 8283 1 109.50000 418.400000
1999 15059 9760 1 109.50000 418.400000
7985 15059 8283 1 109.50000 418.400000
7985 15059 9760 1 109.50000 418.400000
8283 15059 9760 1 109.50000 418.400000
1326 15060 2891 1 109.50000 418.400000
1326 15060 9598 1 109.50000 418.400000
1326 15060 9761 1 109.50000 418.400000
2891 15060 9598 1 109.50000 418.400000
2891 15060 9761 1 109.50000 418.400000
9598 15060 9761 1 109.50000 418.400000
448 15061 1622 1 109.50000 418.400000
448 15061 9762 1 109.50000 418.400000
448 15061 9763 1 109.50000 418.400000
1622 15061 9762 1 109.50000 418.400000
1622 15061 9763 1 109.50000 418.400000
9762 15061 9763 1 109.50000 418.400000
603 15062 7772 1 109.50000 418.400000
603 15062 11195 1 109.50000 418.400000
603 15062 11317 1 109.50000 418.400000
7772 15062 11195 1 109.50000 418.400000
7772 15062 11317 1 109.50000 418.400000
11195 15062 11317 1 109.50000 418.400000
4813 15063 8219 1 109.50000 418.400000
4813 15063 9241 1 109.50000 418.400000
4813 15063 9766 1 109.50000 418.400000
8219 15063 9241 1 109.50000 418.400000
8219 15063 9766 1 109.50000 418.400000
9241 15063 9766 1 109.50000 418.400000
2363 15064 9519 1 109.50000 418.400000
2363 15064 9767 1 109.50000 418.400000
2363 15064 9768 1 109.50000 418.400000
9519 15064 9767 1 109.50000 418.400000
9519 15064 9768 1 109.50000 418.400000
9767 15064 9768 1 109.50000 418.400000
4323 15065 9629 1 109.50000 418.400000
4323 15065 9769 1 109.50000 418.400000
4323 15065 9770 1 109.50000 418.400000
9629 15065 9769 1 109.50000 418.400000
9629 15065 9770 1 109.50000 418.400000
9769 15065 9770 1 109.50000 418.400000
6613 15066 6894 1 109.50000 418.400000
6613 15066 9771 1 109.50000 418.400000
6613 15066 9772 1 109.50000 418.400000
6894 15066 9771 1 109.50000 418.400000
6894 15066 9772 1 109.50000 418.400000
9771 15066 9772 1 109.50000 418.400000
1076 15067 4689 1 109.50000 418.400000
1076 15067 7836 1 109.50000 418.400000
1076 15067 11401 1 109.50000 418.400000
4689 15067 7836 1 109.50000 418.400000
4689 15067 11401 1 109.50000 418.400000
7836 15067 11401 1 109.50000 418.400000
1927 15068 8235 1 109.50000 418.400000
1927 15068 8686 1 109.50000 418.400000
1927 15068 9773 1 109.50000 418.400000
8235 15068 8686 1 109.50000 418.400000
8235 15068 9773 1 109.50000 418.400000
8686 15068 9773 1 109.50000 418.400000
4738 15069 9755 1 109.50000 418.400000
4738 15069 9774 1 109.50000 418.400000
4738 15069 11259 1 109.50000 418.400000
9755 15069 9774 1 109.50000 418.400000
9755 15069 11259 1 109.50000 418.400000
9774 15069 11259 1 109.50000 418.400000
574 15070 3548 1 109.50000 418.400000
574 15070 5478 1 109.50000 418.400000
574 15070 9775 1 109.50000 418.400000
3548 15070 5478 1 109.50000 418.400000
3548 15070 9775 1 109.50000 418.400000
5478 15070 9775 1 109.50000 418.400000
6871 15071 9379 1 109.50000 418.400000
6871 15071 9530 1 109.50000 418.400000
6871 15071 9776 1 109.50000 418.400000
9379 15071 9530 1 109.50000 418.400000
9379 15071 9776 1 109.50000 418.400000
9530 15071 9776 1 109.50000 418.400000
2596 15072 8430 1 109.50000 418.400000
2596 15072 9778 1 109.50000 418.400000
2596 15072 9779 1 109.50000 418.400000
8430 15072 9778 1 109.50000 418.400000
8430 15072 9779 1 109.50000 418.400000
9778 15072 9779 1 109.50000 418.400000
6902 15073 6962 1 109.50000 418.400000
6902 15073 7736 1 109.50000 418.400000
6902 15073 9780 1 109.50000 418.400000
6962 15073 7736 1 109.50000 418.400000
6962 15073 9780 1 109.50000 418.400000
7736 15073 9780 1 109.50000 418.400000
5502 15074 7941 1 109.50000 418.400000
5502 15074 9781 1 109.50000 418.400000
5502 15074 9782 1 109.50000 418.400000
7941 15074 9781 1 109.50000 418.400000
7941 15074 9782 1 109.50000 418.400000
9781 15074 9782 1 109.50000 418.400000
344 15075 9783 1 109.50000 418.400000
344 15075 9784 1 109.50000 418.400000
344 15075 9785 1 109.50000 418.400000
9783 15075 9784 1 109.50000 418.400000
9783 15075 9785 1 109.50000 418.400000
9784 15075 9785 1 109.50000 418.400000
750 15076 3381 1 109.50000 418.400000
750 15076 9044 1 109.50000 418.400000
750 15076 9786 1 109.50000 418.400000
3381 15076 9044 1 109.50000 418.400000
3381 15076 9786 1 109.50000 418.400000
9044 15076 9786 1 109.50000 418.400000
2469 15077 6734 1 109.50000 418.400000
2469 15077 9557 1 109.50000 418.400000
2469 15077 11389 1 109.50000 418.400000
6734 15077 9557 1 109.50000 418.400000
6734 15077 11389 1 109.50000 418.400000
9557 15077 11389 1 109.50000 418.400000
3963 15078 7838 1 109.50000 418.400000
3963 15078 9787 1 109.50000 418.400000
3963 15078 9788 1 109.50000 418.400000
7838 15078 9787 1 109.50000 418.400000
7838 15078 9788 1 109.50000 418.400000
9787 15078 9788 1 109.50000 418.400000
2336 15079 5239 1 109.50000 418.400000
2336 15079 6607 1 109.50000 418.400000
2336 15079 9789 1 109.50000 418.400000
5239 15079 6607 1 109.50000 418.400000
5239 15079 9789 1 109.50000 418.400000
6607 15079 9789 1 109.50000 418.400000
8000 15080 9790 1 109.50000 418.400000
8000 15080 9791 1 109.50000 418.400000
8000 15080 9792 1 109.50000 418.400000
9790 15080 9791 1 109.50000 418.400000
9790 15080 9792 1 109.50000 418.400000
9791 15080 9792 1 109.50000 418.400000
7732 15081 8725 1 109.50000 418.400000
7732 15081 11320 1 109.50000 418.400000
7732 15081 11432 1 109.50000 418.400000
8725 15081 11320 1 109.50000 418.400000
8725 15081 11432 1 109.50000 418.400000
11320 15081 11432 1 109.50000 418.400000
3402 15082 5211 1 109.50000 418.400000
3402 15082 8919 1 109.50000 418.400000
3402 15082 9237 1 109.50000 418.400000
5211 15082 8919 1 109.50000 418.400000
5211 15082 9237 1 109.50000 418.400000
8919 15082 9237 1 109.50000 418.400000
3809 15083 8912 1 109.50000 418.400000
3809 15083 9761 1 109.50000 418.400000
3809 15083 9793 1 109.50000 418.400000
8912 15083 9761 1 109.50000 418.400000
8912 15083 9793 1 109.50000 418.400000
9761 15083 9793 1 109.50000 418.400000
1386 15084 4055 1 109.50000 418.400000
1386 15084 9794 1 109.50000 418.400000
1386 15084 9795 1 109.50000 418.400000
4055 15084 9794 1 109.50000 418.400000
4055 15084 9795 1 109.50000 418.400000
9794 15084 9795 1 109.50000 418.400000
3668 15085 7846 1 109.50000 418.400000
3668 15085 9796 1 109.50000 418.400000
3668 15085 9797 1 109.50000 418.400000
7846 15085 9796 1 109.50000 418.400000
7846 15085 9797 1 109.50000 418.400000
9796 15085 9797 1 109.50000 418.400000
1370 15086 2988 1 109.50000 418.400000
1370 15086 9663 1 109.50000 418.400000
1370 15086 11204 1 109.50000 418.400000
2988 15086 9663 1 109.50000 418.400000
2988 15086 11204 1 109.50000 418.400000
9663 15086 11204 1 109.50000 418.400000
5642 15087 8702 1 109.50000 418.400000
5642 15087 9798 1 109.50000 418.400000
5642 15087 9799 1 109.50000 418.400000
8702 15087 9798 1 109.50000 418.400000
8702 15087 9799 1 109.50000 418.400000
9798 15087 9799 1 109.50000 418.400000
2322 15088 6794 1 109.50000 418.400000
2322 15088 9370 1 109.50000 418.400000
2322 15088 9428 1 109.50000 418.400000
6794 15088 9370 1 109.50000 418.400000
6794 15088 9428 1 109.50000 418.400000
9370 15088 9428 1 109.50000 418.400000
3696 15089 8678 1 109.50000 418.400000
3696 15089 9800 1 109.50000 418.400000
3696 15089 9801 1 109.50000 418.400000
8678 15089 9800 1 109.50000 418.400000
8678 15089 9801 1 109.50000 418.400000
9800 15089 9801 1 109.50000 418.400000
6054 15090 9764 1 109.50000 418.400000
6054 15090 9802 1 109.50000 418.400000
6054 15090 9803 1 109.50000 418.400000
9764 15090 9802 1 109.50000 418.400000
9764 15090 9803 1 109.50000 418.400000
9802 15090 9803 1 109.50000 418.400000
5840 15091 8426 1 109.50000 418.400000
5840 15091 8956 1 109.50000 418.400000
5840 15091 11206 1 109.50000 418.400000
8426 15091 8956 1 109.50000 418.400000
8426 15091 11206 1 109.50000 418.400000
8956 15091 11206 1 109.50000 418.400000
3488 15092 4355 1 109.50000 418.400000
3488 15092 8327 1 109.50000 418.400000
3488 15092 9804 1 109.50000 418.400000
4355 15092 8327 1 109.50000 418.400000
4355 15092 9804 1 109.50000 418.400000
8327 15092 9804 1 109.50000 418.400000
2085 15093 2603 1 109.50000 418.400000
2085 15093 4816 1 109.50000 418.400000
2085 15093 7262 1 109.50000 418.400000
2603 15093 4816 1 109.50000 418.400000
2603 15093 7262 1 109.50000 418.400000
4816 15093 7262 1 109.50000 418.400000
1823 15094 4073 1 109.50000 418.400000
1823 15094 8805 1 109.50000 418.400000
1823 15094 9805 1 109.50000 418.400000
4073 15094 8805 1 109.50000 418.400000
4073 15094 9805 1 109.50000 418.400000
8805 15094 9805 1 109.50000 418.400000
7742 15095 9665 1 109.50000 418.400000
7742 15095 9806 1 109.50000 418.400000
7742 15095 11489 1 109.50000 418.400000
9665 15095 9806 1 109.50000 418.400000
9665 15095 11489 1 109.50000 418.400000
9806 15095 11489 1 109.50000 418.400000
949 15096 951 1 109.50000 418.400000
949 15096 7132 1 109.50000 418.400000
949 15096 9807 1 109.50000 418.400000
951 15096 7132 1 109.50000 418.400000
951 15096 9807 1 109.50000 418.400000
7132 15096 9807 1 109.50000 418.400000
3601 15097 6014 1 109.50000 418.400000
3601 15097 9808 1 109.50000 418.400000
3601 15097 11419 1 109.50000 418.400000
6014 15097 9808 1 109.50000 418.400000
6014 15097 11419 1 109.50000 418.400000
9808 15097 11419 1 109.50000 418.400000
4626 15098 5563 1 109.50000 418.400000
4626 15098 9809 1 109.50000 418.400000
4626 15098 9810 1 109.50000 418.400000
5563 15098 9809 1 109.50000 418.400000
5563 15098 9810 1 109.50000 418.400000
9809 15098 9810 1 109.50000 418.400000
1217 15099 9224 1 109.50000 418.400000
1217 15099 9811 1 109.50000 418.400000
1217 15099 9812 1 109.50000 418.400000
9224 15099 9811 1 109.50000 418.400000
9224 15099 9812 1 109.50000 418.400000
9811 15099 9812 1 109.50000 418.400000
5683 15100 9813 1 109.50000 418.400000
5683 15100 9814 1 109.50000 418.400000
5683 15100 9815 1 109.50000 418.400000
9813 15100 9814 1 109.50000 418.400000
9813 15100 9815 1 109.50000 418.400000
9814 15100 9815 1 109.50000 418.400000
3122 15101 4396 1 109.50000 418.400000
3122 15101 8602 1 109.50000 418.400000
3122 15101 9816 1 109.50000 418.400000
4396 15101 8602 1 109.50000 418.400000
4396 15101 9816 1 109.50000 418.400000
8602 15101 9816 1 109.50000 418.400000
3988 15102 6081 1 109.50000 418.400000
3988 15102 9817 1 109.50000 418.400000
3988 15102 9818 1 109.50000 418.400000
6081 15102 9817 1 109.50000 418.400000
6081 15102 9818 1 109.50000 418.400000
9817 15102 9818 1 109.50000 418.400000
2607 15103 6743 1 109.50000 418.400000
2607 15103 9819 1 109.50000 418.400000
2607 15103 9820 1 109.50000 418.400000
6743 15103 9819 1 109.50000 418.400000
6743 15103 9820 1 109.50000 418.400000
9819 15103 9820 1 109.50000 418.400000
476 15104 8108 1 109.50000 418.400000
476 15104 8496 1 109.50000 418.400000
476 15104 9065 1 109.50000 418.400000
8108 15104 8496 1 109.50000 418.400000
8108 15104 9065 1 109.50000 418.400000
8496 15104 9065 1 109.50000 418.400000
258 15105 4562 1 109.50000 418.400000
258 15105 8018 1 109.50000 418.400000
258 15105 9821 1 109.50000 418.400000
4562 15105 8018 1 109.50000 418.400000
4562 15105 9821 1 109.50000 418.400000
8018 15105 9821 1 109.50000 418.400000
7788 15106 9822 1 109.50000 418.400000
7788 15106 9823 1 109.50000 418.400000
7788 15106 11343 1 109.50000 418.400000
9822 15106 9823 1 109.50000 418.400000
9822 15106 11343 1 109.50000 418.400000
9823 15106 11343 1 109.50000 418.400000
395 15107 9825 1 109.50000 418.400000
395 15107 11154 1 109.50000 418.400000
395 15107 11210 1 109.50000 418.400000
9825 15107 11154 1 109.50000 418.400000
9825 15107 11210 1 109.50000 418.400000
11154 15107 11210 1 109.50000 418.400000
596 15108 736 1 109.50000 418.400000
596 15108 9813 1 109.50000 418.400000
596 15108 9826 1 109.50000 418.400000
736 15108 9813 1 109.50000 418.400000
736 15108 9826 1 109.50000 418.400000
9813 15108 9826 1 109.50000 418.400000
2945 15109 9386 1 109.50000 418.400000
2945 15109 9827 1 109.50000 418.400000
2945 15109 9828 1 109.50000 418.400000
9386 15109 9827 1 109.50000 418.400000
9386 15109 9828 1 109.50000 418.400000
9827 15109 9828 1 109.50000 418.400000
936 15110 6945 1 109.50000 418.400000
936 15110 9829 1 109.50000 418.400000
936 15110 9830 1 109.50000 418.400000
6945 15110 9829 1 109.50000 418.400000
6945 15110 9830 1 109.50000 418.400000
9829 15110 9830 1 109.50000 418.400000
8443 15111 9831 1 109.50000 418.400000
8443 15111 9832 1 109.50000 418.400000
8443 15111 9833 1 109.50000 418.400000
9831 15111 9832 1 109.50000 418.400000
9831 15111 9833 1 109.50000 418.400000
9832 15111 9833 1 109.50000 418.400000
9129 15112 9538 1 109.50000 418.400000
9129 15112 9605 1 109.50000 418.400000
9129 15112 9834 1 109.50000 418.400000
9538 15112 9605 1 109.50000 418.400000
9538 15112 9834 1 109.50000 418.400000
9605 15112 9834 1 109.50000 418.400000
4017 15113 7474 1 109.50000 418.400000
4017 15113 9261 1 109.50000 418.400000
4017 15113 9835 1 109.50000 418.400000
7474 15113 9261 1 109.50000 418.400000
7474 15113 9835 1 109.50000 418.400000
9261 15113 9835 1 109.50000 418.400000
4847 15114 9836 1 109.50000 418.400000
4847 15114 9837 1 109.50000 418.400000
4847 15114 9838 1 109.50000 418.400000
9836 15114 9837 1 109.50000 418.400000
9836 15114 9838 1 109.50000 418.400000
9837 15114 9838 1 109.50000 418.400000
743 15115 3003 1 109.50000 418.400000
743 15115 3084 1 109.50000 418.400000
743 15115 3843 1 109.50000 418.400000
3003 15115 3084 1 109.50000 418.400000
3003 15115 3843 1 109.50000 418.400000
3084 15115 3843 1 109.50000 418.400000
810 15116 4132 1 109.50000 418.400000
810 15116 9839 1 109.50000 418.400000
810 15116 9840 1 109.50000 418.400000
4132 15116 9839 1 109.50000 418.400000
4132 15116 9840 1 109.50000 418.400000
9839 15116 9840 1 109.50000 418.400000
5722 15117 9392 1 109.50000 418.400000
5722 15117 9841 1 109.50000 418.400000
5722 15117 9842 1 109.50000 418.400000
9392 15117 9841 1 109.50000 418.400000
9392 15117 9842 1 109.50000 418.400000
9841 15117 9842 1 109.50000 418.400000
1199 15118 1558 1 109.50000 418.400000
1199 15118 2237 1 109.50000 418.400000
1199 15118 6786 1 109.50000 418.400000
1558 15118 2237 1 109.50000 418.400000
1558 15118 6786 1 109.50000 418.400000
2237 15118 6786 1 109.50000 418.400000
2094 15119 7680 1 109.50000 418.400000
2094 15119 9843 1 109.50000 418.400000
2094 15119 9844 1 109.50000 418.400000
7680 15119 9843 1 109.50000 418.400000
7680 15119 9844 1 109.50000 418.400000
9843 15119 9844 1 109.50000 418.400000
1517 15120 6063 1 109.50000 418.400000
1517 15120 7914 1 109.50000 418.400000
1517 15120 8491 1 109.50000 418.400000
6063 15120 7914 1 109.50000 418.400000
6063 15120 8491 1 109.50000 418.400000
7914 15120 8491 1 109.50000 418.400000
6604 15121 9845 1 109.50000 418.400000
6604 15121 9846 1 109.50000 418.400000
6604 15121 9847 1 109.50000 418.400000
9845 15121 9846 1 109.50000 418.400000
9845 15121 9847 1 109.50000 418.400000
9846 15121 9847 1 109.50000 418.400000
3661 15122 3886 1 109.50000 418.400000
3661 15122 7401 1 109.50000 418.400000
3661 15122 9848 1 109.50000 418.400000
3886 15122 7401 1 109.50000 418.400000
3886 15122 9848 1 109.50000 418.400000
7401 15122 9848 1 109.50000 418.400000
2364 15123 7557 1 109.50000 418.400000
2364 15123 9849 1 109.50000 418.400000
2364 15123 9850 1 109.50000 418.400000
7557 15123 9849 1 109.50000 418.400000
7557 15123 9850 1 109.50000 418.400000
9849 15123 9850 1 109.50000 418.400000
3551 15124 6694 1 109.50000 418.400000
3551 15124 8092 1 109.50000 418.400000
3551 15124 9851 1 109.50000 418.400000
6694 15124 8092 1 109.50000 418.400000
6694 15124 9851 1 109.50000 418.400000
8092 15124 9851 1 109.50000 418.400000
481 15125 482 1 109.50000 418.400000
481 15125 5325 1 109.50000 418.400000
481 15125 11261 1 109.50000 418.400000
482 15125 5325 1 109.50000 418.400000
482 15125 11261 1 109.50000 418.400000
5325 15125 11261 1 109.50000 418.400000
149 15126 2549 1 109.50000 418.400000
149 15126 9854 1 109.50000 418.400000
149 15126 10266 1 109.50000 418.400000
2549 15126 9854 1 109.50000 418.400000
2549 15126 10266 1 109.50000 418.400000
9854 15126 10266 1 109.50000 418.400000
3145 15127 3949 1 109.50000 418.400000
3145 15127 6087 1 109.50000 418.400000
3145 15127 8795 1 109.50000 418.400000
3949 15127 6087 1 109.50000 418.400000
3949 15127 8795 1 109.50000 418.400000
6087 15127 8795 1 109.50000 418.400000
3120 15128 6498 1 109.50000 418.400000
3120 15128 9855 1 109.50000 418.400000
3120 15128 9856 1 109.50000 418.400000
6498 15128 9855 1 109.50000 418.400000
6498 15128 9856 1 109.50000 418.400000
9855 15128 9856 1 109.50000 418.400000
1282 15129 6058 1 109.50000 418.400000
1282 15129 7358 1 109.50000 418.400000
1282 15129 9857 1 109.50000 418.400000
6058 15129 7358 1 109.50000 418.400000
6058 15129 9857 1 109.50000 418.400000
7358 15129 9857 1 109.50000 418.400000
2741 15130 5321 1 109.50000 418.400000
2741 15130 9858 1 109.50000 418.400000
2741 15130 9859 1 109.50000 418.400000
5321 15130 9858 1 109.50000 418.400000
5321 15130 9859 1 109.50000 418.400000
9858 15130 9859 1 109.50000 418.400000
4934 15131 7230 1 109.50000 418.400000
4934 15131 9860 1 109.50000 418.400000
4934 15131 9861 1 109.50000 418.400000
7230 15131 9860 1 109.50000 418.400000
7230 15131 9861 1 109.50000 418.400000
9860 15131 9861 1 109.50000 418.400000
3096 15132 7236 1 109.50000 418.400000
3096 15132 9862 1 109.50000 418.400000
3096 15132 9863 1 109.50000 418.400000
7236 15132 9862 1 109.50000 418.400000
7236 15132 9863 1 109.50000 418.400000
9862 15132 9863 1 109.50000 418.400000
1065 15133 6914 1 109.50000 418.400000
1065 15133 8062 1 109.50000 418.400000
1065 15133 9864 1 109.50000 418.400000
6914 15133 8062 1 109.50000 418.400000
6914 15133 9864 1 109.50000 418.400000
8062 15133 9864 1 109.50000 418.400000
4805 15134 4860 1 109.50000 418.400000
4805 15134 9865 1 109.50000 418.400000
4805 15134 9866 1 109.50000 418.400000
4860 15134 9865 1 109.50000 418.400000
4860 15134 9866 1 109.50000 418.400000
9865 15134 9866 1 109.50000 418.400000
8790 15135 9867 1 109.50000 418.400000
8790 15135 9868 1 109.50000 418.400000
8790 15135 9869 1 109.50000 418.400000
9867 15135 9868 1 109.50000 418.400000
9867 15135 9869 1 109.50000 418.400000
9868 15135 9869 1 109.50000 418.400000
5690 15136 7678 1 109.50000 418.400000
5690 15136 9350 1 109.50000 418.400000
5690 15136 9870 1 109.50000 418.400000
7678 15136 9350 1 109.50000 418.400000
7678 15136 9870 1 109.50000 418.400000
9350 15136 9870 1 109.50000 418.400000
4343 15137 8848 1 109.50000 418.400000
4343 15137 9871 1 109.50000 418.400000
4343 15137 9872 1 109.50000 418.400000
8848 15137 9871 1 109.50000 418.400000
8848 15137 9872 1 109.50000 418.400000
9871 15137 9872 1 109.50000 418.400000
8158 15138 9393 1 109.50000 418.400000
8158 15138 9873 1 109.50000 418.400000
8158 15138 9874 1 109.50000 418.400000
9393 15138 9873 1 109.50000 418.400000
9393 15138 9874 1 109.50000 418.400000
9873 15138 9874 1 109.50000 418.400000
4247 15139 6434 1 109.50000 418.400000
4247 15139 9875 1 109.50000 418.400000
4247 15139 9876 1 109.50000 418.400000
6434 15139 9875 1 109.50000 418.400000
6434 15139 9876 1 109.50000 418.400000
9875 15139 9876 1 109.50000 418.400000
3502 15140 9811 1 109.50000 418.400000
3502 15140 9877 1 109.50000 418.400000
3502 15140 9878 1 109.50000 418.400000
9811 15140 9877 1 109.50000 418.400000
9811 15140 9878 1 109.50000 418.400000
9877 15140 9878 1 109.50000 418.400000
1516 15141 7361 1 109.50000 418.400000
1516 15141 7996 1 109.50000 418.400000
1516 15141 9879 1 109.50000 418.400000
7361 15141 7996 1 109.50000 418.400000
7361 15141 9879 1 109.50000 418.400000
7996 15141 9879 1 109.50000 418.400000
3677 15142 6601 1 109.50000 418.400000
3677 15142 6868 1 109.50000 418.400000
3677 15142 11421 1 109.50000 418.400000
6601 15142 6868 1 109.50000 418.400000
6601 15142 11421 1 109.50000 418.400000
6868 15142 11421 1 109.50000 418.400000
6798 15143 9178 1 109.50000 418.400000
6798 15143 9880 1 109.50000 418.400000
6798 15143 9881 1 109.50000 418.400000
9178 15143 9880 1 109.50000 418.400000
9178 15143 9881 1 109.50000 418.400000
9880 15143 9881 1 109.50000 418.400000
7489 15144 8816 1 109.50000 418.400000
7489 15144 9882 1 109.50000 418.400000
7489 15144 9883 1 109.50000 418.400000
8816 15144 9882 1 109.50000 418.400000
8816 15144 9883 1 109.50000 418.400000
9882 15144 9883 1 109.50000 418.400000
860 15145 6970 1 109.50000 418.400000
860 15145 9787 1 109.50000 418.400000
860 15145 9884 1 109.50000 418.400000
6970 15145 9787 1 109.50000 418.400000
6970 15145 9884 1 109.50000 418.400000
9787 15145 9884 1 109.50000 418.400000
1580 15146 6588 1 109.50000 418.400000
1580 15146 6589 1 109.50000 418.400000
1580 15146 9769 1 109.50000 418.400000
6588 15146 6589 1 109.50000 418.400000
6588 15146 9769 1 109.50000 418.400000
6589 15146 9769 1 109.50000 418.400000
2007 15147 2403 1 109.50000 418.400000
2007 15147 2656 1 109.50000 418.400000
2007 15147 7299 1 109.50000 418.400000
2403 15147 2656 1 109.50000 418.400000
2403 15147 7299 1 109.50000 418.400000
2656 15147 7299 1 109.50000 418.400000
1202 15148 2804 1 109.50000 418.400000
1202 15148 4115 1 109.50000 418.400000
1202 15148 9885 1 109.50000 418.400000
2804 15148 4115 1 109.50000 418.400000
2804 15148 9885 1 109.50000 418.400000
4115 15148 9885 1 109.50000 418.400000
371 15149 8875 1 109.50000 418.400000
371 15149 9091 1 109.50000 418.400000
371 15149 11464 1 109.50000 418.400000
8875 15149 9091 1 109.50000 418.400000
8875 15149 11464 1 109.50000 418.400000
9091 15149 11464 1 109.50000 418.400000
517 15150 9217 1 109.50000 418.400000
517 15150 9218 1 109.50000 418.400000
517 15150 9465 1 109.50000 418.400000
9217 15150 9218 1 109.50000 418.400000
9217 15150 9465 1 109.50000 418.400000
9218 15150 9465 1 109.50000 418.400000
4415 15151 4832 1 109.50000 418.400000
4415 15151 4913 1 109.50000 418.400000
4415 15151 7050 1 109.50000 418.400000
4832 15151 4913 1 109.50000 418.400000
4832 15151 7050 1 109.50000 418.400000
4913 15151 7050 1 109.50000 418.400000
50 15152 4728 1 109.50000 418.400000
50 15152 9676 1 109.50000 418.400000
50 15152 9886 1 109.50000 418.400000
4728 15152 9676 1 109.50000 418.400000
4728 15152 9886 1 109.50000 418.400000
9676 15152 9886 1 109.50000 418.400000
1735 15153 2010 1 109.50000 418.400000
1735 15153 2080 1 109.50000 418.400000
1735 15153 5941 1 109.50000 418.400000
2010 15153 2080 1 109.50000 418.400000
2010 15153 5941 1 109.50000 418.400000
2080 15153 5941 1 109.50000 418.400000
1233 15154 9069 1 109.50000 418.400000
1233 15154 9888 1 109.50000 418.400000
1233 15154 9889 1 109.50000 418.400000
9069 15154 9888 1 109.50000 418.400000
9069 15154 9889 1 109.50000 418.400000
9888 15154 9889 1 109.50000 418.400000
2290 15155 9890 1 109.50000 418.400000
2290 15155 9891 1 109.50000 418.400000
2290 15155 9892 1 109.50000 418.400000
9890 15155 9891 1 109.50000 418.400000
9890 15155 9892 1 109.50000 418.400000
9891 15155 9892 1 109.50000 418.400000
820 15156 2374 1 109.50000 418.400000
820 15156 9893 1 109.50000 418.400000
820 15156 9894 1 109.50000 418.400000
2374 15156 9893 1 109.50000 418.400000
2374 15156 9894 1 109.50000 418.400000
9893 15156 9894 1 109.50000 418.400000
6025 15157 8551 1 109.50000 418.400000
6025 15157 8944 1 109.50000 418.400000
6025 15157 9895 1 109.50000 418.400000
8551 15157 8944 1 109.50000 418.400000
8551 15157 9895 1 109.50000 418.400000
8944 15157 9895 1 109.50000 418.400000
6618 15158 6956 1 109.50000 418.400000
6618 15158 7775 1 109.50000 418.400000
6618 15158 9896 1 109.50000 418.400000
6956 15158 7775 1 109.50000 418.400000
6956 15158 9896 1 109.50000 418.400000
7775 15158 9896 1 109.50000 418.400000
2376 15159 5223 1 109.50000 418.400000
2376 15159 9897 1 109.50000 418.400000
2376 15159 9898 1 109.50000 418.400000
5223 15159 9897 1 109.50000 418.400000
5223 15159 9898 1 109.50000 418.400000
9897 15159 9898 1 109.50000 418.400000
6077 15160 6451 1 109.50000 418.400000
6077 15160 8315 1 109.50000 418.400000
6077 15160 9899 1 109.50000 418.400000
6451 15160 8315 1 109.50000 418.400000
6451 15160 9899 1 109.50000 418.400000
8315 15160 9899 1 109.50000 418.400000
1290 15161 1397 1 109.50000 418.400000
1290 15161 6842 1 109.50000 418.400000
1290 15161 9669 1 109.50000 418.400000
1397 15161 6842 1 109.50000 418.400000
1397 15161 9669 1 109.50000 418.400000
6842 15161 9669 1 109.50000 418.400000
9491 15162 9900 1 109.50000 418.400000
9491 15162 9901 1 109.50000 418.400000
9491 15162 9902 1 109.50000 418.400000
9900 15162 9901 1 109.50000 418.400000
9900 15162 9902 1 109.50000 418.400000
9901 15162 9902 1 109.50000 418.400000
9903 15163 9904 1 109.50000 418.400000
9903 15163 9905 1 109.50000 418.400000
9903 15163 11447 1 109.50000 418.400000
9904 15163 9905 1 109.50000 418.400000
9904 15163 11447 1 109.50000 418.400000
9905 15163 11447 1 109.50000 418.400000
6400 15164 9485 1 109.50000 418.400000
6400 15164 9906 1 109.50000 418.400000
6400 15164 9907 1 109.50000 418.400000
9485 15164 9906 1 109.50000 418.400000
9485 15164 9907 1 109.50000 418.400000
9906 15164 9907 1 109.50000 418.400000
6501 15165 7524 1 109.50000 418.400000
6501 15165 9908 1 109.50000 418.400000
6501 15165 9909 1 109.50000 418.400000
7524 15165 9908 1 109.50000 418.400000
7524 15165 9909 1 109.50000 418.400000
9908 15165 9909 1 109.50000 418.400000
8372 15166 9750 1 109.50000 418.400000
8372 15166 9910 1 109.50000 418.400000
8372 15166 11335 1 109.50000 418.400000
9750 15166 9910 1 109.50000 418.400000
9750 15166 11335 1 109.50000 418.400000
9910 15166 11335 1 109.50000 418.400000
2499 15167 4539 1 109.50000 418.400000
2499 15167 8362 1 109.50000 418.400000
2499 15167 11178 1 109.50000 418.400000
4539 15167 8362 1 109.50000 418.400000
4539 15167 11178 1 109.50000 418.400000
8362 15167 11178 1 109.50000 418.400000
2131 15168 2740 1 109.50000 418.400000
2131 15168 5771 1 109.50000 418.400000
2131 15168 9911 1 109.50000 418.400000
2740 15168 5771 1 109.50000 418.400000
2740 15168 9911 1 109.50000 418.400000
5771 15168 9911 1 109.50000 418.400000
4405 15169 6207 1 109.50000 418.400000
4405 15169 8102 1 109.50000 418.400000
4405 15169 9912 1 109.50000 418.400000
6207 15169 8102 1 109.50000 418.400000
6207 15169 9912 1 109.50000 418.400000
8102 15169 9912 1 109.50000 418.400000
283 15170 9119 1 109.50000 418.400000
283 15170 9307 1 109.50000 418.400000
283 15170 9913 1 109.50000 418.400000
9119 15170 9307 1 109.50000 418.400000
9119 15170 9913 1 109.50000 418.400000
9307 15170 9913 1 109.50000 418.400000
1159 15171 7939 1 109.50000 418.400000
1159 15171 8543 1 109.50000 418.400000
1159 15171 9419 1 109.50000 418.400000
7939 15171 8543 1 109.50000 418.400000
7939 15171 9419 1 109.50000 418.400000
8543 15171 9419 1 109.50000 418.400000
244 15172 7626 1 109.50000 418.400000
244 15172 8793 1 109.50000 418.400000
244 15172 9192 1 109.50000 418.400000
7626 15172 8793 1 109.50000 418.400000
7626 15172 9192 1 109.50000 418.400000
8793 15172 9192 1 109.50000 418.400000
3882 15173 4474 1 109.50000 418.400000
3882 15173 9914 1 109.50000 418.400000
3882 15173 9915 1 109.50000 418.400000
4474 15173 9914 1 109.50000 418.400000
4474 15173 9915 1 109.50000 418.400000
9914 15173 9915 1 109.50000 418.400000
3508 15174 7768 1 109.50000 418.400000
3508 15174 8733 1 109.50000 418.400000
3508 15174 9916 1 109.50000 418.400000
7768 15174 8733 1 109.50000 418.400000
7768 15174 9916 1 109.50000 418.400000
8733 15174 9916 1 109.50000 418.400000
3906 15175 6845 1 109.50000 418.400000
3906 15175 9917 1 109.50000 418.400000
3906 15175 9918 1 109.50000 418.400000
6845 15175 9917 1 109.50000 418.400000
6845 15175 9918 1 109.50000 418.400000
9917 15175 9918 1 109.50000 418.400000
6841 15176 7138 1 109.50000 418.400000
6841 15176 9919 1 109.50000 418.400000
6841 15176 9920 1 109.50000 418.400000
7138 15176 9919 1 109.50000 418.400000
7138 15176 9920 1 109.50000 418.400000
9919 15176 9920 1 109.50000 418.400000
6195 15177 7176 1 109.50000 418.400000
6195 15177 8302 1 109.50000 418.400000
6195 15177 9921 1 109.50000 418.400000
7176 15177 8302 1 109.50000 418.400000
7176 15177 9921 1 109.50000 418.400000
8302 15177 9921 1 109.50000 418.400000
3498 15178 4671 1 109.50000 418.400000
3498 15178 5430 1 109.50000 418.400000
3498 15178 9922 1 109.50000 418.400000
4671 15178 5430 1 109.50000 418.400000
4671 15178 9922 1 109.50000 418.400000
5430 15178 9922 1 109.50000 418.400000
7077 15179 8896 1 109.50000 418.400000
7077 15179 9924 1 109.50000 418.400000
7077 15179 9925 1 109.50000 418.400000
8896 15179 9924 1 109.50000 418.400000
8896 15179 9925 1 109.50000 418.400000
9924 15179 9925 1 109.50000 418.400000
499 15180 9359 1 109.50000 418.400000
499 15180 9360 1 109.50000 418.400000
499 15180 9926 1 109.50000 418.400000
9359 15180 9360 1 109.50000 418.400000
9359 15180 9926 1 109.50000 418.400000
9360 15180 9926 1 109.50000 418.400000
8828 15181 9858 1 109.50000 418.400000
8828 15181 9927 1 109.50000 418.400000
8828 15181 11295 1 109.50000 418.400000
9858 15181 9927 1 109.50000 418.400000
9858 15181 11295 1 109.50000 418.400000
9927 15181 11295 1 109.50000 418.400000
1934 15182 3437 1 109.50000 418.400000
1934 15182 9809 1 109.50000 418.400000
1934 15182 9928 1 109.50000 418.400000
3437 15182 9809 1 109.50000 418.400000
3437 15182 9928 1 109.50000 418.400000
9809 15182 9928 1 109.50000 418.400000
2416 15183 8035 1 109.50000 418.400000
2416 15183 9759 1 109.50000 418.400000
2416 15183 9760 1 109.50000 418.400000
8035 15183 9759 1 109.50000 418.400000
8035 15183 9760 1 109.50000 418.400000
9759 15183 9760 1 109.50000 418.400000
3956 15184 4014 1 109.50000 418.400000
3956 15184 11372 1 109.50000 418.400000
3956 15184 11386 1 109.50000 418.400000
4014 15184 11372 1 109.50000 418.400000
4014 15184 11386 1 109.50000 418.400000
11372 15184 11386 1 109.50000 418.400000
5580 15185 5581 1 109.50000 418.400000
5580 15185 11167 1 109.50000 418.400000
5580 15185 11485 1 109.50000 418.400000
5581 15185 11167 1 109.50000 418.400000
5581 15185 11485 1 109.50000 418.400000
11167 15185 11485 1 109.50000 418.400000
463 15186 6477 1 109.50000 418.400000
463 15186 9142 1 109.50000 418.400000
463 15186 9929 1 109.50000 418.400000
6477 15186 9142 1 109.50000 418.400000
6477 15186 9929 1 109.50000 418.400000
9142 15186 9929 1 109.50000 418.400000
6519 15187 7624 1 109.50000 418.400000
6519 15187 9930 1 109.50000 418.400000
6519 15187 11285 1 109.50000 418.400000
7624 15187 9930 1 109.50000 418.400000
7624 15187 11285 1 109.50000 418.400000
9930 15187 11285 1 109.50000 418.400000
7530 15188 7795 1 109.50000 418.400000
7530 15188 9931 1 109.50000 418.400000
7530 15188 9932 1 109.50000 418.400000
7795 15188 9931 1 109.50000 418.400000
7795 15188 9932 1 109.50000 418.400000
9931 15188 9932 1 109.50000 418.400000
3285 15189 5981 1 109.50000 418.400000
3285 15189 9933 1 109.50000 418.400000
3285 15189 11287 1 109.50000 418.400000
5981 15189 9933 1 109.50000 418.400000
5981 15189 11287 1 109.50000 418.400000
9933 15189 11287 1 109.50000 418.400000
2902 15190 9239 1 109.50000 418.400000
2902 15190 9902 1 109.50000 418.400000
2902 15190 9934 1 109.50000 418.400000
9239 15190 9902 1 109.50000 418.400000
9239 15190 9934 1 109.50000 418.400000
9902 15190 9934 1 109.50000 418.400000
500 15191 3484 1 109.50000 418.400000
500 15191 9082 1 109.50000 418.400000
500 15191 9935 1 109.50000 418.400000
3484 15191 9082 1 109.50000 418.400000
3484 15191 9935 1 109.50000 418.400000
9082 15191 9935 1 109.50000 418.400000
3704 15192 5302 1 109.50000 418.400000
3704 15192 9936 1 109.50000 418.400000
3704 15192 9937 1 109.50000 418.400000
5302 15192 9936 1 109.50000 418.400000
5302 15192 9937 1 109.50000 418.400000
9936 15192 9937 1 109.50000 418.400000
4983 15193 8447 1 109.50000 418.400000
4983 15193 8487 1 109.50000 418.400000
4983 15193 9938 1 109.50000 418.400000
8447 15193 8487 1 109.50000 418.400000
8447 15193 9938 1 109.50000 418.400000
8487 15193 9938 1 109.50000 418.400000
2814 15194 8696 1 109.50000 418.400000
2814 15194 8897 1 109.50000 418.400000
2814 15194 9939 1 109.50000 418.400000
8696 15194 8897 1 109.50000 418.400000
8696 15194 9939 1 109.50000 418.400000
8897 15194 9939 1 109.50000 418.400000
3613 15195 9707 1 109.50000 418.400000
3613 15195 9941 1 109.50000 418.400000
3613 15195 9942 1 109.50000 418.400000
9707 15195 9941 1 109.50000 418.400000
9707 15195 9942 1 109.50000 418.400000
9941 15195 9942 1 109.50000 418.400000
2037 15196 2370 1 109.50000 418.400000
2037 15196 2393 1 109.50000 418.400000
2037 15196 7413 1 109.50000 418.400000
2370 15196 2393 1 109.50000 418.400000
2370 15196 7413 1 109.50000 418.400000
2393 15196 7413 1 109.50000 418.400000
1690 15197 4230 1 109.50000 418.400000
1690 15197 5194 1 109.50000 418.400000
1690 15197 9943 1 109.50000 418.400000
4230 15197 5194 1 109.50000 418.400000
4230 15197 9943 1 109.50000 418.400000
5194 15197 9943 1 109.50000 418.400000
3407 15198 7315 1 109.50000 418.400000
3407 15198 8080 1 109.50000 418.400000
3407 15198 9944 1 109.50000 418.400000
7315 15198 8080 1 109.50000 418.400000
7315 15198 9944 1 109.50000 418.400000
8080 15198 9944 1 109.50000 418.400000
5453 15199 5693 1 109.50000 418.400000
5453 15199 9945 1 109.50000 418.400000
5453 15199 9946 1 109.50000 418.400000
5693 15199 9945 1 109.50000 418.400000
5693 15199 9946 1 109.50000 418.400000
9945 15199 9946 1 109.50000 418.400000
6968 15200 6969 1 109.50000 418.400000
6968 15200 9947 1 109.50000 418.400000
6968 15200 9948 1 109.50000 418.400000
6969 15200 9947 1 109.50000 418.400000
6969 15200 9948 1 109.50000 418.400000
9947 15200 9948 1 109.50000 418.400000
2253 15201 9949 1 109.50000 418.400000
2253 15201 9950 1 109.50000 418.400000
2253 15201 11358 1 109.50000 418.400000
9949 15201 9950 1 109.50000 418.400000
9949 15201 11358 1 109.50000 418.400000
9950 15201 11358 1 109.50000 418.400000
9951 15202 9952 1 109.50000 418.400000
9951 15202 9953 1 109.50000 418.400000
9951 15202 9954 1 109.50000 418.400000
9952 15202 9953 1 109.50000 418.400000
9952 15202 9954 1 109.50000 418.400000
9953 15202 9954 1 109.50000 418.400000
897 15203 1855 1 109.50000 418.400000
897 15203 4030 1 109.50000 418.400000
897 15203 9051 1 109.50000 418.400000
1855 15203 4030 1 109.50000 418.400000
1855 15203 9051 1 109.50000 418.400000
4030 15203 9051 1 109.50000 418.400000
1006 15204 1493 1 109.50000 418.400000
1006 15204 4842 1 109.50000 418.400000
1006 15204 6137 1 109.50000 418.400000
1493 15204 4842 1 109.50000 418.400000
1493 15204 6137 1 109.50000 418.400000
4842 15204 6137 1 109.50000 418.400000
3760 15205 8515 1 109.50000 418.400000
3760 15205 9842 1 109.50000 418.400000
3760 15205 9956 1 109.50000 418.400000
8515 15205 9842 1 109.50000 418.400000
8515 15205 9956 1 109.50000 418.400000
9842 15205 9956 1 109.50000 418.400000
4163 15206 8342 1 109.50000 418.400000
4163 15206 9147 1 109.50000 418.400000
4163 15206 9957 1 109.50000 418.400000
8342 15206 9147 1 109.50000 418.400000
8342 15206 9957 1 109.50000 418.400000
9147 15206 9957 1 109.50000 418.400000
477 15207 1105 1 109.50000 418.400000
477 15207 9320 1 109.50000 418.400000
477 15207 9958 1 109.50000 418.400000
1105 15207 9320 1 109.50000 418.400000
1105 15207 9958 1 109.50000 418.400000
9320 15207 9958 1 109.50000 418.400000
4799 15208 5653 1 109.50000 418.400000
4799 15208 9959 1 109.50000 418.400000
4799 15208 9960 1 109.50000 418.400000
5653 15208 9959 1 109.50000 418.400000
5653 15208 9960 1 109.50000 418.400000
9959 15208 9960 1 109.50000 418.400000
748 15209 7086 1 109.50000 418.400000
748 15209 8798 1 109.50000 418.400000
748 15209 9961 1 109.50000 418.400000
7086 15209 8798 1 109.50000 418.400000
7086 15209 9961 1 109.50000 418.400000
8798 15209 9961 1 109.50000 418.400000
4148 15210 4840 1 109.50000 418.400000
4148 15210 9601 1 109.50000 418.400000
4148 15210 9964 1 109.50000 418.400000
4840 15210 9601 1 109.50000 418.400000
4840 15210 9964 1 109.50000 418.400000
9601 15210 9964 1 109.50000 418.400000
7834 15211 9965 1 109.50000 418.400000
7834 15211 9966 1 109.50000 418.400000
7834 15211 11401 1 109.50000 418.400000
9965 15211 9966 1 109.50000 418.400000
9965 15211 11401 1 109.50000 418.400000
9966 15211 11401 1 109.50000 418.400000
3745 15212 6210 1 109.50000 418.400000
3745 15212 9671 1 109.50000 418.400000
3745 15212 9967 1 109.50000 418.400000
6210 15212 9671 1 109.50000 418.400000
6210 15212 9967 1 109.50000 418.400000
9671 15212 9967 1 109.50000 418.400000
2658 15213 7995 1 109.50000 418.400000
2658 15213 9968 1 109.50000 418.400000
2658 15213 9969 1 109.50000 418.400000
7995 15213 9968 1 109.50000 418.400000
7995 15213 9969 1 109.50000 418.400000
9968 15213 9969 1 109.50000 418.400000
6483 15214 7553 1 109.50000 418.400000
6483 15214 8485 1 109.50000 418.400000
6483 15214 9970 1 109.50000 418.400000
7553 15214 8485 1 109.50000 418.400000
7553 15214 9970 1 109.50000 418.400000
8485 15214 9970 1 109.50000 418.400000
4303 15215 8384 1 109.50000 418.400000
4303 15215 8523 1 109.50000 418.400000
4303 15215 8866 1 109.50000 418.400000
8384 15215 8523 1 109.50000 418.400000
8384 15215 8866 1 109.50000 418.400000
8523 15215 8866 1 109.50000 418.400000
8153 15216 8876 1 109.50000 418.400000
8153 15216 9971 1 109.50000 418.400000
8153 15216 9972 1 109.50000 418.400000
8876 15216 9971 1 109.50000 418.400000
8876 15216 9972 1 109.50000 418.400000
9971 15216 9972 1 109.50000 418.400000
3040 15217 4377 1 109.50000 418.400000
3040 15217 9321 1 109.50000 418.400000
3040 15217 9973 1 109.50000 418.400000
4377 15217 9321 1 109.50000 418.400000
4377 15217 9973 1 109.50000 418.400000
9321 15217 9973 1 109.50000 418.400000
4618 15218 7921 1 109.50000 418.400000
4618 15218 9974 1 109.50000 418.400000
4618 15218 9975 1 109.50000 418.400000
7921 15218 9974 1 109.50000 418.400000
7921 15218 9975 1 109.50000 418.400000
9974 15218 9975 1 109.50000 418.400000
981 15219 982 1 109.50000 418.400000
981 15219 5667 1 109.50000 418.400000
981 15219 9976 1 109.50000 418.400000
982 15219 5667 1 109.50000 418.400000
982 15219 9976 1 109.50000 418.400000
5667 15219 9976 1 109.50000 418.400000
1286 15220 1287 1 109.50000 418.400000
1286 15220 6403 1 109.50000 418.400000
1286 15220 9977 1 109.50000 418.400000
1287 15220 6403 1 109.50000 418.400000
1287 15220 9977 1 109.50000 418.400000
6403 15220 9977 1 109.50000 418.400000
619 15221 4871 1 109.50000 418.400000
619 15221 8980 1 109.50000 418.400000
619 15221 11379 1 109.50000 418.400000
4871 15221 8980 1 109.50000 418.400000
4871 15221 11379 1 109.50000 418.400000
8980 15221 11379 1 109.50000 418.400000
4890 15222 9075 1 109.50000 418.400000
4890 15222 9979 1 109.50000 418.400000
4890 15222 9980 1 109.50000 418.400000
9075 15222 9979 1 109.50000 418.400000
9075 15222 9980 1 109.50000 418.400000
9979 15222 9980 1 109.50000 418.400000
1 15223 2440 1 109.50000 418.400000
1 15223 4345 1 109.50000 418.400000
1 15223 6630 1 109.50000 418.400000
2440 15223 4345 1 109.50000 418.400000
2440 15223 6630 1 109.50000 418.400000
4345 15223 6630 1 109.50000 418.400000
3178 15224 7101 1 109.50000 418.400000
3178 15224 8622 1 109.50000 418.400000
3178 15224 9982 1 109.50000 418.400000
7101 15224 8622 1 109.50000 418.400000
7101 15224 9982 1 109.50000 418.400000
8622 15224 9982 1 109.50000 418.400000
1173 15225 7395 1 109.50000 418.400000
1173 15225 9721 1 109.50000 418.400000
1173 15225 9983 1 109.50000 418.400000
7395 15225 9721 1 109.50000 418.400000
7395 15225 9983 1 109.50000 418.400000
9721 15225 9983 1 109.50000 418.400000
2287 15226 3514 1 109.50000 418.400000
2287 15226 9984 1 109.50000 418.400000
2287 15226 9985 1 109.50000 418.400000
3514 15226 9984 1 109.50000 418.400000
3514 15226 9985 1 109.50000 418.400000
9984 15226 9985 1 109.50000 418.400000
2274 15227 5032 1 109.50000 418.400000
2274 15227 9784 1 109.50000 418.400000
2274 15227 9986 1 109.50000 418.400000
5032 15227 9784 1 109.50000 418.400000
5032 15227 9986 1 109.50000 418.400000
9784 15227 9986 1 109.50000 418.400000
2502 15228 3473 1 109.50000 418.400000
2502 15228 6102 1 109.50000 418.400000
2502 15228 9447 1 109.50000 418.400000
3473 15228 6102 1 109.50000 418.400000
3473 15228 9447 1 109.50000 418.400000
6102 15228 9447 1 109.50000 418.400000
4688 15229 5979 1 109.50000 418.400000
4688 15229 9965 1 109.50000 418.400000
4688 15229 11375 1 109.50000 418.400000
5979 15229 9965 1 109.50000 418.400000
5979 15229 11375 1 109.50000 418.400000
9965 15229 11375 1 109.50000 418.400000
1787 15230 6409 1 109.50000 418.400000
1787 15230 9357 1 109.50000 418.400000
1787 15230 9987 1 109.50000 418.400000
6409 15230 9357 1 109.50000 418.400000
6409 15230 9987 1 109.50000 418.400000
9357 15230 9987 1 109.50000 418.400000
1976 15231 6840 1 109.50000 418.400000
1976 15231 9988 1 109.50000 418.400000
1976 15231 9989 1 109.50000 418.400000
6840 15231 9988 1 109.50000 418.400000
6840 15231 9989 1 109.50000 418.400000
9988 15231 9989 1 109.50000 418.400000
8178 15232 8246 1 109.50000 418.400000
8178 15232 9991 1 109.50000 418.400000
8178 15232 9992 1 109.50000 418.400000
8246 15232 9991 1 109.50000 418.400000
8246 15232 9992 1 109.50000 418.400000
9991 15232 9992 1 109.50000 418.400000
1796 15233 3472 1 109.50000 418.400000
1796 15233 9445 1 109.50000 418.400000
1796 15233 9996 1 109.50000 418.400000
3472 15233 9445 1 109.50000 418.400000
3472 15233 9996 1 109.50000 418.400000
9445 15233 9996 1 109.50000 418.400000
1912 15234 2566 1 109.50000 418.400000
1912 15234 5779 1 109.50000 418.400000
1912 15234 8837 1 109.50000 418.400000
2566 15234 5779 1 109.50000 418.400000
2566 15234 8837 1 109.50000 418.400000
5779 15234 8837 1 109.50000 418.400000
1535 15235 5451 1 109.50000 418.400000
1535 15235 8243 1 109.50000 418.400000
1535 15235 9816 1 109.50000 418.400000
5451 15235 8243 1 109.50000 418.400000
5451 15235 9816 1 109.50000 418.400000
8243 15235 9816 1 109.50000 418.400000
6179 15236 8637 1 109.50000 418.400000
6179 15236 9997 1 109.50000 418.400000
6179 15236 9998 1 109.50000 418.400000
8637 15236 9997 1 109.50000 418.400000
8637 15236 9998 1 109.50000 418.400000
9997 15236 9998 1 109.50000 418.400000
9468 15237 9999 1 109.50000 418.400000
9468 15237 10000 1 109.50000 418.400000
9468 15237 10001 1 109.50000 418.400000
9999 15237 10000 1 109.50000 418.400000
9999 15237 10001 1 109.50000 418.400000
10000 15237 10001 1 109.50000 418.400000
2325 15238 8024 1 109.50000 418.400000
2325 15238 8489 1 109.50000 418.400000
2325 15238 9481 1 109.50000 418.400000
8024 15238 8489 1 109.50000 418.400000
8024 15238 9481 1 109.50000 418.400000
8489 15238 9481 1 109.50000 418.400000
8190 15239 10002 1 109.50000 418.400000
8190 15239 10003 1 109.50000 418.400000
8190 15239 10004 1 109.50000 418.400000
10002 15239 10003 1 109.50000 418.400000
10002 15239 10004 1 109.50000 418.400000
10003 15239 10004 1 109.50000 418.400000
4615 15240 5718 1 109.50000 418.400000
4615 15240 10005 1 109.50000 418.400000
4615 15240 10006 1 109.50000 418.400000
5718 15240 10005 1 109.50000 418.400000
5718 15240 10006 1 109.50000 418.400000
10005 15240 10006 1 109.50000 418.400000
6819 15241 8169 1 109.50000 418.400000
6819 15241 9694 1 109.50000 418.400000
6819 15241 10007 1 109.50000 418.400000
8169 15241 9694 1 109.50000 418.400000
8169 15241 10007 1 109.50000 418.400000
9694 15241 10007 1 109.50000 418.400000
4287 15242 5900 1 109.50000 418.400000
4287 15242 6052 1 109.50000 418.400000
4287 15242 10008 1 109.50000 418.400000
5900 15242 6052 1 109.50000 418.400000
5900 15242 10008 1 109.50000 418.400000
6052 15242 10008 1 109.50000 418.400000
8852 15243 9856 1 109.50000 418.400000
8852 15243 9935 1 109.50000 418.400000
8852 15243 10009 1 109.50000 418.400000
9856 15243 9935 1 109.50000 418.400000
9856 15243 10009 1 109.50000 418.400000
9935 15243 10009 1 109.50000 418.400000
8146 15244 8918 1 109.50000 418.400000
8146 15244 10010 1 109.50000 418.400000
8146 15244 10011 1 109.50000 418.400000
8918 15244 10010 1 109.50000 418.400000
8918 15244 10011 1 109.50000 418.400000
10010 15244 10011 1 109.50000 418.400000
6602 15245 6878 1 109.50000 418.400000
6602 15245 8180 1 109.50000 418.400000
6602 15245 9805 1 109.50000 418.400000
6878 15245 8180 1 109.50000 418.400000
6878 15245 9805 1 109.50000 418.400000
8180 15245 9805 1 109.50000 418.400000
1330 15246 7807 1 109.50000 418.400000
1330 15246 10012 1 109.50000 418.400000
1330 15246 11138 1 109.50000 418.400000
7807 15246 10012 1 109.50000 418.400000
7807 15246 11138 1 109.50000 418.400000
10012 15246 11138 1 109.50000 418.400000
3123 15247 5452 1 109.50000 418.400000
3123 15247 10013 1 109.50000 418.400000
3123 15247 10014 1 109.50000 418.400000
5452 15247 10013 1 109.50000 418.400000
5452 15247 10014 1 109.50000 418.400000
10013 15247 10014 1 109.50000 418.400000
3296 15248 6626 1 109.50000 418.400000
3296 15248 7971 1 109.50000 418.400000
3296 15248 10015 1 109.50000 418.400000
6626 15248 7971 1 109.50000 418.400000
6626 15248 10015 1 109.50000 418.400000
7971 15248 10015 1 109.50000 418.400000
7167 15249 7738 1 109.50000 418.400000
7167 15249 10016 1 109.50000 418.400000
7167 15249 10017 1 109.50000 418.400000
7738 15249 10016 1 109.50000 418.400000
7738 15249 10017 1 109.50000 418.400000
10016 15249 10017 1 109.50000 418.400000
5741 15250 10018 1 109.50000 418.400000
5741 15250 10019 1 109.50000 418.400000
5741 15250 10020 1 109.50000 418.400000
10018 15250 10019 1 109.50000 418.400000
10018 15250 10020 1 109.50000 418.400000
10019 15250 10020 1 109.50000 418.400000
2019 15251 6569 1 109.50000 418.400000
2019 15251 10021 1 109.50000 418.400000
2019 15251 11197 1 109.50000 418.400000
6569 15251 10021 1 109.50000 418.400000
6569 15251 11197 1 109.50000 418.400000
10021 15251 11197 1 109.50000 418.400000
6401 15252 6585 1 109.50000 418.400000
6401 15252 10022 1 109.50000 418.400000
6401 15252 10023 1 109.50000 418.400000
6585 15252 10022 1 109.50000 418.400000
6585 15252 10023 1 109.50000 418.400000
10022 15252 10023 1 109.50000 418.400000
615 15253 6279 1 109.50000 418.400000
615 15253 8788 1 109.50000 418.400000
615 15253 10025 1 109.50000 418.400000
6279 15253 8788 1 109.50000 418.400000
6279 15253 10025 1 109.50000 418.400000
8788 15253 10025 1 109.50000 418.400000
1893 15254 2039 1 109.50000 418.400000
1893 15254 3214 1 109.50000 418.400000
1893 15254 10026 1 109.50000 418.400000
2039 15254 3214 1 109.50000 418.400000
2039 15254 10026 1 109.50000 418.400000
3214 15254 10026 1 109.50000 418.400000
5808 15255 7578 1 109.50000 418.400000
5808 15255 10027 1 109.50000 418.400000
5808 15255 10028 1 109.50000 418.400000
7578 15255 10027 1 109.50000 418.400000
7578 15255 10028 1 109.50000 418.400000
10027 15255 10028 1 109.50000 418.400000
2386 15256 4401 1 109.50000 418.400000
2386 15256 5228 1 109.50000 418.400000
2386 15256 5996 1 109.50000 418.400000
4401 15256 5228 1 109.50000 418.400000
4401 15256 5996 1 109.50000 418.400000
5228 15256 5996 1 109.50000 418.400000
8143 15257 8873 1 109.50000 418.400000
8143 15257 9415 1 109.50000 418.400000
8143 15257 10029 1 109.50000 418.400000
8873 15257 9415 1 109.50000 418.400000
8873 15257 10029 1 109.50000 418.400000
9415 15257 10029 1 109.50000 418.400000
2201 15258 7109 1 109.50000 418.400000
2201 15258 9822 1 109.50000 418.400000
2201 15258 9963 1 109.50000 418.400000
7109 15258 9822 1 109.50000 418.400000
7109 15258 9963 1 109.50000 418.400000
9822 15258 9963 1 109.50000 418.400000
6948 15259 6949 1 109.50000 418.400000
6948 15259 6950 1 109.50000 418.400000
6948 15259 10031 1 109.50000 418.400000
6949 15259 6950 1 109.50000 418.400000
6949 15259 10031 1 109.50000 418.400000
6950 15259 10031 1 109.50000 418.400000
69 15260 2698 1 109.50000 418.400000
69 15260 2913 1 109.50000 418.400000
69 15260 10033 1 109.50000 418.400000
2698 15260 2913 1 109.50000 418.400000
2698 15260 10033 1 109.50000 418.400000
2913 15260 10033 1 109.50000 418.400000
3204 15261 3278 1 109.50000 418.400000
3204 15261 4174 1 109.50000 418.400000
3204 15261 5240 1 109.50000 418.400000
3278 15261 4174 1 109.50000 418.400000
3278 15261 5240 1 109.50000 418.400000
4174 15261 5240 1 109.50000 418.400000
6415 15262 7232 1 109.50000 418.400000
6415 15262 8657 1 109.50000 418.400000
6415 15262 11147 1 109.50000 418.400000
7232 15262 8657 1 109.50000 418.400000
7232 15262 11147 1 109.50000 418.400000
8657 15262 11147 1 109.50000 418.400000
2998 15263 4855 1 109.50000 418.400000
2998 15263 7012 1 109.50000 418.400000
2998 15263 8909 1 109.50000 418.400000
4855 15263 7012 1 109.50000 418.400000
4855 15263 8909 1 109.50000 418.400000
7012 15263 8909 1 109.50000 418.400000
10034 15264 10035 1 109.50000 418.400000
10034 15264 10036 1 109.50000 418.400000
10034 15264 11298 1 109.50000 418.400000
10035 15264 10036 1 109.50000 418.400000
10035 15264 11298 1 109.50000 418.400000
10036 15264 11298 1 109.50000 418.400000
3975 15265 5425 1 109.50000 418.400000
3975 15265 10037 1 109.50000 418.400000
3975 15265 10038 1 109.50000 418.400000
5425 15265 10037 1 109.50000 418.400000
5425 15265 10038 1 109.50000 418.400000
10037 15265 10038 1 109.50000 418.400000
2720 15266 4867 1 109.50000 418.400000
2720 15266 5347 1 109.50000 418.400000
2720 15266 10039 1 109.50000 418.400000
4867 15266 5347 1 109.50000 418.400000
4867 15266 10039 1 109.50000 418.400000
5347 15266 10039 1 109.50000 418.400000
4284 15267 4285 1 109.50000 418.400000
4284 15267 4946 1 109.50000 418.400000
4284 15267 10040 1 109.50000 418.400000
4285 15267 4946 1 109.50000 418.400000
4285 15267 10040 1 109.50000 418.400000
4946 15267 10040 1 109.50000 418.400000
1283 15268 8195 1 109.50000 418.400000
1283 15268 9115 1 109.50000 418.400000
1283 15268 10041 1 109.50000 418.400000
8195 15268 9115 1 109.50000 418.400000
8195 15268 10041 1 109.50000 418.400000
9115 15268 10041 1 109.50000 418.400000
1865 15269 6926 1 109.50000 418.400000
1865 15269 10042 1 109.50000 418.400000
1865 15269 10043 1 109.50000 418.400000
6926 15269 10042 1 109.50000 418.400000
6926 15269 10043 1 109.50000 418.400000
10042 15269 10043 1 109.50000 418.400000
4301 15270 6319 1 109.50000 418.400000
4301 15270 6690 1 109.50000 418.400000
4301 15270 8004 1 109.50000 418.400000
6319 15270 6690 1 109.50000 418.400000
6319 15270 8004 1 109.50000 418.400000
6690 15270 8004 1 109.50000 418.400000
3019 15271 7810 1 109.50000 418.400000
3019 15271 10044 1 109.50000 418.400000
3019 15271 10045 1 109.50000 418.400000
7810 15271 10044 1 109.50000 418.400000
7810 15271 10045 1 109.50000 418.400000
10044 15271 10045 1 109.50000 418.400000
9029 15272 10046 1 109.50000 418.400000
9029 15272 10047 1 109.50000 418.400000
9029 15272 11483 1 109.50000 418.400000
10046 15272 10047 1 109.50000 418.400000
10046 15272 11483 1 109.50000 418.400000
10047 15272 11483 1 109.50000 418.400000
3939 15273 5894 1 109.50000 418.400000
3939 15273 9430 1 109.50000 418.400000
3939 15273 10048 1 109.50000 418.400000
5894 15273 9430 1 109.50000 418.400000
5894 15273 10048 1 109.50000 418.400000
9430 15273 10048 1 109.50000 418.400000
3385 15274 4053 1 109.50000 418.400000
3385 15274 10049 1 109.50000 418.400000
3385 15274 10050 1 109.50000 418.400000
4053 15274 10049 1 109.50000 418.400000
4053 15274 10050 1 109.50000 418.400000
10049 15274 10050 1 109.50000 418.400000
2337 15275 4276 1 109.50000 418.400000
2337 15275 6112 1 109.50000 418.400000
2337 15275 6113 1 109.50000 418.400000
4276 15275 6112 1 109.50000 418.400000
4276 15275 6113 1 109.50000 418.400000
6112 15275 6113 1 109.50000 418.400000
5849 15276 8494 1 109.50000 418.400000
5849 15276 10053 1 109.50000 418.400000
5849 15276 11246 1 109.50000 418.400000
8494 15276 10053 1 109.50000 418.400000
8494 15276 11246 1 109.50000 418.400000
10053 15276 11246 1 109.50000 418.400000
4263 15277 6565 1 109.50000 418.400000
4263 15277 6672 1 109.50000 418.400000
4263 15277 10054 1 109.50000 418.400000
6565 15277 6672 1 109.50000 418.400000
6565 15277 10054 1 109.50000 418.400000
6672 15277 10054 1 109.50000 418.400000
3170 15278 6055 1 109.50000 418.400000
3170 15278 6881 1 109.50000 418.400000
3170 15278 8802 1 109.50000 418.400000
6055 15278 6881 1 109.50000 418.400000
6055 15278 8802 1 109.50000 418.400000
6881 15278 8802 1 109.50000 418.400000
1504 15279 1638 1 109.50000 418.400000
1504 15279 8437 1 109.50000 418.400000
1504 15279 10056 1 109.50000 418.400000
1638 15279 8437 1 109.50000 418.400000
1638 15279 10056 1 109.50000 418.400000
8437 15279 10056 1 109.50000 418.400000
4020 15280 4409 1 109.50000 418.400000
4020 15280 10057 1 109.50000 418.400000
4020 15280 10058 1 109.50000 418.400000
4409 15280 10057 1 109.50000 418.400000
4409 15280 10058 1 109.50000 418.400000
10057 15280 10058 1 109.50000 418.400000
1010 15281 1011 1 109.50000 418.400000
1010 15281 1676 1 109.50000 418.400000
1010 15281 2796 1 109.50000 418.400000
1011 15281 1676 1 109.50000 418.400000
1011 15281 2796 1 109.50000 418.400000
1676 15281 2796 1 109.50000 418.400000
8782 15282 10059 1 109.50000 418.400000
8782 15282 10060 1 109.50000 418.400000
8782 15282 10061 1 109.50000 418.400000
10059 15282 10060 1 109.50000 418.400000
10059 15282 10061 1 109.50000 418.400000
10060 15282 10061 1 109.50000 418.400000
2421 15283 2591 1 109.50000 418.400000
2421 15283 11191 1 109.50000 418.400000
2421 15283 11266 1 109.50000 418.400000
2591 15283 11191 1 109.50000 418.400000
2591 15283 11266 1 109.50000 418.400000
11191 15283 11266 1 109.50000 418.400000
5179 15284 7237 1 109.50000 418.400000
5179 15284 9717 1 109.50000 418.400000
5179 15284 10672 1 109.50000 418.400000
7237 15284 9717 1 109.50000 418.400000
7237 15284 10672 1 109.50000 418.400000
9717 15284 10672 1 109.50000 418.400000
1536 15285 5811 1 109.50000 418.400000
1536 15285 8144 1 109.50000 418.400000
1536 15285 10064 1 109.50000 418.400000
5811 15285 8144 1 109.50000 418.400000
5811 15285 10064 1 109.50000 418.400000
8144 15285 10064 1 109.50000 418.400000
2301 15286 4835 1 109.50000 418.400000
2301 15286 9152 1 109.50000 418.400000
2301 15286 9942 1 109.50000 418.400000
4835 15286 9152 1 109.50000 418.400000
4835 15286 9942 1 109.50000 418.400000
9152 15286 9942 1 109.50000 418.400000
1508 15287 7149 1 109.50000 418.400000
1508 15287 10065 1 109.50000 418.400000
1508 15287 10066 1 109.50000 418.400000
7149 15287 10065 1 109.50000 418.400000
7149 15287 10066 1 109.50000 418.400000
10065 15287 10066 1 109.50000 418.400000
474 15288 6309 1 109.50000 418.400000
474 15288 7446 1 109.50000 418.400000
474 15288 10067 1 109.50000 418.400000
6309 15288 7446 1 109.50000 418.400000
6309 15288 10067 1 109.50000 418.400000
7446 15288 10067 1 109.50000 418.400000
3598 15289 8396 1 109.50000 418.400000
3598 15289 9398 1 109.50000 418.400000
3598 15289 9836 1 109.50000 418.400000
8396 15289 9398 1 109.50000 418.400000
8396 15289 9836 1 109.50000 418.400000
9398 15289 9836 1 109.50000 418.400000
1595 15290 2249 1 109.50000 418.400000
1595 15290 2471 1 109.50000 418.400000
1595 15290 8813 1 109.50000 418.400000
2249 15290 2471 1 109.50000 418.400000
2249 15290 8813 1 109.50000 418.400000
2471 15290 8813 1 109.50000 418.400000
2073 15291 3853 1 109.50000 418.400000
2073 15291 4594 1 109.50000 418.400000
2073 15291 6870 1 109.50000 418.400000
3853 15291 4594 1 109.50000 418.400000
3853 15291 6870 1 109.50000 418.400000
4594 15291 6870 1 109.50000 418.400000
2112 15292 10068 1 109.50000 418.400000
2112 15292 10069 1 109.50000 418.400000
2112 15292 11449 1 109.50000 418.400000
10068 15292 10069 1 109.50000 418.400000
10068 15292 11449 1 109.50000 418.400000
10069 15292 11449 1 109.50000 418.400000
7120 15293 7986 1 109.50000 418.400000
7120 15293 9956 1 109.50000 418.400000
7120 15293 10070 1 109.50000 418.400000
7986 15293 9956 1 109.50000 418.400000
7986 15293 10070 1 109.50000 418.400000
9956 15293 10070 1 109.50000 418.400000
4522 15294 4643 1 109.50000 418.400000
4522 15294 6362 1 109.50000 418.400000
4522 15294 10071 1 109.50000 418.400000
4643 15294 6362 1 109.50000 418.400000
4643 15294 10071 1 109.50000 418.400000
6362 15294 10071 1 109.50000 418.400000
4241 15295 9371 1 109.50000 418.400000
4241 15295 10072 1 109.50000 418.400000
4241 15295 10073 1 109.50000 418.400000
9371 15295 10072 1 109.50000 418.400000
9371 15295 10073 1 109.50000 418.400000
10072 15295 10073 1 109.50000 418.400000
1788 15296 5761 1 109.50000 418.400000
1788 15296 5764 1 109.50000 418.400000
1788 15296 10074 1 109.50000 418.400000
5761 15296 5764 1 109.50000 418.400000
5761 15296 10074 1 109.50000 418.400000
5764 15296 10074 1 109.50000 418.400000
1461 15297 5164 1 109.50000 418.400000
1461 15297 8299 1 109.50000 418.400000
1461 15297 10076 1 109.50000 418.400000
5164 15297 8299 1 109.50000 418.400000
5164 15297 10076 1 109.50000 418.400000
8299 15297 10076 1 109.50000 418.400000
1156 15298 10077 1 109.50000 418.400000
1156 15298 10078 1 109.50000 418.400000
1156 15298 10079 1 109.50000 418.400000
10077 15298 10078 1 109.50000 418.400000
10077 15298 10079 1 109.50000 418.400000
10078 15298 10079 1 109.50000 418.400000
5852 15299 8814 1 109.50000 418.400000
5852 15299 9591 1 109.50000 418.400000
5852 15299 9725 1 109.50000 418.400000
8814 15299 9591 1 109.50000 418.400000
8814 15299 9725 1 109.50000 418.400000
9591 15299 9725 1 109.50000 418.400000
6572 15300 6574 1 109.50000 418.400000
6572 15300 10081 1 109.50000 418.400000
6572 15300 11395 1 109.50000 418.400000
6574 15300 10081 1 109.50000 418.400000
6574 15300 11395 1 109.50000 418.400000
10081 15300 11395 1 109.50000 418.400000
8978 15301 9264 1 109.50000 418.400000
8978 15301 9449 1 109.50000 418.400000
8978 15301 9843 1 109.50000 418.400000
9264 15301 9449 1 109.50000 418.400000
9264 15301 9843 1 109.50000 418.400000
9449 15301 9843 1 109.50000 418.400000
5044 15302 6514 1 109.50000 418.400000
5044 15302 7184 1 109.50000 418.400000
5044 15302 9374 1 109.50000 418.400000
6514 15302 7184 1 109.50000 418.400000
6514 15302 9374 1 109.50000 418.400000
7184 15302 9374 1 109.50000 418.400000
1935 15303 6624 1 109.50000 418.400000
1935 15303 6850 1 109.50000 418.400000
1935 15303 9641 1 109.50000 418.400000
6624 15303 6850 1 109.50000 418.400000
6624 15303 9641 1 109.50000 418.400000
6850 15303 9641 1 109.50000 418.400000
4886 15304 7515 1 109.50000 418.400000
4886 15304 9631 1 109.50000 418.400000
4886 15304 10087 1 109.50000 418.400000
7515 15304 9631 1 109.50000 418.400000
7515 15304 10087 1 109.50000 418.400000
9631 15304 10087 1 109.50000 418.400000
5017 15305 5489 1 109.50000 418.400000
5017 15305 9255 1 109.50000 418.400000
5017 15305 10088 1 109.50000 418.400000
5489 15305 9255 1 109.50000 418.400000
5489 15305 10088 1 109.50000 418.400000
9255 15305 10088 1 109.50000 418.400000
2151 15306 6376 1 109.50000 418.400000
2151 15306 7672 1 109.50000 418.400000
2151 15306 10089 1 109.50000 418.400000
6376 15306 7672 1 109.50000 418.400000
6376 15306 10089 1 109.50000 418.400000
7672 15306 10089 1 109.50000 418.400000
5294 15307 8251 1 109.50000 418.400000
5294 15307 9884 1 109.50000 418.400000
5294 15307 10090 1 109.50000 418.400000
8251 15307 9884 1 109.50000 418.400000
8251 15307 10090 1 109.50000 418.400000
9884 15307 10090 1 109.50000 418.400000
2898 15308 7769 1 109.50000 418.400000
2898 15308 9464 1 109.50000 418.400000
2898 15308 9674 1 109.50000 418.400000
7769 15308 9464 1 109.50000 418.400000
7769 15308 9674 1 109.50000 418.400000
9464 15308 9674 1 109.50000 418.400000
7781 15309 9496 1 109.50000 418.400000
7781 15309 10091 1 109.50000 418.400000
7781 15309 10092 1 109.50000 418.400000
9496 15309 10091 1 109.50000 418.400000
9496 15309 10092 1 109.50000 418.400000
10091 15309 10092 1 109.50000 418.400000
9355 15310 9874 1 109.50000 418.400000
9355 15310 10093 1 109.50000 418.400000
9355 15310 10094 1 109.50000 418.400000
9874 15310 10093 1 109.50000 418.400000
9874 15310 10094 1 109.50000 418.400000
10093 15310 10094 1 109.50000 418.400000
5274 15311 8241 1 109.50000 418.400000
5274 15311 10095 1 109.50000 418.400000
5274 15311 10096 1 109.50000 418.400000
8241 15311 10095 1 109.50000 418.400000
8241 15311 10096 1 109.50000 418.400000
10095 15311 10096 1 109.50000 418.400000
4331 15312 8194 1 109.50000 418.400000
4331 15312 9864 1 109.50000 418.400000
4331 15312 10097 1 109.50000 418.400000
8194 15312 9864 1 109.50000 418.400000
8194 15312 10097 1 109.50000 418.400000
9864 15312 10097 1 109.50000 418.400000
2555 15313 4693 1 109.50000 418.400000
2555 15313 9229 1 109.50000 418.400000
2555 15313 9563 1 109.50000 418.400000
4693 15313 9229 1 109.50000 418.400000
4693 15313 9563 1 109.50000 418.400000
9229 15313 9563 1 109.50000 418.400000
5087 15314 7556 1 109.50000 418.400000
5087 15314 8177 1 109.50000 418.400000
5087 15314 8937 1 109.50000 418.400000
7556 15314 8177 1 109.50000 418.400000
7556 15314 8937 1 109.50000 418.400000
8177 15314 8937 1 109.50000 418.400000
4506 15315 6256 1 109.50000 418.400000
4506 15315 8279 1 109.50000 418.400000
4506 15315 8339 1 109.50000 418.400000
6256 15315 8279 1 109.50000 418.400000
6256 15315 8339 1 109.50000 418.400000
8279 15315 8339 1 109.50000 418.400000
8076 15316 8637 1 109.50000 418.400000
8076 15316 8638 1 109.50000 418.400000
8076 15316 8639 1 109.50000 418.400000
8637 15316 8638 1 109.50000 418.400000
8637 15316 8639 1 109.50000 418.400000
8638 15316 8639 1 109.50000 418.400000
3615 15317 10098 1 109.50000 418.400000
3615 15317 10099 1 109.50000 418.400000
3615 15317 10100 1 109.50000 418.400000
10098 15317 10099 1 109.50000 418.400000
10098 15317 10100 1 109.50000 418.400000
10099 15317 10100 1 109.50000 418.400000
5529 15318 6018 1 109.50000 418.400000
5529 15318 8936 1 109.50000 418.400000
5529 15318 10101 1 109.50000 418.400000
6018 15318 8936 1 109.50000 418.400000
6018 15318 10101 1 109.50000 418.400000
8936 15318 10101 1 109.50000 418.400000
2955 15319 4387 1 109.50000 418.400000
2955 15319 10102 1 109.50000 418.400000
2955 15319 10103 1 109.50000 418.400000
4387 15319 10102 1 109.50000 418.400000
4387 15319 10103 1 109.50000 418.400000
10102 15319 10103 1 109.50000 418.400000
568 15320 2239 1 109.50000 418.400000
568 15320 7509 1 109.50000 418.400000
568 15320 11366 1 109.50000 418.400000
2239 15320 7509 1 109.50000 418.400000
2239 15320 11366 1 109.50000 418.400000
7509 15320 11366 1 109.50000 418.400000
670 15321 4937 1 109.50000 418.400000
670 15321 4939 1 109.50000 418.400000
670 15321 9314 1 109.50000 418.400000
4937 15321 4939 1 109.50000 418.400000
4937 15321 9314 1 109.50000 418.400000
4939 15321 9314 1 109.50000 418.400000
763 15322 4095 1 109.50000 418.400000
763 15322 9273 1 109.50000 418.400000
763 15322 10106 1 109.50000 418.400000
4095 15322 9273 1 109.50000 418.400000
4095 15322 10106 1 109.50000 418.400000
9273 15322 10106 1 109.50000 418.400000
3163 15323 5783 1 109.50000 418.400000
3163 15323 9071 1 109.50000 418.400000
3163 15323 10107 1 109.50000 418.400000
5783 15323 9071 1 109.50000 418.400000
5783 15323 10107 1 109.50000 418.400000
9071 15323 10107 1 109.50000 418.400000
2264 15324 4328 1 109.50000 418.400000
2264 15324 10108 1 109.50000 418.400000
2264 15324 10109 1 109.50000 418.400000
4328 15324 10108 1 109.50000 418.400000
4328 15324 10109 1 109.50000 418.400000
10108 15324 10109 1 109.50000 418.400000
9097 15325 9564 1 109.50000 418.400000
9097 15325 10110 1 109.50000 418.400000
9097 15325 10111 1 109.50000 418.400000
9564 15325 10110 1 109.50000 418.400000
9564 15325 10111 1 109.50000 418.400000
10110 15325 10111 1 109.50000 418.400000
1383 15326 8673 1 109.50000 418.400000
1383 15326 10112 1 109.50000 418.400000
1383 15326 10113 1 109.50000 418.400000
8673 15326 10112 1 109.50000 418.400000
8673 15326 10113 1 109.50000 418.400000
10112 15326 10113 1 109.50000 418.400000
2775 15327 8475 1 109.50000 418.400000
2775 15327 9067 1 109.50000 418.400000
2775 15327 10114 1 109.50000 418.400000
8475 15327 9067 1 109.50000 418.400000
8475 15327 10114 1 109.50000 418.400000
9067 15327 10114 1 109.50000 418.400000
2939 15328 10000 1 109.50000 418.400000
2939 15328 10115 1 109.50000 418.400000
2939 15328 10116 1 109.50000 418.400000
10000 15328 10115 1 109.50000 418.400000
10000 15328 10116 1 109.50000 418.400000
10115 15328 10116 1 109.50000 418.400000
28 15329 1208 1 109.50000 418.400000
28 15329 10117 1 109.50000 418.400000
28 15329 10118 1 109.50000 418.400000
1208 15329 10117 1 109.50000 418.400000
1208 15329 10118 1 109.50000 418.400000
10117 15329 10118 1 109.50000 418.400000
1367 15330 5744 1 109.50000 418.400000
1367 15330 8355 1 109.50000 418.400000
1367 15330 8558 1 109.50000 418.400000
5744 15330 8355 1 109.50000 418.400000
5744 15330 8558 1 109.50000 418.400000
8355 15330 8558 1 109.50000 418.400000
1441 15331 4269 1 109.50000 418.400000
1441 15331 9981 1 109.50000 418.400000
1441 15331 10120 1 109.50000 418.400000
4269 15331 9981 1 109.50000 418.400000
4269 15331 10120 1 109.50000 418.400000
9981 15331 10120 1 109.50000 418.400000
3507 15332 7330 1 109.50000 418.400000
3507 15332 8286 1 109.50000 418.400000
3507 15332 9267 1 109.50000 418.400000
7330 15332 8286 1 109.50000 418.400000
7330 15332 9267 1 109.50000 418.400000
8286 15332 9267 1 109.50000 418.400000
2801 15333 4187 1 109.50000 418.400000
2801 15333 9736 1 109.50000 418.400000
2801 15333 10122 1 109.50000 418.400000
4187 15333 9736 1 109.50000 418.400000
4187 15333 10122 1 109.50000 418.400000
9736 15333 10122 1 109.50000 418.400000
3822 15334 5243 1 109.50000 418.400000
3822 15334 9343 1 109.50000 418.400000
3822 15334 10123 1 109.50000 418.400000
5243 15334 9343 1 109.50000 418.400000
5243 15334 10123 1 109.50000 418.400000
9343 15334 10123 1 109.50000 418.400000
148 15335 150 1 109.50000 418.400000
148 15335 1489 1 109.50000 418.400000
148 15335 7074 1 109.50000 418.400000
150 15335 1489 1 109.50000 418.400000
150 15335 7074 1 109.50000 418.400000
1489 15335 7074 1 109.50000 418.400000
5020 15336 7250 1 109.50000 418.400000
5020 15336 10124 1 109.50000 418.400000
5020 15336 11519 1 109.50000 418.400000
7250 15336 10124 1 109.50000 418.400000
7250 15336 11519 1 109.50000 418.400000
10124 15336 11519 1 109.50000 418.400000
8055 15337 10010 1 109.50000 418.400000
8055 15337 10125 1 109.50000 418.400000
8055 15337 10126 1 109.50000 418.400000
10010 15337 10125 1 109.50000 418.400000
10010 15337 10126 1 109.50000 418.400000
10125 15337 10126 1 109.50000 418.400000
3512 15338 4572 1 109.50000 418.400000
3512 15338 8833 1 109.50000 418.400000
3512 15338 10127 1 109.50000 418.400000
4572 15338 8833 1 109.50000 418.400000
4572 15338 10127 1 109.50000 418.400000
8833 15338 10127 1 109.50000 418.400000
2774 15339 4824 1 109.50000 418.400000
2774 15339 8269 1 109.50000 418.400000
2774 15339 10128 1 109.50000 418.400000
4824 15339 8269 1 109.50000 418.400000
4824 15339 10128 1 109.50000 418.400000
8269 15339 10128 1 109.50000 418.400000
6682 15340 7617 1 109.50000 418.400000
6682 15340 8455 1 109.50000 418.400000
6682 15340 9870 1 109.50000 418.400000
7617 15340 8455 1 109.50000 418.400000
7617 15340 9870 1 109.50000 418.400000
8455 15340 9870 1 109.50000 418.400000
1072 15341 8724 1 109.50000 418.400000
1072 15341 10129 1 109.50000 418.400000
1072 15341 10130 1 109.50000 418.400000
8724 15341 10129 1 109.50000 418.400000
8724 15341 10130 1 109.50000 418.400000
10129 15341 10130 1 109.50000 418.400000
3659 15342 3663 1 109.50000 418.400000
3659 15342 9347 1 109.50000 418.400000
3659 15342 10131 1 109.50000 418.400000
3663 15342 9347 1 109.50000 418.400000
3663 15342 10131 1 109.50000 418.400000
9347 15342 10131 1 109.50000 418.400000
10132 15343 10133 1 109.50000 418.400000
10132 15343 10134 1 109.50000 418.400000
10132 15343 10135 1 109.50000 418.400000
10133 15343 10134 1 109.50000 418.400000
10133 15343 10135 1 109.50000 418.400000
10134 15343 10135 1 109.50000 418.400000
7808 15344 8759 1 109.50000 418.400000
7808 15344 9331 1 109.50000 418.400000
7808 15344 10136 1 109.50000 418.400000
8759 15344 9331 1 109.50000 418.400000
8759 15344 10136 1 109.50000 418.400000
9331 15344 10136 1 109.50000 418.400000
1402 15345 4903 1 109.50000 418.400000
1402 15345 10110 1 109.50000 418.400000
1402 15345 10137 1 109.50000 418.400000
4903 15345 10110 1 109.50000 418.400000
4903 15345 10137 1 109.50000 418.400000
10110 15345 10137 1 109.50000 418.400000
2038 15346 6699 1 109.50000 418.400000
2038 15346 10118 1 109.50000 418.400000
2038 15346 10138 1 109.50000 418.400000
6699 15346 10118 1 109.50000 418.400000
6699 15346 10138 1 109.50000 418.400000
10118 15346 10138 1 109.50000 418.400000
2987 15347 7606 1 109.50000 418.400000
2987 15347 7673 1 109.50000 418.400000
2987 15347 10114 1 109.50000 418.400000
7606 15347 7673 1 109.50000 418.400000
7606 15347 10114 1 109.50000 418.400000
7673 15347 10114 1 109.50000 418.400000
1478 15348 1918 1 109.50000 418.400000
1478 15348 7912 1 109.50000 418.400000
1478 15348 10139 1 109.50000 418.400000
1918 15348 7912 1 109.50000 418.400000
1918 15348 10139 1 109.50000 418.400000
7912 15348 10139 1 109.50000 418.400000
2890 15349 9603 1 109.50000 418.400000
2890 15349 10140 1 109.50000 418.400000
2890 15349 11219 1 109.50000 418.400000
9603 15349 10140 1 109.50000 418.400000
9603 15349 11219 1 109.50000 418.400000
10140 15349 11219 1 109.50000 418.400000
4151 15350 5884 1 109.50000 418.400000
4151 15350 8645 1 109.50000 418.400000
4151 15350 10021 1 109.50000 418.400000
5884 15350 8645 1 109.50000 418.400000
5884 15350 10021 1 109.50000 418.400000
8645 15350 10021 1 109.50000 418.400000
672 15351 6966 1 109.50000 418.400000
672 15351 7069 1 109.50000 418.400000
672 15351 10094 1 109.50000 418.400000
6966 15351 7069 1 109.50000 418.400000
6966 15351 10094 1 109.50000 418.400000
7069 15351 10094 1 109.50000 418.400000
3834 15352 9092 1 109.50000 418.400000
3834 15352 10141 1 109.50000 418.400000
3834 15352 11464 1 109.50000 418.400000
9092 15352 10141 1 109.50000 418.400000
9092 15352 11464 1 109.50000 418.400000
10141 15352 11464 1 109.50000 418.400000
2938 15353 7391 1 109.50000 418.400000
2938 15353 8983 1 109.50000 418.400000
2938 15353 10142 1 109.50000 418.400000
7391 15353 8983 1 109.50000 418.400000
7391 15353 10142 1 109.50000 418.400000
8983 15353 10142 1 109.50000 418.400000
2624 15354 10143 1 109.50000 418.400000
2624 15354 11245 1 109.50000 418.400000
2624 15354 11380 1 109.50000 418.400000
10143 15354 11245 1 109.50000 418.400000
10143 15354 11380 1 109.50000 418.400000
11245 15354 11380 1 109.50000 418.400000
469 15355 3072 1 109.50000 418.400000
469 15355 10144 1 109.50000 418.400000
469 15355 11534 1 109.50000 418.400000
3072 15355 10144 1 109.50000 418.400000
3072 15355 11534 1 109.50000 418.400000
10144 15355 11534 1 109.50000 418.400000
3643 15356 10145 1 109.50000 418.400000
3643 15356 10146 1 109.50000 418.400000
3643 15356 10147 1 109.50000 418.400000
10145 15356 10146 1 109.50000 418.400000
10145 15356 10147 1 109.50000 418.400000
10146 15356 10147 1 109.50000 418.400000
4966 15357 6647 1 109.50000 418.400000
4966 15357 9544 1 109.50000 418.400000
4966 15357 9592 1 109.50000 418.400000
6647 15357 9544 1 109.50000 418.400000
6647 15357 9592 1 109.50000 418.400000
9544 15357 9592 1 109.50000 418.400000
241 15358 9643 1 109.50000 418.400000
241 15358 11194 1 109.50000 418.400000
241 15358 11392 1 109.50000 418.400000
9643 15358 11194 1 109.50000 418.400000
9643 15358 11392 1 109.50000 418.400000
11194 15358 11392 1 109.50000 418.400000
9460 15359 10148 1 109.50000 418.400000
9460 15359 10149 1 109.50000 418.400000
9460 15359 11451 1 109.50000 418.400000
10148 15359 10149 1 109.50000 418.400000
10148 15359 11451 1 109.50000 418.400000
10149 15359 11451 1 109.50000 418.400000
4796 15360 4803 1 109.50000 418.400000
4796 15360 8838 1 109.50000 418.400000
4796 15360 10151 1 109.50000 418.400000
4803 15360 8838 1 109.50000 418.400000
4803 15360 10151 1 109.50000 418.400000
8838 15360 10151 1 109.50000 418.400000
3241 15361 5109 1 109.50000 418.400000
3241 15361 6990 1 109.50000 418.400000
3241 15361 10152 1 109.50000 418.400000
5109 15361 6990 1 109.50000 418.400000
5109 15361 10152 1 109.50000 418.400000
6990 15361 10152 1 109.50000 418.400000
4714 15362 5147 1 109.50000 418.400000
4714 15362 8135 1 109.50000 418.400000
4714 15362 9758 1 109.50000 418.400000
5147 15362 8135 1 109.50000 418.400000
5147 15362 9758 1 109.50000 418.400000
8135 15362 9758 1 109.50000 418.400000
7730 15363 8908 1 109.50000 418.400000
7730 15363 10153 1 109.50000 418.400000
7730 15363 10154 1 109.50000 418.400000
8908 15363 10153 1 109.50000 418.400000
8908 15363 10154 1 109.50000 418.400000
10153 15363 10154 1 109.50000 418.400000
1749 15364 5021 1 109.50000 418.400000
1749 15364 6740 1 109.50000 418.400000
1749 15364 10155 1 109.50000 418.400000
5021 15364 6740 1 109.50000 418.400000
5021 15364 10155 1 109.50000 418.400000
6740 15364 10155 1 109.50000 418.400000
6730 15365 7205 1 109.50000 418.400000
6730 15365 8646 1 109.50000 418.400000
6730 15365 10157 1 109.50000 418.400000
7205 15365 8646 1 109.50000 418.400000
7205 15365 10157 1 109.50000 418.400000
8646 15365 10157 1 109.50000 418.400000
202 15366 204 1 109.50000 418.400000
202 15366 9061 1 109.50000 418.400000
202 15366 10158 1 109.50000 418.400000
204 15366 9061 1 109.50000 418.400000
204 15366 10158 1 109.50000 418.400000
9061 15366 10158 1 109.50000 418.400000
1691 15367 7476 1 109.50000 418.400000
1691 15367 7658 1 109.50000 418.400000
1691 15367 10159 1 109.50000 418.400000
7476 15367 7658 1 109.50000 418.400000
7476 15367 10159 1 109.50000 418.400000
7658 15367 10159 1 109.50000 418.400000
3558 15368 6982 1 109.50000 418.400000
3558 15368 9039 1 109.50000 418.400000
3558 15368 10160 1 109.50000 418.400000
6982 15368 9039 1 109.50000 418.400000
6982 15368 10160 1 109.50000 418.400000
9039 15368 10160 1 109.50000 418.400000
1551 15369 6919 1 109.50000 418.400000
1551 15369 7629 1 109.50000 418.400000
1551 15369 9916 1 109.50000 418.400000
6919 15369 7629 1 109.50000 418.400000
6919 15369 9916 1 109.50000 418.400000
7629 15369 9916 1 109.50000 418.400000
1169 15370 8083 1 109.50000 418.400000
1169 15370 10161 1 109.50000 418.400000
1169 15370 10162 1 109.50000 418.400000
8083 15370 10161 1 109.50000 418.400000
8083 15370 10162 1 109.50000 418.400000
10161 15370 10162 1 109.50000 418.400000
1710 15371 4872 1 109.50000 418.400000
1710 15371 10163 1 109.50000 418.400000
1710 15371 10164 1 109.50000 418.400000
4872 15371 10163 1 109.50000 418.400000
4872 15371 10164 1 109.50000 418.400000
10163 15371 10164 1 109.50000 418.400000
2900 15372 4765 1 109.50000 418.400000
2900 15372 7051 1 109.50000 418.400000
2900 15372 9490 1 109.50000 418.400000
4765 15372 7051 1 109.50000 418.400000
4765 15372 9490 1 109.50000 418.400000
7051 15372 9490 1 109.50000 418.400000
1807 15373 4537 1 109.50000 418.400000
1807 15373 8134 1 109.50000 418.400000
1807 15373 10166 1 109.50000 418.400000
4537 15373 8134 1 109.50000 418.400000
4537 15373 10166 1 109.50000 418.400000
8134 15373 10166 1 109.50000 418.400000
3160 15374 6509 1 109.50000 418.400000
3160 15374 8478 1 109.50000 418.400000
3160 15374 10167 1 109.50000 418.400000
6509 15374 8478 1 109.50000 418.400000
6509 15374 10167 1 109.50000 418.400000
8478 15374 10167 1 109.50000 418.400000
4874 15375 7305 1 109.50000 418.400000
4874 15375 10168 1 109.50000 418.400000
4874 15375 10169 1 109.50000 418.400000
7305 15375 10168 1 109.50000 418.400000
7305 15375 10169 1 109.50000 418.400000
10168 15375 10169 1 109.50000 418.400000
4494 15376 8043 1 109.50000 418.400000
4494 15376 8044 1 109.50000 418.400000
4494 15376 11397 1 109.50000 418.400000
8043 15376 8044 1 109.50000 418.400000
8043 15376 11397 1 109.50000 418.400000
8044 15376 11397 1 109.50000 418.400000
8955 15377 9466 1 109.50000 418.400000
8955 15377 9865 1 109.50000 418.400000
8955 15377 10170 1 109.50000 418.400000
9466 15377 9865 1 109.50000 418.400000
9466 15377 10170 1 109.50000 418.400000
9865 15377 10170 1 109.50000 418.400000
2491 15378 2492 1 109.50000 418.400000
2491 15378 10120 1 109.50000 418.400000
2491 15378 10171 1 109.50000 418.400000
2492 15378 10120 1 109.50000 418.400000
2492 15378 10171 1 109.50000 418.400000
10120 15378 10171 1 109.50000 418.400000
6482 15379 7424 1 109.50000 418.400000
6482 15379 10172 1 109.50000 418.400000
6482 15379 10173 1 109.50000 418.400000
7424 15379 10172 1 109.50000 418.400000
7424 15379 10173 1 109.50000 418.400000
10172 15379 10173 1 109.50000 418.400000
2024 15380 2230 1 109.50000 418.400000
2024 15380 9915 1 109.50000 418.400000
2024 15380 10174 1 109.50000 418.400000
2230 15380 9915 1 109.50000 418.400000
2230 15380 10174 1 109.50000 418.400000
9915 15380 10174 1 109.50000 418.400000
8667 15381 10175 1 109.50000 418.400000
8667 15381 10176 1 109.50000 418.400000
8667 15381 10698 1 109.50000 418.400000
10175 15381 10176 1 109.50000 418.400000
10175 15381 10698 1 109.50000 418.400000
10176 15381 10698 1 109.50000 418.400000
8191 15382 9515 1 109.50000 418.400000
8191 15382 10071 1 109.50000 418.400000
8191 15382 10177 1 109.50000 418.400000
9515 15382 10071 1 109.50000 418.400000
9515 15382 10177 1 109.50000 418.400000
10071 15382 10177 1 109.50000 418.400000
2813 15383 10178 1 109.50000 418.400000
2813 15383 10179 1 109.50000 418.400000
2813 15383 10180 1 109.50000 418.400000
10178 15383 10179 1 109.50000 418.400000
10178 15383 10180 1 109.50000 418.400000
10179 15383 10180 1 109.50000 418.400000
2552 15384 6563 1 109.50000 418.400000
2552 15384 8620 1 109.50000 418.400000
2552 15384 9635 1 109.50000 418.400000
6563 15384 8620 1 109.50000 418.400000
6563 15384 9635 1 109.50000 418.400000
8620 15384 9635 1 109.50000 418.400000
10116 15385 10129 1 109.50000 418.400000
10116 15385 10181 1 109.50000 418.400000
10116 15385 10182 1 109.50000 418.400000
10129 15385 10181 1 109.50000 418.400000
10129 15385 10182 1 109.50000 418.400000
10181 15385 10182 1 109.50000 418.400000
8685 15386 9800 1 109.50000 418.400000
8685 15386 10183 1 109.50000 418.400000
8685 15386 10184 1 109.50000 418.400000
9800 15386 10183 1 109.50000 418.400000
9800 15386 10184 1 109.50000 418.400000
10183 15386 10184 1 109.50000 418.400000
2747 15387 9143 1 109.50000 418.400000
2747 15387 10185 1 109.50000 418.400000
2747 15387 11425 1 109.50000 418.400000
9143 15387 10185 1 109.50000 418.400000
9143 15387 11425 1 109.50000 418.400000
10185 15387 11425 1 109.50000 418.400000
689 15388 1731 1 109.50000 418.400000
689 15388 3421 1 109.50000 418.400000
689 15388 10186 1 109.50000 418.400000
1731 15388 3421 1 109.50000 418.400000
1731 15388 10186 1 109.50000 418.400000
3421 15388 10186 1 109.50000 418.400000
2002 15389 4710 1 109.50000 418.400000
2002 15389 10187 1 109.50000 418.400000
2002 15389 10188 1 109.50000 418.400000
4710 15389 10187 1 109.50000 418.400000
4710 15389 10188 1 109.50000 418.400000
10187 15389 10188 1 109.50000 418.400000
175 15390 5843 1 109.50000 418.400000
175 15390 9271 1 109.50000 418.400000
175 15390 11406 1 109.50000 418.400000
5843 15390 9271 1 109.50000 418.400000
5843 15390 11406 1 109.50000 418.400000
9271 15390 11406 1 109.50000 418.400000
9547 15391 9621 1 109.50000 418.400000
9547 15391 10055 1 109.50000 418.400000
9547 15391 10189 1 109.50000 418.400000
9621 15391 10055 1 109.50000 418.400000
9621 15391 10189 1 109.50000 418.400000
10055 15391 10189 1 109.50000 418.400000
8415 15392 8662 1 109.50000 418.400000
8415 15392 10190 1 109.50000 418.400000
8415 15392 10191 1 109.50000 418.400000
8662 15392 10190 1 109.50000 418.400000
8662 15392 10191 1 109.50000 418.400000
10190 15392 10191 1 109.50000 418.400000
2918 15393 5617 1 109.50000 418.400000
2918 15393 10192 1 109.50000 418.400000
2918 15393 10193 1 109.50000 418.400000
5617 15393 10192 1 109.50000 418.400000
5617 15393 10193 1 109.50000 418.400000
10192 15393 10193 1 109.50000 418.400000
5610 15394 9176 1 109.50000 418.400000
5610 15394 10194 1 109.50000 418.400000
5610 15394 11022 1 109.50000 418.400000
9176 15394 10194 1 109.50000 418.400000
9176 15394 11022 1 109.50000 418.400000
10194 15394 11022 1 109.50000 418.400000
2582 15395 6198 1 109.50000 418.400000
2582 15395 10196 1 109.50000 418.400000
2582 15395 10197 1 109.50000 418.400000
6198 15395 10196 1 109.50000 418.400000
6198 15395 10197 1 109.50000 418.400000
10196 15395 10197 1 109.50000 418.400000
5929 15396 7029 1 109.50000 418.400000
5929 15396 9046 1 109.50000 418.400000
5929 15396 10198 1 109.50000 418.400000
7029 15396 9046 1 109.50000 418.400000
7029 15396 10198 1 109.50000 418.400000
9046 15396 10198 1 109.50000 418.400000
9269 15397 9492 1 109.50000 418.400000
9269 15397 10199 1 109.50000 418.400000
9269 15397 11393 1 109.50000 418.400000
9492 15397 10199 1 109.50000 418.400000
9492 15397 11393 1 109.50000 418.400000
10199 15397 11393 1 109.50000 418.400000
564 15398 7340 1 109.50000 418.400000
564 15398 9666 1 109.50000 418.400000
564 15398 10200 1 109.50000 418.400000
7340 15398 9666 1 109.50000 418.400000
7340 15398 10200 1 109.50000 418.400000
9666 15398 10200 1 109.50000 418.400000
8586 15399 9502 1 109.50000 418.400000
8586 15399 10201 1 109.50000 418.400000
8586 15399 10202 1 109.50000 418.400000
9502 15399 10201 1 109.50000 418.400000
9502 15399 10202 1 109.50000 418.400000
10201 15399 10202 1 109.50000 418.400000
324 15400 6293 1 109.50000 418.400000
324 15400 7527 1 109.50000 418.400000
324 15400 10203 1 109.50000 418.400000
6293 15400 7527 1 109.50000 418.400000
6293 15400 10203 1 109.50000 418.400000
7527 15400 10203 1 109.50000 418.400000
829 15401 5508 1 109.50000 418.400000
829 15401 7013 1 109.50000 418.400000
829 15401 10204 1 109.50000 418.400000
5508 15401 7013 1 109.50000 418.400000
5508 15401 10204 1 109.50000 418.400000
7013 15401 10204 1 109.50000 418.400000
3496 15402 5793 1 109.50000 418.400000
3496 15402 9980 1 109.50000 418.400000
3496 15402 10205 1 109.50000 418.400000
5793 15402 9980 1 109.50000 418.400000
5793 15402 10205 1 109.50000 418.400000
9980 15402 10205 1 109.50000 418.400000
1297 15403 1786 1 109.50000 418.400000
1297 15403 8748 1 109.50000 418.400000
1297 15403 8751 1 109.50000 418.400000
1786 15403 8748 1 109.50000 418.400000
1786 15403 8751 1 109.50000 418.400000
8748 15403 8751 1 109.50000 418.400000
4141 15404 10206 1 109.50000 418.400000
4141 15404 10207 1 109.50000 418.400000
4141 15404 10208 1 109.50000 418.400000
10206 15404 10207 1 109.50000 418.400000
10206 15404 10208 1 109.50000 418.400000
10207 15404 10208 1 109.50000 418.400000
2573 15405 7282 1 109.50000 418.400000
2573 15405 10209 1 109.50000 418.400000
2573 15405 10210 1 109.50000 418.400000
7282 15405 10209 1 109.50000 418.400000
7282 15405 10210 1 109.50000 418.400000
10209 15405 10210 1 109.50000 418.400000
3808 15406 6865 1 109.50000 418.400000
3808 15406 10211 1 109.50000 418.400000
3808 15406 10212 1 109.50000 418.400000
6865 15406 10211 1 109.50000 418.400000
6865 15406 10212 1 109.50000 418.400000
10211 15406 10212 1 109.50000 418.400000
5730 15407 6508 1 109.50000 418.400000
5730 15407 10214 1 109.50000 418.400000
5730 15407 10215 1 109.50000 418.400000
6508 15407 10214 1 109.50000 418.400000
6508 15407 10215 1 109.50000 418.400000
10214 15407 10215 1 109.50000 418.400000
7145 15408 8176 1 109.50000 418.400000
7145 15408 8599 1 109.50000 418.400000
7145 15408 10216 1 109.50000 418.400000
8176 15408 8599 1 109.50000 418.400000
8176 15408 10216 1 109.50000 418.400000
8599 15408 10216 1 109.50000 418.400000
4162 15409 8999 1 109.50000 418.400000
4162 15409 9114 1 109.50000 418.400000
4162 15409 10217 1 109.50000 418.400000
8999 15409 9114 1 109.50000 418.400000
8999 15409 10217 1 109.50000 418.400000
9114 15409 10217 1 109.50000 418.400000
9366 15410 9918 1 109.50000 418.400000
9366 15410 10218 1 109.50000 418.400000
9366 15410 10219 1 109.50000 418.400000
9918 15410 10218 1 109.50000 418.400000
9918 15410 10219 1 109.50000 418.400000
10218 15410 10219 1 109.50000 418.400000
7835 15411 10220 1 109.50000 418.400000
7835 15411 10221 1 109.50000 418.400000
7835 15411 10222 1 109.50000 418.400000
10220 15411 10221 1 109.50000 418.400000
10220 15411 10222 1 109.50000 418.400000
10221 15411 10222 1 109.50000 418.400000
2063 15412 2912 1 109.50000 418.400000
2063 15412 4049 1 109.50000 418.400000
2063 15412 10223 1 109.50000 418.400000
2912 15412 4049 1 109.50000 418.400000
2912 15412 10223 1 109.50000 418.400000
4049 15412 10223 1 109.50000 418.400000
337 15413 9438 1 109.50000 418.400000
337 15413 9681 1 109.50000 418.400000
337 15413 10224 1 109.50000 418.400000
9438 15413 9681 1 109.50000 418.400000
9438 15413 10224 1 109.50000 418.400000
9681 15413 10224 1 109.50000 418.400000
6911 15414 10225 1 109.50000 418.400000
6911 15414 10226 1 109.50000 418.400000
6911 15414 10227 1 109.50000 418.400000
10225 15414 10226 1 109.50000 418.400000
10225 15414 10227 1 109.50000 418.400000
10226 15414 10227 1 109.50000 418.400000
2677 15415 4234 1 109.50000 418.400000
2677 15415 7831 1 109.50000 418.400000
2677 15415 10228 1 109.50000 418.400000
4234 15415 7831 1 109.50000 418.400000
4234 15415 10228 1 109.50000 418.400000
7831 15415 10228 1 109.50000 418.400000
6238 15416 10197 1 109.50000 418.400000
6238 15416 10229 1 109.50000 418.400000
6238 15416 11239 1 109.50000 418.400000
10197 15416 10229 1 109.50000 418.400000
10197 15416 11239 1 109.50000 418.400000
10229 15416 11239 1 109.50000 418.400000
6936 15417 8288 1 109.50000 418.400000
6936 15417 9824 1 109.50000 418.400000
6936 15417 10231 1 109.50000 418.400000
8288 15417 9824 1 109.50000 418.400000
8288 15417 10231 1 109.50000 418.400000
9824 15417 10231 1 109.50000 418.400000
5588 15418 9684 1 109.50000 418.400000
5588 15418 10232 1 109.50000 418.400000
5588 15418 10233 1 109.50000 418.400000
9684 15418 10232 1 109.50000 418.400000
9684 15418 10233 1 109.50000 418.400000
10232 15418 10233 1 109.50000 418.400000
9535 15419 9571 1 109.50000 418.400000
9535 15419 10234 1 109.50000 418.400000
9535 15419 10235 1 109.50000 418.400000
9571 15419 10234 1 109.50000 418.400000
9571 15419 10235 1 109.50000 418.400000
10234 15419 10235 1 109.50000 418.400000
3807 15420 3965 1 109.50000 418.400000
3807 15420 10236 1 109.50000 418.400000
3807 15420 10237 1 109.50000 418.400000
3965 15420 10236 1 109.50000 418.400000
3965 15420 10237 1 109.50000 418.400000
10236 15420 10237 1 109.50000 418.400000
930 15421 6904 1 109.50000 418.400000
930 15421 7923 1 109.50000 418.400000
930 15421 8626 1 109.50000 418.400000
6904 15421 7923 1 109.50000 418.400000
6904 15421 8626 1 109.50000 418.400000
7923 15421 8626 1 109.50000 418.400000
346 15422 9214 1 109.50000 418.400000
346 15422 10240 1 109.50000 418.400000
346 15422 10241 1 109.50000 418.400000
9214 15422 10240 1 109.50000 418.400000
9214 15422 10241 1 109.50000 418.400000
10240 15422 10241 1 109.50000 418.400000
1560 15423 8325 1 109.50000 418.400000
1560 15423 10242 1 109.50000 418.400000
1560 15423 10243 1 109.50000 418.400000
8325 15423 10242 1 109.50000 418.400000
8325 15423 10243 1 109.50000 418.400000
10242 15423 10243 1 109.50000 418.400000
715 15424 3617 1 109.50000 418.400000
715 15424 4542 1 109.50000 418.400000
715 15424 10244 1 109.50000 418.400000
3617 15424 4542 1 109.50000 418.400000
3617 15424 10244 1 109.50000 418.400000
4542 15424 10244 1 109.50000 418.400000
3307 15425 3830 1 109.50000 418.400000
3307 15425 4574 1 109.50000 418.400000
3307 15425 4914 1 109.50000 418.400000
3830 15425 4574 1 109.50000 418.400000
3830 15425 4914 1 109.50000 418.400000
4574 15425 4914 1 109.50000 418.400000
119 15426 8154 1 109.50000 418.400000
119 15426 8156 1 109.50000 418.400000
119 15426 10245 1 109.50000 418.400000
8154 15426 8156 1 109.50000 418.400000
8154 15426 10245 1 109.50000 418.400000
8156 15426 10245 1 109.50000 418.400000
1243 15427 8926 1 109.50000 418.400000
1243 15427 9925 1 109.50000 418.400000
1243 15427 10246 1 109.50000 418.400000
8926 15427 9925 1 109.50000 418.400000
8926 15427 10246 1 109.50000 418.400000
9925 15427 10246 1 109.50000 418.400000
1409 15428 1410 1 109.50000 418.400000
1409 15428 9559 1 109.50000 418.400000
1409 15428 10247 1 109.50000 418.400000
1410 15428 9559 1 109.50000 418.400000
1410 15428 10247 1 109.50000 418.400000
9559 15428 10247 1 109.50000 418.400000
1131 15429 6727 1 109.50000 418.400000
1131 15429 10248 1 109.50000 418.400000
1131 15429 10249 1 109.50000 418.400000
6727 15429 10248 1 109.50000 418.400000
6727 15429 10249 1 109.50000 418.400000
10248 15429 10249 1 109.50000 418.400000
3466 15430 8070 1 109.50000 418.400000
3466 15430 9893 1 109.50000 418.400000
3466 15430 10250 1 109.50000 418.400000
8070 15430 9893 1 109.50000 418.400000
8070 15430 10250 1 109.50000 418.400000
9893 15430 10250 1 109.50000 418.400000
3660 15431 9848 1 109.50000 418.400000
3660 15431 10251 1 109.50000 418.400000
3660 15431 10252 1 109.50000 418.400000
9848 15431 10251 1 109.50000 418.400000
9848 15431 10252 1 109.50000 418.400000
10251 15431 10252 1 109.50000 418.400000
5709 15432 6741 1 109.50000 418.400000
5709 15432 11286 1 109.50000 418.400000
5709 15432 11484 1 109.50000 418.400000
6741 15432 11286 1 109.50000 418.400000
6741 15432 11484 1 109.50000 418.400000
11286 15432 11484 1 109.50000 418.400000
1704 15433 8189 1 109.50000 418.400000
1704 15433 10253 1 109.50000 418.400000
1704 15433 10254 1 109.50000 418.400000
8189 15433 10253 1 109.50000 418.400000
8189 15433 10254 1 109.50000 418.400000
10253 15433 10254 1 109.50000 418.400000
2020 15434 4352 1 109.50000 418.400000
2020 15434 7594 1 109.50000 418.400000
2020 15434 8898 1 109.50000 418.400000
4352 15434 7594 1 109.50000 418.400000
4352 15434 8898 1 109.50000 418.400000
7594 15434 8898 1 109.50000 418.400000
3044 15435 6281 1 109.50000 418.400000
3044 15435 10112 1 109.50000 418.400000
3044 15435 10255 1 109.50000 418.400000
6281 15435 10112 1 109.50000 418.400000
6281 15435 10255 1 109.50000 418.400000
10112 15435 10255 1 109.50000 418.400000
7152 15436 9463 1 109.50000 418.400000
7152 15436 10256 1 109.50000 418.400000
7152 15436 10257 1 109.50000 418.400000
9463 15436 10256 1 109.50000 418.400000
9463 15436 10257 1 109.50000 418.400000
10256 15436 10257 1 109.50000 418.400000
5499 15437 5731 1 109.50000 418.400000
5499 15437 8074 1 109.50000 418.400000
5499 15437 9498 1 109.50000 418.400000
5731 15437 8074 1 109.50000 418.400000
5731 15437 9498 1 109.50000 418.400000
8074 15437 9498 1 109.50000 418.400000
7110 15438 8881 1 109.50000 418.400000
7110 15438 9712 1 109.50000 418.400000
7110 15438 10258 1 109.50000 418.400000
8881 15438 9712 1 109.50000 418.400000
8881 15438 10258 1 109.50000 418.400000
9712 15438 10258 1 109.50000 418.400000
80 15439 9024 1 109.50000 418.400000
80 15439 9662 1 109.50000 418.400000
80 15439 9698 1 109.50000 418.400000
9024 15439 9662 1 109.50000 418.400000
9024 15439 9698 1 109.50000 418.400000
9662 15439 9698 1 109.50000 418.400000
8717 15440 9477 1 109.50000 418.400000
8717 15440 10260 1 109.50000 418.400000
8717 15440 10261 1 109.50000 418.400000
9477 15440 10260 1 109.50000 418.400000
9477 15440 10261 1 109.50000 418.400000
10260 15440 10261 1 109.50000 418.400000
358 15441 3823 1 109.50000 418.400000
358 15441 9796 1 109.50000 418.400000
358 15441 10262 1 109.50000 418.400000
3823 15441 9796 1 109.50000 418.400000
3823 15441 10262 1 109.50000 418.400000
9796 15441 10262 1 109.50000 418.400000
1463 15442 8906 1 109.50000 418.400000
1463 15442 10263 1 109.50000 418.400000
1463 15442 10264 1 109.50000 418.400000
8906 15442 10263 1 109.50000 418.400000
8906 15442 10264 1 109.50000 418.400000
10263 15442 10264 1 109.50000 418.400000
3055 15443 5891 1 109.50000 418.400000
3055 15443 10266 1 109.50000 418.400000
3055 15443 10267 1 109.50000 418.400000
5891 15443 10266 1 109.50000 418.400000
5891 15443 10267 1 109.50000 418.400000
10266 15443 10267 1 109.50000 418.400000
6246 15444 9967 1 109.50000 418.400000
6246 15444 10268 1 109.50000 418.400000
6246 15444 10269 1 109.50000 418.400000
9967 15444 10268 1 109.50000 418.400000
9967 15444 10269 1 109.50000 418.400000
10268 15444 10269 1 109.50000 418.400000
1467 15445 1709 1 109.50000 418.400000
1467 15445 6817 1 109.50000 418.400000
1467 15445 8200 1 109.50000 418.400000
1709 15445 6817 1 109.50000 418.400000
1709 15445 8200 1 109.50000 418.400000
6817 15445 8200 1 109.50000 418.400000
6927 15446 8877 1 109.50000 418.400000
6927 15446 10270 1 109.50000 418.400000
6927 15446 10271 1 109.50000 418.400000
8877 15446 10270 1 109.50000 418.400000
8877 15446 10271 1 109.50000 418.400000
10270 15446 10271 1 109.50000 418.400000
6436 15447 6949 1 109.50000 418.400000
6436 15447 8390 1 109.50000 418.400000
6436 15447 10273 1 109.50000 418.400000
6949 15447 8390 1 109.50000 418.400000
6949 15447 10273 1 109.50000 418.400000
8390 15447 10273 1 109.50000 418.400000
3875 15448 4255 1 109.50000 418.400000
3875 15448 9754 1 109.50000 418.400000
3875 15448 10088 1 109.50000 418.400000
4255 15448 9754 1 109.50000 418.400000
4255 15448 10088 1 109.50000 418.400000
9754 15448 10088 1 109.50000 418.400000
1549 15449 3715 1 109.50000 418.400000
1549 15449 3791 1 109.50000 418.400000
1549 15449 6576 1 109.50000 418.400000
3715 15449 3791 1 109.50000 418.400000
3715 15449 6576 1 109.50000 418.400000
3791 15449 6576 1 109.50000 418.400000
251 15450 1712 1 109.50000 418.400000
251 15450 9190 1 109.50000 418.400000
251 15450 10274 1 109.50000 418.400000
1712 15450 9190 1 109.50000 418.400000
1712 15450 10274 1 109.50000 418.400000
9190 15450 10274 1 109.50000 418.400000
8942 15451 10276 1 109.50000 418.400000
8942 15451 11180 1 109.50000 418.400000
8942 15451 11211 1 109.50000 418.400000
10276 15451 11180 1 109.50000 418.400000
10276 15451 11211 1 109.50000 418.400000
11180 15451 11211 1 109.50000 418.400000
4958 15452 6285 1 109.50000 418.400000
4958 15452 7888 1 109.50000 418.400000
4958 15452 8655 1 109.50000 418.400000
6285 15452 7888 1 109.50000 418.400000
6285 15452 8655 1 109.50000 418.400000
7888 15452 8655 1 109.50000 418.400000
6653 15453 10054 1 109.50000 418.400000
6653 15453 10277 1 109.50000 418.400000
6653 15453 10278 1 109.50000 418.400000
10054 15453 10277 1 109.50000 418.400000
10054 15453 10278 1 109.50000 418.400000
10277 15453 10278 1 109.50000 418.400000
2031 15454 3568 1 109.50000 418.400000
2031 15454 4118 1 109.50000 418.400000
2031 15454 11325 1 109.50000 418.400000
3568 15454 4118 1 109.50000 418.400000
3568 15454 11325 1 109.50000 418.400000
4118 15454 11325 1 109.50000 418.400000
1102 15455 2535 1 109.50000 418.400000
1102 15455 10279 1 109.50000 418.400000
1102 15455 10280 1 109.50000 418.400000
2535 15455 10279 1 109.50000 418.400000
2535 15455 10280 1 109.50000 418.400000
10279 15455 10280 1 109.50000 418.400000
1049 15456 2909 1 109.50000 418.400000
1049 15456 8727 1 109.50000 418.400000
1049 15456 10281 1 109.50000 418.400000
2909 15456 8727 1 109.50000 418.400000
2909 15456 10281 1 109.50000 418.400000
8727 15456 10281 1 109.50000 418.400000
719 15457 3135 1 109.50000 418.400000
719 15457 7950 1 109.50000 418.400000
719 15457 9287 1 109.50000 418.400000
3135 15457 7950 1 109.50000 418.400000
3135 15457 9287 1 109.50000 418.400000
7950 15457 9287 1 109.50000 418.400000
5259 15458 9570 1 109.50000 418.400000
5259 15458 10282 1 109.50000 418.400000
5259 15458 10283 1 109.50000 418.400000
9570 15458 10282 1 109.50000 418.400000
9570 15458 10283 1 109.50000 418.400000
10282 15458 10283 1 109.50000 418.400000
1390 15459 5963 1 109.50000 418.400000
1390 15459 8359 1 109.50000 418.400000
1390 15459 10284 1 109.50000 418.400000
5963 15459 8359 1 109.50000 418.400000
5963 15459 10284 1 109.50000 418.400000
8359 15459 10284 1 109.50000 418.400000
866 15460 4593 1 109.50000 418.400000
866 15460 4595 1 109.50000 418.400000
866 15460 9636 1 109.50000 418.400000
4593 15460 4595 1 109.50000 418.400000
4593 15460 9636 1 109.50000 418.400000
4595 15460 9636 1 109.50000 418.400000
1949 15461 5038 1 109.50000 418.400000
1949 15461 9289 1 109.50000 418.400000
1949 15461 10286 1 109.50000 418.400000
5038 15461 9289 1 109.50000 418.400000
5038 15461 10286 1 109.50000 418.400000
9289 15461 10286 1 109.50000 418.400000
2030 15462 4334 1 109.50000 418.400000
2030 15462 7507 1 109.50000 418.400000
2030 15462 8763 1 109.50000 418.400000
4334 15462 7507 1 109.50000 418.400000
4334 15462 8763 1 109.50000 418.400000
7507 15462 8763 1 109.50000 418.400000
5420 15463 7443 1 109.50000 418.400000
5420 15463 10040 1 109.50000 418.400000
5420 15463 10287 1 109.50000 418.400000
7443 15463 10040 1 109.50000 418.400000
7443 15463 10287 1 109.50000 418.400000
10040 15463 10287 1 109.50000 418.400000
3768 15464 7604 1 109.50000 418.400000
3768 15464 8591 1 109.50000 418.400000
3768 15464 10288 1 109.50000 418.400000
7604 15464 8591 1 109.50000 418.400000
7604 15464 10288 1 109.50000 418.400000
8591 15464 10288 1 109.50000 418.400000
3527 15465 5392 1 109.50000 418.400000
3527 15465 6928 1 109.50000 418.400000
3527 15465 11539 1 109.50000 418.400000
5392 15465 6928 1 109.50000 418.400000
5392 15465 11539 1 109.50000 418.400000
6928 15465 11539 1 109.50000 418.400000
3209 15466 5863 1 109.50000 418.400000
3209 15466 5864 1 109.50000 418.400000
3209 15466 10289 1 109.50000 418.400000
5863 15466 5864 1 109.50000 418.400000
5863 15466 10289 1 109.50000 418.400000
5864 15466 10289 1 109.50000 418.400000
2209 15467 8349 1 109.50000 418.400000
2209 15467 9035 1 109.50000 418.400000
2209 15467 10291 1 109.50000 418.400000
8349 15467 9035 1 109.50000 418.400000
8349 15467 10291 1 109.50000 418.400000
9035 15467 10291 1 109.50000 418.400000
2143 15468 2532 1 109.50000 418.400000
2143 15468 5785 1 109.50000 418.400000
2143 15468 9220 1 109.50000 418.400000
2532 15468 5785 1 109.50000 418.400000
2532 15468 9220 1 109.50000 418.400000
5785 15468 9220 1 109.50000 418.400000
2154 15469 7960 1 109.50000 418.400000
2154 15469 8776 1 109.50000 418.400000
2154 15469 8872 1 109.50000 418.400000
7960 15469 8776 1 109.50000 418.400000
7960 15469 8872 1 109.50000 418.400000
8776 15469 8872 1 109.50000 418.400000
3700 15470 7585 1 109.50000 418.400000
3700 15470 8649 1 109.50000 418.400000
3700 15470 10292 1 109.50000 418.400000
7585 15470 8649 1 109.50000 418.400000
7585 15470 10292 1 109.50000 418.400000
8649 15470 10292 1 109.50000 418.400000
2341 15471 8037 1 109.50000 418.400000
2341 15471 10293 1 109.50000 418.400000
2341 15471 10294 1 109.50000 418.400000
8037 15471 10293 1 109.50000 418.400000
8037 15471 10294 1 109.50000 418.400000
10293 15471 10294 1 109.50000 418.400000
2347 15472 8615 1 109.50000 418.400000
2347 15472 9514 1 109.50000 418.400000
2347 15472 10295 1 109.50000 418.400000
8615 15472 9514 1 109.50000 418.400000
8615 15472 10295 1 109.50000 418.400000
9514 15472 10295 1 109.50000 418.400000
7365 15473 10048 1 109.50000 418.400000
7365 15473 10296 1 109.50000 418.400000
7365 15473 11257 1 109.50000 418.400000
10048 15473 10296 1 109.50000 418.400000
10048 15473 11257 1 109.50000 418.400000
10296 15473 11257 1 109.50000 418.400000
2199 15474 4753 1 109.50000 418.400000
2199 15474 8741 1 109.50000 418.400000
2199 15474 8863 1 109.50000 418.400000
4753 15474 8741 1 109.50000 418.400000
4753 15474 8863 1 109.50000 418.400000
8741 15474 8863 1 109.50000 418.400000
1354 15475 1356 1 109.50000 418.400000
1354 15475 2415 1 109.50000 418.400000
1354 15475 7725 1 109.50000 418.400000
1356 15475 2415 1 109.50000 418.400000
1356 15475 7725 1 109.50000 418.400000
2415 15475 7725 1 109.50000 418.400000
5914 15476 6218 1 109.50000 418.400000
5914 15476 7267 1 109.50000 418.400000
5914 15476 7633 1 109.50000 418.400000
6218 15476 7267 1 109.50000 418.400000
6218 15476 7633 1 109.50000 418.400000
7267 15476 7633 1 109.50000 418.400000
1132 15477 1226 1 109.50000 418.400000
1132 15477 6586 1 109.50000 418.400000
1132 15477 6587 1 109.50000 418.400000
1226 15477 6586 1 109.50000 418.400000
1226 15477 6587 1 109.50000 418.400000
6586 15477 6587 1 109.50000 418.400000
6094 15478 10137 1 109.50000 418.400000
6094 15478 10297 1 109.50000 418.400000
6094 15478 10298 1 109.50000 418.400000
10137 15478 10297 1 109.50000 418.400000
10137 15478 10298 1 109.50000 418.400000
10297 15478 10298 1 109.50000 418.400000
4363 15479 9648 1 109.50000 418.400000
4363 15479 11342 1 109.50000 418.400000
4363 15479 11493 1 109.50000 418.400000
9648 15479 11342 1 109.50000 418.400000
9648 15479 11493 1 109.50000 418.400000
11342 15479 11493 1 109.50000 418.400000
626 15480 4766 1 109.50000 418.400000
626 15480 7290 1 109.50000 418.400000
626 15480 9579 1 109.50000 418.400000
4766 15480 7290 1 109.50000 418.400000
4766 15480 9579 1 109.50000 418.400000
7290 15480 9579 1 109.50000 418.400000
5119 15481 7969 1 109.50000 418.400000
5119 15481 9336 1 109.50000 418.400000
5119 15481 10299 1 109.50000 418.400000
7969 15481 9336 1 109.50000 418.400000
7969 15481 10299 1 109.50000 418.400000
9336 15481 10299 1 109.50000 418.400000
4487 15482 6405 1 109.50000 418.400000
4487 15482 9910 1 109.50000 418.400000
4487 15482 10031 1 109.50000 418.400000
6405 15482 9910 1 109.50000 418.400000
6405 15482 10031 1 109.50000 418.400000
9910 15482 10031 1 109.50000 418.400000
6015 15483 6582 1 109.50000 418.400000
6015 15483 8088 1 109.50000 418.400000
6015 15483 8547 1 109.50000 418.400000
6582 15483 8088 1 109.50000 418.400000
6582 15483 8547 1 109.50000 418.400000
8088 15483 8547 1 109.50000 418.400000
162 15484 3212 1 109.50000 418.400000
162 15484 6920 1 109.50000 418.400000
162 15484 10176 1 109.50000 418.400000
3212 15484 6920 1 109.50000 418.400000
3212 15484 10176 1 109.50000 418.400000
6920 15484 10176 1 109.50000 418.400000
5913 15485 8604 1 109.50000 418.400000
5913 15485 10300 1 109.50000 418.400000
5913 15485 10301 1 109.50000 418.400000
8604 15485 10300 1 109.50000 418.400000
8604 15485 10301 1 109.50000 418.400000
10300 15485 10301 1 109.50000 418.400000
4659 15486 9086 1 109.50000 418.400000
4659 15486 9554 1 109.50000 418.400000
4659 15486 10303 1 109.50000 418.400000
9086 15486 9554 1 109.50000 418.400000
9086 15486 10303 1 109.50000 418.400000
9554 15486 10303 1 109.50000 418.400000
41 15487 4923 1 109.50000 418.400000
41 15487 8681 1 109.50000 418.400000
41 15487 10304 1 109.50000 418.400000
4923 15487 8681 1 109.50000 418.400000
4923 15487 10304 1 109.50000 418.400000
8681 15487 10304 1 109.50000 418.400000
643 15488 2392 1 109.50000 418.400000
643 15488 8117 1 109.50000 418.400000
643 15488 10305 1 109.50000 418.400000
2392 15488 8117 1 109.50000 418.400000
2392 15488 10305 1 109.50000 418.400000
8117 15488 10305 1 109.50000 418.400000
6492 15489 10307 1 109.50000 418.400000
6492 15489 11344 1 109.50000 418.400000
6492 15489 11518 1 109.50000 418.400000
10307 15489 11344 1 109.50000 418.400000
10307 15489 11518 1 109.50000 418.400000
11344 15489 11518 1 109.50000 418.400000
502 15490 3237 1 109.50000 418.400000
502 15490 8786 1 109.50000 418.400000
502 15490 8853 1 109.50000 418.400000
3237 15490 8786 1 109.50000 418.400000
3237 15490 8853 1 109.50000 418.400000
8786 15490 8853 1 109.50000 418.400000
4456 15491 7007 1 109.50000 418.400000
4456 15491 8049 1 109.50000 418.400000
4456 15491 10308 1 109.50000 418.400000
7007 15491 8049 1 109.50000 418.400000
7007 15491 10308 1 109.50000 418.400000
8049 15491 10308 1 109.50000 418.400000
8513 15492 10133 1 109.50000 418.400000
8513 15492 10309 1 109.50000 418.400000
8513 15492 10310 1 109.50000 418.400000
10133 15492 10309 1 109.50000 418.400000
10133 15492 10310 1 109.50000 418.400000
10309 15492 10310 1 109.50000 418.400000
4426 15493 9201 1 109.50000 418.400000
4426 15493 10311 1 109.50000 418.400000
4426 15493 10312 1 109.50000 418.400000
9201 15493 10311 1 109.50000 418.400000
9201 15493 10312 1 109.50000 418.400000
10311 15493 10312 1 109.50000 418.400000
5622 15494 6792 1 109.50000 418.400000
5622 15494 8409 1 109.50000 418.400000
5622 15494 10313 1 109.50000 418.400000
6792 15494 8409 1 109.50000 418.400000
6792 15494 10313 1 109.50000 418.400000
8409 15494 10313 1 109.50000 418.400000
22 15495 4954 1 109.50000 418.400000
22 15495 10315 1 109.50000 418.400000
22 15495 10316 1 109.50000 418.400000
4954 15495 10315 1 109.50000 418.400000
4954 15495 10316 1 109.50000 418.400000
10315 15495 10316 1 109.50000 418.400000
234 15496 4203 1 109.50000 418.400000
234 15496 9802 1 109.50000 418.400000
234 15496 10317 1 109.50000 418.400000
4203 15496 9802 1 109.50000 418.400000
4203 15496 10317 1 109.50000 418.400000
9802 15496 10317 1 109.50000 418.400000
1430 15497 3138 1 109.50000 418.400000
1430 15497 4186 1 109.50000 418.400000
1430 15497 9830 1 109.50000 418.400000
3138 15497 4186 1 109.50000 418.400000
3138 15497 9830 1 109.50000 418.400000
4186 15497 9830 1 109.50000 418.400000
1515 15498 10318 1 109.50000 418.400000
1515 15498 10319 1 109.50000 418.400000
1515 15498 10320 1 109.50000 418.400000
10318 15498 10319 1 109.50000 418.400000
10318 15498 10320 1 109.50000 418.400000
10319 15498 10320 1 109.50000 418.400000
4536 15499 9757 1 109.50000 418.400000
4536 15499 10321 1 109.50000 418.400000
4536 15499 10322 1 109.50000 418.400000
9757 15499 10321 1 109.50000 418.400000
9757 15499 10322 1 109.50000 418.400000
10321 15499 10322 1 109.50000 418.400000
1947 15500 9476 1 109.50000 418.400000
1947 15500 10281 1 109.50000 418.400000
1947 15500 10323 1 109.50000 418.400000
9476 15500 10281 1 109.50000 418.400000
9476 15500 10323 1 109.50000 418.400000
10281 15500 10323 1 109.50000 418.400000
2275 15501 2311 1 109.50000 418.400000
2275 15501 5254 1 109.50000 418.400000
2275 15501 7564 1 109.50000 418.400000
2311 15501 5254 1 109.50000 418.400000
2311 15501 7564 1 109.50000 418.400000
5254 15501 7564 1 109.50000 418.400000
3609 15502 6371 1 109.50000 418.400000
3609 15502 8400 1 109.50000 418.400000
3609 15502 9457 1 109.50000 418.400000
6371 15502 8400 1 109.50000 418.400000
6371 15502 9457 1 109.50000 418.400000
8400 15502 9457 1 109.50000 418.400000
7119 15503 8654 1 109.50000 418.400000
7119 15503 9841 1 109.50000 418.400000
7119 15503 10324 1 109.50000 418.400000
8654 15503 9841 1 109.50000 418.400000
8654 15503 10324 1 109.50000 418.400000
9841 15503 10324 1 109.50000 418.400000
4305 15504 10253 1 109.50000 418.400000
4305 15504 10325 1 109.50000 418.400000
4305 15504 10326 1 109.50000 418.400000
10253 15504 10325 1 109.50000 418.400000
10253 15504 10326 1 109.50000 418.400000
10325 15504 10326 1 109.50000 418.400000
6579 15505 7677 1 109.50000 418.400000
6579 15505 10283 1 109.50000 418.400000
6579 15505 10327 1 109.50000 418.400000
7677 15505 10283 1 109.50000 418.400000
7677 15505 10327 1 109.50000 418.400000
10283 15505 10327 1 109.50000 418.400000
2077 15506 2474 1 109.50000 418.400000
2077 15506 3000 1 109.50000 418.400000
2077 15506 10328 1 109.50000 418.400000
2474 15506 3000 1 109.50000 418.400000
2474 15506 10328 1 109.50000 418.400000
3000 15506 10328 1 109.50000 418.400000
6219 15507 10329 1 109.50000 418.400000
6219 15507 11215 1 109.50000 418.400000
6219 15507 11251 1 109.50000 418.400000
10329 15507 11215 1 109.50000 418.400000
10329 15507 11251 1 109.50000 418.400000
11215 15507 11251 1 109.50000 418.400000
6642 15508 10330 1 109.50000 418.400000
6642 15508 11266 1 109.50000 418.400000
6642 15508 11476 1 109.50000 418.400000
10330 15508 11266 1 109.50000 418.400000
10330 15508 11476 1 109.50000 418.400000
11266 15508 11476 1 109.50000 418.400000
5651 15509 8719 1 109.50000 418.400000
5651 15509 10331 1 109.50000 418.400000
5651 15509 10332 1 109.50000 418.400000
8719 15509 10331 1 109.50000 418.400000
8719 15509 10332 1 109.50000 418.400000
10331 15509 10332 1 109.50000 418.400000
18 15510 8294 1 109.50000 418.400000
18 15510 9011 1 109.50000 418.400000
18 15510 11474 1 109.50000 418.400000
8294 15510 9011 1 109.50000 418.400000
8294 15510 11474 1 109.50000 418.400000
9011 15510 11474 1 109.50000 418.400000
1432 15511 7354 1 109.50000 418.400000
1432 15511 9105 1 109.50000 418.400000
1432 15511 10135 1 109.50000 418.400000
7354 15511 9105 1 109.50000 418.400000
7354 15511 10135 1 109.50000 418.400000
9105 15511 10135 1 109.50000 418.400000
2992 15512 7883 1 109.50000 418.400000
2992 15512 8552 1 109.50000 418.400000
2992 15512 10333 1 109.50000 418.400000
7883 15512 8552 1 109.50000 418.400000
7883 15512 10333 1 109.50000 418.400000
8552 15512 10333 1 109.50000 418.400000
36 15513 639 1 109.50000 418.400000
36 15513 10334 1 109.50000 418.400000
36 15513 10335 1 109.50000 418.400000
639 15513 10334 1 109.50000 418.400000
639 15513 10335 1 109.50000 418.400000
10334 15513 10335 1 109.50000 418.400000
8351 15514 8629 1 109.50000 418.400000
8351 15514 8880 1 109.50000 418.400000
8351 15514 9821 1 109.50000 418.400000
8629 15514 8880 1 109.50000 418.400000
8629 15514 9821 1 109.50000 418.400000
8880 15514 9821 1 109.50000 418.400000
1303 15515 2528 1 109.50000 418.400000
1303 15515 5947 1 109.50000 418.400000
1303 15515 10336 1 109.50000 418.400000
2528 15515 5947 1 109.50000 418.400000
2528 15515 10336 1 109.50000 418.400000
5947 15515 10336 1 109.50000 418.400000
1041 15516 5946 1 109.50000 418.400000
1041 15516 10337 1 109.50000 418.400000
1041 15516 10338 1 109.50000 418.400000
5946 15516 10337 1 109.50000 418.400000
5946 15516 10338 1 109.50000 418.400000
10337 15516 10338 1 109.50000 418.400000
5405 15517 7475 1 109.50000 418.400000
5405 15517 9262 1 109.50000 418.400000
5405 15517 9943 1 109.50000 418.400000
7475 15517 9262 1 109.50000 418.400000
7475 15517 9943 1 109.50000 418.400000
9262 15517 9943 1 109.50000 418.400000
4698 15518 8448 1 109.50000 418.400000
4698 15518 9145 1 109.50000 418.400000
4698 15518 10340 1 109.50000 418.400000
8448 15518 9145 1 109.50000 418.400000
8448 15518 10340 1 109.50000 418.400000
9145 15518 10340 1 109.50000 418.400000
4706 15519 5773 1 109.50000 418.400000
4706 15519 6814 1 109.50000 418.400000
4706 15519 10341 1 109.50000 418.400000
5773 15519 6814 1 109.50000 418.400000
5773 15519 10341 1 109.50000 418.400000
6814 15519 10341 1 109.50000 418.400000
8458 15520 10162 1 109.50000 418.400000
8458 15520 10342 1 109.50000 418.400000
8458 15520 10343 1 109.50000 418.400000
10162 15520 10342 1 109.50000 418.400000
10162 15520 10343 1 109.50000 418.400000
10342 15520 10343 1 109.50000 418.400000
4975 15521 7039 1 109.50000 418.400000
4975 15521 10344 1 109.50000 418.400000
4975 15521 10345 1 109.50000 418.400000
7039 15521 10344 1 109.50000 418.400000
7039 15521 10345 1 109.50000 418.400000
10344 15521 10345 1 109.50000 418.400000
5831 15522 7623 1 109.50000 418.400000
5831 15522 9934 1 109.50000 418.400000
5831 15522 10346 1 109.50000 418.400000
7623 15522 9934 1 109.50000 418.400000
7623 15522 10346 1 109.50000 418.400000
9934 15522 10346 1 109.50000 418.400000
3057 15523 8005 1 109.50000 418.400000
3057 15523 10265 1 109.50000 418.400000
3057 15523 10347 1 109.50000 418.400000
8005 15523 10265 1 109.50000 418.400000
8005 15523 10347 1 109.50000 418.400000
10265 15523 10347 1 109.50000 418.400000
6359 15524 8433 1 109.50000 418.400000
6359 15524 8468 1 109.50000 418.400000
6359 15524 10348 1 109.50000 418.400000
8433 15524 8468 1 109.50000 418.400000
8433 15524 10348 1 109.50000 418.400000
8468 15524 10348 1 109.50000 418.400000
7952 15525 8924 1 109.50000 418.400000
7952 15525 9940 1 109.50000 418.400000
7952 15525 10349 1 109.50000 418.400000
8924 15525 9940 1 109.50000 418.400000
8924 15525 10349 1 109.50000 418.400000
9940 15525 10349 1 109.50000 418.400000
1333 15526 5137 1 109.50000 418.400000
1333 15526 9972 1 109.50000 418.400000
1333 15526 10350 1 109.50000 418.400000
5137 15526 9972 1 109.50000 418.400000
5137 15526 10350 1 109.50000 418.400000
9972 15526 10350 1 109.50000 418.400000
144 15527 2630 1 109.50000 418.400000
144 15527 7466 1 109.50000 418.400000
144 15527 9338 1 109.50000 418.400000
2630 15527 7466 1 109.50000 418.400000
2630 15527 9338 1 109.50000 418.400000
7466 15527 9338 1 109.50000 418.400000
3492 15528 3935 1 109.50000 418.400000
3492 15528 9678 1 109.50000 418.400000
3492 15528 11408 1 109.50000 418.400000
3935 15528 9678 1 109.50000 418.400000
3935 15528 11408 1 109.50000 418.400000
9678 15528 11408 1 109.50000 418.400000
9968 15529 10351 1 109.50000 418.400000
9968 15529 10352 1 109.50000 418.400000
9968 15529 10353 1 109.50000 418.400000
10351 15529 10352 1 109.50000 418.400000
10351 15529 10353 1 109.50000 418.400000
10352 15529 10353 1 109.50000 418.400000
1181 15530 7115 1 109.50000 418.400000
1181 15530 9041 1 109.50000 418.400000
1181 15530 10354 1 109.50000 418.400000
7115 15530 9041 1 109.50000 418.400000
7115 15530 10354 1 109.50000 418.400000
9041 15530 10354 1 109.50000 418.400000
138 15531 5334 1 109.50000 418.400000
138 15531 9509 1 109.50000 418.400000
138 15531 10355 1 109.50000 418.400000
5334 15531 9509 1 109.50000 418.400000
5334 15531 10355 1 109.50000 418.400000
9509 15531 10355 1 109.50000 418.400000
5861 15532 6634 1 109.50000 418.400000
5861 15532 7582 1 109.50000 418.400000
5861 15532 8474 1 109.50000 418.400000
6634 15532 7582 1 109.50000 418.400000
6634 15532 8474 1 109.50000 418.400000
7582 15532 8474 1 109.50000 418.400000
1559 15533 2578 1 109.50000 418.400000
1559 15533 7780 1 109.50000 418.400000
1559 15533 7970 1 109.50000 418.400000
2578 15533 7780 1 109.50000 418.400000
2578 15533 7970 1 109.50000 418.400000
7780 15533 7970 1 109.50000 418.400000
3352 15534 9520 1 109.50000 418.400000
3352 15534 10358 1 109.50000 418.400000
3352 15534 10359 1 109.50000 418.400000
9520 15534 10358 1 109.50000 418.400000
9520 15534 10359 1 109.50000 418.400000
10358 15534 10359 1 109.50000 418.400000
4602 15535 6244 1 109.50000 418.400000
4602 15535 7313 1 109.50000 418.400000
4602 15535 8079 1 109.50000 418.400000
6244 15535 7313 1 109.50000 418.400000
6244 15535 8079 1 109.50000 418.400000
7313 15535 8079 1 109.50000 418.400000
7609 15536 10360 1 109.50000 418.400000
7609 15536 10361 1 109.50000 418.400000
7609 15536 10362 1 109.50000 418.400000
10360 15536 10361 1 109.50000 418.400000
10360 15536 10362 1 109.50000 418.400000
10361 15536 10362 1 109.50000 418.400000
8679 15537 10363 1 109.50000 418.400000
8679 15537 10364 1 109.50000 418.400000
8679 15537 10365 1 109.50000 418.400000
10363 15537 10364 1 109.50000 418.400000
10363 15537 10365 1 109.50000 418.400000
10364 15537 10365 1 109.50000 418.400000
3908 15538 6377 1 109.50000 418.400000
3908 15538 10366 1 109.50000 418.400000
3908 15538 10367 1 109.50000 418.400000
6377 15538 10366 1 109.50000 418.400000
6377 15538 10367 1 109.50000 418.400000
10366 15538 10367 1 109.50000 418.400000
3559 15539 10104 1 109.50000 418.400000
3559 15539 10270 1 109.50000 418.400000
3559 15539 11262 1 109.50000 418.400000
10104 15539 10270 1 109.50000 418.400000
10104 15539 11262 1 109.50000 418.400000
10270 15539 11262 1 109.50000 418.400000
7603 15540 7605 1 109.50000 418.400000
7603 15540 10368 1 109.50000 418.400000
7603 15540 10369 1 109.50000 418.400000
7605 15540 10368 1 109.50000 418.400000
7605 15540 10369 1 109.50000 418.400000
10368 15540 10369 1 109.50000 418.400000
7893 15541 10097 1 109.50000 418.400000
7893 15541 10370 1 109.50000 418.400000
7893 15541 10371 1 109.50000 418.400000
10097 15541 10370 1 109.50000 418.400000
10097 15541 10371 1 109.50000 418.400000
10370 15541 10371 1 109.50000 418.400000
10372 15542 10373 1 109.50000 418.400000
10372 15542 10374 1 109.50000 418.400000
10372 15542 10375 1 109.50000 418.400000
10373 15542 10374 1 109.50000 418.400000
10373 15542 10375 1 109.50000 418.400000
10374 15542 10375 1 109.50000 418.400000
1124 15543 7766 1 109.50000 418.400000
1124 15543 8087 1 109.50000 418.400000
1124 15543 8995 1 109.50000 418.400000
7766 15543 8087 1 109.50000 418.400000
7766 15543 8995 1 109.50000 418.400000
8087 15543 8995 1 109.50000 418.400000
136 15544 7438 1 109.50000 418.400000
136 15544 8261 1 109.50000 418.400000
136 15544 8567 1 109.50000 418.400000
7438 15544 8261 1 109.50000 418.400000
7438 15544 8567 1 109.50000 418.400000
8261 15544 8567 1 109.50000 418.400000
2044 15545 8224 1 109.50000 418.400000
2044 15545 9240 1 109.50000 418.400000
2044 15545 10376 1 109.50000 418.400000
8224 15545 9240 1 109.50000 418.400000
8224 15545 10376 1 109.50000 418.400000
9240 15545 10376 1 109.50000 418.400000
7314 15546 8388 1 109.50000 418.400000
7314 15546 8519 1 109.50000 418.400000
7314 15546 10377 1 109.50000 418.400000
8388 15546 8519 1 109.50000 418.400000
8388 15546 10377 1 109.50000 418.400000
8519 15546 10377 1 109.50000 418.400000
10378 15547 10379 1 109.50000 418.400000
10378 15547 10380 1 109.50000 418.400000
10378 15547 10661 1 109.50000 418.400000
10379 15547 10380 1 109.50000 418.400000
10379 15547 10661 1 109.50000 418.400000
10380 15547 10661 1 109.50000 418.400000
5703 15548 10164 1 109.50000 418.400000
5703 15548 10381 1 109.50000 418.400000
5703 15548 10382 1 109.50000 418.400000
10164 15548 10381 1 109.50000 418.400000
10164 15548 10382 1 109.50000 418.400000
10381 15548 10382 1 109.50000 418.400000
3584 15549 4869 1 109.50000 418.400000
3584 15549 9427 1 109.50000 418.400000
3584 15549 10383 1 109.50000 418.400000
4869 15549 9427 1 109.50000 418.400000
4869 15549 10383 1 109.50000 418.400000
9427 15549 10383 1 109.50000 418.400000
2223 15550 8464 1 109.50000 418.400000
2223 15550 10201 1 109.50000 418.400000
2223 15550 10384 1 109.50000 418.400000
8464 15550 10201 1 109.50000 418.400000
8464 15550 10384 1 109.50000 418.400000
10201 15550 10384 1 109.50000 418.400000
7248 15551 7635 1 109.50000 418.400000
7248 15551 10385 1 109.50000 418.400000
7248 15551 10386 1 109.50000 418.400000
7635 15551 10385 1 109.50000 418.400000
7635 15551 10386 1 109.50000 418.400000
10385 15551 10386 1 109.50000 418.400000
1080 15552 9016 1 109.50000 418.400000
1080 15552 10387 1 109.50000 418.400000
1080 15552 10388 1 109.50000 418.400000
9016 15552 10387 1 109.50000 418.400000
9016 15552 10388 1 109.50000 418.400000
10387 15552 10388 1 109.50000 418.400000
4369 15553 7793 1 109.50000 418.400000
4369 15553 9682 1 109.50000 418.400000
4369 15553 10293 1 109.50000 418.400000
7793 15553 9682 1 109.50000 418.400000
7793 15553 10293 1 109.50000 418.400000
9682 15553 10293 1 109.50000 418.400000
2399 15554 2626 1 109.50000 418.400000
2399 15554 8317 1 109.50000 418.400000
2399 15554 8986 1 109.50000 418.400000
2626 15554 8317 1 109.50000 418.400000
2626 15554 8986 1 109.50000 418.400000
8317 15554 8986 1 109.50000 418.400000
2316 15555 6082 1 109.50000 418.400000
2316 15555 8714 1 109.50000 418.400000
2316 15555 9767 1 109.50000 418.400000
6082 15555 8714 1 109.50000 418.400000
6082 15555 9767 1 109.50000 418.400000
8714 15555 9767 1 109.50000 418.400000
70 15556 3594 1 109.50000 418.400000
70 15556 5412 1 109.50000 418.400000
70 15556 7484 1 109.50000 418.400000
3594 15556 5412 1 109.50000 418.400000
3594 15556 7484 1 109.50000 418.400000
5412 15556 7484 1 109.50000 418.400000
821 15557 4341 1 109.50000 418.400000
821 15557 4424 1 109.50000 418.400000
821 15557 9316 1 109.50000 418.400000
4341 15557 4424 1 109.50000 418.400000
4341 15557 9316 1 109.50000 418.400000
4424 15557 9316 1 109.50000 418.400000
7791 15558 8435 1 109.50000 418.400000
7791 15558 10389 1 109.50000 418.400000
7791 15558 10390 1 109.50000 418.400000
8435 15558 10389 1 109.50000 418.400000
8435 15558 10390 1 109.50000 418.400000
10389 15558 10390 1 109.50000 418.400000
3409 15559 4575 1 109.50000 418.400000
3409 15559 4601 1 109.50000 418.400000
3409 15559 7710 1 109.50000 418.400000
4575 15559 4601 1 109.50000 418.400000
4575 15559 7710 1 109.50000 418.400000
4601 15559 7710 1 109.50000 418.400000
7478 15560 9175 1 109.50000 418.400000
7478 15560 9722 1 109.50000 418.400000
7478 15560 10181 1 109.50000 418.400000
9175 15560 9722 1 109.50000 418.400000
9175 15560 10181 1 109.50000 418.400000
9722 15560 10181 1 109.50000 418.400000
4274 15561 5874 1 109.50000 418.400000
4274 15561 9073 1 109.50000 418.400000
4274 15561 10090 1 109.50000 418.400000
5874 15561 9073 1 109.50000 418.400000
5874 15561 10090 1 109.50000 418.400000
9073 15561 10090 1 109.50000 418.400000
3631 15562 6965 1 109.50000 418.400000
3631 15562 6967 1 109.50000 418.400000
3631 15562 10391 1 109.50000 418.400000
6965 15562 6967 1 109.50000 418.400000
6965 15562 10391 1 109.50000 418.400000
6967 15562 10391 1 109.50000 418.400000
9292 15563 10392 1 109.50000 418.400000
9292 15563 10393 1 109.50000 418.400000
9292 15563 10394 1 109.50000 418.400000
10392 15563 10393 1 109.50000 418.400000
10392 15563 10394 1 109.50000 418.400000
10393 15563 10394 1 109.50000 418.400000
2849 15564 4523 1 109.50000 418.400000
2849 15564 9572 1 109.50000 418.400000
2849 15564 10254 1 109.50000 418.400000
4523 15564 9572 1 109.50000 418.400000
4523 15564 10254 1 109.50000 418.400000
9572 15564 10254 1 109.50000 418.400000
504 15565 4868 1 109.50000 418.400000
504 15565 10203 1 109.50000 418.400000
504 15565 10395 1 109.50000 418.400000
4868 15565 10203 1 109.50000 418.400000
4868 15565 10395 1 109.50000 418.400000
10203 15565 10395 1 109.50000 418.400000
5148 15566 9489 1 109.50000 418.400000
5148 15566 9896 1 109.50000 418.400000
5148 15566 10335 1 109.50000 418.400000
9489 15566 9896 1 109.50000 418.400000
9489 15566 10335 1 109.50000 418.400000
9896 15566 10335 1 109.50000 418.400000
3925 15567 7656 1 109.50000 418.400000
3925 15567 9640 1 109.50000 418.400000
3925 15567 9975 1 109.50000 418.400000
7656 15567 9640 1 109.50000 418.400000
7656 15567 9975 1 109.50000 418.400000
9640 15567 9975 1 109.50000 418.400000
1075 15568 4446 1 109.50000 418.400000
1075 15568 10221 1 109.50000 418.400000
1075 15568 11249 1 109.50000 418.400000
4446 15568 10221 1 109.50000 418.400000
4446 15568 11249 1 109.50000 418.400000
10221 15568 11249 1 109.50000 418.400000
2439 15569 8155 1 109.50000 418.400000
2439 15569 10027 1 109.50000 418.400000
2439 15569 10396 1 109.50000 418.400000
8155 15569 10027 1 109.50000 418.400000
8155 15569 10396 1 109.50000 418.400000
10027 15569 10396 1 109.50000 418.400000
1412 15570 2958 1 109.50000 418.400000
1412 15570 3650 1 109.50000 418.400000
1412 15570 10398 1 109.50000 418.400000
2958 15570 3650 1 109.50000 418.400000
2958 15570 10398 1 109.50000 418.400000
3650 15570 10398 1 109.50000 418.400000
1460 15571 6112 1 109.50000 418.400000
1460 15571 9170 1 109.50000 418.400000
1460 15571 10263 1 109.50000 418.400000
6112 15571 9170 1 109.50000 418.400000
6112 15571 10263 1 109.50000 418.400000
9170 15571 10263 1 109.50000 418.400000
8722 15572 9188 1 109.50000 418.400000
8722 15572 9225 1 109.50000 418.400000
8722 15572 10399 1 109.50000 418.400000
9188 15572 9225 1 109.50000 418.400000
9188 15572 10399 1 109.50000 418.400000
9225 15572 10399 1 109.50000 418.400000
1394 15573 2116 1 109.50000 418.400000
1394 15573 7107 1 109.50000 418.400000
1394 15573 10400 1 109.50000 418.400000
2116 15573 7107 1 109.50000 418.400000
2116 15573 10400 1 109.50000 418.400000
7107 15573 10400 1 109.50000 418.400000
1354 15574 2861 1 109.50000 418.400000
1354 15574 7269 1 109.50000 418.400000
1354 15574 7270 1 109.50000 418.400000
2861 15574 7269 1 109.50000 418.400000
2861 15574 7270 1 109.50000 418.400000
7269 15574 7270 1 109.50000 418.400000
5632 15575 7303 1 109.50000 418.400000
5632 15575 10214 1 109.50000 418.400000
5632 15575 10402 1 109.50000 418.400000
7303 15575 10214 1 109.50000 418.400000
7303 15575 10402 1 109.50000 418.400000
10214 15575 10402 1 109.50000 418.400000
4039 15576 9049 1 109.50000 418.400000
4039 15576 10403 1 109.50000 418.400000
4039 15576 10404 1 109.50000 418.400000
9049 15576 10403 1 109.50000 418.400000
9049 15576 10404 1 109.50000 418.400000
10403 15576 10404 1 109.50000 418.400000
1859 15577 4161 1 109.50000 418.400000
1859 15577 10405 1 109.50000 418.400000
1859 15577 10406 1 109.50000 418.400000
4161 15577 10405 1 109.50000 418.400000
4161 15577 10406 1 109.50000 418.400000
10405 15577 10406 1 109.50000 418.400000
1640 15578 8497 1 109.50000 418.400000
1640 15578 8499 1 109.50000 418.400000
1640 15578 8500 1 109.50000 418.400000
8497 15578 8499 1 109.50000 418.400000
8497 15578 8500 1 109.50000 418.400000
8499 15578 8500 1 109.50000 418.400000
4086 15579 5118 1 109.50000 418.400000
4086 15579 10015 1 109.50000 418.400000
4086 15579 10408 1 109.50000 418.400000
5118 15579 10015 1 109.50000 418.400000
5118 15579 10408 1 109.50000 418.400000
10015 15579 10408 1 109.50000 418.400000
2135 15580 4552 1 109.50000 418.400000
2135 15580 8844 1 109.50000 418.400000
2135 15580 10409 1 109.50000 418.400000
4552 15580 8844 1 109.50000 418.400000
4552 15580 10409 1 109.50000 418.400000
8844 15580 10409 1 109.50000 418.400000
2761 15581 6029 1 109.50000 418.400000
2761 15581 10250 1 109.50000 418.400000
2761 15581 10410 1 109.50000 418.400000
6029 15581 10250 1 109.50000 418.400000
6029 15581 10410 1 109.50000 418.400000
10250 15581 10410 1 109.50000 418.400000
4077 15582 6463 1 109.50000 418.400000
4077 15582 8808 1 109.50000 418.400000
4077 15582 10411 1 109.50000 418.400000
6463 15582 8808 1 109.50000 418.400000
6463 15582 10411 1 109.50000 418.400000
8808 15582 10411 1 109.50000 418.400000
201 15583 7062 1 109.50000 418.400000
201 15583 8825 1 109.50000 418.400000
201 15583 10412 1 109.50000 418.400000
7062 15583 8825 1 109.50000 418.400000
7062 15583 10412 1 109.50000 418.400000
8825 15583 10412 1 109.50000 418.400000
4185 15584 10413 1 109.50000 418.400000
4185 15584 10414 1 109.50000 418.400000
4185 15584 11212 1 109.50000 418.400000
10413 15584 10414 1 109.50000 418.400000
10413 15584 11212 1 109.50000 418.400000
10414 15584 11212 1 109.50000 418.400000
4631 15585 10153 1 109.50000 418.400000
4631 15585 10410 1 109.50000 418.400000
4631 15585 10415 1 109.50000 418.400000
10153 15585 10410 1 109.50000 418.400000
10153 15585 10415 1 109.50000 418.400000
10410 15585 10415 1 109.50000 418.400000
1248 15586 5915 1 109.50000 418.400000
1248 15586 7822 1 109.50000 418.400000
1248 15586 10232 1 109.50000 418.400000
5915 15586 7822 1 109.50000 418.400000
5915 15586 10232 1 109.50000 418.400000
7822 15586 10232 1 109.50000 418.400000
443 15587 2048 1 109.50000 418.400000
443 15587 10416 1 109.50000 418.400000
443 15587 10417 1 109.50000 418.400000
2048 15587 10416 1 109.50000 418.400000
2048 15587 10417 1 109.50000 418.400000
10416 15587 10417 1 109.50000 418.400000
803 15588 5870 1 109.50000 418.400000
803 15588 10271 1 109.50000 418.400000
803 15588 10418 1 109.50000 418.400000
5870 15588 10271 1 109.50000 418.400000
5870 15588 10418 1 109.50000 418.400000
10271 15588 10418 1 109.50000 418.400000
2472 15589 2867 1 109.50000 418.400000
2472 15589 4782 1 109.50000 418.400000
2472 15589 8659 1 109.50000 418.400000
2867 15589 4782 1 109.50000 418.400000
2867 15589 8659 1 109.50000 418.400000
4782 15589 8659 1 109.50000 418.400000
3620 15590 10408 1 109.50000 418.400000
3620 15590 10419 1 109.50000 418.400000
3620 15590 10420 1 109.50000 418.400000
10408 15590 10419 1 109.50000 418.400000
10408 15590 10420 1 109.50000 418.400000
10419 15590 10420 1 109.50000 418.400000
5272 15591 7043 1 109.50000 418.400000
5272 15591 9132 1 109.50000 418.400000
5272 15591 10421 1 109.50000 418.400000
7043 15591 9132 1 109.50000 418.400000
7043 15591 10421 1 109.50000 418.400000
9132 15591 10421 1 109.50000 418.400000
617 15592 5697 1 109.50000 418.400000
617 15592 8682 1 109.50000 418.400000
617 15592 9777 1 109.50000 418.400000
5697 15592 8682 1 109.50000 418.400000
5697 15592 9777 1 109.50000 418.400000
8682 15592 9777 1 109.50000 418.400000
4097 15593 5016 1 109.50000 418.400000
4097 15593 7667 1 109.50000 418.400000
4097 15593 10358 1 109.50000 418.400000
5016 15593 7667 1 109.50000 418.400000
5016 15593 10358 1 109.50000 418.400000
7667 15593 10358 1 109.50000 418.400000
1036 15594 1037 1 109.50000 418.400000
1036 15594 1038 1 109.50000 418.400000
1036 15594 1039 1 109.50000 418.400000
1037 15594 1038 1 109.50000 418.400000
1037 15594 1039 1 109.50000 418.400000
1038 15594 1039 1 109.50000 418.400000
5378 15595 8507 1 109.50000 418.400000
5378 15595 10311 1 109.50000 418.400000
5378 15595 10423 1 109.50000 418.400000
8507 15595 10311 1 109.50000 418.400000
8507 15595 10423 1 109.50000 418.400000
10311 15595 10423 1 109.50000 418.400000
3046 15596 5696 1 109.50000 418.400000
3046 15596 9380 1 109.50000 418.400000
3046 15596 10167 1 109.50000 418.400000
5696 15596 9380 1 109.50000 418.400000
5696 15596 10167 1 109.50000 418.400000
9380 15596 10167 1 109.50000 418.400000
885 15597 7581 1 109.50000 418.400000
885 15597 10424 1 109.50000 418.400000
885 15597 10822 1 109.50000 418.400000
7581 15597 10424 1 109.50000 418.400000
7581 15597 10822 1 109.50000 418.400000
10424 15597 10822 1 109.50000 418.400000
5189 15598 7036 1 109.50000 418.400000
5189 15598 9053 1 109.50000 418.400000
5189 15598 10425 1 109.50000 418.400000
7036 15598 9053 1 109.50000 418.400000
7036 15598 10425 1 109.50000 418.400000
9053 15598 10425 1 109.50000 418.400000
6554 15599 7156 1 109.50000 418.400000
6554 15599 9433 1 109.50000 418.400000
6554 15599 10426 1 109.50000 418.400000
7156 15599 9433 1 109.50000 418.400000
7156 15599 10426 1 109.50000 418.400000
9433 15599 10426 1 109.50000 418.400000
3404 15600 8950 1 109.50000 418.400000
3404 15600 10125 1 109.50000 418.400000
3404 15600 10278 1 109.50000 418.400000
8950 15600 10125 1 109.50000 418.400000
8950 15600 10278 1 109.50000 418.400000
10125 15600 10278 1 109.50000 418.400000
5474 15601 9180 1 109.50000 418.400000
5474 15601 10291 1 109.50000 418.400000
5474 15601 10427 1 109.50000 418.400000
9180 15601 10291 1 109.50000 418.400000
9180 15601 10427 1 109.50000 418.400000
10291 15601 10427 1 109.50000 418.400000
5180 15602 9022 1 109.50000 418.400000
5180 15602 10428 1 109.50000 418.400000
5180 15602 10429 1 109.50000 418.400000
9022 15602 10428 1 109.50000 418.400000
9022 15602 10429 1 109.50000 418.400000
10428 15602 10429 1 109.50000 418.400000
9417 15603 10345 1 109.50000 418.400000
9417 15603 10430 1 109.50000 418.400000
9417 15603 10431 1 109.50000 418.400000
10345 15603 10430 1 109.50000 418.400000
10345 15603 10431 1 109.50000 418.400000
10430 15603 10431 1 109.50000 418.400000
4628 15604 7681 1 109.50000 418.400000
4628 15604 8570 1 109.50000 418.400000
4628 15604 10432 1 109.50000 418.400000
7681 15604 8570 1 109.50000 418.400000
7681 15604 10432 1 109.50000 418.400000
8570 15604 10432 1 109.50000 418.400000
5993 15605 6983 1 109.50000 418.400000
5993 15605 9720 1 109.50000 418.400000
5993 15605 9906 1 109.50000 418.400000
6983 15605 9720 1 109.50000 418.400000
6983 15605 9906 1 109.50000 418.400000
9720 15605 9906 1 109.50000 418.400000
6435 15606 6437 1 109.50000 418.400000
6435 15606 8391 1 109.50000 418.400000
6435 15606 11521 1 109.50000 418.400000
6437 15606 8391 1 109.50000 418.400000
6437 15606 11521 1 109.50000 418.400000
8391 15606 11521 1 109.50000 418.400000
1480 15607 2583 1 109.50000 418.400000
1480 15607 2585 1 109.50000 418.400000
1480 15607 8778 1 109.50000 418.400000
2583 15607 2585 1 109.50000 418.400000
2583 15607 8778 1 109.50000 418.400000
2585 15607 8778 1 109.50000 418.400000
6610 15608 8462 1 109.50000 418.400000
6610 15608 8587 1 109.50000 418.400000
6610 15608 9455 1 109.50000 418.400000
8462 15608 8587 1 109.50000 418.400000
8462 15608 9455 1 109.50000 418.400000
8587 15608 9455 1 109.50000 418.400000
45 15609 2200 1 109.50000 418.400000
45 15609 9713 1 109.50000 418.400000
45 15609 10433 1 109.50000 418.400000
2200 15609 9713 1 109.50000 418.400000
2200 15609 10433 1 109.50000 418.400000
9713 15609 10433 1 109.50000 418.400000
4815 15610 5747 1 109.50000 418.400000
4815 15610 6027 1 109.50000 418.400000
4815 15610 8172 1 109.50000 418.400000
5747 15610 6027 1 109.50000 418.400000
5747 15610 8172 1 109.50000 418.400000
6027 15610 8172 1 109.50000 418.400000
1668 15611 7704 1 109.50000 418.400000
1668 15611 7820 1 109.50000 418.400000
1668 15611 10434 1 109.50000 418.400000
7704 15611 7820 1 109.50000 418.400000
7704 15611 10434 1 109.50000 418.400000
7820 15611 10434 1 109.50000 418.400000
1045 15612 4252 1 109.50000 418.400000
1045 15612 8754 1 109.50000 418.400000
1045 15612 10421 1 109.50000 418.400000
4252 15612 8754 1 109.50000 418.400000
4252 15612 10421 1 109.50000 418.400000
8754 15612 10421 1 109.50000 418.400000
6440 15613 6664 1 109.50000 418.400000
6440 15613 11147 1 109.50000 418.400000
6440 15613 11452 1 109.50000 418.400000
6664 15613 11147 1 109.50000 418.400000
6664 15613 11452 1 109.50000 418.400000
11147 15613 11452 1 109.50000 418.400000
2459 15614 5327 1 109.50000 418.400000
2459 15614 7046 1 109.50000 418.400000
2459 15614 9209 1 109.50000 418.400000
5327 15614 7046 1 109.50000 418.400000
5327 15614 9209 1 109.50000 418.400000
7046 15614 9209 1 109.50000 418.400000
3945 15615 5003 1 109.50000 418.400000
3945 15615 6765 1 109.50000 418.400000
3945 15615 6767 1 109.50000 418.400000
5003 15615 6765 1 109.50000 418.400000
5003 15615 6767 1 109.50000 418.400000
6765 15615 6767 1 109.50000 418.400000
10437 15616 10438 1 109.50000 418.400000
10437 15616 10439 1 109.50000 418.400000
10437 15616 10440 1 109.50000 418.400000
10438 15616 10439 1 109.50000 418.400000
10438 15616 10440 1 109.50000 418.400000
10439 15616 10440 1 109.50000 418.400000
4447 15617 7550 1 109.50000 418.400000
4447 15617 9222 1 109.50000 418.400000
4447 15617 10443 1 109.50000 418.400000
7550 15617 9222 1 109.50000 418.400000
7550 15617 10443 1 109.50000 418.400000
9222 15617 10443 1 109.50000 418.400000
7385 15618 7751 1 109.50000 418.400000
7385 15618 10444 1 109.50000 418.400000
7385 15618 10445 1 109.50000 418.400000
7751 15618 10444 1 109.50000 418.400000
7751 15618 10445 1 109.50000 418.400000
10444 15618 10445 1 109.50000 418.400000
873 15619 5011 1 109.50000 418.400000
873 15619 9404 1 109.50000 418.400000
873 15619 10446 1 109.50000 418.400000
5011 15619 9404 1 109.50000 418.400000
5011 15619 10446 1 109.50000 418.400000
9404 15619 10446 1 109.50000 418.400000
4388 15620 8085 1 109.50000 418.400000
4388 15620 8920 1 109.50000 418.400000
4388 15620 10447 1 109.50000 418.400000
8085 15620 8920 1 109.50000 418.400000
8085 15620 10447 1 109.50000 418.400000
8920 15620 10447 1 109.50000 418.400000
774 15621 3430 1 109.50000 418.400000
774 15621 5184 1 109.50000 418.400000
774 15621 10448 1 109.50000 418.400000
3430 15621 5184 1 109.50000 418.400000
3430 15621 10448 1 109.50000 418.400000
5184 15621 10448 1 109.50000 418.400000
751 15622 9597 1 109.50000 418.400000
751 15622 10449 1 109.50000 418.400000
751 15622 10450 1 109.50000 418.400000
9597 15622 10449 1 109.50000 418.400000
9597 15622 10450 1 109.50000 418.400000
10449 15622 10450 1 109.50000 418.400000
7540 15623 10451 1 109.50000 418.400000
7540 15623 10452 1 109.50000 418.400000
7540 15623 10453 1 109.50000 418.400000
10451 15623 10452 1 109.50000 418.400000
10451 15623 10453 1 109.50000 418.400000
10452 15623 10453 1 109.50000 418.400000
979 15624 2367 1 109.50000 418.400000
979 15624 6342 1 109.50000 418.400000
979 15624 7756 1 109.50000 418.400000
2367 15624 6342 1 109.50000 418.400000
2367 15624 7756 1 109.50000 418.400000
6342 15624 7756 1 109.50000 418.400000
2414 15625 9204 1 109.50000 418.400000
2414 15625 10454 1 109.50000 418.400000
2414 15625 10455 1 109.50000 418.400000
9204 15625 10454 1 109.50000 418.400000
9204 15625 10455 1 109.50000 418.400000
10454 15625 10455 1 109.50000 418.400000
1054 15626 7930 1 109.50000 418.400000
1054 15626 9167 1 109.50000 418.400000
1054 15626 9440 1 109.50000 418.400000
7930 15626 9167 1 109.50000 418.400000
7930 15626 9440 1 109.50000 418.400000
9167 15626 9440 1 109.50000 418.400000
3124 15627 7380 1 109.50000 418.400000
3124 15627 8575 1 109.50000 418.400000
3124 15627 10456 1 109.50000 418.400000
7380 15627 8575 1 109.50000 418.400000
7380 15627 10456 1 109.50000 418.400000
8575 15627 10456 1 109.50000 418.400000
5143 15628 5354 1 109.50000 418.400000
5143 15628 7488 1 109.50000 418.400000
5143 15628 10457 1 109.50000 418.400000
5354 15628 7488 1 109.50000 418.400000
5354 15628 10457 1 109.50000 418.400000
7488 15628 10457 1 109.50000 418.400000
5639 15629 9068 1 109.50000 418.400000
5639 15629 9069 1 109.50000 418.400000
5639 15629 10458 1 109.50000 418.400000
9068 15629 9069 1 109.50000 418.400000
9068 15629 10458 1 109.50000 418.400000
9069 15629 10458 1 109.50000 418.400000
5967 15630 8791 1 109.50000 418.400000
5967 15630 9659 1 109.50000 418.400000
5967 15630 10460 1 109.50000 418.400000
8791 15630 9659 1 109.50000 418.400000
8791 15630 10460 1 109.50000 418.400000
9659 15630 10460 1 109.50000 418.400000
9562 15631 10461 1 109.50000 418.400000
9562 15631 10462 1 109.50000 418.400000
9562 15631 11177 1 109.50000 418.400000
10461 15631 10462 1 109.50000 418.400000
10461 15631 11177 1 109.50000 418.400000
10462 15631 11177 1 109.50000 418.400000
1435 15632 4370 1 109.50000 418.400000
1435 15632 6985 1 109.50000 418.400000
1435 15632 7675 1 109.50000 418.400000
4370 15632 6985 1 109.50000 418.400000
4370 15632 7675 1 109.50000 418.400000
6985 15632 7675 1 109.50000 418.400000
1009 15633 5458 1 109.50000 418.400000
1009 15633 7455 1 109.50000 418.400000
1009 15633 10464 1 109.50000 418.400000
5458 15633 7455 1 109.50000 418.400000
5458 15633 10464 1 109.50000 418.400000
7455 15633 10464 1 109.50000 418.400000
407 15634 408 1 109.50000 418.400000
407 15634 1352 1 109.50000 418.400000
407 15634 8278 1 109.50000 418.400000
408 15634 1352 1 109.50000 418.400000
408 15634 8278 1 109.50000 418.400000
1352 15634 8278 1 109.50000 418.400000
4070 15635 8182 1 109.50000 418.400000
4070 15635 8643 1 109.50000 418.400000
4070 15635 10465 1 109.50000 418.400000
8182 15635 8643 1 109.50000 418.400000
8182 15635 10465 1 109.50000 418.400000
8643 15635 10465 1 109.50000 418.400000
5522 15636 10466 1 109.50000 418.400000
5522 15636 10467 1 109.50000 418.400000
5522 15636 10741 1 109.50000 418.400000
10466 15636 10467 1 109.50000 418.400000
10466 15636 10741 1 109.50000 418.400000
10467 15636 10741 1 109.50000 418.400000
7942 15637 8582 1 109.50000 418.400000
7942 15637 10438 1 109.50000 418.400000
7942 15637 10468 1 109.50000 418.400000
8582 15637 10438 1 109.50000 418.400000
8582 15637 10468 1 109.50000 418.400000
10438 15637 10468 1 109.50000 418.400000
9346 15638 9532 1 109.50000 418.400000
9346 15638 9533 1 109.50000 418.400000
9346 15638 10469 1 109.50000 418.400000
9532 15638 9533 1 109.50000 418.400000
9532 15638 10469 1 109.50000 418.400000
9533 15638 10469 1 109.50000 418.400000
321 15639 3730 1 109.50000 418.400000
321 15639 4275 1 109.50000 418.400000
321 15639 10383 1 109.50000 418.400000
3730 15639 4275 1 109.50000 418.400000
3730 15639 10383 1 109.50000 418.400000
4275 15639 10383 1 109.50000 418.400000
2280 15640 6573 1 109.50000 418.400000
2280 15640 8418 1 109.50000 418.400000
2280 15640 10470 1 109.50000 418.400000
6573 15640 8418 1 109.50000 418.400000
6573 15640 10470 1 109.50000 418.400000
8418 15640 10470 1 109.50000 418.400000
1234 15641 5807 1 109.50000 418.400000
1234 15641 10471 1 109.50000 418.400000
1234 15641 10472 1 109.50000 418.400000
5807 15641 10471 1 109.50000 418.400000
5807 15641 10472 1 109.50000 418.400000
10471 15641 10472 1 109.50000 418.400000
281 15642 7161 1 109.50000 418.400000
281 15642 10473 1 109.50000 418.400000
281 15642 10474 1 109.50000 418.400000
7161 15642 10473 1 109.50000 418.400000
7161 15642 10474 1 109.50000 418.400000
10473 15642 10474 1 109.50000 418.400000
676 15643 1921 1 109.50000 418.400000
676 15643 10475 1 109.50000 418.400000
676 15643 11403 1 109.50000 418.400000
1921 15643 10475 1 109.50000 418.400000
1921 15643 11403 1 109.50000 418.400000
10475 15643 11403 1 109.50000 418.400000
1010 15644 2218 1 109.50000 418.400000
1010 15644 6465 1 109.50000 418.400000
1010 15644 10476 1 109.50000 418.400000
2218 15644 6465 1 109.50000 418.400000
2218 15644 10476 1 109.50000 418.400000
6465 15644 10476 1 109.50000 418.400000
6728 15645 8309 1 109.50000 418.400000
6728 15645 8770 1 109.50000 418.400000
6728 15645 9422 1 109.50000 418.400000
8309 15645 8770 1 109.50000 418.400000
8309 15645 9422 1 109.50000 418.400000
8770 15645 9422 1 109.50000 418.400000
3378 15646 5391 1 109.50000 418.400000
3378 15646 9089 1 109.50000 418.400000
3378 15646 10477 1 109.50000 418.400000
5391 15646 9089 1 109.50000 418.400000
5391 15646 10477 1 109.50000 418.400000
9089 15646 10477 1 109.50000 418.400000
991 15647 5441 1 109.50000 418.400000
991 15647 8962 1 109.50000 418.400000
991 15647 11475 1 109.50000 418.400000
5441 15647 8962 1 109.50000 418.400000
5441 15647 11475 1 109.50000 418.400000
8962 15647 11475 1 109.50000 418.400000
2213 15648 2727 1 109.50000 418.400000
2213 15648 8115 1 109.50000 418.400000
2213 15648 10478 1 109.50000 418.400000
2727 15648 8115 1 109.50000 418.400000
2727 15648 10478 1 109.50000 418.400000
8115 15648 10478 1 109.50000 418.400000
5543 15649 6382 1 109.50000 418.400000
5543 15649 9653 1 109.50000 418.400000
5543 15649 10479 1 109.50000 418.400000
6382 15649 9653 1 109.50000 418.400000
6382 15649 10479 1 109.50000 418.400000
9653 15649 10479 1 109.50000 418.400000
4451 15650 5832 1 109.50000 418.400000
4451 15650 6474 1 109.50000 418.400000
4451 15650 7854 1 109.50000 418.400000
5832 15650 6474 1 109.50000 418.400000
5832 15650 7854 1 109.50000 418.400000
6474 15650 7854 1 109.50000 418.400000
2543 15651 2638 1 109.50000 418.400000
2543 15651 8981 1 109.50000 418.400000
2543 15651 10072 1 109.50000 418.400000
2638 15651 8981 1 109.50000 418.400000
2638 15651 10072 1 109.50000 418.400000
8981 15651 10072 1 109.50000 418.400000
5791 15652 5792 1 109.50000 418.400000
5791 15652 5977 1 109.50000 418.400000
5791 15652 10220 1 109.50000 418.400000
5792 15652 5977 1 109.50000 418.400000
5792 15652 10220 1 109.50000 418.400000
5977 15652 10220 1 109.50000 418.400000
312 15653 9486 1 109.50000 418.400000
312 15653 10480 1 109.50000 418.400000
312 15653 10481 1 109.50000 418.400000
9486 15653 10480 1 109.50000 418.400000
9486 15653 10481 1 109.50000 418.400000
10480 15653 10481 1 109.50000 418.400000
1834 15654 3024 1 109.50000 418.400000
1834 15654 8442 1 109.50000 418.400000
1834 15654 10482 1 109.50000 418.400000
3024 15654 8442 1 109.50000 418.400000
3024 15654 10482 1 109.50000 418.400000
8442 15654 10482 1 109.50000 418.400000
2323 15655 6577 1 109.50000 418.400000
2323 15655 7918 1 109.50000 418.400000
2323 15655 10483 1 109.50000 418.400000
6577 15655 7918 1 109.50000 418.400000
6577 15655 10483 1 109.50000 418.400000
7918 15655 10483 1 109.50000 418.400000
1213 15656 2179 1 109.50000 418.400000
1213 15656 4972 1 109.50000 418.400000
1213 15656 10484 1 109.50000 418.400000
2179 15656 4972 1 109.50000 418.400000
2179 15656 10484 1 109.50000 418.400000
4972 15656 10484 1 109.50000 418.400000
6623 15657 9798 1 109.50000 418.400000
6623 15657 10407 1 109.50000 418.400000
6623 15657 10485 1 109.50000 418.400000
9798 15657 10407 1 109.50000 418.400000
9798 15657 10485 1 109.50000 418.400000
10407 15657 10485 1 109.50000 418.400000
7574 15658 8040 1 109.50000 418.400000
7574 15658 9946 1 109.50000 418.400000
7574 15658 10486 1 109.50000 418.400000
8040 15658 9946 1 109.50000 418.400000
8040 15658 10486 1 109.50000 418.400000
9946 15658 10486 1 109.50000 418.400000
4676 15659 4677 1 109.50000 418.400000
4676 15659 6975 1 109.50000 418.400000
4676 15659 8536 1 109.50000 418.400000
4677 15659 6975 1 109.50000 418.400000
4677 15659 8536 1 109.50000 418.400000
6975 15659 8536 1 109.50000 418.400000
1856 15660 8053 1 109.50000 418.400000
1856 15660 10487 1 109.50000 418.400000
1856 15660 10488 1 109.50000 418.400000
8053 15660 10487 1 109.50000 418.400000
8053 15660 10488 1 109.50000 418.400000
10487 15660 10488 1 109.50000 418.400000
2068 15661 4919 1 109.50000 418.400000
2068 15661 10489 1 109.50000 418.400000
2068 15661 10490 1 109.50000 418.400000
4919 15661 10489 1 109.50000 418.400000
4919 15661 10490 1 109.50000 418.400000
10489 15661 10490 1 109.50000 418.400000
3879 15662 7170 1 109.50000 418.400000
3879 15662 10491 1 109.50000 418.400000
3879 15662 11216 1 109.50000 418.400000
7170 15662 10491 1 109.50000 418.400000
7170 15662 11216 1 109.50000 418.400000
10491 15662 11216 1 109.50000 418.400000
9803 15663 10149 1 109.50000 418.400000
9803 15663 10492 1 109.50000 418.400000
9803 15663 11213 1 109.50000 418.400000
10149 15663 10492 1 109.50000 418.400000
10149 15663 11213 1 109.50000 418.400000
10492 15663 11213 1 109.50000 418.400000
1755 15664 10306 1 109.50000 418.400000
1755 15664 10307 1 109.50000 418.400000
1755 15664 11218 1 109.50000 418.400000
10306 15664 10307 1 109.50000 418.400000
10306 15664 11218 1 109.50000 418.400000
10307 15664 11218 1 109.50000 418.400000
5264 15665 5804 1 109.50000 418.400000
5264 15665 5826 1 109.50000 418.400000
5264 15665 9908 1 109.50000 418.400000
5804 15665 5826 1 109.50000 418.400000
5804 15665 9908 1 109.50000 418.400000
5826 15665 9908 1 109.50000 418.400000
8363 15666 9558 1 109.50000 418.400000
8363 15666 11240 1 109.50000 418.400000
8363 15666 11396 1 109.50000 418.400000
9558 15666 11240 1 109.50000 418.400000
9558 15666 11396 1 109.50000 418.400000
11240 15666 11396 1 109.50000 418.400000
5301 15667 7081 1 109.50000 418.400000
5301 15667 7306 1 109.50000 418.400000
5301 15667 10493 1 109.50000 418.400000
7081 15667 7306 1 109.50000 418.400000
7081 15667 10493 1 109.50000 418.400000
7306 15667 10493 1 109.50000 418.400000
1375 15668 4268 1 109.50000 418.400000
1375 15668 4314 1 109.50000 418.400000
1375 15668 6629 1 109.50000 418.400000
4268 15668 4314 1 109.50000 418.400000
4268 15668 6629 1 109.50000 418.400000
4314 15668 6629 1 109.50000 418.400000
6896 15669 6897 1 109.50000 418.400000
6896 15669 8546 1 109.50000 418.400000
6896 15669 9406 1 109.50000 418.400000
6897 15669 8546 1 109.50000 418.400000
6897 15669 9406 1 109.50000 418.400000
8546 15669 9406 1 109.50000 418.400000
7652 15670 9545 1 109.50000 418.400000
7652 15670 9838 1 109.50000 418.400000
7652 15670 10494 1 109.50000 418.400000
9545 15670 9838 1 109.50000 418.400000
9545 15670 10494 1 109.50000 418.400000
9838 15670 10494 1 109.50000 418.400000
6229 15671 9118 1 109.50000 418.400000
6229 15671 9119 1 109.50000 418.400000
6229 15671 10495 1 109.50000 418.400000
9118 15671 9119 1 109.50000 418.400000
9118 15671 10495 1 109.50000 418.400000
9119 15671 10495 1 109.50000 418.400000
3910 15672 8849 1 109.50000 418.400000
3910 15672 9763 1 109.50000 418.400000
3910 15672 10496 1 109.50000 418.400000
8849 15672 9763 1 109.50000 418.400000
8849 15672 10496 1 109.50000 418.400000
9763 15672 10496 1 109.50000 418.400000
3560 15673 8785 1 109.50000 418.400000
3560 15673 11262 1 109.50000 418.400000
3560 15673 11476 1 109.50000 418.400000
8785 15673 11262 1 109.50000 418.400000
8785 15673 11476 1 109.50000 418.400000
11262 15673 11476 1 109.50000 418.400000
1059 15674 6523 1 109.50000 418.400000
1059 15674 9526 1 109.50000 418.400000
1059 15674 10497 1 109.50000 418.400000
6523 15674 9526 1 109.50000 418.400000
6523 15674 10497 1 109.50000 418.400000
9526 15674 10497 1 109.50000 418.400000
921 15675 8669 1 109.50000 418.400000
921 15675 8758 1 109.50000 418.400000
921 15675 10498 1 109.50000 418.400000
8669 15675 8758 1 109.50000 418.400000
8669 15675 10498 1 109.50000 418.400000
8758 15675 10498 1 109.50000 418.400000
60 15676 7746 1 109.50000 418.400000
60 15676 10428 1 109.50000 418.400000
60 15676 10499 1 109.50000 418.400000
7746 15676 10428 1 109.50000 418.400000
7746 15676 10499 1 109.50000 418.400000
10428 15676 10499 1 109.50000 418.400000
4580 15677 6110 1 109.50000 418.400000
4580 15677 8265 1 109.50000 418.400000
4580 15677 10500 1 109.50000 418.400000
6110 15677 8265 1 109.50000 418.400000
6110 15677 10500 1 109.50000 418.400000
8265 15677 10500 1 109.50000 418.400000
880 15678 5678 1 109.50000 418.400000
880 15678 6347 1 109.50000 418.400000
880 15678 7992 1 109.50000 418.400000
5678 15678 6347 1 109.50000 418.400000
5678 15678 7992 1 109.50000 418.400000
6347 15678 7992 1 109.50000 418.400000
1021 15679 9602 1 109.50000 418.400000
1021 15679 9828 1 109.50000 418.400000
1021 15679 11465 1 109.50000 418.400000
9602 15679 9828 1 109.50000 418.400000
9602 15679 11465 1 109.50000 418.400000
9828 15679 11465 1 109.50000 418.400000
1115 15680 10150 1 109.50000 418.400000
1115 15680 10207 1 109.50000 418.400000
1115 15680 10501 1 109.50000 418.400000
10150 15680 10207 1 109.50000 418.400000
10150 15680 10501 1 109.50000 418.400000
10207 15680 10501 1 109.50000 418.400000
3967 15681 7502 1 109.50000 418.400000
3967 15681 8453 1 109.50000 418.400000
3967 15681 10289 1 109.50000 418.400000
7502 15681 8453 1 109.50000 418.400000
7502 15681 10289 1 109.50000 418.400000
8453 15681 10289 1 109.50000 418.400000
908 15682 1924 1 109.50000 418.400000
908 15682 1925 1 109.50000 418.400000
908 15682 3846 1 109.50000 418.400000
1924 15682 1925 1 109.50000 418.400000
1924 15682 3846 1 109.50000 418.400000
1925 15682 3846 1 109.50000 418.400000
5557 15683 8202 1 109.50000 418.400000
5557 15683 9729 1 109.50000 418.400000
5557 15683 9898 1 109.50000 418.400000
8202 15683 9729 1 109.50000 418.400000
8202 15683 9898 1 109.50000 418.400000
9729 15683 9898 1 109.50000 418.400000
1982 15684 6969 1 109.50000 418.400000
1982 15684 10502 1 109.50000 418.400000
1982 15684 10503 1 109.50000 418.400000
6969 15684 10502 1 109.50000 418.400000
6969 15684 10503 1 109.50000 418.400000
10502 15684 10503 1 109.50000 418.400000
3692 15685 7804 1 109.50000 418.400000
3692 15685 8027 1 109.50000 418.400000
3692 15685 10451 1 109.50000 418.400000
7804 15685 8027 1 109.50000 418.400000
7804 15685 10451 1 109.50000 418.400000
8027 15685 10451 1 109.50000 418.400000
6235 15686 9622 1 109.50000 418.400000
6235 15686 11207 1 109.50000 418.400000
6235 15686 11306 1 109.50000 418.400000
9622 15686 11207 1 109.50000 418.400000
9622 15686 11306 1 109.50000 418.400000
11207 15686 11306 1 109.50000 418.400000
2692 15687 5059 1 109.50000 418.400000
2692 15687 5061 1 109.50000 418.400000
2692 15687 10504 1 109.50000 418.400000
5059 15687 5061 1 109.50000 418.400000
5059 15687 10504 1 109.50000 418.400000
5061 15687 10504 1 109.50000 418.400000
384 15688 9948 1 109.50000 418.400000
384 15688 10505 1 109.50000 418.400000
384 15688 10506 1 109.50000 418.400000
9948 15688 10505 1 109.50000 418.400000
9948 15688 10506 1 109.50000 418.400000
10505 15688 10506 1 109.50000 418.400000
5306 15689 9550 1 109.50000 418.400000
5306 15689 10166 1 109.50000 418.400000
5306 15689 10507 1 109.50000 418.400000
9550 15689 10166 1 109.50000 418.400000
9550 15689 10507 1 109.50000 418.400000
10166 15689 10507 1 109.50000 418.400000
851 15690 1048 1 109.50000 418.400000
851 15690 7719 1 109.50000 418.400000
851 15690 10331 1 109.50000 418.400000
1048 15690 7719 1 109.50000 418.400000
1048 15690 10331 1 109.50000 418.400000
7719 15690 10331 1 109.50000 418.400000
1711 15691 1712 1 109.50000 418.400000
1711 15691 10508 1 109.50000 418.400000
1711 15691 11500 1 109.50000 418.400000
1712 15691 10508 1 109.50000 418.400000
1712 15691 11500 1 109.50000 418.400000
10508 15691 11500 1 109.50000 418.400000
2167 15692 3141 1 109.50000 418.400000
2167 15692 6090 1 109.50000 418.400000
2167 15692 6324 1 109.50000 418.400000
3141 15692 6090 1 109.50000 418.400000
3141 15692 6324 1 109.50000 418.400000
6090 15692 6324 1 109.50000 418.400000
10006 15693 10509 1 109.50000 418.400000
10006 15693 10510 1 109.50000 418.400000
10006 15693 10511 1 109.50000 418.400000
10509 15693 10510 1 109.50000 418.400000
10509 15693 10511 1 109.50000 418.400000
10510 15693 10511 1 109.50000 418.400000
916 15694 956 1 109.50000 418.400000
916 15694 6467 1 109.50000 418.400000
916 15694 9614 1 109.50000 418.400000
956 15694 6467 1 109.50000 418.400000
956 15694 9614 1 109.50000 418.400000
6467 15694 9614 1 109.50000 418.400000
3377 15695 4953 1 109.50000 418.400000
3377 15695 6929 1 109.50000 418.400000
3377 15695 10512 1 109.50000 418.400000
4953 15695 6929 1 109.50000 418.400000
4953 15695 10512 1 109.50000 418.400000
6929 15695 10512 1 109.50000 418.400000
190 15696 1003 1 109.50000 418.400000
190 15696 3612 1 109.50000 418.400000
190 15696 8408 1 109.50000 418.400000
1003 15696 3612 1 109.50000 418.400000
1003 15696 8408 1 109.50000 418.400000
3612 15696 8408 1 109.50000 418.400000
19 15697 4534 1 109.50000 418.400000
19 15697 9768 1 109.50000 418.400000
19 15697 11488 1 109.50000 418.400000
4534 15697 9768 1 109.50000 418.400000
4534 15697 11488 1 109.50000 418.400000
9768 15697 11488 1 109.50000 418.400000
1635 15698 10513 1 109.50000 418.400000
1635 15698 10514 1 109.50000 418.400000
1635 15698 11508 1 109.50000 418.400000
10513 15698 10514 1 109.50000 418.400000
10513 15698 11508 1 109.50000 418.400000
10514 15698 11508 1 109.50000 418.400000
2860 15699 8565 1 109.50000 418.400000
2860 15699 10515 1 109.50000 418.400000
2860 15699 10516 1 109.50000 418.400000
8565 15699 10515 1 109.50000 418.400000
8565 15699 10516 1 109.50000 418.400000
10515 15699 10516 1 109.50000 418.400000
522 15700 6758 1 109.50000 418.400000
522 15700 7316 1 109.50000 418.400000
522 15700 10517 1 109.50000 418.400000
6758 15700 7316 1 109.50000 418.400000
6758 15700 10517 1 109.50000 418.400000
7316 15700 10517 1 109.50000 418.400000
1033 15701 5554 1 109.50000 418.400000
1033 15701 6135 1 109.50000 418.400000
1033 15701 9179 1 109.50000 418.400000
5554 15701 6135 1 109.50000 418.400000
5554 15701 9179 1 109.50000 418.400000
6135 15701 9179 1 109.50000 418.400000
5824 15702 5825 1 109.50000 418.400000
5824 15702 5921 1 109.50000 418.400000
5824 15702 10519 1 109.50000 418.400000
5825 15702 5921 1 109.50000 418.400000
5825 15702 10519 1 109.50000 418.400000
5921 15702 10519 1 109.50000 418.400000
4642 15703 9312 1 109.50000 418.400000
4642 15703 9983 1 109.50000 418.400000
4642 15703 10520 1 109.50000 418.400000
9312 15703 9983 1 109.50000 418.400000
9312 15703 10520 1 109.50000 418.400000
9983 15703 10520 1 109.50000 418.400000
1138 15704 5613 1 109.50000 418.400000
1138 15704 5960 1 109.50000 418.400000
1138 15704 9657 1 109.50000 418.400000
5613 15704 5960 1 109.50000 418.400000
5613 15704 9657 1 109.50000 418.400000
5960 15704 9657 1 109.50000 418.400000
5520 15705 10398 1 109.50000 418.400000
5520 15705 10522 1 109.50000 418.400000
5520 15705 10523 1 109.50000 418.400000
10398 15705 10522 1 109.50000 418.400000
10398 15705 10523 1 109.50000 418.400000
10522 15705 10523 1 109.50000 418.400000
4798 15706 6333 1 109.50000 418.400000
4798 15706 8425 1 109.50000 418.400000
4798 15706 8839 1 109.50000 418.400000
6333 15706 8425 1 109.50000 418.400000
6333 15706 8839 1 109.50000 418.400000
8425 15706 8839 1 109.50000 418.400000
5658 15707 10447 1 109.50000 418.400000
5658 15707 10524 1 109.50000 418.400000
5658 15707 10525 1 109.50000 418.400000
10447 15707 10524 1 109.50000 418.400000
10447 15707 10525 1 109.50000 418.400000
10524 15707 10525 1 109.50000 418.400000
6771 15708 9040 1 109.50000 418.400000
6771 15708 9325 1 109.50000 418.400000
6771 15708 10526 1 109.50000 418.400000
9040 15708 9325 1 109.50000 418.400000
9040 15708 10526 1 109.50000 418.400000
9325 15708 10526 1 109.50000 418.400000
5592 15709 9575 1 109.50000 418.400000
5592 15709 9642 1 109.50000 418.400000
5592 15709 11194 1 109.50000 418.400000
9575 15709 9642 1 109.50000 418.400000
9575 15709 11194 1 109.50000 418.400000
9642 15709 11194 1 109.50000 418.400000
1418 15710 3305 1 109.50000 418.400000
1418 15710 3516 1 109.50000 418.400000
1418 15710 4147 1 109.50000 418.400000
3305 15710 3516 1 109.50000 418.400000
3305 15710 4147 1 109.50000 418.400000
3516 15710 4147 1 109.50000 418.400000
6612 15711 9076 1 109.50000 418.400000
6612 15711 10373 1 109.50000 418.400000
6612 15711 10527 1 109.50000 418.400000
9076 15711 10373 1 109.50000 418.400000
9076 15711 10527 1 109.50000 418.400000
10373 15711 10527 1 109.50000 418.400000
2353 15712 8421 1 109.50000 418.400000
2353 15712 8847 1 109.50000 418.400000
2353 15712 10528 1 109.50000 418.400000
8421 15712 8847 1 109.50000 418.400000
8421 15712 10528 1 109.50000 418.400000
8847 15712 10528 1 109.50000 418.400000
8436 15713 9330 1 109.50000 418.400000
8436 15713 10051 1 109.50000 418.400000
8436 15713 10171 1 109.50000 418.400000
9330 15713 10051 1 109.50000 418.400000
9330 15713 10171 1 109.50000 418.400000
10051 15713 10171 1 109.50000 418.400000
1906 15714 5364 1 109.50000 418.400000
1906 15714 10482 1 109.50000 418.400000
1906 15714 10529 1 109.50000 418.400000
5364 15714 10482 1 109.50000 418.400000
5364 15714 10529 1 109.50000 418.400000
10482 15714 10529 1 109.50000 418.400000
7042 15715 7431 1 109.50000 418.400000
7042 15715 7432 1 109.50000 418.400000
7042 15715 10530 1 109.50000 418.400000
7431 15715 7432 1 109.50000 418.400000
7431 15715 10530 1 109.50000 418.400000
7432 15715 10530 1 109.50000 418.400000
4589 15716 4590 1 109.50000 418.400000
4589 15716 4591 1 109.50000 418.400000
4589 15716 4592 1 109.50000 418.400000
4590 15716 4591 1 109.50000 418.400000
4590 15716 4592 1 109.50000 418.400000
4591 15716 4592 1 109.50000 418.400000
2050 15717 5022 1 109.50000 418.400000
2050 15717 9619 1 109.50000 418.400000
2050 15717 9988 1 109.50000 418.400000
5022 15717 9619 1 109.50000 418.400000
5022 15717 9988 1 109.50000 418.400000
9619 15717 9988 1 109.50000 418.400000
3107 15718 3108 1 109.50000 418.400000
3107 15718 8883 1 109.50000 418.400000
3107 15718 10533 1 109.50000 418.400000
3108 15718 8883 1 109.50000 418.400000
3108 15718 10533 1 109.50000 418.400000
8883 15718 10533 1 109.50000 418.400000
3916 15719 7272 1 109.50000 418.400000
3916 15719 10534 1 109.50000 418.400000
3916 15719 10535 1 109.50000 418.400000
7272 15719 10534 1 109.50000 418.400000
7272 15719 10535 1 109.50000 418.400000
10534 15719 10535 1 109.50000 418.400000
2295 15720 3121 1 109.50000 418.400000
2295 15720 4767 1 109.50000 418.400000
2295 15720 10536 1 109.50000 418.400000
3121 15720 4767 1 109.50000 418.400000
3121 15720 10536 1 109.50000 418.400000
4767 15720 10536 1 109.50000 418.400000
4099 15721 8229 1 109.50000 418.400000
4099 15721 9169 1 109.50000 418.400000
4099 15721 10537 1 109.50000 418.400000
8229 15721 9169 1 109.50000 418.400000
8229 15721 10537 1 109.50000 418.400000
9169 15721 10537 1 109.50000 418.400000
4248 15722 6373 1 109.50000 418.400000
4248 15722 9742 1 109.50000 418.400000
4248 15722 10538 1 109.50000 418.400000
6373 15722 9742 1 109.50000 418.400000
6373 15722 10538 1 109.50000 418.400000
9742 15722 10538 1 109.50000 418.400000
1825 15723 6002 1 109.50000 418.400000
1825 15723 9226 1 109.50000 418.400000
1825 15723 10539 1 109.50000 418.400000
6002 15723 9226 1 109.50000 418.400000
6002 15723 10539 1 109.50000 418.400000
9226 15723 10539 1 109.50000 418.400000
1267 15724 1846 1 109.50000 418.400000
1267 15724 8972 1 109.50000 418.400000
1267 15724 10540 1 109.50000 418.400000
1846 15724 8972 1 109.50000 418.400000
1846 15724 10540 1 109.50000 418.400000
8972 15724 10540 1 109.50000 418.400000
3280 15725 10304 1 109.50000 418.400000
3280 15725 10541 1 109.50000 418.400000
3280 15725 10542 1 109.50000 418.400000
10304 15725 10541 1 109.50000 418.400000
10304 15725 10542 1 109.50000 418.400000
10541 15725 10542 1 109.50000 418.400000
4471 15726 7494 1 109.50000 418.400000
4471 15726 8023 1 109.50000 418.400000
4471 15726 10543 1 109.50000 418.400000
7494 15726 8023 1 109.50000 418.400000
7494 15726 10543 1 109.50000 418.400000
8023 15726 10543 1 109.50000 418.400000
8313 15727 8315 1 109.50000 418.400000
8313 15727 10516 1 109.50000 418.400000
8313 15727 10544 1 109.50000 418.400000
8315 15727 10516 1 109.50000 418.400000
8315 15727 10544 1 109.50000 418.400000
10516 15727 10544 1 109.50000 418.400000
779 15728 9193 1 109.50000 418.400000
779 15728 11197 1 109.50000 418.400000
779 15728 11526 1 109.50000 418.400000
9193 15728 11197 1 109.50000 418.400000
9193 15728 11526 1 109.50000 418.400000
11197 15728 11526 1 109.50000 418.400000
7688 15729 9124 1 109.50000 418.400000
7688 15729 10032 1 109.50000 418.400000
7688 15729 10545 1 109.50000 418.400000
9124 15729 10032 1 109.50000 418.400000
9124 15729 10545 1 109.50000 418.400000
10032 15729 10545 1 109.50000 418.400000
4071 15730 4438 1 109.50000 418.400000
4071 15730 10546 1 109.50000 418.400000
4071 15730 10547 1 109.50000 418.400000
4438 15730 10546 1 109.50000 418.400000
4438 15730 10547 1 109.50000 418.400000
10546 15730 10547 1 109.50000 418.400000
2337 15731 2339 1 109.50000 418.400000
2337 15731 2340 1 109.50000 418.400000
2337 15731 10548 1 109.50000 418.400000
2339 15731 2340 1 109.50000 418.400000
2339 15731 10548 1 109.50000 418.400000
2340 15731 10548 1 109.50000 418.400000
31 15732 10549 1 109.50000 418.400000
31 15732 11177 1 109.50000 418.400000
31 15732 11300 1 109.50000 418.400000
10549 15732 11177 1 109.50000 418.400000
10549 15732 11300 1 109.50000 418.400000
11177 15732 11300 1 109.50000 418.400000
3375 15733 10550 1 109.50000 418.400000
3375 15733 10551 1 109.50000 418.400000
3375 15733 10552 1 109.50000 418.400000
10550 15733 10551 1 109.50000 418.400000
10550 15733 10552 1 109.50000 418.400000
10551 15733 10552 1 109.50000 418.400000
6628 15734 7326 1 109.50000 418.400000
6628 15734 10243 1 109.50000 418.400000
6628 15734 10252 1 109.50000 418.400000
7326 15734 10243 1 109.50000 418.400000
7326 15734 10252 1 109.50000 418.400000
10243 15734 10252 1 109.50000 418.400000
4820 15735 5515 1 109.50000 418.400000
4820 15735 9136 1 109.50000 418.400000
4820 15735 10553 1 109.50000 418.400000
5515 15735 9136 1 109.50000 418.400000
5515 15735 10553 1 109.50000 418.400000
9136 15735 10553 1 109.50000 418.400000
2194 15736 8668 1 109.50000 418.400000
2194 15736 10554 1 109.50000 418.400000
2194 15736 10555 1 109.50000 418.400000
8668 15736 10554 1 109.50000 418.400000
8668 15736 10555 1 109.50000 418.400000
10554 15736 10555 1 109.50000 418.400000
2544 15737 10556 1 109.50000 418.400000
2544 15737 10557 1 109.50000 418.400000
2544 15737 10558 1 109.50000 418.400000
10556 15737 10557 1 109.50000 418.400000
10556 15737 10558 1 109.50000 418.400000
10557 15737 10558 1 109.50000 418.400000
298 15738 8141 1 109.50000 418.400000
298 15738 10295 1 109.50000 418.400000
298 15738 10486 1 109.50000 418.400000
8141 15738 10295 1 109.50000 418.400000
8141 15738 10486 1 109.50000 418.400000
10295 15738 10486 1 109.50000 418.400000
3125 15739 9116 1 109.50000 418.400000
3125 15739 10380 1 109.50000 418.400000
3125 15739 10559 1 109.50000 418.400000
9116 15739 10380 1 109.50000 418.400000
9116 15739 10559 1 109.50000 418.400000
10380 15739 10559 1 109.50000 418.400000
3105 15740 10560 1 109.50000 418.400000
3105 15740 10561 1 109.50000 418.400000
3105 15740 11442 1 109.50000 418.400000
10560 15740 10561 1 109.50000 418.400000
10560 15740 11442 1 109.50000 418.400000
10561 15740 11442 1 109.50000 418.400000
7871 15741 10562 1 109.50000 418.400000
7871 15741 10563 1 109.50000 418.400000
7871 15741 10564 1 109.50000 418.400000
10562 15741 10563 1 109.50000 418.400000
10562 15741 10564 1 109.50000 418.400000
10563 15741 10564 1 109.50000 418.400000
1553 15742 6858 1 109.50000 418.400000
1553 15742 9887 1 109.50000 418.400000
1553 15742 10565 1 109.50000 418.400000
6858 15742 9887 1 109.50000 418.400000
6858 15742 10565 1 109.50000 418.400000
9887 15742 10565 1 109.50000 418.400000
4358 15743 7137 1 109.50000 418.400000
4358 15743 7817 1 109.50000 418.400000
4358 15743 10566 1 109.50000 418.400000
7137 15743 7817 1 109.50000 418.400000
7137 15743 10566 1 109.50000 418.400000
7817 15743 10566 1 109.50000 418.400000
2996 15744 4584 1 109.50000 418.400000
2996 15744 10567 1 109.50000 418.400000
2996 15744 11208 1 109.50000 418.400000
4584 15744 10567 1 109.50000 418.400000
4584 15744 11208 1 109.50000 418.400000
10567 15744 11208 1 109.50000 418.400000
1525 15745 8743 1 109.50000 418.400000
1525 15745 10233 1 109.50000 418.400000
1525 15745 10568 1 109.50000 418.400000
8743 15745 10233 1 109.50000 418.400000
8743 15745 10568 1 109.50000 418.400000
10233 15745 10568 1 109.50000 418.400000
6006 15746 9919 1 109.50000 418.400000
6006 15746 10569 1 109.50000 418.400000
6006 15746 10570 1 109.50000 418.400000
9919 15746 10569 1 109.50000 418.400000
9919 15746 10570 1 109.50000 418.400000
10569 15746 10570 1 109.50000 418.400000
514 15747 3976 1 109.50000 418.400000
514 15747 11217 1 109.50000 418.400000
514 15747 11495 1 109.50000 418.400000
3976 15747 11217 1 109.50000 418.400000
3976 15747 11495 1 109.50000 418.400000
11217 15747 11495 1 109.50000 418.400000
3924 15748 7261 1 109.50000 418.400000
3924 15748 9703 1 109.50000 418.400000
3924 15748 10571 1 109.50000 418.400000
7261 15748 9703 1 109.50000 418.400000
7261 15748 10571 1 109.50000 418.400000
9703 15748 10571 1 109.50000 418.400000
5174 15749 8482 1 109.50000 418.400000
5174 15749 9031 1 109.50000 418.400000
5174 15749 10558 1 109.50000 418.400000
8482 15749 9031 1 109.50000 418.400000
8482 15749 10558 1 109.50000 418.400000
9031 15749 10558 1 109.50000 418.400000
534 15750 4768 1 109.50000 418.400000
534 15750 6171 1 109.50000 418.400000
534 15750 10009 1 109.50000 418.400000
4768 15750 6171 1 109.50000 418.400000
4768 15750 10009 1 109.50000 418.400000
6171 15750 10009 1 109.50000 418.400000
2169 15751 6712 1 109.50000 418.400000
2169 15751 8060 1 109.50000 418.400000
2169 15751 10573 1 109.50000 418.400000
6712 15751 8060 1 109.50000 418.400000
6712 15751 10573 1 109.50000 418.400000
8060 15751 10573 1 109.50000 418.400000
4666 15752 9753 1 109.50000 418.400000
4666 15752 10506 1 109.50000 418.400000
4666 15752 10574 1 109.50000 418.400000
9753 15752 10506 1 109.50000 418.400000
9753 15752 10574 1 109.50000 418.400000
10506 15752 10574 1 109.50000 418.400000
9303 15753 10575 1 109.50000 418.400000
9303 15753 10576 1 109.50000 418.400000
9303 15753 10577 1 109.50000 418.400000
10575 15753 10576 1 109.50000 418.400000
10575 15753 10577 1 109.50000 418.400000
10576 15753 10577 1 109.50000 418.400000
1358 15754 2035 1 109.50000 418.400000
1358 15754 3304 1 109.50000 418.400000
1358 15754 5865 1 109.50000 418.400000
2035 15754 3304 1 109.50000 418.400000
2035 15754 5865 1 109.50000 418.400000
3304 15754 5865 1 109.50000 418.400000
1350 15755 1352 1 109.50000 418.400000
1350 15755 9334 1 109.50000 418.400000
1350 15755 10578 1 109.50000 418.400000
1352 15755 9334 1 109.50000 418.400000
1352 15755 10578 1 109.50000 418.400000
9334 15755 10578 1 109.50000 418.400000
498 15756 4909 1 109.50000 418.400000
498 15756 8118 1 109.50000 418.400000
498 15756 9495 1 109.50000 418.400000
4909 15756 8118 1 109.50000 418.400000
4909 15756 9495 1 109.50000 418.400000
8118 15756 9495 1 109.50000 418.400000
1860 15757 8059 1 109.50000 418.400000
1860 15757 10579 1 109.50000 418.400000
1860 15757 10580 1 109.50000 418.400000
8059 15757 10579 1 109.50000 418.400000
8059 15757 10580 1 109.50000 418.400000
10579 15757 10580 1 109.50000 418.400000
5467 15758 10581 1 109.50000 418.400000
5467 15758 10582 1 109.50000 418.400000
5467 15758 11484 1 109.50000 418.400000
10581 15758 10582 1 109.50000 418.400000
10581 15758 11484 1 109.50000 418.400000
10582 15758 11484 1 109.50000 418.400000
749 15759 7519 1 109.50000 418.400000
749 15759 9308 1 109.50000 418.400000
749 15759 10173 1 109.50000 418.400000
7519 15759 9308 1 109.50000 418.400000
7519 15759 10173 1 109.50000 418.400000
9308 15759 10173 1 109.50000 418.400000
827 15760 3336 1 109.50000 418.400000
827 15760 10314 1 109.50000 418.400000
827 15760 10583 1 109.50000 418.400000
3336 15760 10314 1 109.50000 418.400000
3336 15760 10583 1 109.50000 418.400000
10314 15760 10583 1 109.50000 418.400000
1513 15761 10262 1 109.50000 418.400000
1513 15761 10584 1 109.50000 418.400000
1513 15761 10585 1 109.50000 418.400000
10262 15761 10584 1 109.50000 418.400000
10262 15761 10585 1 109.50000 418.400000
10584 15761 10585 1 109.50000 418.400000
8249 15762 9072 1 109.50000 418.400000
8249 15762 10316 1 109.50000 418.400000
8249 15762 10586 1 109.50000 418.400000
9072 15762 10316 1 109.50000 418.400000
9072 15762 10586 1 109.50000 418.400000
10316 15762 10586 1 109.50000 418.400000
4110 15763 4812 1 109.50000 418.400000
4110 15763 9873 1 109.50000 418.400000
4110 15763 10588 1 109.50000 418.400000
4812 15763 9873 1 109.50000 418.400000
4812 15763 10588 1 109.50000 418.400000
9873 15763 10588 1 109.50000 418.400000
3526 15764 4610 1 109.50000 418.400000
3526 15764 6491 1 109.50000 418.400000
3526 15764 9551 1 109.50000 418.400000
4610 15764 6491 1 109.50000 418.400000
4610 15764 9551 1 109.50000 418.400000
6491 15764 9551 1 109.50000 418.400000
884 15765 5647 1 109.50000 418.400000
884 15765 8128 1 109.50000 418.400000
884 15765 8348 1 109.50000 418.400000
5647 15765 8128 1 109.50000 418.400000
5647 15765 8348 1 109.50000 418.400000
8128 15765 8348 1 109.50000 418.400000
636 15766 4170 1 109.50000 418.400000
636 15766 8775 1 109.50000 418.400000
636 15766 10589 1 109.50000 418.400000
4170 15766 8775 1 109.50000 418.400000
4170 15766 10589 1 109.50000 418.400000
8775 15766 10589 1 109.50000 418.400000
2568 15767 4033 1 109.50000 418.400000
2568 15767 7493 1 109.50000 418.400000
2568 15767 11391 1 109.50000 418.400000
4033 15767 7493 1 109.50000 418.400000
4033 15767 11391 1 109.50000 418.400000
7493 15767 11391 1 109.50000 418.400000
794 15768 7801 1 109.50000 418.400000
794 15768 8113 1 109.50000 418.400000
794 15768 10590 1 109.50000 418.400000
7801 15768 8113 1 109.50000 418.400000
7801 15768 10590 1 109.50000 418.400000
8113 15768 10590 1 109.50000 418.400000
1184 15769 3868 1 109.50000 418.400000
1184 15769 4616 1 109.50000 418.400000
1184 15769 8197 1 109.50000 418.400000
3868 15769 4616 1 109.50000 418.400000
3868 15769 8197 1 109.50000 418.400000
4616 15769 8197 1 109.50000 418.400000
620 15770 10592 1 109.50000 418.400000
620 15770 10593 1 109.50000 418.400000
620 15770 11399 1 109.50000 418.400000
10592 15770 10593 1 109.50000 418.400000
10592 15770 11399 1 109.50000 418.400000
10593 15770 11399 1 109.50000 418.400000
4348 15771 6540 1 109.50000 418.400000
4348 15771 8165 1 109.50000 418.400000
4348 15771 10594 1 109.50000 418.400000
6540 15771 8165 1 109.50000 418.400000
6540 15771 10594 1 109.50000 418.400000
8165 15771 10594 1 109.50000 418.400000
1140 15772 5803 1 109.50000 418.400000
1140 15772 9840 1 109.50000 418.400000
1140 15772 10595 1 109.50000 418.400000
5803 15772 9840 1 109.50000 418.400000
5803 15772 10595 1 109.50000 418.400000
9840 15772 10595 1 109.50000 418.400000
8329 15773 9014 1 109.50000 418.400000
8329 15773 10530 1 109.50000 418.400000
8329 15773 10596 1 109.50000 418.400000
9014 15773 10530 1 109.50000 418.400000
9014 15773 10596 1 109.50000 418.400000
10530 15773 10596 1 109.50000 418.400000
3881 15774 4476 1 109.50000 418.400000
3881 15774 10508 1 109.50000 418.400000
3881 15774 10597 1 109.50000 418.400000
4476 15774 10508 1 109.50000 418.400000
4476 15774 10597 1 109.50000 418.400000
10508 15774 10597 1 109.50000 418.400000
5108 15775 7532 1 109.50000 418.400000
5108 15775 10478 1 109.50000 418.400000
5108 15775 10598 1 109.50000 418.400000
7532 15775 10478 1 109.50000 418.400000
7532 15775 10598 1 109.50000 418.400000
10478 15775 10598 1 109.50000 418.400000
1408 15776 3486 1 109.50000 418.400000
1408 15776 7430 1 109.50000 418.400000
1408 15776 10599 1 109.50000 418.400000
3486 15776 7430 1 109.50000 418.400000
3486 15776 10599 1 109.50000 418.400000
7430 15776 10599 1 109.50000 418.400000
2478 15777 4142 1 109.50000 418.400000
2478 15777 10600 1 109.50000 418.400000
2478 15777 10601 1 109.50000 418.400000
4142 15777 10600 1 109.50000 418.400000
4142 15777 10601 1 109.50000 418.400000
10600 15777 10601 1 109.50000 418.400000
1971 15778 5428 1 109.50000 418.400000
1971 15778 10312 1 109.50000 418.400000
1971 15778 11199 1 109.50000 418.400000
5428 15778 10312 1 109.50000 418.400000
5428 15778 11199 1 109.50000 418.400000
10312 15778 11199 1 109.50000 418.400000
3183 15779 6937 1 109.50000 418.400000
3183 15779 8350 1 109.50000 418.400000
3183 15779 10566 1 109.50000 418.400000
6937 15779 8350 1 109.50000 418.400000
6937 15779 10566 1 109.50000 418.400000
8350 15779 10566 1 109.50000 418.400000
1748 15780 6738 1 109.50000 418.400000
1748 15780 6981 1 109.50000 418.400000
1748 15780 9900 1 109.50000 418.400000
6738 15780 6981 1 109.50000 418.400000
6738 15780 9900 1 109.50000 418.400000
6981 15780 9900 1 109.50000 418.400000
5461 15781 8471 1 109.50000 418.400000
5461 15781 9234 1 109.50000 418.400000
5461 15781 10602 1 109.50000 418.400000
8471 15781 9234 1 109.50000 418.400000
8471 15781 10602 1 109.50000 418.400000
9234 15781 10602 1 109.50000 418.400000
6938 15782 10068 1 109.50000 418.400000
6938 15782 10603 1 109.50000 418.400000
6938 15782 10604 1 109.50000 418.400000
10068 15782 10603 1 109.50000 418.400000
10068 15782 10604 1 109.50000 418.400000
10603 15782 10604 1 109.50000 418.400000
6763 15783 6773 1 109.50000 418.400000
6763 15783 9970 1 109.50000 418.400000
6763 15783 10605 1 109.50000 418.400000
6773 15783 9970 1 109.50000 418.400000
6773 15783 10605 1 109.50000 418.400000
9970 15783 10605 1 109.50000 418.400000
4524 15784 8510 1 109.50000 418.400000
4524 15784 8959 1 109.50000 418.400000
4524 15784 10606 1 109.50000 418.400000
8510 15784 8959 1 109.50000 418.400000
8510 15784 10606 1 109.50000 418.400000
8959 15784 10606 1 109.50000 418.400000
3946 15785 4479 1 109.50000 418.400000
3946 15785 10607 1 109.50000 418.400000
3946 15785 11510 1 109.50000 418.400000
4479 15785 10607 1 109.50000 418.400000
4479 15785 11510 1 109.50000 418.400000
10607 15785 11510 1 109.50000 418.400000
4351 15786 4669 1 109.50000 418.400000
4351 15786 7078 1 109.50000 418.400000
4351 15786 7337 1 109.50000 418.400000
4669 15786 7078 1 109.50000 418.400000
4669 15786 7337 1 109.50000 418.400000
7078 15786 7337 1 109.50000 418.400000
3727 15787 9679 1 109.50000 418.400000
3727 15787 9751 1 109.50000 418.400000
3727 15787 11408 1 109.50000 418.400000
9679 15787 9751 1 109.50000 418.400000
9679 15787 11408 1 109.50000 418.400000
9751 15787 11408 1 109.50000 418.400000
2839 15788 9765 1 109.50000 418.400000
2839 15788 11213 1 109.50000 418.400000
2839 15788 11451 1 109.50000 418.400000
9765 15788 11213 1 109.50000 418.400000
9765 15788 11451 1 109.50000 418.400000
11213 15788 11451 1 109.50000 418.400000
326 15789 2174 1 109.50000 418.400000
326 15789 8260 1 109.50000 418.400000
326 15789 9627 1 109.50000 418.400000
2174 15789 8260 1 109.50000 418.400000
2174 15789 9627 1 109.50000 418.400000
8260 15789 9627 1 109.50000 418.400000
3970 15790 7312 1 109.50000 418.400000
3970 15790 10608 1 109.50000 418.400000
3970 15790 10609 1 109.50000 418.400000
7312 15790 10608 1 109.50000 418.400000
7312 15790 10609 1 109.50000 418.400000
10608 15790 10609 1 109.50000 418.400000
8354 15791 10591 1 109.50000 418.400000
8354 15791 10610 1 109.50000 418.400000
8354 15791 10611 1 109.50000 418.400000
10591 15791 10610 1 109.50000 418.400000
10591 15791 10611 1 109.50000 418.400000
10610 15791 10611 1 109.50000 418.400000
6134 15792 7281 1 109.50000 418.400000
6134 15792 7282 1 109.50000 418.400000
6134 15792 8964 1 109.50000 418.400000
7281 15792 7282 1 109.50000 418.400000
7281 15792 8964 1 109.50000 418.400000
7282 15792 8964 1 109.50000 418.400000
6596 15793 10585 1 109.50000 418.400000
6596 15793 10612 1 109.50000 418.400000
6596 15793 10613 1 109.50000 418.400000
10585 15793 10612 1 109.50000 418.400000
10585 15793 10613 1 109.50000 418.400000
10612 15793 10613 1 109.50000 418.400000
575 15794 6299 1 109.50000 418.400000
575 15794 8859 1 109.50000 418.400000
575 15794 10251 1 109.50000 418.400000
6299 15794 8859 1 109.50000 418.400000
6299 15794 10251 1 109.50000 418.400000
8859 15794 10251 1 109.50000 418.400000
1598 15795 7689 1 109.50000 418.400000
1598 15795 10257 1 109.50000 418.400000
1598 15795 10614 1 109.50000 418.400000
7689 15795 10257 1 109.50000 418.400000
7689 15795 10614 1 109.50000 418.400000
10257 15795 10614 1 109.50000 418.400000
4043 15796 9909 1 109.50000 418.400000
4043 15796 10382 1 109.50000 418.400000
4043 15796 10519 1 109.50000 418.400000
9909 15796 10382 1 109.50000 418.400000
9909 15796 10519 1 109.50000 418.400000
10382 15796 10519 1 109.50000 418.400000
586 15797 3442 1 109.50000 418.400000
586 15797 7274 1 109.50000 418.400000
586 15797 10615 1 109.50000 418.400000
3442 15797 7274 1 109.50000 418.400000
3442 15797 10615 1 109.50000 418.400000
7274 15797 10615 1 109.50000 418.400000
4122 15798 6022 1 109.50000 418.400000
4122 15798 8533 1 109.50000 418.400000
4122 15798 8951 1 109.50000 418.400000
6022 15798 8533 1 109.50000 418.400000
6022 15798 8951 1 109.50000 418.400000
8533 15798 8951 1 109.50000 418.400000
90 15799 3380 1 109.50000 418.400000
90 15799 5856 1 109.50000 418.400000
90 15799 11291 1 109.50000 418.400000
3380 15799 5856 1 109.50000 418.400000
3380 15799 11291 1 109.50000 418.400000
5856 15799 11291 1 109.50000 418.400000
627 15800 3898 1 109.50000 418.400000
627 15800 10323 1 109.50000 418.400000
627 15800 10616 1 109.50000 418.400000
3898 15800 10323 1 109.50000 418.400000
3898 15800 10616 1 109.50000 418.400000
10323 15800 10616 1 109.50000 418.400000
910 15801 4273 1 109.50000 418.400000
910 15801 10617 1 109.50000 418.400000
910 15801 10618 1 109.50000 418.400000
4273 15801 10617 1 109.50000 418.400000
4273 15801 10618 1 109.50000 418.400000
10617 15801 10618 1 109.50000 418.400000
1537 15802 3582 1 109.50000 418.400000
1537 15802 10430 1 109.50000 418.400000
1537 15802 10619 1 109.50000 418.400000
3582 15802 10430 1 109.50000 418.400000
3582 15802 10619 1 109.50000 418.400000
10430 15802 10619 1 109.50000 418.400000
92 15803 814 1 109.50000 418.400000
92 15803 6854 1 109.50000 418.400000
92 15803 11336 1 109.50000 418.400000
814 15803 6854 1 109.50000 418.400000
814 15803 11336 1 109.50000 418.400000
6854 15803 11336 1 109.50000 418.400000
7172 15804 7521 1 109.50000 418.400000
7172 15804 7522 1 109.50000 418.400000
7172 15804 8953 1 109.50000 418.400000
7521 15804 7522 1 109.50000 418.400000
7521 15804 8953 1 109.50000 418.400000
7522 15804 8953 1 109.50000 418.400000
2282 15805 6762 1 109.50000 418.400000
2282 15805 6763 1 109.50000 418.400000
2282 15805 10526 1 109.50000 418.400000
6762 15805 6763 1 109.50000 418.400000
6762 15805 10526 1 109.50000 418.400000
6763 15805 10526 1 109.50000 418.400000
4282 15806 9442 1 109.50000 418.400000
4282 15806 10620 1 109.50000 418.400000
4282 15806 10621 1 109.50000 418.400000
9442 15806 10620 1 109.50000 418.400000
9442 15806 10621 1 109.50000 418.400000
10620 15806 10621 1 109.50000 418.400000
2837 15807 6315 1 109.50000 418.400000
2837 15807 10008 1 109.50000 418.400000
2837 15807 10622 1 109.50000 418.400000
6315 15807 10008 1 109.50000 418.400000
6315 15807 10622 1 109.50000 418.400000
10008 15807 10622 1 109.50000 418.400000
10188 15808 10623 1 109.50000 418.400000
10188 15808 10624 1 109.50000 418.400000
10188 15808 10647 1 109.50000 418.400000
10623 15808 10624 1 109.50000 418.400000
10623 15808 10647 1 109.50000 418.400000
10624 15808 10647 1 109.50000 418.400000
6267 15809 6988 1 109.50000 418.400000
6267 15809 10626 1 109.50000 418.400000
6267 15809 11507 1 109.50000 418.400000
6988 15809 10626 1 109.50000 418.400000
6988 15809 11507 1 109.50000 418.400000
10626 15809 11507 1 109.50000 418.400000
8082 15810 8749 1 109.50000 418.400000
8082 15810 10147 1 109.50000 418.400000
8082 15810 10627 1 109.50000 418.400000
8749 15810 10147 1 109.50000 418.400000
8749 15810 10627 1 109.50000 418.400000
10147 15810 10627 1 109.50000 418.400000
5231 15811 5233 1 109.50000 418.400000
5231 15811 10629 1 109.50000 418.400000
5231 15811 10630 1 109.50000 418.400000
5233 15811 10629 1 109.50000 418.400000
5233 15811 10630 1 109.50000 418.400000
10629 15811 10630 1 109.50000 418.400000
336 15812 337 1 109.50000 418.400000
336 15812 339 1 109.50000 418.400000
336 15812 10631 1 109.50000 418.400000
337 15812 339 1 109.50000 418.400000
337 15812 10631 1 109.50000 418.400000
339 15812 10631 1 109.50000 418.400000
2699 15813 10076 1 109.50000 418.400000
2699 15813 10139 1 109.50000 418.400000
2699 15813 11463 1 109.50000 418.400000
10076 15813 10139 1 109.50000 418.400000
10076 15813 11463 1 109.50000 418.400000
10139 15813 11463 1 109.50000 418.400000
3277 15814 4188 1 109.50000 418.400000
3277 15814 7117 1 109.50000 418.400000
3277 15814 9737 1 109.50000 418.400000
4188 15814 7117 1 109.50000 418.400000
4188 15814 9737 1 109.50000 418.400000
7117 15814 9737 1 109.50000 418.400000
602 15815 716 1 109.50000 418.400000
602 15815 717 1 109.50000 418.400000
602 15815 9198 1 109.50000 418.400000
716 15815 717 1 109.50000 418.400000
716 15815 9198 1 109.50000 418.400000
717 15815 9198 1 109.50000 418.400000
2418 15816 6080 1 109.50000 418.400000
2418 15816 10432 1 109.50000 418.400000
2418 15816 10632 1 109.50000 418.400000
6080 15816 10432 1 109.50000 418.400000
6080 15816 10632 1 109.50000 418.400000
10432 15816 10632 1 109.50000 418.400000
387 15817 6430 1 109.50000 418.400000
387 15817 10142 1 109.50000 418.400000
387 15817 10633 1 109.50000 418.400000
6430 15817 10142 1 109.50000 418.400000
6430 15817 10633 1 109.50000 418.400000
10142 15817 10633 1 109.50000 418.400000
3229 15818 8247 1 109.50000 418.400000
3229 15818 8301 1 109.50000 418.400000
3229 15818 10121 1 109.50000 418.400000
8247 15818 8301 1 109.50000 418.400000
8247 15818 10121 1 109.50000 418.400000
8301 15818 10121 1 109.50000 418.400000
1512 15819 10342 1 109.50000 418.400000
1512 15819 10627 1 109.50000 418.400000
1512 15819 10634 1 109.50000 418.400000
10342 15819 10627 1 109.50000 418.400000
10342 15819 10634 1 109.50000 418.400000
10627 15819 10634 1 109.50000 418.400000
1061 15820 2228 1 109.50000 418.400000
1061 15820 3426 1 109.50000 418.400000
1061 15820 7005 1 109.50000 418.400000
2228 15820 3426 1 109.50000 418.400000
2228 15820 7005 1 109.50000 418.400000
3426 15820 7005 1 109.50000 418.400000
4566 15821 10131 1 109.50000 418.400000
4566 15821 10635 1 109.50000 418.400000
4566 15821 10636 1 109.50000 418.400000
10131 15821 10635 1 109.50000 418.400000
10131 15821 10636 1 109.50000 418.400000
10635 15821 10636 1 109.50000 418.400000
6153 15822 7610 1 109.50000 418.400000
6153 15822 8341 1 109.50000 418.400000
6153 15822 10485 1 109.50000 418.400000
7610 15822 8341 1 109.50000 418.400000
7610 15822 10485 1 109.50000 418.400000
8341 15822 10485 1 109.50000 418.400000
1332 15823 7959 1 109.50000 418.400000
1332 15823 9628 1 109.50000 418.400000
1332 15823 10637 1 109.50000 418.400000
7959 15823 9628 1 109.50000 418.400000
7959 15823 10637 1 109.50000 418.400000
9628 15823 10637 1 109.50000 418.400000
4582 15824 4619 1 109.50000 418.400000
4582 15824 6934 1 109.50000 418.400000
4582 15824 10638 1 109.50000 418.400000
4619 15824 6934 1 109.50000 418.400000
4619 15824 10638 1 109.50000 418.400000
6934 15824 10638 1 109.50000 418.400000
10639 15825 10640 1 109.50000 418.400000
10639 15825 10641 1 109.50000 418.400000
10639 15825 10642 1 109.50000 418.400000
10640 15825 10641 1 109.50000 418.400000
10640 15825 10642 1 109.50000 418.400000
10641 15825 10642 1 109.50000 418.400000
2352 15826 6169 1 109.50000 418.400000
2352 15826 9994 1 109.50000 418.400000
2352 15826 10643 1 109.50000 418.400000
6169 15826 9994 1 109.50000 418.400000
6169 15826 10643 1 109.50000 418.400000
9994 15826 10643 1 109.50000 418.400000
1487 15827 8677 1 109.50000 418.400000
1487 15827 9791 1 109.50000 418.400000
1487 15827 10644 1 109.50000 418.400000
8677 15827 9791 1 109.50000 418.400000
8677 15827 10644 1 109.50000 418.400000
9791 15827 10644 1 109.50000 418.400000
4749 15828 8505 1 109.50000 418.400000
4749 15828 8935 1 109.50000 418.400000
4749 15828 10361 1 109.50000 418.400000
8505 15828 8935 1 109.50000 418.400000
8505 15828 10361 1 109.50000 418.400000
8935 15828 10361 1 109.50000 418.400000
3552 15829 4699 1 109.50000 418.400000
3552 15829 6692 1 109.50000 418.400000
3552 15829 10552 1 109.50000 418.400000
4699 15829 6692 1 109.50000 418.400000
4699 15829 10552 1 109.50000 418.400000
6692 15829 10552 1 109.50000 418.400000
4246 15830 4486 1 109.50000 418.400000
4246 15830 10645 1 109.50000 418.400000
4246 15830 10646 1 109.50000 418.400000
4486 15830 10645 1 109.50000 418.400000
4486 15830 10646 1 109.50000 418.400000
10645 15830 10646 1 109.50000 418.400000
6830 15831 8292 1 109.50000 418.400000
6830 15831 9759 1 109.50000 418.400000
6830 15831 10647 1 109.50000 418.400000
8292 15831 9759 1 109.50000 418.400000
8292 15831 10647 1 109.50000 418.400000
9759 15831 10647 1 109.50000 418.400000
3726 15832 6710 1 109.50000 418.400000
3726 15832 9077 1 109.50000 418.400000
3726 15832 10648 1 109.50000 418.400000
6710 15832 9077 1 109.50000 418.400000
6710 15832 10648 1 109.50000 418.400000
9077 15832 10648 1 109.50000 418.400000
3071 15833 7376 1 109.50000 418.400000
3071 15833 9183 1 109.50000 418.400000
3071 15833 11224 1 109.50000 418.400000
7376 15833 9183 1 109.50000 418.400000
7376 15833 11224 1 109.50000 418.400000
9183 15833 11224 1 109.50000 418.400000
2588 15834 5888 1 109.50000 418.400000
2588 15834 10276 1 109.50000 418.400000
2588 15834 10649 1 109.50000 418.400000
5888 15834 10276 1 109.50000 418.400000
5888 15834 10649 1 109.50000 418.400000
10276 15834 10649 1 109.50000 418.400000
4917 15835 5769 1 109.50000 418.400000
4917 15835 7647 1 109.50000 418.400000
4917 15835 10650 1 109.50000 418.400000
5769 15835 7647 1 109.50000 418.400000
5769 15835 10650 1 109.50000 418.400000
7647 15835 10650 1 109.50000 418.400000
4439 15836 6909 1 109.50000 418.400000
4439 15836 9574 1 109.50000 418.400000
4439 15836 11392 1 109.50000 418.400000
6909 15836 9574 1 109.50000 418.400000
6909 15836 11392 1 109.50000 418.400000
9574 15836 11392 1 109.50000 418.400000
5539 15837 5724 1 109.50000 418.400000
5539 15837 10651 1 109.50000 418.400000
5539 15837 10652 1 109.50000 418.400000
5724 15837 10651 1 109.50000 418.400000
5724 15837 10652 1 109.50000 418.400000
10651 15837 10652 1 109.50000 418.400000
218 15838 3678 1 109.50000 418.400000
218 15838 7065 1 109.50000 418.400000
218 15838 10653 1 109.50000 418.400000
3678 15838 7065 1 109.50000 418.400000
3678 15838 10653 1 109.50000 418.400000
7065 15838 10653 1 109.50000 418.400000
4897 15839 9483 1 109.50000 418.400000
4897 15839 10604 1 109.50000 418.400000
4897 15839 10654 1 109.50000 418.400000
9483 15839 10604 1 109.50000 418.400000
9483 15839 10654 1 109.50000 418.400000
10604 15839 10654 1 109.50000 418.400000
2765 15840 10655 1 109.50000 418.400000
2765 15840 10656 1 109.50000 418.400000
2765 15840 10657 1 109.50000 418.400000
10655 15840 10656 1 109.50000 418.400000
10655 15840 10657 1 109.50000 418.400000
10656 15840 10657 1 109.50000 418.400000
5128 15841 7171 1 109.50000 418.400000
5128 15841 10538 1 109.50000 418.400000
5128 15841 10658 1 109.50000 418.400000
7171 15841 10538 1 109.50000 418.400000
7171 15841 10658 1 109.50000 418.400000
10538 15841 10658 1 109.50000 418.400000
97 15842 932 1 109.50000 418.400000
97 15842 5185 1 109.50000 418.400000
97 15842 8705 1 109.50000 418.400000
932 15842 5185 1 109.50000 418.400000
932 15842 8705 1 109.50000 418.400000
5185 15842 8705 1 109.50000 418.400000
5497 15843 9305 1 109.50000 418.400000
5497 15843 10035 1 109.50000 418.400000
5497 15843 10540 1 109.50000 418.400000
9305 15843 10035 1 109.50000 418.400000
9305 15843 10540 1 109.50000 418.400000
10035 15843 10540 1 109.50000 418.400000
2812 15844 7344 1 109.50000 418.400000
2812 15844 8592 1 109.50000 418.400000
2812 15844 10659 1 109.50000 418.400000
7344 15844 8592 1 109.50000 418.400000
7344 15844 10659 1 109.50000 418.400000
8592 15844 10659 1 109.50000 418.400000
907 15845 10014 1 109.50000 418.400000
907 15845 10660 1 109.50000 418.400000
907 15845 10661 1 109.50000 418.400000
10014 15845 10660 1 109.50000 418.400000
10014 15845 10661 1 109.50000 418.400000
10660 15845 10661 1 109.50000 418.400000
1029 15846 7636 1 109.50000 418.400000
1029 15846 10586 1 109.50000 418.400000
1029 15846 10662 1 109.50000 418.400000
7636 15846 10586 1 109.50000 418.400000
7636 15846 10662 1 109.50000 418.400000
10586 15846 10662 1 109.50000 418.400000
9028 15847 9867 1 109.50000 418.400000
9028 15847 10477 1 109.50000 418.400000
9028 15847 10663 1 109.50000 418.400000
9867 15847 10477 1 109.50000 418.400000
9867 15847 10663 1 109.50000 418.400000
10477 15847 10663 1 109.50000 418.400000
7630 15848 9929 1 109.50000 418.400000
7630 15848 10328 1 109.50000 418.400000
7630 15848 10664 1 109.50000 418.400000
9929 15848 10328 1 109.50000 418.400000
9929 15848 10664 1 109.50000 418.400000
10328 15848 10664 1 109.50000 418.400000
3258 15849 9883 1 109.50000 418.400000
3258 15849 10522 1 109.50000 418.400000
3258 15849 10665 1 109.50000 418.400000
9883 15849 10522 1 109.50000 418.400000
9883 15849 10665 1 109.50000 418.400000
10522 15849 10665 1 109.50000 418.400000
1130 15850 1483 1 109.50000 418.400000
1130 15850 7520 1 109.50000 418.400000
1130 15850 8072 1 109.50000 418.400000
1483 15850 7520 1 109.50000 418.400000
1483 15850 8072 1 109.50000 418.400000
7520 15850 8072 1 109.50000 418.400000
7926 15851 9773 1 109.50000 418.400000
7926 15851 10081 1 109.50000 418.400000
7926 15851 10666 1 109.50000 418.400000
9773 15851 10081 1 109.50000 418.400000
9773 15851 10666 1 109.50000 418.400000
10081 15851 10666 1 109.50000 418.400000
7713 15852 8019 1 109.50000 418.400000
7713 15852 9677 1 109.50000 418.400000
7713 15852 10648 1 109.50000 418.400000
8019 15852 9677 1 109.50000 418.400000
8019 15852 10648 1 109.50000 418.400000
9677 15852 10648 1 109.50000 418.400000
8641 15853 9275 1 109.50000 418.400000
8641 15853 9955 1 109.50000 418.400000
8641 15853 10667 1 109.50000 418.400000
9275 15853 9955 1 109.50000 418.400000
9275 15853 10667 1 109.50000 418.400000
9955 15853 10667 1 109.50000 418.400000
2130 15854 6375 1 109.50000 418.400000
2130 15854 6849 1 109.50000 418.400000
2130 15854 9810 1 109.50000 418.400000
6375 15854 6849 1 109.50000 418.400000
6375 15854 9810 1 109.50000 418.400000
6849 15854 9810 1 109.50000 418.400000
5060 15855 6049 1 109.50000 418.400000
5060 15855 7966 1 109.50000 418.400000
5060 15855 10668 1 109.50000 418.400000
6049 15855 7966 1 109.50000 418.400000
6049 15855 10668 1 109.50000 418.400000
7966 15855 10668 1 109.50000 418.400000
945 15856 5085 1 109.50000 418.400000
945 15856 5493 1 109.50000 418.400000
945 15856 8069 1 109.50000 418.400000
5085 15856 5493 1 109.50000 418.400000
5085 15856 8069 1 109.50000 418.400000
5493 15856 8069 1 109.50000 418.400000
9212 15857 10669 1 109.50000 418.400000
9212 15857 10670 1 109.50000 418.400000
9212 15857 10671 1 109.50000 418.400000
10669 15857 10670 1 109.50000 418.400000
10669 15857 10671 1 109.50000 418.400000
10670 15857 10671 1 109.50000 418.400000
7006 15858 9162 1 109.50000 418.400000
7006 15858 10062 1 109.50000 418.400000
7006 15858 10672 1 109.50000 418.400000
9162 15858 10062 1 109.50000 418.400000
9162 15858 10672 1 109.50000 418.400000
10062 15858 10672 1 109.50000 418.400000
1126 15859 5966 1 109.50000 418.400000
1126 15859 6603 1 109.50000 418.400000
1126 15859 7749 1 109.50000 418.400000
5966 15859 6603 1 109.50000 418.400000
5966 15859 7749 1 109.50000 418.400000
6603 15859 7749 1 109.50000 418.400000
34 15860 3780 1 109.50000 418.400000
34 15860 7434 1 109.50000 418.400000
34 15860 8508 1 109.50000 418.400000
3780 15860 7434 1 109.50000 418.400000
3780 15860 8508 1 109.50000 418.400000
7434 15860 8508 1 109.50000 418.400000
7377 15861 9590 1 109.50000 418.400000
7377 15861 9861 1 109.50000 418.400000
7377 15861 10336 1 109.50000 418.400000
9590 15861 9861 1 109.50000 418.400000
9590 15861 10336 1 109.50000 418.400000
9861 15861 10336 1 109.50000 418.400000
8836 15862 8892 1 109.50000 418.400000
8836 15862 9043 1 109.50000 418.400000
8836 15862 9738 1 109.50000 418.400000
8892 15862 9043 1 109.50000 418.400000
8892 15862 9738 1 109.50000 418.400000
9043 15862 9738 1 109.50000 418.400000
5612 15863 6818 1 109.50000 418.400000
5612 15863 7210 1 109.50000 418.400000
5612 15863 10673 1 109.50000 418.400000
6818 15863 7210 1 109.50000 418.400000
6818 15863 10673 1 109.50000 418.400000
7210 15863 10673 1 109.50000 418.400000
4608 15864 6361 1 109.50000 418.400000
4608 15864 10002 1 109.50000 418.400000
4608 15864 10674 1 109.50000 418.400000
6361 15864 10002 1 109.50000 418.400000
6361 15864 10674 1 109.50000 418.400000
10002 15864 10674 1 109.50000 418.400000
6454 15865 6667 1 109.50000 418.400000
6454 15865 9686 1 109.50000 418.400000
6454 15865 10675 1 109.50000 418.400000
6667 15865 9686 1 109.50000 418.400000
6667 15865 10675 1 109.50000 418.400000
9686 15865 10675 1 109.50000 418.400000
2795 15866 2797 1 109.50000 418.400000
2795 15866 4598 1 109.50000 418.400000
2795 15866 10476 1 109.50000 418.400000
2797 15866 4598 1 109.50000 418.400000
2797 15866 10476 1 109.50000 418.400000
4598 15866 10476 1 109.50000 418.400000
5426 15867 7429 1 109.50000 418.400000
5426 15867 10417 1 109.50000 418.400000
5426 15867 10677 1 109.50000 418.400000
7429 15867 10417 1 109.50000 418.400000
7429 15867 10677 1 109.50000 418.400000
10417 15867 10677 1 109.50000 418.400000
6149 15868 10678 1 109.50000 418.400000
6149 15868 10679 1 109.50000 418.400000
6149 15868 11435 1 109.50000 418.400000
10678 15868 10679 1 109.50000 418.400000
10678 15868 11435 1 109.50000 418.400000
10679 15868 11435 1 109.50000 418.400000
1591 15869 8771 1 109.50000 418.400000
1591 15869 9695 1 109.50000 418.400000
1591 15869 10668 1 109.50000 418.400000
8771 15869 9695 1 109.50000 418.400000
8771 15869 10668 1 109.50000 418.400000
9695 15869 10668 1 109.50000 418.400000
5641 15870 5809 1 109.50000 418.400000
5641 15870 6009 1 109.50000 418.400000
5641 15870 6478 1 109.50000 418.400000
5809 15870 6009 1 109.50000 418.400000
5809 15870 6478 1 109.50000 418.400000
6009 15870 6478 1 109.50000 418.400000
5335 15871 5337 1 109.50000 418.400000
5335 15871 5338 1 109.50000 418.400000
5335 15871 8456 1 109.50000 418.400000
5337 15871 5338 1 109.50000 418.400000
5337 15871 8456 1 109.50000 418.400000
5338 15871 8456 1 109.50000 418.400000
3685 15872 7577 1 109.50000 418.400000
3685 15872 10155 1 109.50000 418.400000
3685 15872 10682 1 109.50000 418.400000
7577 15872 10155 1 109.50000 418.400000
7577 15872 10682 1 109.50000 418.400000
10155 15872 10682 1 109.50000 418.400000
299 15873 8917 1 109.50000 418.400000
299 15873 10019 1 109.50000 418.400000
299 15873 10683 1 109.50000 418.400000
8917 15873 10019 1 109.50000 418.400000
8917 15873 10683 1 109.50000 418.400000
10019 15873 10683 1 109.50000 418.400000
6442 15874 7947 1 109.50000 418.400000
6442 15874 9482 1 109.50000 418.400000
6442 15874 10684 1 109.50000 418.400000
7947 15874 9482 1 109.50000 418.400000
7947 15874 10684 1 109.50000 418.400000
9482 15874 10684 1 109.50000 418.400000
479 15875 1904 1 109.50000 418.400000
479 15875 9878 1 109.50000 418.400000
479 15875 9926 1 109.50000 418.400000
1904 15875 9878 1 109.50000 418.400000
1904 15875 9926 1 109.50000 418.400000
9878 15875 9926 1 109.50000 418.400000
3878 15876 8874 1 109.50000 418.400000
3878 15876 9441 1 109.50000 418.400000
3878 15876 11468 1 109.50000 418.400000
8874 15876 9441 1 109.50000 418.400000
8874 15876 11468 1 109.50000 418.400000
9441 15876 11468 1 109.50000 418.400000
9732 15877 10685 1 109.50000 418.400000
9732 15877 10686 1 109.50000 418.400000
9732 15877 11404 1 109.50000 418.400000
10685 15877 10686 1 109.50000 418.400000
10685 15877 11404 1 109.50000 418.400000
10686 15877 11404 1 109.50000 418.400000
373 15878 5077 1 109.50000 418.400000
373 15878 10029 1 109.50000 418.400000
373 15878 10687 1 109.50000 418.400000
5077 15878 10029 1 109.50000 418.400000
5077 15878 10687 1 109.50000 418.400000
10029 15878 10687 1 109.50000 418.400000
3894 15879 10688 1 109.50000 418.400000
3894 15879 10689 1 109.50000 418.400000
3894 15879 10690 1 109.50000 418.400000
10688 15879 10689 1 109.50000 418.400000
10688 15879 10690 1 109.50000 418.400000
10689 15879 10690 1 109.50000 418.400000
8704 15880 9252 1 109.50000 418.400000
8704 15880 9446 1 109.50000 418.400000
8704 15880 10691 1 109.50000 418.400000
9252 15880 9446 1 109.50000 418.400000
9252 15880 10691 1 109.50000 418.400000
9446 15880 10691 1 109.50000 418.400000
1998 15881 9413 1 109.50000 418.400000
1998 15881 10692 1 109.50000 418.400000
1998 15881 10693 1 109.50000 418.400000
9413 15881 10692 1 109.50000 418.400000
9413 15881 10693 1 109.50000 418.400000
10692 15881 10693 1 109.50000 418.400000
1530 15882 3989 1 109.50000 418.400000
1530 15882 10123 1 109.50000 418.400000
1530 15882 10186 1 109.50000 418.400000
3989 15882 10123 1 109.50000 418.400000
3989 15882 10186 1 109.50000 418.400000
10123 15882 10186 1 109.50000 418.400000
4009 15883 5954 1 109.50000 418.400000
4009 15883 6897 1 109.50000 418.400000
4009 15883 10695 1 109.50000 418.400000
5954 15883 6897 1 109.50000 418.400000
5954 15883 10695 1 109.50000 418.400000
6897 15883 10695 1 109.50000 418.400000
1821 15884 8644 1 109.50000 418.400000
1821 15884 10384 1 109.50000 418.400000
1821 15884 10696 1 109.50000 418.400000
8644 15884 10384 1 109.50000 418.400000
8644 15884 10696 1 109.50000 418.400000
10384 15884 10696 1 109.50000 418.400000
4130 15885 5075 1 109.50000 418.400000
4130 15885 8245 1 109.50000 418.400000
4130 15885 10431 1 109.50000 418.400000
5075 15885 8245 1 109.50000 418.400000
5075 15885 10431 1 109.50000 418.400000
8245 15885 10431 1 109.50000 418.400000
4180 15886 4567 1 109.50000 418.400000
4180 15886 5341 1 109.50000 418.400000
4180 15886 7693 1 109.50000 418.400000
4567 15886 5341 1 109.50000 418.400000
4567 15886 7693 1 109.50000 418.400000
5341 15886 7693 1 109.50000 418.400000
4058 15887 4830 1 109.50000 418.400000
4058 15887 5883 1 109.50000 418.400000
4058 15887 8393 1 109.50000 418.400000
4830 15887 5883 1 109.50000 418.400000
4830 15887 8393 1 109.50000 418.400000
5883 15887 8393 1 109.50000 418.400000
961 15888 5685 1 109.50000 418.400000
961 15888 9567 1 109.50000 418.400000
961 15888 10697 1 109.50000 418.400000
5685 15888 9567 1 109.50000 418.400000
5685 15888 10697 1 109.50000 418.400000
9567 15888 10697 1 109.50000 418.400000
461 15889 6007 1 109.50000 418.400000
461 15889 10175 1 109.50000 418.400000
461 15889 10179 1 109.50000 418.400000
6007 15889 10175 1 109.50000 418.400000
6007 15889 10179 1 109.50000 418.400000
10175 15889 10179 1 109.50000 418.400000
3978 15890 6273 1 109.50000 418.400000
3978 15890 9414 1 109.50000 418.400000
3978 15890 9779 1 109.50000 418.400000
6273 15890 9414 1 109.50000 418.400000
6273 15890 9779 1 109.50000 418.400000
9414 15890 9779 1 109.50000 418.400000
5048 15891 7967 1 109.50000 418.400000
5048 15891 10699 1 109.50000 418.400000
5048 15891 10700 1 109.50000 418.400000
7967 15891 10699 1 109.50000 418.400000
7967 15891 10700 1 109.50000 418.400000
10699 15891 10700 1 109.50000 418.400000
2777 15892 5662 1 109.50000 418.400000
2777 15892 6484 1 109.50000 418.400000
2777 15892 10511 1 109.50000 418.400000
5662 15892 6484 1 109.50000 418.400000
5662 15892 10511 1 109.50000 418.400000
6484 15892 10511 1 109.50000 418.400000
5111 15893 7538 1 109.50000 418.400000
5111 15893 7593 1 109.50000 418.400000
5111 15893 9932 1 109.50000 418.400000
7538 15893 7593 1 109.50000 418.400000
7538 15893 9932 1 109.50000 418.400000
7593 15893 9932 1 109.50000 418.400000
6067 15894 9537 1 109.50000 418.400000
6067 15894 10246 1 109.50000 418.400000
6067 15894 10702 1 109.50000 418.400000
9537 15894 10246 1 109.50000 418.400000
9537 15894 10702 1 109.50000 418.400000
10246 15894 10702 1 109.50000 418.400000
1561 15895 3744 1 109.50000 418.400000
1561 15895 6300 1 109.50000 418.400000
1561 15895 7179 1 109.50000 418.400000
3744 15895 6300 1 109.50000 418.400000
3744 15895 7179 1 109.50000 418.400000
6300 15895 7179 1 109.50000 418.400000
1337 15896 1456 1 109.50000 418.400000
1337 15896 2776 1 109.50000 418.400000
1337 15896 10369 1 109.50000 418.400000
1456 15896 2776 1 109.50000 418.400000
1456 15896 10369 1 109.50000 418.400000
2776 15896 10369 1 109.50000 418.400000
2220 15897 4124 1 109.50000 418.400000
2220 15897 4951 1 109.50000 418.400000
2220 15897 10418 1 109.50000 418.400000
4124 15897 4951 1 109.50000 418.400000
4124 15897 10418 1 109.50000 418.400000
4951 15897 10418 1 109.50000 418.400000
622 15898 2310 1 109.50000 418.400000
622 15898 7324 1 109.50000 418.400000
622 15898 8256 1 109.50000 418.400000
2310 15898 7324 1 109.50000 418.400000
2310 15898 8256 1 109.50000 418.400000
7324 15898 8256 1 109.50000 418.400000
133 15899 1425 1 109.50000 418.400000
133 15899 1835 1 109.50000 418.400000
133 15899 6806 1 109.50000 418.400000
1425 15899 1835 1 109.50000 418.400000
1425 15899 6806 1 109.50000 418.400000
1835 15899 6806 1 109.50000 418.400000
464 15900 1264 1 109.50000 418.400000
464 15900 10659 1 109.50000 418.400000
464 15900 10703 1 109.50000 418.400000
1264 15900 10659 1 109.50000 418.400000
1264 15900 10703 1 109.50000 418.400000
10659 15900 10703 1 109.50000 418.400000
1736 15901 2965 1 109.50000 418.400000
1736 15901 3899 1 109.50000 418.400000
1736 15901 11411 1 109.50000 418.400000
2965 15901 3899 1 109.50000 418.400000
2965 15901 11411 1 109.50000 418.400000
3899 15901 11411 1 109.50000 418.400000
1296 15902 3079 1 109.50000 418.400000
1296 15902 9801 1 109.50000 418.400000
1296 15902 10704 1 109.50000 418.400000
3079 15902 9801 1 109.50000 418.400000
3079 15902 10704 1 109.50000 418.400000
9801 15902 10704 1 109.50000 418.400000
877 15903 5480 1 109.50000 418.400000
877 15903 9879 1 109.50000 418.400000
877 15903 10352 1 109.50000 418.400000
5480 15903 9879 1 109.50000 418.400000
5480 15903 10352 1 109.50000 418.400000
9879 15903 10352 1 109.50000 418.400000
4367 15904 6396 1 109.50000 418.400000
4367 15904 10705 1 109.50000 418.400000
4367 15904 11406 1 109.50000 418.400000
6396 15904 10705 1 109.50000 418.400000
6396 15904 11406 1 109.50000 418.400000
10705 15904 11406 1 109.50000 418.400000
2866 15905 4702 1 109.50000 418.400000
2866 15905 9378 1 109.50000 418.400000
2866 15905 10706 1 109.50000 418.400000
4702 15905 9378 1 109.50000 418.400000
4702 15905 10706 1 109.50000 418.400000
9378 15905 10706 1 109.50000 418.400000
2100 15906 5001 1 109.50000 418.400000
2100 15906 11156 1 109.50000 418.400000
2100 15906 11416 1 109.50000 418.400000
5001 15906 11156 1 109.50000 418.400000
5001 15906 11416 1 109.50000 418.400000
11156 15906 11416 1 109.50000 418.400000
4500 15907 4921 1 109.50000 418.400000
4500 15907 10707 1 109.50000 418.400000
4500 15907 10708 1 109.50000 418.400000
4921 15907 10707 1 109.50000 418.400000
4921 15907 10708 1 109.50000 418.400000
10707 15907 10708 1 109.50000 418.400000
4062 15908 7873 1 109.50000 418.400000
4062 15908 9633 1 109.50000 418.400000
4062 15908 10709 1 109.50000 418.400000
7873 15908 9633 1 109.50000 418.400000
7873 15908 10709 1 109.50000 418.400000
9633 15908 10709 1 109.50000 418.400000
7323 15909 7325 1 109.50000 418.400000
7323 15909 8600 1 109.50000 418.400000
7323 15909 10423 1 109.50000 418.400000
7325 15909 8600 1 109.50000 418.400000
7325 15909 10423 1 109.50000 418.400000
8600 15909 10423 1 109.50000 418.400000
1867 15910 9005 1 109.50000 418.400000
1867 15910 10710 1 109.50000 418.400000
1867 15910 10711 1 109.50000 418.400000
9005 15910 10710 1 109.50000 418.400000
9005 15910 10711 1 109.50000 418.400000
10710 15910 10711 1 109.50000 418.400000
3642 15911 5090 1 109.50000 418.400000
3642 15911 7849 1 109.50000 418.400000
3642 15911 8562 1 109.50000 418.400000
5090 15911 7849 1 109.50000 418.400000
5090 15911 8562 1 109.50000 418.400000
7849 15911 8562 1 109.50000 418.400000
2486 15912 4394 1 109.50000 418.400000
2486 15912 10712 1 109.50000 418.400000
2486 15912 10713 1 109.50000 418.400000
4394 15912 10712 1 109.50000 418.400000
4394 15912 10713 1 109.50000 418.400000
10712 15912 10713 1 109.50000 418.400000
6011 15913 8466 1 109.50000 418.400000
6011 15913 9937 1 109.50000 418.400000
6011 15913 10571 1 109.50000 418.400000
8466 15913 9937 1 109.50000 418.400000
8466 15913 10571 1 109.50000 418.400000
9937 15913 10571 1 109.50000 418.400000
173 15914 5231 1 109.50000 418.400000
173 15914 10714 1 109.50000 418.400000
173 15914 10715 1 109.50000 418.400000
5231 15914 10714 1 109.50000 418.400000
5231 15914 10715 1 109.50000 418.400000
10714 15914 10715 1 109.50000 418.400000
511 15915 3932 1 109.50000 418.400000
511 15915 5165 1 109.50000 418.400000
511 15915 8694 1 109.50000 418.400000
3932 15915 5165 1 109.50000 418.400000
3932 15915 8694 1 109.50000 418.400000
5165 15915 8694 1 109.50000 418.400000
6625 15916 6685 1 109.50000 418.400000
6625 15916 7404 1 109.50000 418.400000
6625 15916 10716 1 109.50000 418.400000
6685 15916 7404 1 109.50000 418.400000
6685 15916 10716 1 109.50000 418.400000
7404 15916 10716 1 109.50000 418.400000
2252 15917 7293 1 109.50000 418.400000
2252 15917 8188 1 109.50000 418.400000
2252 15917 10717 1 109.50000 418.400000
7293 15917 8188 1 109.50000 418.400000
7293 15917 10717 1 109.50000 418.400000
8188 15917 10717 1 109.50000 418.400000
3136 15918 3681 1 109.50000 418.400000
3136 15918 9453 1 109.50000 418.400000
3136 15918 10718 1 109.50000 418.400000
3681 15918 9453 1 109.50000 418.400000
3681 15918 10718 1 109.50000 418.400000
9453 15918 10718 1 109.50000 418.400000
5139 15919 8589 1 109.50000 418.400000
5139 15919 9245 1 109.50000 418.400000
5139 15919 9770 1 109.50000 418.400000
8589 15919 9245 1 109.50000 418.400000
8589 15919 9770 1 109.50000 418.400000
9245 15919 9770 1 109.50000 418.400000
5371 15920 5377 1 109.50000 418.400000
5371 15920 9881 1 109.50000 418.400000
5371 15920 10719 1 109.50000 418.400000
5377 15920 9881 1 109.50000 418.400000
5377 15920 10719 1 109.50000 418.400000
9881 15920 10719 1 109.50000 418.400000
8156 15921 9741 1 109.50000 418.400000
8156 15921 10664 1 109.50000 418.400000
8156 15921 10720 1 109.50000 418.400000
9741 15921 10664 1 109.50000 418.400000
9741 15921 10720 1 109.50000 418.400000
10664 15921 10720 1 109.50000 418.400000
2947 15922 7602 1 109.50000 418.400000
2947 15922 9799 1 109.50000 418.400000
2947 15922 10721 1 109.50000 418.400000
7602 15922 9799 1 109.50000 418.400000
7602 15922 10721 1 109.50000 418.400000
9799 15922 10721 1 109.50000 418.400000
8337 15923 8730 1 109.50000 418.400000
8337 15923 8781 1 109.50000 418.400000
8337 15923 9377 1 109.50000 418.400000
8730 15923 8781 1 109.50000 418.400000
8730 15923 9377 1 109.50000 418.400000
8781 15923 9377 1 109.50000 418.400000
1969 15924 3039 1 109.50000 418.400000
1969 15924 11299 1 109.50000 418.400000
1969 15924 11456 1 109.50000 418.400000
3039 15924 11299 1 109.50000 418.400000
3039 15924 11456 1 109.50000 418.400000
11299 15924 11456 1 109.50000 418.400000
4002 15925 5596 1 109.50000 418.400000
4002 15925 7560 1 109.50000 418.400000
4002 15925 8140 1 109.50000 418.400000
5596 15925 7560 1 109.50000 418.400000
5596 15925 8140 1 109.50000 418.400000
7560 15925 8140 1 109.50000 418.400000
3243 15926 3864 1 109.50000 418.400000
3243 15926 7987 1 109.50000 418.400000
3243 15926 10652 1 109.50000 418.400000
3864 15926 7987 1 109.50000 418.400000
3864 15926 10652 1 109.50000 418.400000
7987 15926 10652 1 109.50000 418.400000
4311 15927 6816 1 109.50000 418.400000
4311 15927 6898 1 109.50000 418.400000
4311 15927 9315 1 109.50000 418.400000
6816 15927 6898 1 109.50000 418.400000
6816 15927 9315 1 109.50000 418.400000
6898 15927 9315 1 109.50000 418.400000
1662 15928 5791 1 109.50000 418.400000
1662 15928 10722 1 109.50000 418.400000
1662 15928 10723 1 109.50000 418.400000
5791 15928 10722 1 109.50000 418.400000
5791 15928 10723 1 109.50000 418.400000
10722 15928 10723 1 109.50000 418.400000
530 15929 6422 1 109.50000 418.400000
530 15929 8152 1 109.50000 418.400000
530 15929 10325 1 109.50000 418.400000
6422 15929 8152 1 109.50000 418.400000
6422 15929 10325 1 109.50000 418.400000
8152 15929 10325 1 109.50000 418.400000
2424 15930 3591 1 109.50000 418.400000
2424 15930 4183 1 109.50000 418.400000
2424 15930 4957 1 109.50000 418.400000
3591 15930 4183 1 109.50000 418.400000
3591 15930 4957 1 109.50000 418.400000
4183 15930 4957 1 109.50000 418.400000
471 15931 5577 1 109.50000 418.400000
471 15931 5578 1 109.50000 418.400000
471 15931 9997 1 109.50000 418.400000
5577 15931 5578 1 109.50000 418.400000
5577 15931 9997 1 109.50000 418.400000
5578 15931 9997 1 109.50000 418.400000
1762 15932 8789 1 109.50000 418.400000
1762 15932 10724 1 109.50000 418.400000
1762 15932 10725 1 109.50000 418.400000
8789 15932 10724 1 109.50000 418.400000
8789 15932 10725 1 109.50000 418.400000
10724 15932 10725 1 109.50000 418.400000
1746 15933 3030 1 109.50000 418.400000
1746 15933 3887 1 109.50000 418.400000
1746 15933 5988 1 109.50000 418.400000
3030 15933 3887 1 109.50000 418.400000
3030 15933 5988 1 109.50000 418.400000
3887 15933 5988 1 109.50000 418.400000
7792 15934 8239 1 109.50000 418.400000
7792 15934 8548 1 109.50000 418.400000
7792 15934 10726 1 109.50000 418.400000
8239 15934 8548 1 109.50000 418.400000
8239 15934 10726 1 109.50000 418.400000
8548 15934 10726 1 109.50000 418.400000
5279 15935 7203 1 109.50000 418.400000
5279 15935 8584 1 109.50000 418.400000
5279 15935 10728 1 109.50000 418.400000
7203 15935 8584 1 109.50000 418.400000
7203 15935 10728 1 109.50000 418.400000
8584 15935 10728 1 109.50000 418.400000
4036 15936 4038 1 109.50000 418.400000
4036 15936 10218 1 109.50000 418.400000
4036 15936 10302 1 109.50000 418.400000
4038 15936 10218 1 109.50000 418.400000
4038 15936 10302 1 109.50000 418.400000
10218 15936 10302 1 109.50000 418.400000
5788 15937 5806 1 109.50000 418.400000
5788 15937 10322 1 109.50000 418.400000
5788 15937 10507 1 109.50000 418.400000
5806 15937 10322 1 109.50000 418.400000
5806 15937 10507 1 109.50000 418.400000
10322 15937 10507 1 109.50000 418.400000
5984 15938 8991 1 109.50000 418.400000
5984 15938 10412 1 109.50000 418.400000
5984 15938 10729 1 109.50000 418.400000
8991 15938 10412 1 109.50000 418.400000
8991 15938 10729 1 109.50000 418.400000
10412 15938 10729 1 109.50000 418.400000
4950 15939 6705 1 109.50000 418.400000
4950 15939 7879 1 109.50000 418.400000
4950 15939 8636 1 109.50000 418.400000
6705 15939 7879 1 109.50000 418.400000
6705 15939 8636 1 109.50000 418.400000
7879 15939 8636 1 109.50000 418.400000
6541 15940 8214 1 109.50000 418.400000
6541 15940 10654 1 109.50000 418.400000
6541 15940 10730 1 109.50000 418.400000
8214 15940 10654 1 109.50000 418.400000
8214 15940 10730 1 109.50000 418.400000
10654 15940 10730 1 109.50000 418.400000
3475 15941 5583 1 109.50000 418.400000
3475 15941 7482 1 109.50000 418.400000
3475 15941 10731 1 109.50000 418.400000
5583 15941 7482 1 109.50000 418.400000
5583 15941 10731 1 109.50000 418.400000
7482 15941 10731 1 109.50000 418.400000
9324 15942 10122 1 109.50000 418.400000
9324 15942 10341 1 109.50000 418.400000
9324 15942 10732 1 109.50000 418.400000
10122 15942 10341 1 109.50000 418.400000
10122 15942 10732 1 109.50000 418.400000
10341 15942 10732 1 109.50000 418.400000
4149 15943 9655 1 109.50000 418.400000
4149 15943 10733 1 109.50000 418.400000
4149 15943 10734 1 109.50000 418.400000
9655 15943 10733 1 109.50000 418.400000
9655 15943 10734 1 109.50000 418.400000
10733 15943 10734 1 109.50000 418.400000
1053 15944 8541 1 109.50000 418.400000
1053 15944 9785 1 109.50000 418.400000
1053 15944 10735 1 109.50000 418.400000
8541 15944 9785 1 109.50000 418.400000
8541 15944 10735 1 109.50000 418.400000
9785 15944 10735 1 109.50000 418.400000
5763 15945 8044 1 109.50000 418.400000
5763 15945 10736 1 109.50000 418.400000
5763 15945 11228 1 109.50000 418.400000
8044 15945 10736 1 109.50000 418.400000
8044 15945 11228 1 109.50000 418.400000
10736 15945 11228 1 109.50000 418.400000
3320 15946 9340 1 109.50000 418.400000
3320 15946 10126 1 109.50000 418.400000
3320 15946 10738 1 109.50000 418.400000
9340 15946 10126 1 109.50000 418.400000
9340 15946 10738 1 109.50000 418.400000
10126 15946 10738 1 109.50000 418.400000
1724 15947 3866 1 109.50000 418.400000
1724 15947 10132 1 109.50000 418.400000
1724 15947 10739 1 109.50000 418.400000
3866 15947 10132 1 109.50000 418.400000
3866 15947 10739 1 109.50000 418.400000
10132 15947 10739 1 109.50000 418.400000
2 15948 4597 1 109.50000 418.400000
2 15948 8039 1 109.50000 418.400000
2 15948 10396 1 109.50000 418.400000
4597 15948 8039 1 109.50000 418.400000
4597 15948 10396 1 109.50000 418.400000
8039 15948 10396 1 109.50000 418.400000
550 15949 6495 1 109.50000 418.400000
550 15949 7787 1 109.50000 418.400000
550 15949 8364 1 109.50000 418.400000
6495 15949 7787 1 109.50000 418.400000
6495 15949 8364 1 109.50000 418.400000
7787 15949 8364 1 109.50000 418.400000
733 15950 2930 1 109.50000 418.400000
733 15950 9882 1 109.50000 418.400000
733 15950 10740 1 109.50000 418.400000
2930 15950 9882 1 109.50000 418.400000
2930 15950 10740 1 109.50000 418.400000
9882 15950 10740 1 109.50000 418.400000
6681 15951 10247 1 109.50000 418.400000
6681 15951 10675 1 109.50000 418.400000
6681 15951 10741 1 109.50000 418.400000
10247 15951 10675 1 109.50000 418.400000
10247 15951 10741 1 109.50000 418.400000
10675 15951 10741 1 109.50000 418.400000
9210 15952 10742 1 109.50000 418.400000
9210 15952 10743 1 109.50000 418.400000
9210 15952 11455 1 109.50000 418.400000
10742 15952 10743 1 109.50000 418.400000
10742 15952 11455 1 109.50000 418.400000
10743 15952 11455 1 109.50000 418.400000
2197 15953 3782 1 109.50000 418.400000
2197 15953 6115 1 109.50000 418.400000
2197 15953 10598 1 109.50000 418.400000
3782 15953 6115 1 109.50000 418.400000
3782 15953 10598 1 109.50000 418.400000
6115 15953 10598 1 109.50000 418.400000
650 15954 10633 1 109.50000 418.400000
650 15954 10745 1 109.50000 418.400000
650 15954 10746 1 109.50000 418.400000
10633 15954 10745 1 109.50000 418.400000
10633 15954 10746 1 109.50000 418.400000
10745 15954 10746 1 109.50000 418.400000
1725 15955 3269 1 109.50000 418.400000
1725 15955 9301 1 109.50000 418.400000
1725 15955 10748 1 109.50000 418.400000
3269 15955 9301 1 109.50000 418.400000
3269 15955 10748 1 109.50000 418.400000
9301 15955 10748 1 109.50000 418.400000
3630 15956 7542 1 109.50000 418.400000
3630 15956 10749 1 109.50000 418.400000
3630 15956 10877 1 109.50000 418.400000
7542 15956 10749 1 109.50000 418.400000
7542 15956 10877 1 109.50000 418.400000
10749 15956 10877 1 109.50000 418.400000
4877 15957 7437 1 109.50000 418.400000
4877 15957 8264 1 109.50000 418.400000
4877 15957 10750 1 109.50000 418.400000
7437 15957 8264 1 109.50000 418.400000
7437 15957 10750 1 109.50000 418.400000
8264 15957 10750 1 109.50000 418.400000
270 15958 683 1 109.50000 418.400000
270 15958 9323 1 109.50000 418.400000
270 15958 9569 1 109.50000 418.400000
683 15958 9323 1 109.50000 418.400000
683 15958 9569 1 109.50000 418.400000
9323 15958 9569 1 109.50000 418.400000
305 15959 5740 1 109.50000 418.400000
305 15959 7026 1 109.50000 418.400000
305 15959 8762 1 109.50000 418.400000
5740 15959 7026 1 109.50000 418.400000
5740 15959 8762 1 109.50000 418.400000
7026 15959 8762 1 109.50000 418.400000
7900 15960 9173 1 109.50000 418.400000
7900 15960 9175 1 109.50000 418.400000
7900 15960 10751 1 109.50000 418.400000
9173 15960 9175 1 109.50000 418.400000
9173 15960 10751 1 109.50000 418.400000
9175 15960 10751 1 109.50000 418.400000
7366 15961 9038 1 109.50000 418.400000
7366 15961 9311 1 109.50000 418.400000
7366 15961 9849 1 109.50000 418.400000
9038 15961 9311 1 109.50000 418.400000
9038 15961 9849 1 109.50000 418.400000
9311 15961 9849 1 109.50000 418.400000
1119 15962 4042 1 109.50000 418.400000
1119 15962 6594 1 109.50000 418.400000
1119 15962 10634 1 109.50000 418.400000
4042 15962 6594 1 109.50000 418.400000
4042 15962 10634 1 109.50000 418.400000
6594 15962 10634 1 109.50000 418.400000
276 15963 3424 1 109.50000 418.400000
276 15963 9699 1 109.50000 418.400000
276 15963 10752 1 109.50000 418.400000
3424 15963 9699 1 109.50000 418.400000
3424 15963 10752 1 109.50000 418.400000
9699 15963 10752 1 109.50000 418.400000
496 15964 8710 1 109.50000 418.400000
496 15964 10753 1 109.50000 418.400000
496 15964 10754 1 109.50000 418.400000
8710 15964 10753 1 109.50000 418.400000
8710 15964 10754 1 109.50000 418.400000
10753 15964 10754 1 109.50000 418.400000
3036 15965 4719 1 109.50000 418.400000
3036 15965 8718 1 109.50000 418.400000
3036 15965 10616 1 109.50000 418.400000
4719 15965 8718 1 109.50000 418.400000
4719 15965 10616 1 109.50000 418.400000
8718 15965 10616 1 109.50000 418.400000
1385 15966 2138 1 109.50000 418.400000
1385 15966 7884 1 109.50000 418.400000
1385 15966 10050 1 109.50000 418.400000
2138 15966 7884 1 109.50000 418.400000
2138 15966 10050 1 109.50000 418.400000
7884 15966 10050 1 109.50000 418.400000
2283 15967 2886 1 109.50000 418.400000
2283 15967 6991 1 109.50000 418.400000
2283 15967 10666 1 109.50000 418.400000
2886 15967 6991 1 109.50000 418.400000
2886 15967 10666 1 109.50000 418.400000
6991 15967 10666 1 109.50000 418.400000
2838 15968 6053 1 109.50000 418.400000
2838 15968 9459 1 109.50000 418.400000
2838 15968 10618 1 109.50000 418.400000
6053 15968 9459 1 109.50000 418.400000
6053 15968 10618 1 109.50000 418.400000
9459 15968 10618 1 109.50000 418.400000
3460 15969 5860 1 109.50000 418.400000
3460 15969 5861 1 109.50000 418.400000
3460 15969 10111 1 109.50000 418.400000
5860 15969 5861 1 109.50000 418.400000
5860 15969 10111 1 109.50000 418.400000
5861 15969 10111 1 109.50000 418.400000
8437 15970 8439 1 109.50000 418.400000
8437 15970 9746 1 109.50000 418.400000
8437 15970 10755 1 109.50000 418.400000
8439 15970 9746 1 109.50000 418.400000
8439 15970 10755 1 109.50000 418.400000
9746 15970 10755 1 109.50000 418.400000
9499 15971 9658 1 109.50000 418.400000
9499 15971 9869 1 109.50000 418.400000
9499 15971 10154 1 109.50000 418.400000
9658 15971 9869 1 109.50000 418.400000
9658 15971 10154 1 109.50000 418.400000
9869 15971 10154 1 109.50000 418.400000
6901 15972 10756 1 109.50000 418.400000
6901 15972 10757 1 109.50000 418.400000
6901 15972 11423 1 109.50000 418.400000
10756 15972 10757 1 109.50000 418.400000
10756 15972 11423 1 109.50000 418.400000
10757 15972 11423 1 109.50000 418.400000
1669 15973 5286 1 109.50000 418.400000
1669 15973 8885 1 109.50000 418.400000
1669 15973 9197 1 109.50000 418.400000
5286 15973 8885 1 109.50000 418.400000
5286 15973 9197 1 109.50000 418.400000
8885 15973 9197 1 109.50000 418.400000
4510 15974 7457 1 109.50000 418.400000
4510 15974 10758 1 109.50000 418.400000
4510 15974 11353 1 109.50000 418.400000
7457 15974 10758 1 109.50000 418.400000
7457 15974 11353 1 109.50000 418.400000
10758 15974 11353 1 109.50000 418.400000
914 15975 2729 1 109.50000 418.400000
914 15975 9964 1 109.50000 418.400000
914 15975 10759 1 109.50000 418.400000
2729 15975 9964 1 109.50000 418.400000
2729 15975 10759 1 109.50000 418.400000
9964 15975 10759 1 109.50000 418.400000
1877 15976 3338 1 109.50000 418.400000
1877 15976 7979 1 109.50000 418.400000
1877 15976 11352 1 109.50000 418.400000
3338 15976 7979 1 109.50000 418.400000
3338 15976 11352 1 109.50000 418.400000
7979 15976 11352 1 109.50000 418.400000
3053 15977 4235 1 109.50000 418.400000
3053 15977 7821 1 109.50000 418.400000
3053 15977 8742 1 109.50000 418.400000
4235 15977 7821 1 109.50000 418.400000
4235 15977 8742 1 109.50000 418.400000
7821 15977 8742 1 109.50000 418.400000
1592 15978 6516 1 109.50000 418.400000
1592 15978 7964 1 109.50000 418.400000
1592 15978 10760 1 109.50000 418.400000
6516 15978 7964 1 109.50000 418.400000
6516 15978 10760 1 109.50000 418.400000
7964 15978 10760 1 109.50000 418.400000
7207 15979 8624 1 109.50000 418.400000
7207 15979 10750 1 109.50000 418.400000
7207 15979 10761 1 109.50000 418.400000
8624 15979 10750 1 109.50000 418.400000
8624 15979 10761 1 109.50000 418.400000
10750 15979 10761 1 109.50000 418.400000
3422 15980 3680 1 109.50000 418.400000
3422 15980 3835 1 109.50000 418.400000
3422 15980 10762 1 109.50000 418.400000
3680 15980 3835 1 109.50000 418.400000
3680 15980 10762 1 109.50000 418.400000
3835 15980 10762 1 109.50000 418.400000
595 15981 2959 1 109.50000 418.400000
595 15981 8969 1 109.50000 418.400000
595 15981 10665 1 109.50000 418.400000
2959 15981 8969 1 109.50000 418.400000
2959 15981 10665 1 109.50000 418.400000
8969 15981 10665 1 109.50000 418.400000
3154 15982 10621 1 109.50000 418.400000
3154 15982 10723 1 109.50000 418.400000
3154 15982 10763 1 109.50000 418.400000
10621 15982 10723 1 109.50000 418.400000
10621 15982 10763 1 109.50000 418.400000
10723 15982 10763 1 109.50000 418.400000
6343 15983 6344 1 109.50000 418.400000
6343 15983 10003 1 109.50000 418.400000
6343 15983 10326 1 109.50000 418.400000
6344 15983 10003 1 109.50000 418.400000
6344 15983 10326 1 109.50000 418.400000
10003 15983 10326 1 109.50000 418.400000
6417 15984 10082 1 109.50000 418.400000
6417 15984 11386 1 109.50000 418.400000
6417 15984 11485 1 109.50000 418.400000
10082 15984 11386 1 109.50000 418.400000
10082 15984 11485 1 109.50000 418.400000
11386 15984 11485 1 109.50000 418.400000
1250 15985 2005 1 109.50000 418.400000
1250 15985 5598 1 109.50000 418.400000
1250 15985 10362 1 109.50000 418.400000
2005 15985 5598 1 109.50000 418.400000
2005 15985 10362 1 109.50000 418.400000
5598 15985 10362 1 109.50000 418.400000
4078 15986 5616 1 109.50000 418.400000
4078 15986 9389 1 109.50000 418.400000
4078 15986 9512 1 109.50000 418.400000
5616 15986 9389 1 109.50000 418.400000
5616 15986 9512 1 109.50000 418.400000
9389 15986 9512 1 109.50000 418.400000
9003 15987 10764 1 109.50000 418.400000
9003 15987 10765 1 109.50000 418.400000
9003 15987 10766 1 109.50000 418.400000
10764 15987 10765 1 109.50000 418.400000
10764 15987 10766 1 109.50000 418.400000
10765 15987 10766 1 109.50000 418.400000
1281 15988 7499 1 109.50000 418.400000
1281 15988 7920 1 109.50000 418.400000
1281 15988 10767 1 109.50000 418.400000
7499 15988 7920 1 109.50000 418.400000
7499 15988 10767 1 109.50000 418.400000
7920 15988 10767 1 109.50000 418.400000
7383 15989 7709 1 109.50000 418.400000
7383 15989 10517 1 109.50000 418.400000
7383 15989 10768 1 109.50000 418.400000
7709 15989 10517 1 109.50000 418.400000
7709 15989 10768 1 109.50000 418.400000
10517 15989 10768 1 109.50000 418.400000
9729 15990 9730 1 109.50000 418.400000
9729 15990 10767 1 109.50000 418.400000
9729 15990 10769 1 109.50000 418.400000
9730 15990 10767 1 109.50000 418.400000
9730 15990 10769 1 109.50000 418.400000
10767 15990 10769 1 109.50000 418.400000
3770 15991 7017 1 109.50000 418.400000
3770 15991 7421 1 109.50000 418.400000
3770 15991 8811 1 109.50000 418.400000
7017 15991 7421 1 109.50000 418.400000
7017 15991 8811 1 109.50000 418.400000
7421 15991 8811 1 109.50000 418.400000
1220 15992 1857 1 109.50000 418.400000
1220 15992 5896 1 109.50000 418.400000
1220 15992 10770 1 109.50000 418.400000
1857 15992 5896 1 109.50000 418.400000
1857 15992 10770 1 109.50000 418.400000
5896 15992 10770 1 109.50000 418.400000
9189 15993 10440 1 109.50000 418.400000
9189 15993 11282 1 109.50000 418.400000
9189 15993 11440 1 109.50000 418.400000
10440 15993 11282 1 109.50000 418.400000
10440 15993 11440 1 109.50000 418.400000
11282 15993 11440 1 109.50000 418.400000
1678 15994 5509 1 109.50000 418.400000
1678 15994 9739 1 109.50000 418.400000
1678 15994 10771 1 109.50000 418.400000
5509 15994 9739 1 109.50000 418.400000
5509 15994 10771 1 109.50000 418.400000
9739 15994 10771 1 109.50000 418.400000
5455 15995 6847 1 109.50000 418.400000
5455 15995 10108 1 109.50000 418.400000
5455 15995 10772 1 109.50000 418.400000
6847 15995 10108 1 109.50000 418.400000
6847 15995 10772 1 109.50000 418.400000
10108 15995 10772 1 109.50000 418.400000
2312 15996 6954 1 109.50000 418.400000
2312 15996 9607 1 109.50000 418.400000
2312 15996 10773 1 109.50000 418.400000
6954 15996 9607 1 109.50000 418.400000
6954 15996 10773 1 109.50000 418.400000
9607 15996 10773 1 109.50000 418.400000
6951 15997 7734 1 109.50000 418.400000
6951 15997 8512 1 109.50000 418.400000
6951 15997 10774 1 109.50000 418.400000
7734 15997 8512 1 109.50000 418.400000
7734 15997 10774 1 109.50000 418.400000
8512 15997 10774 1 109.50000 418.400000
2825 15998 5457 1 109.50000 418.400000
2825 15998 6729 1 109.50000 418.400000
2825 15998 10775 1 109.50000 418.400000
5457 15998 6729 1 109.50000 418.400000
5457 15998 10775 1 109.50000 418.400000
6729 15998 10775 1 109.50000 418.400000
8259 15999 10690 1 109.50000 418.400000
8259 15999 10776 1 109.50000 418.400000
8259 15999 10777 1 109.50000 418.400000
10690 15999 10776 1 109.50000 418.400000
10690 15999 10777 1 109.50000 418.400000
10776 15999 10777 1 109.50000 418.400000
3585 16000 4202 1 109.50000 418.400000
3585 16000 5899 1 109.50000 418.400000
3585 16000 9087 1 109.50000 418.400000
4202 16000 5899 1 109.50000 418.400000
4202 16000 9087 1 109.50000 418.400000
5899 16000 9087 1 109.50000 418.400000
1160 16001 1377 1 109.50000 418.400000
1160 16001 8800 1 109.50000 418.400000
1160 16001 10778 1 109.50000 418.400000
1377 16001 8800 1 109.50000 418.400000
1377 16001 10778 1 109.50000 418.400000
8800 16001 10778 1 109.50000 418.400000
2509 16002 5471 1 109.50000 418.400000
2509 16002 10779 1 109.50000 418.400000
2509 16002 10780 1 109.50000 418.400000
5471 16002 10779 1 109.50000 418.400000
5471 16002 10780 1 109.50000 418.400000
10779 16002 10780 1 109.50000 418.400000
2427 16003 5908 1 109.50000 418.400000
2427 16003 6220 1 109.50000 418.400000
2427 16003 10765 1 109.50000 418.400000
5908 16003 6220 1 109.50000 418.400000
5908 16003 10765 1 109.50000 418.400000
6220 16003 10765 1 109.50000 418.400000
6366 16004 8054 1 109.50000 418.400000
6366 16004 8213 1 109.50000 418.400000
6366 16004 11486 1 109.50000 418.400000
8054 16004 8213 1 109.50000 418.400000
8054 16004 11486 1 109.50000 418.400000
8213 16004 11486 1 109.50000 418.400000
2571 16005 6785 1 109.50000 418.400000
2571 16005 6787 1 109.50000 418.400000
2571 16005 7329 1 109.50000 418.400000
6785 16005 6787 1 109.50000 418.400000
6785 16005 7329 1 109.50000 418.400000
6787 16005 7329 1 109.50000 418.400000
2924 16006 6549 1 109.50000 418.400000
2924 16006 7187 1 109.50000 418.400000
2924 16006 9112 1 109.50000 418.400000
6549 16006 7187 1 109.50000 418.400000
6549 16006 9112 1 109.50000 418.400000
7187 16006 9112 1 109.50000 418.400000
2065 16007 4665 1 109.50000 418.400000
2065 16007 9752 1 109.50000 418.400000
2065 16007 10781 1 109.50000 418.400000
4665 16007 9752 1 109.50000 418.400000
4665 16007 10781 1 109.50000 418.400000
9752 16007 10781 1 109.50000 418.400000
1238 16008 3147 1 109.50000 418.400000
1238 16008 7851 1 109.50000 418.400000
1238 16008 7852 1 109.50000 418.400000
3147 16008 7851 1 109.50000 418.400000
3147 16008 7852 1 109.50000 418.400000
7851 16008 7852 1 109.50000 418.400000
853 16009 1645 1 109.50000 418.400000
853 16009 4565 1 109.50000 418.400000
853 16009 11407 1 109.50000 418.400000
1645 16009 4565 1 109.50000 418.400000
1645 16009 11407 1 109.50000 418.400000
4565 16009 11407 1 109.50000 418.400000
3451 16010 3942 1 109.50000 418.400000
3451 16010 6513 1 109.50000 418.400000
3451 16010 8305 1 109.50000 418.400000
3942 16010 6513 1 109.50000 418.400000
3942 16010 8305 1 109.50000 418.400000
6513 16010 8305 1 109.50000 418.400000
1667 16011 10327 1 109.50000 418.400000
1667 16011 10782 1 109.50000 418.400000
1667 16011 10783 1 109.50000 418.400000
10327 16011 10782 1 109.50000 418.400000
10327 16011 10783 1 109.50000 418.400000
10782 16011 10783 1 109.50000 418.400000
2476 16012 8099 1 109.50000 418.400000
2476 16012 9987 1 109.50000 418.400000
2476 16012 10584 1 109.50000 418.400000
8099 16012 9987 1 109.50000 418.400000
8099 16012 10584 1 109.50000 418.400000
9987 16012 10584 1 109.50000 418.400000
1292 16013 5036 1 109.50000 418.400000
1292 16013 8590 1 109.50000 418.400000
1292 16013 9953 1 109.50000 418.400000
5036 16013 8590 1 109.50000 418.400000
5036 16013 9953 1 109.50000 418.400000
8590 16013 9953 1 109.50000 418.400000
3127 16014 9527 1 109.50000 418.400000
3127 16014 9949 1 109.50000 418.400000
3127 16014 10784 1 109.50000 418.400000
9527 16014 9949 1 109.50000 418.400000
9527 16014 10784 1 109.50000 418.400000
9949 16014 10784 1 109.50000 418.400000
6269 16015 7016 1 109.50000 418.400000
6269 16015 8651 1 109.50000 418.400000
6269 16015 8832 1 109.50000 418.400000
7016 16015 8651 1 109.50000 418.400000
7016 16015 8832 1 109.50000 418.400000
8651 16015 8832 1 109.50000 418.400000
48 16016 3530 1 109.50000 418.400000
48 16016 7660 1 109.50000 418.400000
48 16016 10474 1 109.50000 418.400000
3530 16016 7660 1 109.50000 418.400000
3530 16016 10474 1 109.50000 418.400000
7660 16016 10474 1 109.50000 418.400000
5145 16017 10752 1 109.50000 418.400000
5145 16017 10785 1 109.50000 418.400000
5145 16017 10786 1 109.50000 418.400000
10752 16017 10785 1 109.50000 418.400000
10752 16017 10786 1 109.50000 418.400000
10785 16017 10786 1 109.50000 418.400000
239 16018 3133 1 109.50000 418.400000
239 16018 8794 1 109.50000 418.400000
239 16018 11418 1 109.50000 418.400000
3133 16018 8794 1 109.50000 418.400000
3133 16018 11418 1 109.50000 418.400000
8794 16018 11418 1 109.50000 418.400000
405 16019 9936 1 109.50000 418.400000
405 16019 10224 1 109.50000 418.400000
405 16019 10578 1 109.50000 418.400000
9936 16019 10224 1 109.50000 418.400000
9936 16019 10578 1 109.50000 418.400000
10224 16019 10578 1 109.50000 418.400000
5342 16020 9497 1 109.50000 418.400000
5342 16020 10782 1 109.50000 418.400000
5342 16020 10787 1 109.50000 418.400000
9497 16020 10782 1 109.50000 418.400000
9497 16020 10787 1 109.50000 418.400000
10782 16020 10787 1 109.50000 418.400000
220 16021 3423 1 109.50000 418.400000
220 16021 8220 1 109.50000 418.400000
220 16021 9328 1 109.50000 418.400000
3423 16021 8220 1 109.50000 418.400000
3423 16021 9328 1 109.50000 418.400000
8220 16021 9328 1 109.50000 418.400000
2558 16022 8416 1 109.50000 418.400000
2558 16022 8968 1 109.50000 418.400000
2558 16022 10740 1 109.50000 418.400000
8416 16022 8968 1 109.50000 418.400000
8416 16022 10740 1 109.50000 418.400000
8968 16022 10740 1 109.50000 418.400000
896 16023 4550 1 109.50000 418.400000
896 16023 7220 1 109.50000 418.400000
896 16023 11245 1 109.50000 418.400000
4550 16023 7220 1 109.50000 418.400000
4550 16023 11245 1 109.50000 418.400000
7220 16023 11245 1 109.50000 418.400000
6473 16024 9153 1 109.50000 418.400000
6473 16024 10099 1 109.50000 418.400000
6473 16024 10788 1 109.50000 418.400000
9153 16024 10099 1 109.50000 418.400000
9153 16024 10788 1 109.50000 418.400000
10099 16024 10788 1 109.50000 418.400000
6859 16025 7753 1 109.50000 418.400000
6859 16025 9027 1 109.50000 418.400000
6859 16025 9613 1 109.50000 418.400000
7753 16025 9027 1 109.50000 418.400000
7753 16025 9613 1 109.50000 418.400000
9027 16025 9613 1 109.50000 418.400000
4518 16026 8633 1 109.50000 418.400000
4518 16026 10783 1 109.50000 418.400000
4518 16026 10789 1 109.50000 418.400000
8633 16026 10783 1 109.50000 418.400000
8633 16026 10789 1 109.50000 418.400000
10783 16026 10789 1 109.50000 418.400000
3869 16027 8207 1 109.50000 418.400000
3869 16027 9952 1 109.50000 418.400000
3869 16027 10791 1 109.50000 418.400000
8207 16027 9952 1 109.50000 418.400000
8207 16027 10791 1 109.50000 418.400000
9952 16027 10791 1 109.50000 418.400000
1589 16028 4739 1 109.50000 418.400000
1589 16028 10792 1 109.50000 418.400000
1589 16028 10793 1 109.50000 418.400000
4739 16028 10792 1 109.50000 418.400000
4739 16028 10793 1 109.50000 418.400000
10792 16028 10793 1 109.50000 418.400000
9555 16029 9944 1 109.50000 418.400000
9555 16029 10237 1 109.50000 418.400000
9555 16029 10794 1 109.50000 418.400000
9944 16029 10237 1 109.50000 418.400000
9944 16029 10794 1 109.50000 418.400000
10237 16029 10794 1 109.50000 418.400000
1013 16030 7856 1 109.50000 418.400000
1013 16030 10399 1 109.50000 418.400000
1013 16030 10796 1 109.50000 418.400000
7856 16030 10399 1 109.50000 418.400000
7856 16030 10796 1 109.50000 418.400000
10399 16030 10796 1 109.50000 418.400000
6835 16031 8634 1 109.50000 418.400000
6835 16031 11231 1 109.50000 418.400000
6835 16031 11308 1 109.50000 418.400000
8634 16031 11231 1 109.50000 418.400000
8634 16031 11308 1 109.50000 418.400000
11231 16031 11308 1 109.50000 418.400000
7811 16032 9697 1 109.50000 418.400000
7811 16032 10797 1 109.50000 418.400000
7811 16032 10798 1 109.50000 418.400000
9697 16032 10797 1 109.50000 418.400000
9697 16032 10798 1 109.50000 418.400000
10797 16032 10798 1 109.50000 418.400000
4063 16033 8707 1 109.50000 418.400000
4063 16033 10461 1 109.50000 418.400000
4063 16033 10549 1 109.50000 418.400000
8707 16033 10461 1 109.50000 418.400000
8707 16033 10549 1 109.50000 418.400000
10461 16033 10549 1 109.50000 418.400000
188 16034 9410 1 109.50000 418.400000
188 16034 9711 1 109.50000 418.400000
188 16034 10799 1 109.50000 418.400000
9410 16034 9711 1 109.50000 418.400000
9410 16034 10799 1 109.50000 418.400000
9711 16034 10799 1 109.50000 418.400000
6900 16035 7459 1 109.50000 418.400000
6900 16035 7668 1 109.50000 418.400000
6900 16035 8008 1 109.50000 418.400000
7459 16035 7668 1 109.50000 418.400000
7459 16035 8008 1 109.50000 418.400000
7668 16035 8008 1 109.50000 418.400000
2784 16036 2905 1 109.50000 418.400000
2784 16036 6807 1 109.50000 418.400000
2784 16036 8728 1 109.50000 418.400000
2905 16036 6807 1 109.50000 418.400000
2905 16036 8728 1 109.50000 418.400000
6807 16036 8728 1 109.50000 418.400000
8223 16037 9616 1 109.50000 418.400000
8223 16037 10800 1 109.50000 418.400000
8223 16037 10801 1 109.50000 418.400000
9616 16037 10800 1 109.50000 418.400000
9616 16037 10801 1 109.50000 418.400000
10800 16037 10801 1 109.50000 418.400000
1438 16038 9146 1 109.50000 418.400000
1438 16038 9147 1 109.50000 418.400000
1438 16038 9148 1 109.50000 418.400000
9146 16038 9147 1 109.50000 418.400000
9146 16038 9148 1 109.50000 418.400000
9147 16038 9148 1 109.50000 418.400000
2884 16039 9804 1 109.50000 418.400000
2884 16039 10802 1 109.50000 418.400000
2884 16039 11470 1 109.50000 418.400000
9804 16039 10802 1 109.50000 418.400000
9804 16039 11470 1 109.50000 418.400000
10802 16039 11470 1 109.50000 418.400000
6879 16040 7011 1 109.50000 418.400000
6879 16040 7744 1 109.50000 418.400000
6879 16040 10547 1 109.50000 418.400000
7011 16040 7744 1 109.50000 418.400000
7011 16040 10547 1 109.50000 418.400000
7744 16040 10547 1 109.50000 418.400000
737 16041 6181 1 109.50000 418.400000
737 16041 6248 1 109.50000 418.400000
737 16041 7720 1 109.50000 418.400000
6181 16041 6248 1 109.50000 418.400000
6181 16041 7720 1 109.50000 418.400000
6248 16041 7720 1 109.50000 418.400000
631 16042 1244 1 109.50000 418.400000
631 16042 8077 1 109.50000 418.400000
631 16042 8982 1 109.50000 418.400000
1244 16042 8077 1 109.50000 418.400000
1244 16042 8982 1 109.50000 418.400000
8077 16042 8982 1 109.50000 418.400000
332 16043 1050 1 109.50000 418.400000
332 16043 8787 1 109.50000 418.400000
332 16043 10803 1 109.50000 418.400000
1050 16043 8787 1 109.50000 418.400000
1050 16043 10803 1 109.50000 418.400000
8787 16043 10803 1 109.50000 418.400000
5343 16044 6942 1 109.50000 418.400000
5343 16044 7676 1 109.50000 418.400000
5343 16044 10805 1 109.50000 418.400000
6942 16044 7676 1 109.50000 418.400000
6942 16044 10805 1 109.50000 418.400000
7676 16044 10805 1 109.50000 418.400000
5565 16045 6070 1 109.50000 418.400000
5565 16045 6548 1 109.50000 418.400000
5565 16045 8222 1 109.50000 418.400000
6070 16045 6548 1 109.50000 418.400000
6070 16045 8222 1 109.50000 418.400000
6548 16045 8222 1 109.50000 418.400000
1694 16046 3638 1 109.50000 418.400000
1694 16046 9215 1 109.50000 418.400000
1694 16046 10806 1 109.50000 418.400000
3638 16046 9215 1 109.50000 418.400000
3638 16046 10806 1 109.50000 418.400000
9215 16046 10806 1 109.50000 418.400000
4129 16047 4944 1 109.50000 418.400000
4129 16047 8746 1 109.50000 418.400000
4129 16047 10605 1 109.50000 418.400000
4944 16047 8746 1 109.50000 418.400000
4944 16047 10605 1 109.50000 418.400000
8746 16047 10605 1 109.50000 418.400000
2227 16048 2916 1 109.50000 418.400000
2227 16048 9156 1 109.50000 418.400000
2227 16048 9326 1 109.50000 418.400000
2916 16048 9156 1 109.50000 418.400000
2916 16048 9326 1 109.50000 418.400000
9156 16048 9326 1 109.50000 418.400000
2537 16049 5170 1 109.50000 418.400000
2537 16049 10625 1 109.50000 418.400000
2537 16049 10807 1 109.50000 418.400000
5170 16049 10625 1 109.50000 418.400000
5170 16049 10807 1 109.50000 418.400000
10625 16049 10807 1 109.50000 418.400000
8174 16050 9670 1 109.50000 418.400000
8174 16050 10400 1 109.50000 418.400000
8174 16050 10808 1 109.50000 418.400000
9670 16050 10400 1 109.50000 418.400000
9670 16050 10808 1 109.50000 418.400000
10400 16050 10808 1 109.50000 418.400000
8107 16051 10521 1 109.50000 418.400000
8107 16051 10809 1 109.50000 418.400000
8107 16051 10810 1 109.50000 418.400000
10521 16051 10809 1 109.50000 418.400000
10521 16051 10810 1 109.50000 418.400000
10809 16051 10810 1 109.50000 418.400000
1894 16052 2390 1 109.50000 418.400000
1894 16052 6700 1 109.50000 418.400000
1894 16052 8457 1 109.50000 418.400000
2390 16052 6700 1 109.50000 418.400000
2390 16052 8457 1 109.50000 418.400000
6700 16052 8457 1 109.50000 418.400000
1951 16053 8851 1 109.50000 418.400000
1951 16053 10674 1 109.50000 418.400000
1951 16053 11506 1 109.50000 418.400000
8851 16053 10674 1 109.50000 418.400000
8851 16053 11506 1 109.50000 418.400000
10674 16053 11506 1 109.50000 418.400000
3622 16054 3662 1 109.50000 418.400000
3622 16054 6627 1 109.50000 418.400000
3622 16054 9615 1 109.50000 418.400000
3662 16054 6627 1 109.50000 418.400000
3662 16054 9615 1 109.50000 418.400000
6627 16054 9615 1 109.50000 418.400000
988 16055 6614 1 109.50000 418.400000
988 16055 9531 1 109.50000 418.400000
988 16055 10811 1 109.50000 418.400000
6614 16055 9531 1 109.50000 418.400000
6614 16055 10811 1 109.50000 418.400000
9531 16055 10811 1 109.50000 418.400000
6042 16056 6356 1 109.50000 418.400000
6042 16056 9834 1 109.50000 418.400000
6042 16056 10189 1 109.50000 418.400000
6356 16056 9834 1 109.50000 418.400000
6356 16056 10189 1 109.50000 418.400000
9834 16056 10189 1 109.50000 418.400000
5379 16057 9715 1 109.50000 418.400000
5379 16057 10448 1 109.50000 418.400000
5379 16057 10812 1 109.50000 418.400000
9715 16057 10448 1 109.50000 418.400000
9715 16057 10812 1 109.50000 418.400000
10448 16057 10812 1 109.50000 418.400000
3581 16058 5810 1 109.50000 418.400000
3581 16058 9248 1 109.50000 418.400000
3581 16058 9416 1 109.50000 418.400000
5810 16058 9248 1 109.50000 418.400000
5810 16058 9416 1 109.50000 418.400000
9248 16058 9416 1 109.50000 418.400000
8138 16059 8514 1 109.50000 418.400000
8138 16059 9860 1 109.50000 418.400000
8138 16059 10324 1 109.50000 418.400000
8514 16059 9860 1 109.50000 418.400000
8514 16059 10324 1 109.50000 418.400000
9860 16059 10324 1 109.50000 418.400000
6826 16060 7396 1 109.50000 418.400000
6826 16060 10105 1 109.50000 418.400000
6826 16060 10813 1 109.50000 418.400000
7396 16060 10105 1 109.50000 418.400000
7396 16060 10813 1 109.50000 418.400000
10105 16060 10813 1 109.50000 418.400000
3689 16061 6670 1 109.50000 418.400000
3689 16061 9731 1 109.50000 418.400000
3689 16061 10200 1 109.50000 418.400000
6670 16061 9731 1 109.50000 418.400000
6670 16061 10200 1 109.50000 418.400000
9731 16061 10200 1 109.50000 418.400000
3567 16062 10441 1 109.50000 418.400000
3567 16062 10814 1 109.50000 418.400000
3567 16062 11510 1 109.50000 418.400000
10441 16062 10814 1 109.50000 418.400000
10441 16062 11510 1 109.50000 418.400000
10814 16062 11510 1 109.50000 418.400000
7387 16063 8750 1 109.50000 418.400000
7387 16063 10541 1 109.50000 418.400000
7387 16063 10725 1 109.50000 418.400000
8750 16063 10541 1 109.50000 418.400000
8750 16063 10725 1 109.50000 418.400000
10541 16063 10725 1 109.50000 418.400000
7 16064 7221 1 109.50000 418.400000
7 16064 10404 1 109.50000 418.400000
7 16064 10667 1 109.50000 418.400000
7221 16064 10404 1 109.50000 418.400000
7221 16064 10667 1 109.50000 418.400000
10404 16064 10667 1 109.50000 418.400000
802 16065 4611 1 109.50000 418.400000
802 16065 8038 1 109.50000 418.400000
802 16065 10472 1 109.50000 418.400000
4611 16065 8038 1 109.50000 418.400000
4611 16065 10472 1 109.50000 418.400000
8038 16065 10472 1 109.50000 418.400000
1122 16066 6507 1 109.50000 418.400000
1122 16066 10259 1 109.50000 418.400000
1122 16066 10815 1 109.50000 418.400000
6507 16066 10259 1 109.50000 418.400000
6507 16066 10815 1 109.50000 418.400000
10259 16066 10815 1 109.50000 418.400000
2016 16067 4308 1 109.50000 418.400000
2016 16067 9290 1 109.50000 418.400000
2016 16067 10816 1 109.50000 418.400000
4308 16067 9290 1 109.50000 418.400000
4308 16067 10816 1 109.50000 418.400000
9290 16067 10816 1 109.50000 418.400000
1349 16068 3639 1 109.50000 418.400000
1349 16068 5176 1 109.50000 418.400000
1349 16068 9973 1 109.50000 418.400000
3639 16068 5176 1 109.50000 418.400000
3639 16068 9973 1 109.50000 418.400000
5176 16068 9973 1 109.50000 418.400000
6223 16069 8596 1 109.50000 418.400000
6223 16069 10817 1 109.50000 418.400000
6223 16069 10818 1 109.50000 418.400000
8596 16069 10817 1 109.50000 418.400000
8596 16069 10818 1 109.50000 418.400000
10817 16069 10818 1 109.50000 418.400000
1895 16070 9507 1 109.50000 418.400000
1895 16070 9984 1 109.50000 418.400000
1895 16070 10161 1 109.50000 418.400000
9507 16070 9984 1 109.50000 418.400000
9507 16070 10161 1 109.50000 418.400000
9984 16070 10161 1 109.50000 418.400000
2754 16071 5618 1 109.50000 418.400000
2754 16071 8708 1 109.50000 418.400000
2754 16071 10819 1 109.50000 418.400000
5618 16071 8708 1 109.50000 418.400000
5618 16071 10819 1 109.50000 418.400000
8708 16071 10819 1 109.50000 418.400000
6745 16072 9154 1 109.50000 418.400000
6745 16072 9391 1 109.50000 418.400000
6745 16072 10100 1 109.50000 418.400000
9154 16072 9391 1 109.50000 418.400000
9154 16072 10100 1 109.50000 418.400000
9391 16072 10100 1 109.50000 418.400000
540 16073 835 1 109.50000 418.400000
540 16073 10231 1 109.50000 418.400000
540 16073 10820 1 109.50000 418.400000
835 16073 10231 1 109.50000 418.400000
835 16073 10820 1 109.50000 418.400000
10231 16073 10820 1 109.50000 418.400000
211 16074 2609 1 109.50000 418.400000
211 16074 7355 1 109.50000 418.400000
211 16074 9361 1 109.50000 418.400000
2609 16074 7355 1 109.50000 418.400000
2609 16074 9361 1 109.50000 418.400000
7355 16074 9361 1 109.50000 418.400000
1612 16075 1838 1 109.50000 418.400000
1612 16075 4372 1 109.50000 418.400000
1612 16075 6162 1 109.50000 418.400000
1838 16075 4372 1 109.50000 418.400000
1838 16075 6162 1 109.50000 418.400000
4372 16075 6162 1 109.50000 418.400000
532 16076 5600 1 109.50000 418.400000
532 16076 6344 1 109.50000 418.400000
532 16076 6360 1 109.50000 418.400000
5600 16076 6344 1 109.50000 418.400000
5600 16076 6360 1 109.50000 418.400000
6344 16076 6360 1 109.50000 418.400000
9306 16077 9594 1 109.50000 418.400000
9306 16077 10823 1 109.50000 418.400000
9306 16077 10824 1 109.50000 418.400000
9594 16077 10823 1 109.50000 418.400000
9594 16077 10824 1 109.50000 418.400000
10823 16077 10824 1 109.50000 418.400000
6272 16078 9914 1 109.50000 418.400000
6272 16078 10479 1 109.50000 418.400000
6272 16078 10825 1 109.50000 418.400000
9914 16078 10479 1 109.50000 418.400000
9914 16078 10825 1 109.50000 418.400000
10479 16078 10825 1 109.50000 418.400000
2635 16079 3456 1 109.50000 418.400000
2635 16079 9961 1 109.50000 418.400000
2635 16079 10826 1 109.50000 418.400000
3456 16079 9961 1 109.50000 418.400000
3456 16079 10826 1 109.50000 418.400000
9961 16079 10826 1 109.50000 418.400000
3276 16080 6908 1 109.50000 418.400000
3276 16080 8179 1 109.50000 418.400000
3276 16080 10546 1 109.50000 418.400000
6908 16080 8179 1 109.50000 418.400000
6908 16080 10546 1 109.50000 418.400000
8179 16080 10546 1 109.50000 418.400000
4781 16081 4783 1 109.50000 418.400000
4781 16081 9045 1 109.50000 418.400000
4781 16081 10720 1 109.50000 418.400000
4783 16081 9045 1 109.50000 418.400000
4783 16081 10720 1 109.50000 418.400000
9045 16081 10720 1 109.50000 418.400000
6605 16082 7983 1 109.50000 418.400000
6605 16082 9637 1 109.50000 418.400000
6605 16082 10499 1 109.50000 418.400000
7983 16082 9637 1 109.50000 418.400000
7983 16082 10499 1 109.50000 418.400000
9637 16082 10499 1 109.50000 418.400000
2042 16083 7343 1 109.50000 418.400000
2042 16083 10425 1 109.50000 418.400000
2042 16083 11478 1 109.50000 418.400000
7343 16083 10425 1 109.50000 418.400000
7343 16083 11478 1 109.50000 418.400000
10425 16083 11478 1 109.50000 418.400000
1411 16084 4673 1 109.50000 418.400000
1411 16084 6860 1 109.50000 418.400000
1411 16084 8689 1 109.50000 418.400000
4673 16084 6860 1 109.50000 418.400000
4673 16084 8689 1 109.50000 418.400000
6860 16084 8689 1 109.50000 418.400000
5252 16085 6953 1 109.50000 418.400000
5252 16085 7774 1 109.50000 418.400000
5252 16085 7776 1 109.50000 418.400000
6953 16085 7774 1 109.50000 418.400000
6953 16085 7776 1 109.50000 418.400000
7774 16085 7776 1 109.50000 418.400000
441 16086 7427 1 109.50000 418.400000
441 16086 11356 1 109.50000 418.400000
441 16086 11529 1 109.50000 418.400000
7427 16086 11356 1 109.50000 418.400000
7427 16086 11529 1 109.50000 418.400000
11356 16086 11529 1 109.50000 418.400000
5153 16087 9356 1 109.50000 418.400000
5153 16087 10268 1 109.50000 418.400000
5153 16087 10588 1 109.50000 418.400000
9356 16087 10268 1 109.50000 418.400000
9356 16087 10588 1 109.50000 418.400000
10268 16087 10588 1 109.50000 418.400000
1023 16088 4198 1 109.50000 418.400000
1023 16088 5365 1 109.50000 418.400000
1023 16088 6261 1 109.50000 418.400000
4198 16088 5365 1 109.50000 418.400000
4198 16088 6261 1 109.50000 418.400000
5365 16088 6261 1 109.50000 418.400000
874 16089 7003 1 109.50000 418.400000
874 16089 7121 1 109.50000 418.400000
874 16089 7760 1 109.50000 418.400000
7003 16089 7121 1 109.50000 418.400000
7003 16089 7760 1 109.50000 418.400000
7121 16089 7760 1 109.50000 418.400000
4450 16090 9493 1 109.50000 418.400000
4450 16090 9517 1 109.50000 418.400000
4450 16090 10829 1 109.50000 418.400000
9493 16090 9517 1 109.50000 418.400000
9493 16090 10829 1 109.50000 418.400000
9517 16090 10829 1 109.50000 418.400000
2516 16091 2744 1 109.50000 418.400000
2516 16091 9283 1 109.50000 418.400000
2516 16091 9795 1 109.50000 418.400000
2744 16091 9283 1 109.50000 418.400000
2744 16091 9795 1 109.50000 418.400000
9283 16091 9795 1 109.50000 418.400000
2949 16092 5368 1 109.50000 418.400000
2949 16092 9710 1 109.50000 418.400000
2949 16092 9728 1 109.50000 418.400000
5368 16092 9710 1 109.50000 418.400000
5368 16092 9728 1 109.50000 418.400000
9710 16092 9728 1 109.50000 418.400000
4573 16093 5767 1 109.50000 418.400000
4573 16093 7701 1 109.50000 418.400000
4573 16093 10830 1 109.50000 418.400000
5767 16093 7701 1 109.50000 418.400000
5767 16093 10830 1 109.50000 418.400000
7701 16093 10830 1 109.50000 418.400000
2992 16094 2993 1 109.50000 418.400000
2992 16094 2994 1 109.50000 418.400000
2992 16094 2995 1 109.50000 418.400000
2993 16094 2994 1 109.50000 418.400000
2993 16094 2995 1 109.50000 418.400000
2994 16094 2995 1 109.50000 418.400000
1060 16095 1062 1 109.50000 418.400000
1060 16095 9158 1 109.50000 418.400000
1060 16095 9327 1 109.50000 418.400000
1062 16095 9158 1 109.50000 418.400000
1062 16095 9327 1 109.50000 418.400000
9158 16095 9327 1 109.50000 418.400000
9258 16096 9632 1 109.50000 418.400000
9258 16096 9633 1 109.50000 418.400000
9258 16096 10831 1 109.50000 418.400000
9632 16096 9633 1 109.50000 418.400000
9632 16096 10831 1 109.50000 418.400000
9633 16096 10831 1 109.50000 418.400000
613 16097 9277 1 109.50000 418.400000
613 16097 10785 1 109.50000 418.400000
613 16097 10832 1 109.50000 418.400000
9277 16097 10785 1 109.50000 418.400000
9277 16097 10832 1 109.50000 418.400000
10785 16097 10832 1 109.50000 418.400000
3624 16098 3625 1 109.50000 418.400000
3624 16098 5320 1 109.50000 418.400000
3624 16098 7063 1 109.50000 418.400000
3625 16098 5320 1 109.50000 418.400000
3625 16098 7063 1 109.50000 418.400000
5320 16098 7063 1 109.50000 418.400000
1713 16099 9018 1 109.50000 418.400000
1713 16099 10491 1 109.50000 418.400000
1713 16099 10833 1 109.50000 418.400000
9018 16099 10491 1 109.50000 418.400000
9018 16099 10833 1 109.50000 418.400000
10491 16099 10833 1 109.50000 418.400000
2779 16100 6399 1 109.50000 418.400000
2779 16100 9815 1 109.50000 418.400000
2779 16100 10392 1 109.50000 418.400000
6399 16100 9815 1 109.50000 418.400000
6399 16100 10392 1 109.50000 418.400000
9815 16100 10392 1 109.50000 418.400000
6455 16101 8047 1 109.50000 418.400000
6455 16101 10834 1 109.50000 418.400000
6455 16101 10835 1 109.50000 418.400000
8047 16101 10834 1 109.50000 418.400000
8047 16101 10835 1 109.50000 418.400000
10834 16101 10835 1 109.50000 418.400000
2702 16102 6941 1 109.50000 418.400000
2702 16102 8650 1 109.50000 418.400000
2702 16102 10787 1 109.50000 418.400000
6941 16102 8650 1 109.50000 418.400000
6941 16102 10787 1 109.50000 418.400000
8650 16102 10787 1 109.50000 418.400000
2688 16103 4833 1 109.50000 418.400000
2688 16103 10836 1 109.50000 418.400000
2688 16103 10837 1 109.50000 418.400000
4833 16103 10836 1 109.50000 418.400000
4833 16103 10837 1 109.50000 418.400000
10836 16103 10837 1 109.50000 418.400000
7289 16104 7291 1 109.50000 418.400000
7289 16104 9510 1 109.50000 418.400000
7289 16104 10838 1 109.50000 418.400000
7291 16104 9510 1 109.50000 418.400000
7291 16104 10838 1 109.50000 418.400000
9510 16104 10838 1 109.50000 418.400000
2649 16105 8048 1 109.50000 418.400000
2649 16105 8580 1 109.50000 418.400000
2649 16105 9272 1 109.50000 418.400000
8048 16105 8580 1 109.50000 418.400000
8048 16105 9272 1 109.50000 418.400000
8580 16105 9272 1 109.50000 418.400000
4501 16106 10840 1 109.50000 418.400000
4501 16106 10841 1 109.50000 418.400000
4501 16106 11421 1 109.50000 418.400000
10840 16106 10841 1 109.50000 418.400000
10840 16106 11421 1 109.50000 418.400000
10841 16106 11421 1 109.50000 418.400000
4612 16107 7935 1 109.50000 418.400000
4612 16107 10842 1 109.50000 418.400000
4612 16107 10843 1 109.50000 418.400000
7935 16107 10842 1 109.50000 418.400000
7935 16107 10843 1 109.50000 418.400000
10842 16107 10843 1 109.50000 418.400000
4527 16108 8423 1 109.50000 418.400000
4527 16108 10339 1 109.50000 418.400000
4527 16108 10340 1 109.50000 418.400000
8423 16108 10339 1 109.50000 418.400000
8423 16108 10340 1 109.50000 418.400000
10339 16108 10340 1 109.50000 418.400000
7287 16109 7288 1 109.50000 418.400000
7287 16109 9990 1 109.50000 418.400000
7287 16109 11167 1 109.50000 418.400000
7288 16109 9990 1 109.50000 418.400000
7288 16109 11167 1 109.50000 418.400000
9990 16109 11167 1 109.50000 418.400000
5082 16110 6147 1 109.50000 418.400000
5082 16110 9168 1 109.50000 418.400000
5082 16110 10701 1 109.50000 418.400000
6147 16110 9168 1 109.50000 418.400000
6147 16110 10701 1 109.50000 418.400000
9168 16110 10701 1 109.50000 418.400000
2548 16111 8998 1 109.50000 418.400000
2548 16111 9337 1 109.50000 418.400000
2548 16111 10844 1 109.50000 418.400000
8998 16111 9337 1 109.50000 418.400000
8998 16111 10844 1 109.50000 418.400000
9337 16111 10844 1 109.50000 418.400000
1573 16112 9266 1 109.50000 418.400000
1573 16112 10845 1 109.50000 418.400000
1573 16112 10846 1 109.50000 418.400000
9266 16112 10845 1 109.50000 418.400000
9266 16112 10846 1 109.50000 418.400000
10845 16112 10846 1 109.50000 418.400000
1942 16113 6428 1 109.50000 418.400000
1942 16113 9150 1 109.50000 418.400000
1942 16113 10847 1 109.50000 418.400000
6428 16113 9150 1 109.50000 418.400000
6428 16113 10847 1 109.50000 418.400000
9150 16113 10847 1 109.50000 418.400000
1973 16114 1974 1 109.50000 418.400000
1973 16114 10405 1 109.50000 418.400000
1973 16114 10773 1 109.50000 418.400000
1974 16114 10405 1 109.50000 418.400000
1974 16114 10773 1 109.50000 418.400000
10405 16114 10773 1 109.50000 418.400000
6475 16115 6744 1 109.50000 418.400000
6475 16115 10710 1 109.50000 418.400000
6475 16115 10848 1 109.50000 418.400000
6744 16115 10710 1 109.50000 418.400000
6744 16115 10848 1 109.50000 418.400000
10710 16115 10848 1 109.50000 418.400000
3254 16116 5660 1 109.50000 418.400000
3254 16116 6674 1 109.50000 418.400000
3254 16116 10731 1 109.50000 418.400000
5660 16116 6674 1 109.50000 418.400000
5660 16116 10731 1 109.50000 418.400000
6674 16116 10731 1 109.50000 418.400000
434 16117 8884 1 109.50000 418.400000
434 16117 9954 1 109.50000 418.400000
434 16117 10564 1 109.50000 418.400000
8884 16117 9954 1 109.50000 418.400000
8884 16117 10564 1 109.50000 418.400000
9954 16117 10564 1 109.50000 418.400000
76 16118 2970 1 109.50000 418.400000
76 16118 5209 1 109.50000 418.400000
76 16118 10849 1 109.50000 418.400000
2970 16118 5209 1 109.50000 418.400000
2970 16118 10849 1 109.50000 418.400000
5209 16118 10849 1 109.50000 418.400000
7024 16119 7076 1 109.50000 418.400000
7024 16119 9866 1 109.50000 418.400000
7024 16119 10267 1 109.50000 418.400000
7076 16119 9866 1 109.50000 418.400000
7076 16119 10267 1 109.50000 418.400000
9866 16119 10267 1 109.50000 418.400000
632 16120 3895 1 109.50000 418.400000
632 16120 10192 1 109.50000 418.400000
632 16120 10839 1 109.50000 418.400000
3895 16120 10192 1 109.50000 418.400000
3895 16120 10839 1 109.50000 418.400000
10192 16120 10839 1 109.50000 418.400000
4929 16121 10286 1 109.50000 418.400000
4929 16121 10500 1 109.50000 418.400000
4929 16121 11141 1 109.50000 418.400000
10286 16121 10500 1 109.50000 418.400000
10286 16121 11141 1 109.50000 418.400000
10500 16121 11141 1 109.50000 418.400000
89 16122 929 1 109.50000 418.400000
89 16122 4657 1 109.50000 418.400000
89 16122 10708 1 109.50000 418.400000
929 16122 4657 1 109.50000 418.400000
929 16122 10708 1 109.50000 418.400000
4657 16122 10708 1 109.50000 418.400000
3050 16123 5924 1 109.50000 418.400000
3050 16123 7157 1 109.50000 418.400000
3050 16123 9365 1 109.50000 418.400000
5924 16123 7157 1 109.50000 418.400000
5924 16123 9365 1 109.50000 418.400000
7157 16123 9365 1 109.50000 418.400000
764 16124 2808 1 109.50000 418.400000
764 16124 10850 1 109.50000 418.400000
764 16124 10851 1 109.50000 418.400000
2808 16124 10850 1 109.50000 418.400000
2808 16124 10851 1 109.50000 418.400000
10850 16124 10851 1 109.50000 418.400000
444 16125 1081 1 109.50000 418.400000
444 16125 6772 1 109.50000 418.400000
444 16125 10470 1 109.50000 418.400000
1081 16125 6772 1 109.50000 418.400000
1081 16125 10470 1 109.50000 418.400000
6772 16125 10470 1 109.50000 418.400000
3287 16126 6885 1 109.50000 418.400000
3287 16126 9951 1 109.50000 418.400000
3287 16126 10178 1 109.50000 418.400000
6885 16126 9951 1 109.50000 418.400000
6885 16126 10178 1 109.50000 418.400000
9951 16126 10178 1 109.50000 418.400000
1754 16127 3370 1 109.50000 418.400000
1754 16127 4968 1 109.50000 418.400000
1754 16127 9407 1 109.50000 418.400000
3370 16127 4968 1 109.50000 418.400000
3370 16127 9407 1 109.50000 418.400000
4968 16127 9407 1 109.50000 418.400000
55 16128 8096 1 109.50000 418.400000
55 16128 10658 1 109.50000 418.400000
55 16128 10852 1 109.50000 418.400000
8096 16128 10658 1 109.50000 418.400000
8096 16128 10852 1 109.50000 418.400000
10658 16128 10852 1 109.50000 418.400000
4848 16129 5735 1 109.50000 418.400000
4848 16129 7309 1 109.50000 418.400000
4848 16129 11182 1 109.50000 418.400000
5735 16129 7309 1 109.50000 418.400000
5735 16129 11182 1 109.50000 418.400000
7309 16129 11182 1 109.50000 418.400000
7997 16130 8736 1 109.50000 418.400000
7997 16130 10066 1 109.50000 418.400000
7997 16130 10853 1 109.50000 418.400000
8736 16130 10066 1 109.50000 418.400000
8736 16130 10853 1 109.50000 418.400000
10066 16130 10853 1 109.50000 418.400000
9560 16131 9685 1 109.50000 418.400000
9560 16131 10854 1 109.50000 418.400000
9560 16131 10901 1 109.50000 418.400000
9685 16131 10854 1 109.50000 418.400000
9685 16131 10901 1 109.50000 418.400000
10854 16131 10901 1 109.50000 418.400000
4159 16132 5857 1 109.50000 418.400000
4159 16132 6855 1 109.50000 418.400000
4159 16132 10855 1 109.50000 418.400000
5857 16132 6855 1 109.50000 418.400000
5857 16132 10855 1 109.50000 418.400000
6855 16132 10855 1 109.50000 418.400000
2490 16133 7612 1 109.50000 418.400000
2490 16133 7613 1 109.50000 418.400000
2490 16133 11462 1 109.50000 418.400000
7612 16133 7613 1 109.50000 418.400000
7612 16133 11462 1 109.50000 418.400000
7613 16133 11462 1 109.50000 418.400000
4066 16134 4067 1 109.50000 418.400000
4066 16134 8150 1 109.50000 418.400000
4066 16134 8440 1 109.50000 418.400000
4067 16134 8150 1 109.50000 418.400000
4067 16134 8440 1 109.50000 418.400000
8150 16134 8440 1 109.50000 418.400000
4379 16135 8713 1 109.50000 418.400000
4379 16135 10856 1 109.50000 418.400000
4379 16135 10857 1 109.50000 418.400000
8713 16135 10856 1 109.50000 418.400000
8713 16135 10857 1 109.50000 418.400000
10856 16135 10857 1 109.50000 418.400000
1037 16136 7956 1 109.50000 418.400000
1037 16136 9734 1 109.50000 418.400000
1037 16136 11404 1 109.50000 418.400000
7956 16136 9734 1 109.50000 418.400000
7956 16136 11404 1 109.50000 418.400000
9734 16136 11404 1 109.50000 418.400000
665 16137 666 1 109.50000 418.400000
665 16137 5447 1 109.50000 418.400000
665 16137 10859 1 109.50000 418.400000
666 16137 5447 1 109.50000 418.400000
666 16137 10859 1 109.50000 418.400000
5447 16137 10859 1 109.50000 418.400000
10300 16138 10302 1 109.50000 418.400000
10300 16138 10860 1 109.50000 418.400000
10300 16138 10861 1 109.50000 418.400000
10302 16138 10860 1 109.50000 418.400000
10302 16138 10861 1 109.50000 418.400000
10860 16138 10861 1 109.50000 418.400000
319 16139 839 1 109.50000 418.400000
319 16139 7000 1 109.50000 418.400000
319 16139 10145 1 109.50000 418.400000
839 16139 7000 1 109.50000 418.400000
839 16139 10145 1 109.50000 418.400000
7000 16139 10145 1 109.50000 418.400000
6391 16140 7276 1 109.50000 418.400000
6391 16140 9687 1 109.50000 418.400000
6391 16140 10859 1 109.50000 418.400000
7276 16140 9687 1 109.50000 418.400000
7276 16140 10859 1 109.50000 418.400000
9687 16140 10859 1 109.50000 418.400000
2689 16141 7068 1 109.50000 418.400000
2689 16141 8826 1 109.50000 418.400000
2689 16141 10862 1 109.50000 418.400000
7068 16141 8826 1 109.50000 418.400000
7068 16141 10862 1 109.50000 418.400000
8826 16141 10862 1 109.50000 418.400000
2682 16142 2683 1 109.50000 418.400000
2682 16142 3534 1 109.50000 418.400000
2682 16142 4979 1 109.50000 418.400000
2683 16142 3534 1 109.50000 418.400000
2683 16142 4979 1 109.50000 418.400000
3534 16142 4979 1 109.50000 418.400000
1760 16143 8105 1 109.50000 418.400000
1760 16143 9004 1 109.50000 418.400000
1760 16143 11270 1 109.50000 418.400000
8105 16143 9004 1 109.50000 418.400000
8105 16143 11270 1 109.50000 418.400000
9004 16143 11270 1 109.50000 418.400000
554 16144 2181 1 109.50000 418.400000
554 16144 6780 1 109.50000 418.400000
554 16144 10863 1 109.50000 418.400000
2181 16144 6780 1 109.50000 418.400000
2181 16144 10863 1 109.50000 418.400000
6780 16144 10863 1 109.50000 418.400000
3 16145 2221 1 109.50000 418.400000
3 16145 2491 1 109.50000 418.400000
3 16145 5872 1 109.50000 418.400000
2221 16145 2491 1 109.50000 418.400000
2221 16145 5872 1 109.50000 418.400000
2491 16145 5872 1 109.50000 418.400000
1389 16146 2641 1 109.50000 418.400000
1389 16146 7408 1 109.50000 418.400000
1389 16146 7410 1 109.50000 418.400000
2641 16146 7408 1 109.50000 418.400000
2641 16146 7410 1 109.50000 418.400000
7408 16146 7410 1 109.50000 418.400000
8449 16147 8450 1 109.50000 418.400000
8449 16147 9655 1 109.50000 418.400000
8449 16147 9656 1 109.50000 418.400000
8450 16147 9655 1 109.50000 418.400000
8450 16147 9656 1 109.50000 418.400000
9655 16147 9656 1 109.50000 418.400000
6684 16148 8316 1 109.50000 418.400000
6684 16148 10209 1 109.50000 418.400000
6684 16148 10865 1 109.50000 418.400000
8316 16148 10209 1 109.50000 418.400000
8316 16148 10865 1 109.50000 418.400000
10209 16148 10865 1 109.50000 418.400000
9276 16149 9992 1 109.50000 418.400000
9276 16149 10866 1 109.50000 418.400000
9276 16149 11514 1 109.50000 418.400000
9992 16149 10866 1 109.50000 418.400000
9992 16149 11514 1 109.50000 418.400000
10866 16149 11514 1 109.50000 418.400000
5516 16150 6417 1 109.50000 418.400000
5516 16150 6418 1 109.50000 418.400000
5516 16150 6795 1 109.50000 418.400000
6417 16150 6418 1 109.50000 418.400000
6417 16150 6795 1 109.50000 418.400000
6418 16150 6795 1 109.50000 418.400000
6045 16151 6856 1 109.50000 418.400000
6045 16151 7588 1 109.50000 418.400000
6045 16151 8284 1 109.50000 418.400000
6856 16151 7588 1 109.50000 418.400000
6856 16151 8284 1 109.50000 418.400000
7588 16151 8284 1 109.50000 418.400000
8459 16152 10864 1 109.50000 418.400000
8459 16152 10867 1 109.50000 418.400000
8459 16152 11372 1 109.50000 418.400000
10864 16152 10867 1 109.50000 418.400000
10864 16152 11372 1 109.50000 418.400000
10867 16152 11372 1 109.50000 418.400000
9876 16153 9977 1 109.50000 418.400000
9876 16153 10349 1 109.50000 418.400000
9876 16153 10870 1 109.50000 418.400000
9977 16153 10349 1 109.50000 418.400000
9977 16153 10870 1 109.50000 418.400000
10349 16153 10870 1 109.50000 418.400000
8597 16154 8932 1 109.50000 418.400000
8597 16154 9397 1 109.50000 418.400000
8597 16154 9472 1 109.50000 418.400000
8932 16154 9397 1 109.50000 418.400000
8932 16154 9472 1 109.50000 418.400000
9397 16154 9472 1 109.50000 418.400000
7843 16155 10080 1 109.50000 418.400000
7843 16155 10213 1 109.50000 418.400000
7843 16155 11323 1 109.50000 418.400000
10080 16155 10213 1 109.50000 418.400000
10080 16155 11323 1 109.50000 418.400000
10213 16155 11323 1 109.50000 418.400000
7461 16156 7814 1 109.50000 418.400000
7461 16156 10212 1 109.50000 418.400000
7461 16156 10753 1 109.50000 418.400000
7814 16156 10212 1 109.50000 418.400000
7814 16156 10753 1 109.50000 418.400000
10212 16156 10753 1 109.50000 418.400000
2751 16157 6833 1 109.50000 418.400000
2751 16157 10381 1 109.50000 418.400000
2751 16157 10539 1 109.50000 418.400000
6833 16157 10381 1 109.50000 418.400000
6833 16157 10539 1 109.50000 418.400000
10381 16157 10539 1 109.50000 418.400000
2636 16158 4620 1 109.50000 418.400000
2636 16158 5686 1 109.50000 418.400000
2636 16158 10771 1 109.50000 418.400000
4620 16158 5686 1 109.50000 418.400000
4620 16158 10771 1 109.50000 418.400000
5686 16158 10771 1 109.50000 418.400000
2507 16159 4879 1 109.50000 418.400000
2507 16159 9747 1 109.50000 418.400000
2507 16159 10768 1 109.50000 418.400000
4879 16159 9747 1 109.50000 418.400000
4879 16159 10768 1 109.50000 418.400000
9747 16159 10768 1 109.50000 418.400000
7644 16160 7645 1 109.50000 418.400000
7644 16160 10534 1 109.50000 418.400000
7644 16160 10871 1 109.50000 418.400000
7645 16160 10534 1 109.50000 418.400000
7645 16160 10871 1 109.50000 418.400000
10534 16160 10871 1 109.50000 418.400000
10437 16161 10873 1 109.50000 418.400000
10437 16161 10874 1 109.50000 418.400000
10437 16161 11282 1 109.50000 418.400000
10873 16161 10874 1 109.50000 418.400000
10873 16161 11282 1 109.50000 418.400000
10874 16161 11282 1 109.50000 418.400000
8723 16162 9467 1 109.50000 418.400000
8723 16162 10774 1 109.50000 418.400000
8723 16162 10875 1 109.50000 418.400000
9467 16162 10774 1 109.50000 418.400000
9467 16162 10875 1 109.50000 418.400000
10774 16162 10875 1 109.50000 418.400000
5409 16163 6266 1 109.50000 418.400000
5409 16163 10241 1 109.50000 418.400000
5409 16163 10876 1 109.50000 418.400000
6266 16163 10241 1 109.50000 418.400000
6266 16163 10876 1 109.50000 418.400000
10241 16163 10876 1 109.50000 418.400000
3211 16164 10459 1 109.50000 418.400000
3211 16164 10698 1 109.50000 418.400000
3211 16164 10749 1 109.50000 418.400000
10459 16164 10698 1 109.50000 418.400000
10459 16164 10749 1 109.50000 418.400000
10698 16164 10749 1 109.50000 418.400000
3099 16165 7458 1 109.50000 418.400000
3099 16165 8901 1 109.50000 418.400000
3099 16165 9649 1 109.50000 418.400000
7458 16165 8901 1 109.50000 418.400000
7458 16165 9649 1 109.50000 418.400000
8901 16165 9649 1 109.50000 418.400000
6632 16166 8328 1 109.50000 418.400000
6632 16166 8761 1 109.50000 418.400000
6632 16166 10828 1 109.50000 418.400000
8328 16166 8761 1 109.50000 418.400000
8328 16166 10828 1 109.50000 418.400000
8761 16166 10828 1 109.50000 418.400000
10433 16167 10815 1 109.50000 418.400000
10433 16167 11306 1 109.50000 418.400000
10433 16167 11307 1 109.50000 418.400000
10815 16167 11306 1 109.50000 418.400000
10815 16167 11307 1 109.50000 418.400000
11306 16167 11307 1 109.50000 418.400000
688 16168 6412 1 109.50000 418.400000
688 16168 6413 1 109.50000 418.400000
688 16168 6414 1 109.50000 418.400000
6412 16168 6413 1 109.50000 418.400000
6412 16168 6414 1 109.50000 418.400000
6413 16168 6414 1 109.50000 418.400000
112 16169 2871 1 109.50000 418.400000
112 16169 10878 1 109.50000 418.400000
112 16169 10879 1 109.50000 418.400000
2871 16169 10878 1 109.50000 418.400000
2871 16169 10879 1 109.50000 418.400000
10878 16169 10879 1 109.50000 418.400000
3158 16170 7183 1 109.50000 418.400000
3158 16170 10184 1 109.50000 418.400000
3158 16170 10880 1 109.50000 418.400000
7183 16170 10184 1 109.50000 418.400000
7183 16170 10880 1 109.50000 418.400000
10184 16170 10880 1 109.50000 418.400000
1498 16171 4158 1 109.50000 418.400000
1498 16171 10060 1 109.50000 418.400000
1498 16171 10881 1 109.50000 418.400000
4158 16171 10060 1 109.50000 418.400000
4158 16171 10881 1 109.50000 418.400000
10060 16171 10881 1 109.50000 418.400000
6411 16172 8063 1 109.50000 418.400000
6411 16172 8344 1 109.50000 418.400000
6411 16172 8830 1 109.50000 418.400000
8063 16172 8344 1 109.50000 418.400000
8063 16172 8830 1 109.50000 418.400000
8344 16172 8830 1 109.50000 418.400000
536 16173 3497 1 109.50000 418.400000
536 16173 7195 1 109.50000 418.400000
536 16173 8572 1 109.50000 418.400000
3497 16173 7195 1 109.50000 418.400000
3497 16173 8572 1 109.50000 418.400000
7195 16173 8572 1 109.50000 418.400000
2196 16174 2308 1 109.50000 418.400000
2196 16174 4635 1 109.50000 418.400000
2196 16174 10882 1 109.50000 418.400000
2308 16174 4635 1 109.50000 418.400000
2308 16174 10882 1 109.50000 418.400000
4635 16174 10882 1 109.50000 418.400000
8679 16175 8680 1 109.50000 418.400000
8679 16175 10883 1 109.50000 418.400000
8679 16175 10885 1 109.50000 418.400000
8680 16175 10883 1 109.50000 418.400000
8680 16175 10885 1 109.50000 418.400000
10883 16175 10885 1 109.50000 418.400000
240 16176 6907 1 109.50000 418.400000
240 16176 10718 1 109.50000 418.400000
240 16176 10886 1 109.50000 418.400000
6907 16176 10718 1 109.50000 418.400000
6907 16176 10886 1 109.50000 418.400000
10718 16176 10886 1 109.50000 418.400000
4333 16177 6286 1 109.50000 418.400000
4333 16177 7937 1 109.50000 418.400000
4333 16177 10575 1 109.50000 418.400000
6286 16177 7937 1 109.50000 418.400000
6286 16177 10575 1 109.50000 418.400000
7937 16177 10575 1 109.50000 418.400000
1674 16178 6466 1 109.50000 418.400000
1674 16178 8379 1 109.50000 418.400000
1674 16178 10390 1 109.50000 418.400000
6466 16178 8379 1 109.50000 418.400000
6466 16178 10390 1 109.50000 418.400000
8379 16178 10390 1 109.50000 418.400000
2407 16179 6119 1 109.50000 418.400000
2407 16179 9161 1 109.50000 418.400000
2407 16179 10464 1 109.50000 418.400000
6119 16179 9161 1 109.50000 418.400000
6119 16179 10464 1 109.50000 418.400000
9161 16179 10464 1 109.50000 418.400000
681 16180 1046 1 109.50000 418.400000
681 16180 7032 1 109.50000 418.400000
681 16180 9532 1 109.50000 418.400000
1046 16180 7032 1 109.50000 418.400000
1046 16180 9532 1 109.50000 418.400000
7032 16180 9532 1 109.50000 418.400000
2152 16181 5190 1 109.50000 418.400000
2152 16181 8272 1 109.50000 418.400000
2152 16181 10882 1 109.50000 418.400000
5190 16181 8272 1 109.50000 418.400000
5190 16181 10882 1 109.50000 418.400000
8272 16181 10882 1 109.50000 418.400000
8032 16182 9905 1 109.50000 418.400000
8032 16182 10644 1 109.50000 418.400000
8032 16182 10888 1 109.50000 418.400000
9905 16182 10644 1 109.50000 418.400000
9905 16182 10888 1 109.50000 418.400000
10644 16182 10888 1 109.50000 418.400000
970 16183 7607 1 109.50000 418.400000
970 16183 10240 1 109.50000 418.400000
970 16183 10889 1 109.50000 418.400000
7607 16183 10240 1 109.50000 418.400000
7607 16183 10889 1 109.50000 418.400000
10240 16183 10889 1 109.50000 418.400000
8887 16184 9233 1 109.50000 418.400000
8887 16184 10089 1 109.50000 418.400000
8887 16184 10890 1 109.50000 418.400000
9233 16184 10089 1 109.50000 418.400000
9233 16184 10890 1 109.50000 418.400000
10089 16184 10890 1 109.50000 418.400000
6303 16185 9852 1 109.50000 418.400000
6303 16185 11218 1 109.50000 418.400000
6303 16185 11459 1 109.50000 418.400000
9852 16185 11218 1 109.50000 418.400000
9852 16185 11459 1 109.50000 418.400000
11218 16185 11459 1 109.50000 418.400000
4694 16186 5411 1 109.50000 418.400000
4694 16186 7096 1 109.50000 418.400000
4694 16186 9232 1 109.50000 418.400000
5411 16186 7096 1 109.50000 418.400000
5411 16186 9232 1 109.50000 418.400000
7096 16186 9232 1 109.50000 418.400000
9719 16187 10892 1 109.50000 418.400000
9719 16187 10893 1 109.50000 418.400000
9719 16187 10894 1 109.50000 418.400000
10892 16187 10893 1 109.50000 418.400000
10892 16187 10894 1 109.50000 418.400000
10893 16187 10894 1 109.50000 418.400000
5738 16188 7691 1 109.50000 418.400000
5738 16188 10772 1 109.50000 418.400000
5738 16188 10895 1 109.50000 418.400000
7691 16188 10772 1 109.50000 418.400000
7691 16188 10895 1 109.50000 418.400000
10772 16188 10895 1 109.50000 418.400000
6296 16189 7705 1 109.50000 418.400000
6296 16189 7886 1 109.50000 418.400000
6296 16189 10321 1 109.50000 418.400000
7705 16189 7886 1 109.50000 418.400000
7705 16189 10321 1 109.50000 418.400000
7886 16189 10321 1 109.50000 418.400000
3462 16190 9082 1 109.50000 418.400000
3462 16190 9083 1 109.50000 418.400000
3462 16190 9911 1 109.50000 418.400000
9082 16190 9083 1 109.50000 418.400000
9082 16190 9911 1 109.50000 418.400000
9083 16190 9911 1 109.50000 418.400000
348 16191 349 1 109.50000 418.400000
348 16191 350 1 109.50000 418.400000
348 16191 11480 1 109.50000 418.400000
349 16191 350 1 109.50000 418.400000
349 16191 11480 1 109.50000 418.400000
350 16191 11480 1 109.50000 418.400000
1137 16192 2092 1 109.50000 418.400000
1137 16192 9448 1 109.50000 418.400000
1137 16192 10896 1 109.50000 418.400000
2092 16192 9448 1 109.50000 418.400000
2092 16192 10896 1 109.50000 418.400000
9448 16192 10896 1 109.50000 418.400000
810 16193 811 1 109.50000 418.400000
810 16193 812 1 109.50000 418.400000
810 16193 813 1 109.50000 418.400000
811 16193 812 1 109.50000 418.400000
811 16193 813 1 109.50000 418.400000
812 16193 813 1 109.50000 418.400000
2927 16194 3343 1 109.50000 418.400000
2927 16194 4403 1 109.50000 418.400000
2927 16194 10416 1 109.50000 418.400000
3343 16194 4403 1 109.50000 418.400000
3343 16194 10416 1 109.50000 418.400000
4403 16194 10416 1 109.50000 418.400000
43 16195 2074 1 109.50000 418.400000
43 16195 8661 1 109.50000 418.400000
43 16195 9958 1 109.50000 418.400000
2074 16195 8661 1 109.50000 418.400000
2074 16195 9958 1 109.50000 418.400000
8661 16195 9958 1 109.50000 418.400000
1630 16196 5698 1 109.50000 418.400000
1630 16196 9236 1 109.50000 418.400000
1630 16196 10897 1 109.50000 418.400000
5698 16196 9236 1 109.50000 418.400000
5698 16196 10897 1 109.50000 418.400000
9236 16196 10897 1 109.50000 418.400000
4826 16197 9994 1 109.50000 418.400000
4826 16197 9995 1 109.50000 418.400000
4826 16197 10868 1 109.50000 418.400000
9994 16197 9995 1 109.50000 418.400000
9994 16197 10868 1 109.50000 418.400000
9995 16197 10868 1 109.50000 418.400000
6581 16198 10870 1 109.50000 418.400000
6581 16198 10898 1 109.50000 418.400000
6581 16198 10899 1 109.50000 418.400000
10870 16198 10898 1 109.50000 418.400000
10870 16198 10899 1 109.50000 418.400000
10898 16198 10899 1 109.50000 418.400000
1031 16199 8769 1 109.50000 418.400000
1031 16199 10865 1 109.50000 418.400000
1031 16199 10900 1 109.50000 418.400000
8769 16199 10865 1 109.50000 418.400000
8769 16199 10900 1 109.50000 418.400000
10865 16199 10900 1 109.50000 418.400000
8012 16200 9286 1 109.50000 418.400000
8012 16200 9606 1 109.50000 418.400000
8012 16200 9724 1 109.50000 418.400000
9286 16200 9606 1 109.50000 418.400000
9286 16200 9724 1 109.50000 418.400000
9606 16200 9724 1 109.50000 418.400000
1738 16201 1740 1 109.50000 418.400000
1738 16201 7174 1 109.50000 418.400000
1738 16201 10854 1 109.50000 418.400000
1740 16201 7174 1 109.50000 418.400000
1740 16201 10854 1 109.50000 418.400000
7174 16201 10854 1 109.50000 418.400000
1340 16202 4200 1 109.50000 418.400000
1340 16202 8003 1 109.50000 418.400000
1340 16202 8345 1 109.50000 418.400000
4200 16202 8003 1 109.50000 418.400000
4200 16202 8345 1 109.50000 418.400000
8003 16202 8345 1 109.50000 418.400000
7544 16203 9126 1 109.50000 418.400000
7544 16203 9296 1 109.50000 418.400000
7544 16203 10673 1 109.50000 418.400000
9126 16203 9296 1 109.50000 418.400000
9126 16203 10673 1 109.50000 418.400000
9296 16203 10673 1 109.50000 418.400000
3521 16204 5349 1 109.50000 418.400000
3521 16204 7816 1 109.50000 418.400000
3521 16204 8221 1 109.50000 418.400000
5349 16204 7816 1 109.50000 418.400000
5349 16204 8221 1 109.50000 418.400000
7816 16204 8221 1 109.50000 418.400000
8120 16205 8780 1 109.50000 418.400000
8120 16205 10855 1 109.50000 418.400000
8120 16205 10903 1 109.50000 418.400000
8780 16205 10855 1 109.50000 418.400000
8780 16205 10903 1 109.50000 418.400000
10855 16205 10903 1 109.50000 418.400000
942 16206 1593 1 109.50000 418.400000
942 16206 10403 1 109.50000 418.400000
942 16206 10779 1 109.50000 418.400000
1593 16206 10403 1 109.50000 418.400000
1593 16206 10779 1 109.50000 418.400000
10403 16206 10779 1 109.50000 418.400000
859 16207 6760 1 109.50000 418.400000
859 16207 10904 1 109.50000 418.400000
859 16207 10905 1 109.50000 418.400000
6760 16207 10904 1 109.50000 418.400000
6760 16207 10905 1 109.50000 418.400000
10904 16207 10905 1 109.50000 418.400000
494 16208 3029 1 109.50000 418.400000
494 16208 9585 1 109.50000 418.400000
494 16208 10906 1 109.50000 418.400000
3029 16208 9585 1 109.50000 418.400000
3029 16208 10906 1 109.50000 418.400000
9585 16208 10906 1 109.50000 418.400000
2110 16209 5221 1 109.50000 418.400000
2110 16209 10907 1 109.50000 418.400000
2110 16209 11449 1 109.50000 418.400000
5221 16209 10907 1 109.50000 418.400000
5221 16209 11449 1 109.50000 418.400000
10907 16209 11449 1 109.50000 418.400000
6158 16210 8858 1 109.50000 418.400000
6158 16210 9775 1 109.50000 418.400000
6158 16210 10908 1 109.50000 418.400000
8858 16210 9775 1 109.50000 418.400000
8858 16210 10908 1 109.50000 418.400000
9775 16210 10908 1 109.50000 418.400000
5473 16211 9104 1 109.50000 418.400000
5473 16211 9471 1 109.50000 418.400000
5473 16211 11517 1 109.50000 418.400000
9104 16211 9471 1 109.50000 418.400000
9104 16211 11517 1 109.50000 418.400000
9471 16211 11517 1 109.50000 418.400000
2969 16212 8399 1 109.50000 418.400000
2969 16212 10909 1 109.50000 418.400000
2969 16212 10910 1 109.50000 418.400000
8399 16212 10909 1 109.50000 418.400000
8399 16212 10910 1 109.50000 418.400000
10909 16212 10910 1 109.50000 418.400000
8275 16213 10439 1 109.50000 418.400000
8275 16213 10911 1 109.50000 418.400000
8275 16213 11440 1 109.50000 418.400000
10439 16213 10911 1 109.50000 418.400000
10439 16213 11440 1 109.50000 418.400000
10911 16213 11440 1 109.50000 418.400000
6480 16214 8869 1 109.50000 418.400000
6480 16214 10867 1 109.50000 418.400000
6480 16214 10912 1 109.50000 418.400000
8869 16214 10867 1 109.50000 418.400000
8869 16214 10912 1 109.50000 418.400000
10867 16214 10912 1 109.50000 418.400000
2790 16215 2799 1 109.50000 418.400000
2790 16215 4006 1 109.50000 418.400000
2790 16215 10617 1 109.50000 418.400000
2799 16215 4006 1 109.50000 418.400000
2799 16215 10617 1 109.50000 418.400000
4006 16215 10617 1 109.50000 418.400000
3041 16216 6187 1 109.50000 418.400000
3041 16216 11243 1 109.50000 418.400000
3041 16216 11265 1 109.50000 418.400000
6187 16216 11243 1 109.50000 418.400000
6187 16216 11265 1 109.50000 418.400000
11243 16216 11265 1 109.50000 418.400000
6330 16217 6891 1 109.50000 418.400000
6330 16217 9789 1 109.50000 418.400000
6330 16217 9819 1 109.50000 418.400000
6891 16217 9789 1 109.50000 418.400000
6891 16217 9819 1 109.50000 418.400000
9789 16217 9819 1 109.50000 418.400000
4697 16218 8967 1 109.50000 418.400000
4697 16218 10889 1 109.50000 418.400000
4697 16218 10914 1 109.50000 418.400000
8967 16218 10889 1 109.50000 418.400000
8967 16218 10914 1 109.50000 418.400000
10889 16218 10914 1 109.50000 418.400000
2103 16219 2411 1 109.50000 418.400000
2103 16219 8577 1 109.50000 418.400000
2103 16219 8706 1 109.50000 418.400000
2411 16219 8577 1 109.50000 418.400000
2411 16219 8706 1 109.50000 418.400000
8577 16219 8706 1 109.50000 418.400000
2102 16220 3651 1 109.50000 418.400000
2102 16220 5999 1 109.50000 418.400000
2102 16220 10884 1 109.50000 418.400000
3651 16220 5999 1 109.50000 418.400000
3651 16220 10884 1 109.50000 418.400000
5999 16220 10884 1 109.50000 418.400000
8911 16221 9425 1 109.50000 418.400000
8911 16221 10211 1 109.50000 418.400000
8911 16221 10915 1 109.50000 418.400000
9425 16221 10211 1 109.50000 418.400000
9425 16221 10915 1 109.50000 418.400000
10211 16221 10915 1 109.50000 418.400000
9582 16222 9593 1 109.50000 418.400000
9582 16222 10832 1 109.50000 418.400000
9582 16222 10916 1 109.50000 418.400000
9593 16222 10832 1 109.50000 418.400000
9593 16222 10916 1 109.50000 418.400000
10832 16222 10916 1 109.50000 418.400000
2373 16223 4155 1 109.50000 418.400000
2373 16223 10138 1 109.50000 418.400000
2373 16223 10917 1 109.50000 418.400000
4155 16223 10138 1 109.50000 418.400000
4155 16223 10917 1 109.50000 418.400000
10138 16223 10917 1 109.50000 418.400000
2769 16224 6783 1 109.50000 418.400000
2769 16224 9772 1 109.50000 418.400000
2769 16224 10714 1 109.50000 418.400000
6783 16224 9772 1 109.50000 418.400000
6783 16224 10714 1 109.50000 418.400000
9772 16224 10714 1 109.50000 418.400000
3149 16225 7071 1 109.50000 418.400000
3149 16225 8531 1 109.50000 418.400000
3149 16225 10282 1 109.50000 418.400000
7071 16225 8531 1 109.50000 418.400000
7071 16225 10282 1 109.50000 418.400000
8531 16225 10282 1 109.50000 418.400000
3060 16226 9600 1 109.50000 418.400000
3060 16226 10597 1 109.50000 418.400000
3060 16226 10918 1 109.50000 418.400000
9600 16226 10597 1 109.50000 418.400000
9600 16226 10918 1 109.50000 418.400000
10597 16226 10918 1 109.50000 418.400000
6939 16227 9172 1 109.50000 418.400000
6939 16227 11186 1 109.50000 418.400000
6939 16227 11324 1 109.50000 418.400000
9172 16227 11186 1 109.50000 418.400000
9172 16227 11324 1 109.50000 418.400000
11186 16227 11324 1 109.50000 418.400000
1876 16228 8050 1 109.50000 418.400000
1876 16228 9047 1 109.50000 418.400000
1876 16228 10581 1 109.50000 418.400000
8050 16228 9047 1 109.50000 418.400000
8050 16228 10581 1 109.50000 418.400000
9047 16228 10581 1 109.50000 418.400000
427 16229 7259 1 109.50000 418.400000
427 16229 7685 1 109.50000 418.400000
427 16229 10797 1 109.50000 418.400000
7259 16229 7685 1 109.50000 418.400000
7259 16229 10797 1 109.50000 418.400000
7685 16229 10797 1 109.50000 418.400000
385 16230 4541 1 109.50000 418.400000
385 16230 8253 1 109.50000 418.400000
385 16230 9618 1 109.50000 418.400000
4541 16230 8253 1 109.50000 418.400000
4541 16230 9618 1 109.50000 418.400000
8253 16230 9618 1 109.50000 418.400000
4529 16231 9957 1 109.50000 418.400000
4529 16231 10150 1 109.50000 418.400000
4529 16231 10151 1 109.50000 418.400000
9957 16231 10150 1 109.50000 418.400000
9957 16231 10151 1 109.50000 418.400000
10150 16231 10151 1 109.50000 418.400000
551 16232 2245 1 109.50000 418.400000
551 16232 4003 1 109.50000 418.400000
551 16232 6297 1 109.50000 418.400000
2245 16232 4003 1 109.50000 418.400000
2245 16232 6297 1 109.50000 418.400000
4003 16232 6297 1 109.50000 418.400000
5049 16233 9041 1 109.50000 418.400000
5049 16233 9042 1 109.50000 418.400000
5049 16233 10919 1 109.50000 418.400000
9041 16233 9042 1 109.50000 418.400000
9041 16233 10919 1 109.50000 418.400000
9042 16233 10919 1 109.50000 418.400000
91 16234 9216 1 109.50000 418.400000
91 16234 9362 1 109.50000 418.400000
91 16234 10903 1 109.50000 418.400000
9216 16234 9362 1 109.50000 418.400000
9216 16234 10903 1 109.50000 418.400000
9362 16234 10903 1 109.50000 418.400000
6200 16235 7505 1 109.50000 418.400000
6200 16235 10687 1 109.50000 418.400000
6200 16235 10876 1 109.50000 418.400000
7505 16235 10687 1 109.50000 418.400000
7505 16235 10876 1 109.50000 418.400000
10687 16235 10876 1 109.50000 418.400000
4825 16236 6168 1 109.50000 418.400000
4825 16236 9103 1 109.50000 418.400000
4825 16236 10532 1 109.50000 418.400000
6168 16236 9103 1 109.50000 418.400000
6168 16236 10532 1 109.50000 418.400000
9103 16236 10532 1 109.50000 418.400000
7407 16237 8716 1 109.50000 418.400000
7407 16237 10921 1 109.50000 418.400000
7407 16237 10922 1 109.50000 418.400000
8716 16237 10921 1 109.50000 418.400000
8716 16237 10922 1 109.50000 418.400000
10921 16237 10922 1 109.50000 418.400000
5252 16238 5253 1 109.50000 418.400000
5252 16238 6619 1 109.50000 418.400000
5252 16238 10001 1 109.50000 418.400000
5253 16238 6619 1 109.50000 418.400000
5253 16238 10001 1 109.50000 418.400000
6619 16238 10001 1 109.50000 418.400000
5786 16239 9740 1 109.50000 418.400000
5786 16239 10814 1 109.50000 418.400000
5786 16239 11160 1 109.50000 418.400000
9740 16239 10814 1 109.50000 418.400000
9740 16239 11160 1 109.50000 418.400000
10814 16239 11160 1 109.50000 418.400000
2523 16240 6872 1 109.50000 418.400000
2523 16240 8185 1 109.50000 418.400000
2523 16240 9259 1 109.50000 418.400000
6872 16240 8185 1 109.50000 418.400000
6872 16240 9259 1 109.50000 418.400000
8185 16240 9259 1 109.50000 418.400000
3509 16241 5943 1 109.50000 418.400000
3509 16241 5944 1 109.50000 418.400000
3509 16241 5945 1 109.50000 418.400000
5943 16241 5944 1 109.50000 418.400000
5943 16241 5945 1 109.50000 418.400000
5944 16241 5945 1 109.50000 418.400000
6441 16242 8569 1 109.50000 418.400000
6441 16242 10759 1 109.50000 418.400000
6441 16242 11452 1 109.50000 418.400000
8569 16242 10759 1 109.50000 418.400000
8569 16242 11452 1 109.50000 418.400000
10759 16242 11452 1 109.50000 418.400000
7975 16243 9989 1 109.50000 418.400000
7975 16243 10269 1 109.50000 418.400000
7975 16243 10924 1 109.50000 418.400000
9989 16243 10269 1 109.50000 418.400000
9989 16243 10924 1 109.50000 418.400000
10269 16243 10924 1 109.50000 418.400000
3889 16244 6295 1 109.50000 418.400000
3889 16244 7887 1 109.50000 418.400000
3889 16244 8411 1 109.50000 418.400000
6295 16244 7887 1 109.50000 418.400000
6295 16244 8411 1 109.50000 418.400000
7887 16244 8411 1 109.50000 418.400000
3570 16245 8709 1 109.50000 418.400000
3570 16245 9743 1 109.50000 418.400000
3570 16245 11173 1 109.50000 418.400000
8709 16245 9743 1 109.50000 418.400000
8709 16245 11173 1 109.50000 418.400000
9743 16245 11173 1 109.50000 418.400000
5237 16246 6122 1 109.50000 418.400000
5237 16246 6784 1 109.50000 418.400000
5237 16246 10629 1 109.50000 418.400000
6122 16246 6784 1 109.50000 418.400000
6122 16246 10629 1 109.50000 418.400000
6784 16246 10629 1 109.50000 418.400000
4279 16247 6109 1 109.50000 418.400000
4279 16247 10376 1 109.50000 418.400000
4279 16247 10925 1 109.50000 418.400000
6109 16247 10376 1 109.50000 418.400000
6109 16247 10925 1 109.50000 418.400000
10376 16247 10925 1 109.50000 418.400000
1436 16248 4389 1 109.50000 418.400000
1436 16248 8757 1 109.50000 418.400000
1436 16248 10712 1 109.50000 418.400000
4389 16248 8757 1 109.50000 418.400000
4389 16248 10712 1 109.50000 418.400000
8757 16248 10712 1 109.50000 418.400000
1870 16249 2546 1 109.50000 418.400000
1870 16249 9122 1 109.50000 418.400000
1870 16249 9518 1 109.50000 418.400000
2546 16249 9122 1 109.50000 418.400000
2546 16249 9518 1 109.50000 418.400000
9122 16249 9518 1 109.50000 418.400000
8298 16250 10570 1 109.50000 418.400000
8298 16250 10926 1 109.50000 418.400000
8298 16250 11402 1 109.50000 418.400000
10570 16250 10926 1 109.50000 418.400000
10570 16250 11402 1 109.50000 418.400000
10926 16250 11402 1 109.50000 418.400000
1844 16251 10453 1 109.50000 418.400000
1844 16251 10908 1 109.50000 418.400000
1844 16251 10927 1 109.50000 418.400000
10453 16251 10908 1 109.50000 418.400000
10453 16251 10927 1 109.50000 418.400000
10908 16251 10927 1 109.50000 418.400000
4031 16252 7264 1 109.50000 418.400000
4031 16252 10488 1 109.50000 418.400000
4031 16252 11434 1 109.50000 418.400000
7264 16252 10488 1 109.50000 418.400000
7264 16252 11434 1 109.50000 418.400000
10488 16252 11434 1 109.50000 418.400000
5550 16253 7615 1 109.50000 418.400000
5550 16253 10928 1 109.50000 418.400000
5550 16253 10929 1 109.50000 418.400000
7615 16253 10928 1 109.50000 418.400000
7615 16253 10929 1 109.50000 418.400000
10928 16253 10929 1 109.50000 418.400000
9300 16254 9349 1 109.50000 418.400000
9300 16254 10930 1 109.50000 418.400000
9300 16254 11017 1 109.50000 418.400000
9349 16254 10930 1 109.50000 418.400000
9349 16254 11017 1 109.50000 418.400000
10930 16254 11017 1 109.50000 418.400000
1462 16255 8608 1 109.50000 418.400000
1462 16255 9525 1 109.50000 418.400000
1462 16255 9947 1 109.50000 418.400000
8608 16255 9525 1 109.50000 418.400000
8608 16255 9947 1 109.50000 418.400000
9525 16255 9947 1 109.50000 418.400000
2156 16256 4857 1 109.50000 418.400000
2156 16256 9074 1 109.50000 418.400000
2156 16256 10426 1 109.50000 418.400000
4857 16256 9074 1 109.50000 418.400000
4857 16256 10426 1 109.50000 418.400000
9074 16256 10426 1 109.50000 418.400000
1828 16257 2231 1 109.50000 418.400000
1828 16257 5705 1 109.50000 418.400000
1828 16257 10042 1 109.50000 418.400000
2231 16257 5705 1 109.50000 418.400000
2231 16257 10042 1 109.50000 418.400000
5705 16257 10042 1 109.50000 418.400000
2028 16258 3313 1 109.50000 418.400000
2028 16258 7727 1 109.50000 418.400000
2028 16258 9359 1 109.50000 418.400000
3313 16258 7727 1 109.50000 418.400000
3313 16258 9359 1 109.50000 418.400000
7727 16258 9359 1 109.50000 418.400000
1452 16259 9647 1 109.50000 418.400000
1452 16259 10487 1 109.50000 418.400000
1452 16259 10657 1 109.50000 418.400000
9647 16259 10487 1 109.50000 418.400000
9647 16259 10657 1 109.50000 418.400000
10487 16259 10657 1 109.50000 418.400000
3043 16260 3046 1 109.50000 418.400000
3043 16260 8683 1 109.50000 418.400000
3043 16260 10025 1 109.50000 418.400000
3046 16260 8683 1 109.50000 418.400000
3046 16260 10025 1 109.50000 418.400000
8683 16260 10025 1 109.50000 418.400000
7435 16261 9528 1 109.50000 418.400000
7435 16261 10334 1 109.50000 418.400000
7435 16261 10931 1 109.50000 418.400000
9528 16261 10334 1 109.50000 418.400000
9528 16261 10931 1 109.50000 418.400000
10334 16261 10931 1 109.50000 418.400000
6047 16262 6552 1 109.50000 418.400000
6047 16262 6587 1 109.50000 418.400000
6047 16262 7963 1 109.50000 418.400000
6552 16262 6587 1 109.50000 418.400000
6552 16262 7963 1 109.50000 418.400000
6587 16262 7963 1 109.50000 418.400000
1362 16263 7116 1 109.50000 418.400000
1362 16263 9829 1 109.50000 418.400000
1362 16263 10732 1 109.50000 418.400000
7116 16263 9829 1 109.50000 418.400000
7116 16263 10732 1 109.50000 418.400000
9829 16263 10732 1 109.50000 418.400000
1149 16264 4240 1 109.50000 418.400000
1149 16264 7147 1 109.50000 418.400000
1149 16264 10834 1 109.50000 418.400000
4240 16264 7147 1 109.50000 418.400000
4240 16264 10834 1 109.50000 418.400000
7147 16264 10834 1 109.50000 418.400000
5381 16265 8630 1 109.50000 418.400000
5381 16265 8700 1 109.50000 418.400000
5381 16265 10932 1 109.50000 418.400000
8630 16265 8700 1 109.50000 418.400000
8630 16265 10932 1 109.50000 418.400000
8700 16265 10932 1 109.50000 418.400000
206 16266 4662 1 109.50000 418.400000
206 16266 10277 1 109.50000 418.400000
206 16266 10737 1 109.50000 418.400000
4662 16266 10277 1 109.50000 418.400000
4662 16266 10737 1 109.50000 418.400000
10277 16266 10737 1 109.50000 418.400000
3515 16267 3826 1 109.50000 418.400000
3515 16267 5072 1 109.50000 418.400000
3515 16267 6175 1 109.50000 418.400000
3826 16267 5072 1 109.50000 418.400000
3826 16267 6175 1 109.50000 418.400000
5072 16267 6175 1 109.50000 418.400000
361 16268 2397 1 109.50000 418.400000
361 16268 10504 1 109.50000 418.400000
361 16268 10933 1 109.50000 418.400000
2397 16268 10504 1 109.50000 418.400000
2397 16268 10933 1 109.50000 418.400000
10504 16268 10933 1 109.50000 418.400000
6108 16269 6197 1 109.50000 418.400000
6108 16269 10801 1 109.50000 418.400000
6108 16269 11346 1 109.50000 418.400000
6197 16269 10801 1 109.50000 418.400000
6197 16269 11346 1 109.50000 418.400000
10801 16269 11346 1 109.50000 418.400000
1294 16270 1443 1 109.50000 418.400000
1294 16270 3468 1 109.50000 418.400000
1294 16270 9661 1 109.50000 418.400000
1443 16270 3468 1 109.50000 418.400000
1443 16270 9661 1 109.50000 418.400000
3468 16270 9661 1 109.50000 418.400000
1904 16271 9358 1 109.50000 418.400000
1904 16271 9901 1 109.50000 418.400000
1904 16271 10934 1 109.50000 418.400000
9358 16271 9901 1 109.50000 418.400000
9358 16271 10934 1 109.50000 418.400000
9901 16271 10934 1 109.50000 418.400000
73 16272 3562 1 109.50000 418.400000
73 16272 3564 1 109.50000 418.400000
73 16272 3565 1 109.50000 418.400000
3562 16272 3564 1 109.50000 418.400000
3562 16272 3565 1 109.50000 418.400000
3564 16272 3565 1 109.50000 418.400000
1975 16273 1977 1 109.50000 418.400000
1975 16273 6247 1 109.50000 418.400000
1975 16273 10636 1 109.50000 418.400000
1977 16273 6247 1 109.50000 418.400000
1977 16273 10636 1 109.50000 418.400000
6247 16273 10636 1 109.50000 418.400000
538 16274 6125 1 109.50000 418.400000
538 16274 7819 1 109.50000 418.400000
538 16274 10443 1 109.50000 418.400000
6125 16274 7819 1 109.50000 418.400000
6125 16274 10443 1 109.50000 418.400000
7819 16274 10443 1 109.50000 418.400000
1176 16275 3705 1 109.50000 418.400000
1176 16275 7655 1 109.50000 418.400000
1176 16275 10493 1 109.50000 418.400000
3705 16275 7655 1 109.50000 418.400000
3705 16275 10493 1 109.50000 418.400000
7655 16275 10493 1 109.50000 418.400000
6317 16276 10681 1 109.50000 418.400000
6317 16276 10863 1 109.50000 418.400000
6317 16276 10935 1 109.50000 418.400000
10681 16276 10863 1 109.50000 418.400000
10681 16276 10935 1 109.50000 418.400000
10863 16276 10935 1 109.50000 418.400000
1357 16277 5585 1 109.50000 418.400000
1357 16277 6812 1 109.50000 418.400000
1357 16277 8417 1 109.50000 418.400000
5585 16277 6812 1 109.50000 418.400000
5585 16277 8417 1 109.50000 418.400000
6812 16277 8417 1 109.50000 418.400000
1575 16278 1576 1 109.50000 418.400000
1575 16278 8450 1 109.50000 418.400000
1575 16278 9851 1 109.50000 418.400000
1576 16278 8450 1 109.50000 418.400000
1576 16278 9851 1 109.50000 418.400000
8450 16278 9851 1 109.50000 418.400000
1485 16279 3481 1 109.50000 418.400000
1485 16279 6803 1 109.50000 418.400000
1485 16279 9706 1 109.50000 418.400000
3481 16279 6803 1 109.50000 418.400000
3481 16279 9706 1 109.50000 418.400000
6803 16279 9706 1 109.50000 418.400000
452 16280 6068 1 109.50000 418.400000
452 16280 8026 1 109.50000 418.400000
452 16280 10878 1 109.50000 418.400000
6068 16280 8026 1 109.50000 418.400000
6068 16280 10878 1 109.50000 418.400000
8026 16280 10878 1 109.50000 418.400000
320 16281 3192 1 109.50000 418.400000
320 16281 7764 1 109.50000 418.400000
320 16281 10337 1 109.50000 418.400000
3192 16281 7764 1 109.50000 418.400000
3192 16281 10337 1 109.50000 418.400000
7764 16281 10337 1 109.50000 418.400000
5505 16282 7125 1 109.50000 418.400000
5505 16282 7222 1 109.50000 418.400000
5505 16282 9985 1 109.50000 418.400000
7125 16282 7222 1 109.50000 418.400000
7125 16282 9985 1 109.50000 418.400000
7222 16282 9985 1 109.50000 418.400000
1070 16283 5255 1 109.50000 418.400000
1070 16283 9608 1 109.50000 418.400000
1070 16283 10875 1 109.50000 418.400000
5255 16283 9608 1 109.50000 418.400000
5255 16283 10875 1 109.50000 418.400000
9608 16283 10875 1 109.50000 418.400000
3388 16284 5659 1 109.50000 418.400000
3388 16284 9333 1 109.50000 418.400000
3388 16284 10045 1 109.50000 418.400000
5659 16284 9333 1 109.50000 418.400000
5659 16284 10045 1 109.50000 418.400000
9333 16284 10045 1 109.50000 418.400000
1632 16285 8767 1 109.50000 418.400000
1632 16285 10715 1 109.50000 418.400000
1632 16285 10936 1 109.50000 418.400000
8767 16285 10715 1 109.50000 418.400000
8767 16285 10936 1 109.50000 418.400000
10715 16285 10936 1 109.50000 418.400000
3801 16286 4804 1 109.50000 418.400000
3801 16286 7027 1 109.50000 418.400000
3801 16286 10683 1 109.50000 418.400000
4804 16286 7027 1 109.50000 418.400000
4804 16286 10683 1 109.50000 418.400000
7027 16286 10683 1 109.50000 418.400000
8611 16287 8614 1 109.50000 418.400000
8611 16287 8840 1 109.50000 418.400000
8611 16287 10937 1 109.50000 418.400000
8614 16287 8840 1 109.50000 418.400000
8614 16287 10937 1 109.50000 418.400000
8840 16287 10937 1 109.50000 418.400000
6142 16288 6337 1 109.50000 418.400000
6142 16288 7735 1 109.50000 418.400000
6142 16288 10938 1 109.50000 418.400000
6337 16288 7735 1 109.50000 418.400000
6337 16288 10938 1 109.50000 418.400000
7735 16288 10938 1 109.50000 418.400000
3318 16289 5479 1 109.50000 418.400000
3318 16289 6064 1 109.50000 418.400000
3318 16289 10320 1 109.50000 418.400000
5479 16289 6064 1 109.50000 418.400000
5479 16289 10320 1 109.50000 418.400000
6064 16289 10320 1 109.50000 418.400000
1178 16290 6597 1 109.50000 418.400000
1178 16290 7702 1 109.50000 418.400000
1178 16290 9832 1 109.50000 418.400000
6597 16290 7702 1 109.50000 418.400000
6597 16290 9832 1 109.50000 418.400000
7702 16290 9832 1 109.50000 418.400000
1727 16291 6638 1 109.50000 418.400000
1727 16291 7818 1 109.50000 418.400000
1727 16291 11309 1 109.50000 418.400000
6638 16291 7818 1 109.50000 418.400000
6638 16291 11309 1 109.50000 418.400000
7818 16291 11309 1 109.50000 418.400000
352 16292 1479 1 109.50000 418.400000
352 16292 7944 1 109.50000 418.400000
352 16292 10939 1 109.50000 418.400000
1479 16292 7944 1 109.50000 418.400000
1479 16292 10939 1 109.50000 418.400000
7944 16292 10939 1 109.50000 418.400000
8412 16293 10940 1 109.50000 418.400000
8412 16293 11162 1 109.50000 418.400000
8412 16293 11320 1 109.50000 418.400000
10940 16293 11162 1 109.50000 418.400000
10940 16293 11320 1 109.50000 418.400000
11162 16293 11320 1 109.50000 418.400000
3844 16294 6584 1 109.50000 418.400000
3844 16294 9265 1 109.50000 418.400000
3844 16294 10941 1 109.50000 418.400000
6584 16294 9265 1 109.50000 418.400000
6584 16294 10941 1 109.50000 418.400000
9265 16294 10941 1 109.50000 418.400000
2961 16295 7423 1 109.50000 418.400000
2961 16295 9013 1 109.50000 418.400000
2961 16295 9369 1 109.50000 418.400000
7423 16295 9013 1 109.50000 418.400000
7423 16295 9369 1 109.50000 418.400000
9013 16295 9369 1 109.50000 418.400000
5567 16296 7131 1 109.50000 418.400000
5567 16296 7132 1 109.50000 418.400000
5567 16296 10084 1 109.50000 418.400000
7131 16296 7132 1 109.50000 418.400000
7131 16296 10084 1 109.50000 418.400000
7132 16296 10084 1 109.50000 418.400000
7825 16297 10058 1 109.50000 418.400000
7825 16297 10217 1 109.50000 418.400000
7825 16297 10456 1 109.50000 418.400000
10058 16297 10217 1 109.50000 418.400000
10058 16297 10456 1 109.50000 418.400000
10217 16297 10456 1 109.50000 418.400000
2629 16298 5862 1 109.50000 418.400000
2629 16298 10943 1 109.50000 418.400000
2629 16298 10944 1 109.50000 418.400000
5862 16298 10943 1 109.50000 418.400000
5862 16298 10944 1 109.50000 418.400000
10943 16298 10944 1 109.50000 418.400000
3737 16299 6679 1 109.50000 418.400000
3737 16299 7679 1 109.50000 418.400000
3737 16299 9708 1 109.50000 418.400000
6679 16299 7679 1 109.50000 418.400000
6679 16299 9708 1 109.50000 418.400000
7679 16299 9708 1 109.50000 418.400000
976 16300 3014 1 109.50000 418.400000
976 16300 10811 1 109.50000 418.400000
976 16300 10945 1 109.50000 418.400000
3014 16300 10811 1 109.50000 418.400000
3014 16300 10945 1 109.50000 418.400000
10811 16300 10945 1 109.50000 418.400000
7228 16301 8653 1 109.50000 418.400000
7228 16301 9113 1 109.50000 418.400000
7228 16301 10946 1 109.50000 418.400000
8653 16301 9113 1 109.50000 418.400000
8653 16301 10946 1 109.50000 418.400000
9113 16301 10946 1 109.50000 418.400000
3716 16302 6459 1 109.50000 418.400000
3716 16302 9341 1 109.50000 418.400000
3716 16302 10947 1 109.50000 418.400000
6459 16302 9341 1 109.50000 418.400000
6459 16302 10947 1 109.50000 418.400000
9341 16302 10947 1 109.50000 418.400000
2822 16303 4848 1 109.50000 418.400000
2822 16303 4849 1 109.50000 418.400000
2822 16303 10948 1 109.50000 418.400000
4848 16303 4849 1 109.50000 418.400000
4848 16303 10948 1 109.50000 418.400000
4849 16303 10948 1 109.50000 418.400000
107 16304 2062 1 109.50000 418.400000
107 16304 2768 1 109.50000 418.400000
107 16304 10527 1 109.50000 418.400000
2062 16304 2768 1 109.50000 418.400000
2062 16304 10527 1 109.50000 418.400000
2768 16304 10527 1 109.50000 418.400000
518 16305 9247 1 109.50000 418.400000
518 16305 9744 1 109.50000 418.400000
518 16305 11527 1 109.50000 418.400000
9247 16305 9744 1 109.50000 418.400000
9247 16305 11527 1 109.50000 418.400000
9744 16305 11527 1 109.50000 418.400000
1017 16306 8550 1 109.50000 418.400000
1017 16306 10475 1 109.50000 418.400000
1017 16306 10857 1 109.50000 418.400000
8550 16306 10475 1 109.50000 418.400000
8550 16306 10857 1 109.50000 418.400000
10475 16306 10857 1 109.50000 418.400000
10219 16307 10860 1 109.50000 418.400000
10219 16307 10951 1 109.50000 418.400000
10219 16307 10952 1 109.50000 418.400000
10860 16307 10951 1 109.50000 418.400000
10860 16307 10952 1 109.50000 418.400000
10951 16307 10952 1 109.50000 418.400000
9066 16308 9976 1 109.50000 418.400000
9066 16308 10348 1 109.50000 418.400000
9066 16308 10953 1 109.50000 418.400000
9976 16308 10348 1 109.50000 418.400000
9976 16308 10953 1 109.50000 418.400000
10348 16308 10953 1 109.50000 418.400000
836 16309 4727 1 109.50000 418.400000
836 16309 10013 1 109.50000 418.400000
836 16309 10900 1 109.50000 418.400000
4727 16309 10013 1 109.50000 418.400000
4727 16309 10900 1 109.50000 418.400000
10013 16309 10900 1 109.50000 418.400000
4139 16310 4361 1 109.50000 418.400000
4139 16310 5260 1 109.50000 418.400000
4139 16310 9654 1 109.50000 418.400000
4361 16310 5260 1 109.50000 418.400000
4361 16310 9654 1 109.50000 418.400000
5260 16310 9654 1 109.50000 418.400000
1826 16311 1989 1 109.50000 418.400000
1826 16311 8164 1 109.50000 418.400000
1826 16311 10954 1 109.50000 418.400000
1989 16311 8164 1 109.50000 418.400000
1989 16311 10954 1 109.50000 418.400000
8164 16311 10954 1 109.50000 418.400000
5545 16312 5547 1 109.50000 418.400000
5545 16312 7949 1 109.50000 418.400000
5545 16312 10955 1 109.50000 418.400000
5547 16312 7949 1 109.50000 418.400000
5547 16312 10955 1 109.50000 418.400000
7949 16312 10955 1 109.50000 418.400000
4955 16313 8067 1 109.50000 418.400000
4955 16313 10686 1 109.50000 418.400000
4955 16313 11393 1 109.50000 418.400000
8067 16313 10686 1 109.50000 418.400000
8067 16313 11393 1 109.50000 418.400000
10686 16313 11393 1 109.50000 418.400000
3075 16314 7994 1 109.50000 418.400000
3075 16314 9302 1 109.50000 418.400000
3075 16314 10640 1 109.50000 418.400000
7994 16314 9302 1 109.50000 418.400000
7994 16314 10640 1 109.50000 418.400000
9302 16314 10640 1 109.50000 418.400000
1057 16315 5507 1 109.50000 418.400000
1057 16315 8477 1 109.50000 418.400000
1057 16315 10956 1 109.50000 418.400000
5507 16315 8477 1 109.50000 418.400000
5507 16315 10956 1 109.50000 418.400000
8477 16315 10956 1 109.50000 418.400000
2816 16316 3206 1 109.50000 418.400000
2816 16316 9998 1 109.50000 418.400000
2816 16316 10141 1 109.50000 418.400000
3206 16316 9998 1 109.50000 418.400000
3206 16316 10141 1 109.50000 418.400000
9998 16316 10141 1 109.50000 418.400000
3855 16317 6298 1 109.50000 418.400000
3855 16317 7566 1 109.50000 418.400000
3855 16317 10242 1 109.50000 418.400000
6298 16317 7566 1 109.50000 418.400000
6298 16317 10242 1 109.50000 418.400000
7566 16317 10242 1 109.50000 418.400000
2206 16318 4940 1 109.50000 418.400000
2206 16318 10074 1 109.50000 418.400000
2206 16318 10825 1 109.50000 418.400000
4940 16318 10074 1 109.50000 418.400000
4940 16318 10825 1 109.50000 418.400000
10074 16318 10825 1 109.50000 418.400000
1419 16319 6711 1 109.50000 418.400000
1419 16319 8831 1 109.50000 418.400000
1419 16319 9121 1 109.50000 418.400000
6711 16319 8831 1 109.50000 418.400000
6711 16319 9121 1 109.50000 418.400000
8831 16319 9121 1 109.50000 418.400000
3524 16320 5373 1 109.50000 418.400000
3524 16320 5772 1 109.50000 418.400000
3524 16320 9263 1 109.50000 418.400000
5373 16320 5772 1 109.50000 418.400000
5373 16320 9263 1 109.50000 418.400000
5772 16320 9263 1 109.50000 418.400000
4265 16321 6654 1 109.50000 418.400000
4265 16321 7372 1 109.50000 418.400000
4265 16321 7750 1 109.50000 418.400000
6654 16321 7372 1 109.50000 418.400000
6654 16321 7750 1 109.50000 418.400000
7372 16321 7750 1 109.50000 418.400000
3987 16322 7079 1 109.50000 418.400000
3987 16322 8625 1 109.50000 418.400000
3987 16322 10631 1 109.50000 418.400000
7079 16322 8625 1 109.50000 418.400000
7079 16322 10631 1 109.50000 418.400000
8625 16322 10631 1 109.50000 418.400000
6724 16323 6974 1 109.50000 418.400000
6724 16323 7164 1 109.50000 418.400000
6724 16323 10958 1 109.50000 418.400000
6974 16323 7164 1 109.50000 418.400000
6974 16323 10958 1 109.50000 418.400000
7164 16323 10958 1 109.50000 418.400000
6390 16324 7754 1 109.50000 418.400000
6390 16324 10565 1 109.50000 418.400000
6390 16324 10842 1 109.50000 418.400000
7754 16324 10565 1 109.50000 418.400000
7754 16324 10842 1 109.50000 418.400000
10565 16324 10842 1 109.50000 418.400000
985 16325 10949 1 109.50000 418.400000
985 16325 11278 1 109.50000 418.400000
985 16325 11448 1 109.50000 418.400000
10949 16325 11278 1 109.50000 418.400000
10949 16325 11448 1 109.50000 418.400000
11278 16325 11448 1 109.50000 418.400000
8492 16326 10959 1 109.50000 418.400000
8492 16326 10960 1 109.50000 418.400000
8492 16326 10961 1 109.50000 418.400000
10959 16326 10960 1 109.50000 418.400000
10959 16326 10961 1 109.50000 418.400000
10960 16326 10961 1 109.50000 418.400000
3137 16327 3523 1 109.50000 418.400000
3137 16327 8977 1 109.50000 418.400000
3137 16327 10962 1 109.50000 418.400000
3523 16327 8977 1 109.50000 418.400000
3523 16327 10962 1 109.50000 418.400000
8977 16327 10962 1 109.50000 418.400000
826 16328 2854 1 109.50000 418.400000
826 16328 5089 1 109.50000 418.400000
826 16328 10223 1 109.50000 418.400000
2854 16328 5089 1 109.50000 418.400000
2854 16328 10223 1 109.50000 418.400000
5089 16328 10223 1 109.50000 418.400000
4818 16329 6211 1 109.50000 418.400000
4818 16329 8183 1 109.50000 418.400000
4818 16329 10963 1 109.50000 418.400000
6211 16329 8183 1 109.50000 418.400000
6211 16329 10963 1 109.50000 418.400000
8183 16329 10963 1 109.50000 418.400000
10678 16330 10964 1 109.50000 418.400000
10678 16330 10965 1 109.50000 418.400000
10678 16330 11290 1 109.50000 418.400000
10964 16330 10965 1 109.50000 418.400000
10964 16330 11290 1 109.50000 418.400000
10965 16330 11290 1 109.50000 418.400000
3683 16331 5574 1 109.50000 418.400000
3683 16331 6864 1 109.50000 418.400000
3683 16331 10966 1 109.50000 418.400000
5574 16331 6864 1 109.50000 418.400000
5574 16331 10966 1 109.50000 418.400000
6864 16331 10966 1 109.50000 418.400000
2519 16332 8821 1 109.50000 418.400000
2519 16332 9714 1 109.50000 418.400000
2519 16332 10113 1 109.50000 418.400000
8821 16332 9714 1 109.50000 418.400000
8821 16332 10113 1 109.50000 418.400000
9714 16332 10113 1 109.50000 418.400000
7033 16333 9109 1 109.50000 418.400000
7033 16333 10729 1 109.50000 418.400000
7033 16333 10967 1 109.50000 418.400000
9109 16333 10729 1 109.50000 418.400000
9109 16333 10967 1 109.50000 418.400000
10729 16333 10967 1 109.50000 418.400000
795 16334 5177 1 109.50000 418.400000
795 16334 10806 1 109.50000 418.400000
795 16334 10968 1 109.50000 418.400000
5177 16334 10806 1 109.50000 418.400000
5177 16334 10968 1 109.50000 418.400000
10806 16334 10968 1 109.50000 418.400000
8740 16335 10744 1 109.50000 418.400000
8740 16335 10824 1 109.50000 418.400000
8740 16335 10969 1 109.50000 418.400000
10744 16335 10824 1 109.50000 418.400000
10744 16335 10969 1 109.50000 418.400000
10824 16335 10969 1 109.50000 418.400000
5353 16336 8112 1 109.50000 418.400000
5353 16336 9774 1 109.50000 418.400000
5353 16336 10970 1 109.50000 418.400000
8112 16336 9774 1 109.50000 418.400000
8112 16336 10970 1 109.50000 418.400000
9774 16336 10970 1 109.50000 418.400000
7758 16337 10365 1 109.50000 418.400000
7758 16337 10388 1 109.50000 418.400000
7758 16337 10971 1 109.50000 418.400000
10365 16337 10388 1 109.50000 418.400000
10365 16337 10971 1 109.50000 418.400000
10388 16337 10971 1 109.50000 418.400000
8233 16338 9723 1 109.50000 418.400000
8233 16338 10130 1 109.50000 418.400000
8233 16338 10972 1 109.50000 418.400000
9723 16338 10130 1 109.50000 418.400000
9723 16338 10972 1 109.50000 418.400000
10130 16338 10972 1 109.50000 418.400000
4243 16339 4965 1 109.50000 418.400000
4243 16339 6556 1 109.50000 418.400000
4243 16339 8993 1 109.50000 418.400000
4965 16339 6556 1 109.50000 418.400000
4965 16339 8993 1 109.50000 418.400000
6556 16339 8993 1 109.50000 418.400000
1104 16340 6947 1 109.50000 418.400000
1104 16340 8109 1 109.50000 418.400000
1104 16340 10128 1 109.50000 418.400000
6947 16340 8109 1 109.50000 418.400000
6947 16340 10128 1 109.50000 418.400000
8109 16340 10128 1 109.50000 418.400000
1989 16341 1990 1 109.50000 418.400000
1989 16341 7199 1 109.50000 418.400000
1989 16341 10973 1 109.50000 418.400000
1990 16341 7199 1 109.50000 418.400000
1990 16341 10973 1 109.50000 418.400000
7199 16341 10973 1 109.50000 418.400000
66 16342 5220 1 109.50000 418.400000
66 16342 8262 1 109.50000 418.400000
66 16342 11180 1 109.50000 418.400000
5220 16342 8262 1 109.50000 418.400000
5220 16342 11180 1 109.50000 418.400000
8262 16342 11180 1 109.50000 418.400000
1306 16343 2398 1 109.50000 418.400000
1306 16343 2401 1 109.50000 418.400000
1306 16343 4936 1 109.50000 418.400000
2398 16343 2401 1 109.50000 418.400000
2398 16343 4936 1 109.50000 418.400000
2401 16343 4936 1 109.50000 418.400000
5454 16344 6877 1 109.50000 418.400000
5454 16344 10020 1 109.50000 418.400000
5454 16344 10975 1 109.50000 418.400000
6877 16344 10020 1 109.50000 418.400000
6877 16344 10975 1 109.50000 418.400000
10020 16344 10975 1 109.50000 418.400000
1572 16345 2632 1 109.50000 418.400000
1572 16345 4967 1 109.50000 418.400000
1572 16345 9026 1 109.50000 418.400000
2632 16345 4967 1 109.50000 418.400000
2632 16345 9026 1 109.50000 418.400000
4967 16345 9026 1 109.50000 418.400000
7881 16346 8818 1 109.50000 418.400000
7881 16346 10205 1 109.50000 418.400000
7881 16346 10763 1 109.50000 418.400000
8818 16346 10205 1 109.50000 418.400000
8818 16346 10763 1 109.50000 418.400000
10205 16346 10763 1 109.50000 418.400000
5394 16347 10592 1 109.50000 418.400000
5394 16347 10976 1 109.50000 418.400000
5394 16347 11387 1 109.50000 418.400000
10592 16347 10976 1 109.50000 418.400000
10592 16347 11387 1 109.50000 418.400000
10976 16347 11387 1 109.50000 418.400000
3224 16348 4080 1 109.50000 418.400000
3224 16348 4495 1 109.50000 418.400000
3224 16348 10736 1 109.50000 418.400000
4080 16348 4495 1 109.50000 418.400000
4080 16348 10736 1 109.50000 418.400000
4495 16348 10736 1 109.50000 418.400000
3467 16349 5385 1 109.50000 418.400000
3467 16349 9023 1 109.50000 418.400000
3467 16349 10769 1 109.50000 418.400000
5385 16349 9023 1 109.50000 418.400000
5385 16349 10769 1 109.50000 418.400000
9023 16349 10769 1 109.50000 418.400000
4613 16350 10919 1 109.50000 418.400000
4613 16350 10977 1 109.50000 418.400000
4613 16350 10978 1 109.50000 418.400000
10919 16350 10977 1 109.50000 418.400000
10919 16350 10978 1 109.50000 418.400000
10977 16350 10978 1 109.50000 418.400000
264 16351 1732 1 109.50000 418.400000
264 16351 10494 1 109.50000 418.400000
264 16351 10979 1 109.50000 418.400000
1732 16351 10494 1 109.50000 418.400000
1732 16351 10979 1 109.50000 418.400000
10494 16351 10979 1 109.50000 418.400000
7021 16352 7345 1 109.50000 418.400000
7021 16352 10964 1 109.50000 418.400000
7021 16352 10981 1 109.50000 418.400000
7345 16352 10964 1 109.50000 418.400000
7345 16352 10981 1 109.50000 418.400000
10964 16352 10981 1 109.50000 418.400000
4856 16353 4889 1 109.50000 418.400000
4856 16353 10367 1 109.50000 418.400000
4856 16353 10982 1 109.50000 418.400000
4889 16353 10367 1 109.50000 418.400000
4889 16353 10982 1 109.50000 418.400000
10367 16353 10982 1 109.50000 418.400000
1221 16354 2349 1 109.50000 418.400000
1221 16354 2602 1 109.50000 418.400000
1221 16354 10694 1 109.50000 418.400000
2349 16354 2602 1 109.50000 418.400000
2349 16354 10694 1 109.50000 418.400000
2602 16354 10694 1 109.50000 418.400000
4605 16355 8535 1 109.50000 418.400000
4605 16355 9573 1 109.50000 418.400000
4605 16355 9855 1 109.50000 418.400000
8535 16355 9573 1 109.50000 418.400000
8535 16355 9855 1 109.50000 418.400000
9573 16355 9855 1 109.50000 418.400000
1125 16356 4127 1 109.50000 418.400000
1125 16356 8807 1 109.50000 418.400000
1125 16356 10676 1 109.50000 418.400000
4127 16356 8807 1 109.50000 418.400000
4127 16356 10676 1 109.50000 418.400000
8807 16356 10676 1 109.50000 418.400000
7390 16357 10983 1 109.50000 418.400000
7390 16357 10984 1 109.50000 418.400000
7390 16357 10985 1 109.50000 418.400000
10983 16357 10984 1 109.50000 418.400000
10983 16357 10985 1 109.50000 418.400000
10984 16357 10985 1 109.50000 418.400000
3428 16358 8103 1 109.50000 418.400000
3428 16358 9157 1 109.50000 418.400000
3428 16358 10986 1 109.50000 418.400000
8103 16358 9157 1 109.50000 418.400000
8103 16358 10986 1 109.50000 418.400000
9157 16358 10986 1 109.50000 418.400000
242 16359 3690 1 109.50000 418.400000
242 16359 4646 1 109.50000 418.400000
242 16359 7486 1 109.50000 418.400000
3690 16359 4646 1 109.50000 418.400000
3690 16359 7486 1 109.50000 418.400000
4646 16359 7486 1 109.50000 418.400000
3546 16360 3888 1 109.50000 418.400000
3546 16360 6828 1 109.50000 418.400000
3546 16360 9203 1 109.50000 418.400000
3888 16360 6828 1 109.50000 418.400000
3888 16360 9203 1 109.50000 418.400000
6828 16360 9203 1 109.50000 418.400000
1528 16361 7517 1 109.50000 418.400000
1528 16361 8509 1 109.50000 418.400000
1528 16361 10874 1 109.50000 418.400000
7517 16361 8509 1 109.50000 418.400000
7517 16361 10874 1 109.50000 418.400000
8509 16361 10874 1 109.50000 418.400000
6531 16362 10395 1 109.50000 418.400000
6531 16362 10780 1 109.50000 418.400000
6531 16362 10987 1 109.50000 418.400000
10395 16362 10780 1 109.50000 418.400000
10395 16362 10987 1 109.50000 418.400000
10780 16362 10987 1 109.50000 418.400000
9191 16363 10671 1 109.50000 418.400000
9191 16363 10988 1 109.50000 418.400000
9191 16363 11455 1 109.50000 418.400000
10671 16363 10988 1 109.50000 418.400000
10671 16363 11455 1 109.50000 418.400000
10988 16363 11455 1 109.50000 418.400000
2639 16364 9480 1 109.50000 418.400000
2639 16364 10956 1 109.50000 418.400000
2639 16364 10989 1 109.50000 418.400000
9480 16364 10956 1 109.50000 418.400000
9480 16364 10989 1 109.50000 418.400000
10956 16364 10989 1 109.50000 418.400000
4221 16365 5270 1 109.50000 418.400000
4221 16365 10866 1 109.50000 418.400000
4221 16365 11443 1 109.50000 418.400000
5270 16365 10866 1 109.50000 418.400000
5270 16365 11443 1 109.50000 418.400000
10866 16365 11443 1 109.50000 418.400000
4504 16366 6012 1 109.50000 418.400000
4504 16366 8560 1 109.50000 418.400000
4504 16366 9704 1 109.50000 418.400000
6012 16366 8560 1 109.50000 418.400000
6012 16366 9704 1 109.50000 418.400000
8560 16366 9704 1 109.50000 418.400000
5816 16367 6239 1 109.50000 418.400000
5816 16367 6378 1 109.50000 418.400000
5816 16367 8142 1 109.50000 418.400000
6239 16367 6378 1 109.50000 418.400000
6239 16367 8142 1 109.50000 418.400000
6378 16367 8142 1 109.50000 418.400000
3242 16368 6114 1 109.50000 418.400000
3242 16368 7513 1 109.50000 418.400000
3242 16368 10669 1 109.50000 418.400000
6114 16368 7513 1 109.50000 418.400000
6114 16368 10669 1 109.50000 418.400000
7513 16368 10669 1 109.50000 418.400000
5671 16369 7291 1 109.50000 418.400000
5671 16369 10536 1 109.50000 418.400000
5671 16369 11460 1 109.50000 418.400000
7291 16369 10536 1 109.50000 418.400000
7291 16369 11460 1 109.50000 418.400000
10536 16369 11460 1 109.50000 418.400000
776 16370 7745 1 109.50000 418.400000
776 16370 9363 1 109.50000 418.400000
776 16370 10990 1 109.50000 418.400000
7745 16370 9363 1 109.50000 418.400000
7745 16370 10990 1 109.50000 418.400000
9363 16370 10990 1 109.50000 418.400000
6287 16371 8544 1 109.50000 418.400000
6287 16371 9431 1 109.50000 418.400000
6287 16371 10692 1 109.50000 418.400000
8544 16371 9431 1 109.50000 418.400000
8544 16371 10692 1 109.50000 418.400000
9431 16371 10692 1 109.50000 418.400000
516 16372 3339 1 109.50000 418.400000
516 16372 3596 1 109.50000 418.400000
516 16372 10982 1 109.50000 418.400000
3339 16372 3596 1 109.50000 418.400000
3339 16372 10982 1 109.50000 418.400000
3596 16372 10982 1 109.50000 418.400000
5627 16373 7257 1 109.50000 418.400000
5627 16373 10991 1 109.50000 418.400000
5627 16373 11459 1 109.50000 418.400000
7257 16373 10991 1 109.50000 418.400000
7257 16373 11459 1 109.50000 418.400000
10991 16373 11459 1 109.50000 418.400000
295 16374 7237 1 109.50000 418.400000
295 16374 9160 1 109.50000 418.400000
295 16374 10775 1 109.50000 418.400000
7237 16374 9160 1 109.50000 418.400000
7237 16374 10775 1 109.50000 418.400000
9160 16374 10775 1 109.50000 418.400000
4863 16375 10333 1 109.50000 418.400000
4863 16375 10444 1 109.50000 418.400000
4863 16375 10724 1 109.50000 418.400000
10333 16375 10444 1 109.50000 418.400000
10333 16375 10724 1 109.50000 418.400000
10444 16375 10724 1 109.50000 418.400000
3785 16376 6140 1 109.50000 418.400000
3785 16376 6252 1 109.50000 418.400000
3785 16376 6504 1 109.50000 418.400000
6140 16376 6252 1 109.50000 418.400000
6140 16376 6504 1 109.50000 418.400000
6252 16376 6504 1 109.50000 418.400000
5923 16377 6104 1 109.50000 418.400000
5923 16377 8209 1 109.50000 418.400000
5923 16377 10951 1 109.50000 418.400000
6104 16377 8209 1 109.50000 418.400000
6104 16377 10951 1 109.50000 418.400000
8209 16377 10951 1 109.50000 418.400000
6564 16378 7545 1 109.50000 418.400000
6564 16378 7599 1 109.50000 418.400000
6564 16378 7998 1 109.50000 418.400000
7545 16378 7599 1 109.50000 418.400000
7545 16378 7998 1 109.50000 418.400000
7599 16378 7998 1 109.50000 418.400000
2119 16379 8387 1 109.50000 418.400000
2119 16379 8690 1 109.50000 418.400000
2119 16379 10641 1 109.50000 418.400000
8387 16379 8690 1 109.50000 418.400000
8387 16379 10641 1 109.50000 418.400000
8690 16379 10641 1 109.50000 418.400000
2056 16380 3636 1 109.50000 418.400000
2056 16380 8099 1 109.50000 418.400000
2056 16380 8101 1 109.50000 418.400000
3636 16380 8099 1 109.50000 418.400000
3636 16380 8101 1 109.50000 418.400000
8099 16380 8101 1 109.50000 418.400000
9199 16381 9595 1 109.50000 418.400000
9199 16381 9597 1 109.50000 418.400000
9199 16381 10643 1 109.50000 418.400000
9595 16381 9597 1 109.50000 418.400000
9595 16381 10643 1 109.50000 418.400000
9597 16381 10643 1 109.50000 418.400000
9200 16382 9871 1 109.50000 418.400000
9200 16382 9894 1 109.50000 418.400000
9200 16382 10531 1 109.50000 418.400000
9871 16382 9894 1 109.50000 418.400000
9871 16382 10531 1 109.50000 418.400000
9894 16382 10531 1 109.50000 418.400000
3207 16383 9561 1 109.50000 418.400000
3207 16383 11173 1 109.50000 418.400000
3207 16383 11365 1 109.50000 418.400000
9561 16383 11173 1 109.50000 418.400000
9561 16383 11365 1 109.50000 418.400000
11173 16383 11365 1 109.50000 418.400000
3033 16384 4759 1 109.50000 418.400000
3033 16384 10622 1 109.50000 418.400000
3033 16384 10662 1 109.50000 418.400000
4759 16384 10622 1 109.50000 418.400000
4759 16384 10662 1 109.50000 418.400000
10622 16384 10662 1 109.50000 418.400000
7752 16385 10460 1 109.50000 418.400000
7752 16385 10663 1 109.50000 418.400000
7752 16385 10992 1 109.50000 418.400000
10460 16385 10663 1 109.50000 418.400000
10460 16385 10992 1 109.50000 418.400000
10663 16385 10992 1 109.50000 418.400000
2737 16386 5238 1 109.50000 418.400000
2737 16386 5239 1 109.50000 418.400000
2737 16386 9820 1 109.50000 418.400000
5238 16386 5239 1 109.50000 418.400000
5238 16386 9820 1 109.50000 418.400000
5239 16386 9820 1 109.50000 418.400000
6644 16387 8276 1 109.50000 418.400000
6644 16387 9778 1 109.50000 418.400000
6644 16387 10838 1 109.50000 418.400000
8276 16387 9778 1 109.50000 418.400000
8276 16387 10838 1 109.50000 418.400000
9778 16387 10838 1 109.50000 418.400000
5886 16388 8266 1 109.50000 418.400000
5886 16388 10738 1 109.50000 418.400000
5886 16388 10993 1 109.50000 418.400000
8266 16388 10738 1 109.50000 418.400000
8266 16388 10993 1 109.50000 418.400000
10738 16388 10993 1 109.50000 418.400000
3314 16389 6979 1 109.50000 418.400000
3314 16389 8698 1 109.50000 418.400000
3314 16389 9409 1 109.50000 418.400000
6979 16389 8698 1 109.50000 418.400000
6979 16389 9409 1 109.50000 418.400000
8698 16389 9409 1 109.50000 418.400000
5850 16390 6958 1 109.50000 418.400000
5850 16390 10727 1 109.50000 418.400000
5850 16390 10994 1 109.50000 418.400000
6958 16390 10727 1 109.50000 418.400000
6958 16390 10994 1 109.50000 418.400000
10727 16390 10994 1 109.50000 418.400000
67 16391 1300 1 109.50000 418.400000
67 16391 6408 1 109.50000 418.400000
67 16391 10816 1 109.50000 418.400000
1300 16391 6408 1 109.50000 418.400000
1300 16391 10816 1 109.50000 418.400000
6408 16391 10816 1 109.50000 418.400000
182 16392 8148 1 109.50000 418.400000
182 16392 8149 1 109.50000 418.400000
182 16392 10970 1 109.50000 418.400000
8148 16392 8149 1 109.50000 418.400000
8148 16392 10970 1 109.50000 418.400000
8149 16392 10970 1 109.50000 418.400000
3085 16393 5476 1 109.50000 418.400000
3085 16393 5553 1 109.50000 418.400000
3085 16393 8907 1 109.50000 418.400000
5476 16393 5553 1 109.50000 418.400000
5476 16393 8907 1 109.50000 418.400000
5553 16393 8907 1 109.50000 418.400000
2113 16394 7148 1 109.50000 418.400000
2113 16394 9667 1 109.50000 418.400000
2113 16394 9920 1 109.50000 418.400000
7148 16394 9667 1 109.50000 418.400000
7148 16394 9920 1 109.50000 418.400000
9667 16394 9920 1 109.50000 418.400000
7917 16395 8894 1 109.50000 418.400000
7917 16395 9196 1 109.50000 418.400000
7917 16395 10434 1 109.50000 418.400000
8894 16395 9196 1 109.50000 418.400000
8894 16395 10434 1 109.50000 418.400000
9196 16395 10434 1 109.50000 418.400000
852 16396 7932 1 109.50000 418.400000
852 16396 9921 1 109.50000 418.400000
852 16396 10635 1 109.50000 418.400000
7932 16396 9921 1 109.50000 418.400000
7932 16396 10635 1 109.50000 418.400000
9921 16396 10635 1 109.50000 418.400000
1444 16397 9025 1 109.50000 418.400000
1444 16397 10995 1 109.50000 418.400000
1444 16397 11260 1 109.50000 418.400000
9025 16397 10995 1 109.50000 418.400000
9025 16397 11260 1 109.50000 418.400000
10995 16397 11260 1 109.50000 418.400000
5362 16398 6722 1 109.50000 418.400000
5362 16398 7263 1 109.50000 418.400000
5362 16398 10656 1 109.50000 418.400000
6722 16398 7263 1 109.50000 418.400000
6722 16398 10656 1 109.50000 418.400000
7263 16398 10656 1 109.50000 418.400000
3080 16399 8376 1 109.50000 418.400000
3080 16399 9345 1 109.50000 418.400000
3080 16399 10612 1 109.50000 418.400000
8376 16399 9345 1 109.50000 418.400000
8376 16399 10612 1 109.50000 418.400000
9345 16399 10612 1 109.50000 418.400000
7575 16400 9945 1 109.50000 418.400000
7575 16400 10018 1 109.50000 418.400000
7575 16400 10109 1 109.50000 418.400000
9945 16400 10018 1 109.50000 418.400000
9945 16400 10109 1 109.50000 418.400000
10018 16400 10109 1 109.50000 418.400000
730 16401 6566 1 109.50000 418.400000
730 16401 10067 1 109.50000 418.400000
730 16401 10996 1 109.50000 418.400000
6566 16401 10067 1 109.50000 418.400000
6566 16401 10996 1 109.50000 418.400000
10067 16401 10996 1 109.50000 418.400000
1488 16402 3765 1 109.50000 418.400000
1488 16402 10469 1 109.50000 418.400000
1488 16402 10997 1 109.50000 418.400000
3765 16402 10469 1 109.50000 418.400000
3765 16402 10997 1 109.50000 418.400000
10469 16402 10997 1 109.50000 418.400000
1637 16403 5766 1 109.50000 418.400000
1637 16403 5989 1 109.50000 418.400000
1637 16403 9182 1 109.50000 418.400000
5766 16403 5989 1 109.50000 418.400000
5766 16403 9182 1 109.50000 418.400000
5989 16403 9182 1 109.50000 418.400000
4339 16404 9625 1 109.50000 418.400000
4339 16404 10427 1 109.50000 418.400000
4339 16404 10820 1 109.50000 418.400000
9625 16404 10427 1 109.50000 418.400000
9625 16404 10820 1 109.50000 418.400000
10427 16404 10820 1 109.50000 418.400000
4380 16405 5548 1 109.50000 418.400000
4380 16405 9705 1 109.50000 418.400000
4380 16405 9707 1 109.50000 418.400000
5548 16405 9705 1 109.50000 418.400000
5548 16405 9707 1 109.50000 418.400000
9705 16405 9707 1 109.50000 418.400000
1183 16406 6799 1 109.50000 418.400000
1183 16406 7163 1 109.50000 418.400000
1183 16406 10977 1 109.50000 418.400000
6799 16406 7163 1 109.50000 418.400000
6799 16406 10977 1 109.50000 418.400000
7163 16406 10977 1 109.50000 418.400000
4190 16407 7090 1 109.50000 418.400000
4190 16407 7634 1 109.50000 418.400000
4190 16407 10599 1 109.50000 418.400000
7090 16407 7634 1 109.50000 418.400000
7090 16407 10599 1 109.50000 418.400000
7634 16407 10599 1 109.50000 418.400000
4217 16408 6060 1 109.50000 418.400000
4217 16408 10735 1 109.50000 418.400000
4217 16408 10998 1 109.50000 418.400000
6060 16408 10735 1 109.50000 418.400000
6060 16408 10998 1 109.50000 418.400000
10735 16408 10998 1 109.50000 418.400000
100 16409 4258 1 109.50000 418.400000
100 16409 7890 1 109.50000 418.400000
100 16409 9996 1 109.50000 418.400000
4258 16409 7890 1 109.50000 418.400000
4258 16409 9996 1 109.50000 418.400000
7890 16409 9996 1 109.50000 418.400000
5289 16410 7853 1 109.50000 418.400000
5289 16410 10999 1 109.50000 418.400000
5289 16410 11000 1 109.50000 418.400000
7853 16410 10999 1 109.50000 418.400000
7853 16410 11000 1 109.50000 418.400000
10999 16410 11000 1 109.50000 418.400000
7047 16411 7541 1 109.50000 418.400000
7047 16411 11001 1 109.50000 418.400000
7047 16411 11002 1 109.50000 418.400000
7541 16411 11001 1 109.50000 418.400000
7541 16411 11002 1 109.50000 418.400000
11001 16411 11002 1 109.50000 418.400000
1179 16412 5263 1 109.50000 418.400000
1179 16412 5636 1 109.50000 418.400000
1179 16412 7160 1 109.50000 418.400000
5263 16412 5636 1 109.50000 418.400000
5263 16412 7160 1 109.50000 418.400000
5636 16412 7160 1 109.50000 418.400000
2409 16413 4398 1 109.50000 418.400000
2409 16413 11003 1 109.50000 418.400000
2409 16413 11004 1 109.50000 418.400000
4398 16413 11003 1 109.50000 418.400000
4398 16413 11004 1 109.50000 418.400000
11003 16413 11004 1 109.50000 418.400000
5244 16414 6271 1 109.50000 418.400000
5244 16414 9675 1 109.50000 418.400000
5244 16414 10204 1 109.50000 418.400000
6271 16414 9675 1 109.50000 418.400000
6271 16414 10204 1 109.50000 418.400000
9675 16414 10204 1 109.50000 418.400000
6144 16415 6987 1 109.50000 418.400000
6144 16415 8304 1 109.50000 418.400000
6144 16415 11507 1 109.50000 418.400000
6987 16415 8304 1 109.50000 418.400000
6987 16415 11507 1 109.50000 418.400000
8304 16415 11507 1 109.50000 418.400000
901 16416 4360 1 109.50000 418.400000
901 16416 6944 1 109.50000 418.400000
901 16416 8640 1 109.50000 418.400000
4360 16416 6944 1 109.50000 418.400000
4360 16416 8640 1 109.50000 418.400000
6944 16416 8640 1 109.50000 418.400000
6432 16417 8889 1 109.50000 418.400000
6432 16417 9221 1 109.50000 418.400000
6432 16417 9786 1 109.50000 418.400000
8889 16417 9221 1 109.50000 418.400000
8889 16417 9786 1 109.50000 418.400000
9221 16417 9786 1 109.50000 418.400000
231 16418 6718 1 109.50000 418.400000
231 16418 9372 1 109.50000 418.400000
231 16418 10016 1 109.50000 418.400000
6718 16418 9372 1 109.50000 418.400000
6718 16418 10016 1 109.50000 418.400000
9372 16418 10016 1 109.50000 418.400000
1784 16419 2536 1 109.50000 418.400000
1784 16419 4410 1 109.50000 418.400000
1784 16419 4757 1 109.50000 418.400000
2536 16419 4410 1 109.50000 418.400000
2536 16419 4757 1 109.50000 418.400000
4410 16419 4757 1 109.50000 418.400000
1728 16420 9257 1 109.50000 418.400000
1728 16420 9435 1 109.50000 418.400000
1728 16420 9726 1 109.50000 418.400000
9257 16420 9435 1 109.50000 418.400000
9257 16420 9726 1 109.50000 418.400000
9435 16420 9726 1 109.50000 418.400000
1700 16421 3399 1 109.50000 418.400000
1700 16421 10535 1 109.50000 418.400000
1700 16421 11005 1 109.50000 418.400000
3399 16421 10535 1 109.50000 418.400000
3399 16421 11005 1 109.50000 418.400000
10535 16421 11005 1 109.50000 418.400000
6680 16422 7140 1 109.50000 418.400000
6680 16422 10926 1 109.50000 418.400000
6680 16422 10928 1 109.50000 418.400000
7140 16422 10926 1 109.50000 418.400000
7140 16422 10928 1 109.50000 418.400000
10926 16422 10928 1 109.50000 418.400000
3795 16423 4990 1 109.50000 418.400000
3795 16423 8824 1 109.50000 418.400000
3795 16423 10962 1 109.50000 418.400000
4990 16423 8824 1 109.50000 418.400000
4990 16423 10962 1 109.50000 418.400000
8824 16423 10962 1 109.50000 418.400000
2259 16424 5129 1 109.50000 418.400000
2259 16424 7335 1 109.50000 418.400000
2259 16424 9294 1 109.50000 418.400000
5129 16424 7335 1 109.50000 418.400000
5129 16424 9294 1 109.50000 418.400000
7335 16424 9294 1 109.50000 418.400000
708 16425 7806 1 109.50000 418.400000
708 16425 10841 1 109.50000 418.400000
708 16425 11254 1 109.50000 418.400000
7806 16425 10841 1 109.50000 418.400000
7806 16425 11254 1 109.50000 418.400000
10841 16425 11254 1 109.50000 418.400000
2198 16426 3711 1 109.50000 418.400000
2198 16426 6114 1 109.50000 418.400000
2198 16426 10275 1 109.50000 418.400000
3711 16426 6114 1 109.50000 418.400000
3711 16426 10275 1 109.50000 418.400000
6114 16426 10275 1 109.50000 418.400000
4852 16427 8378 1 109.50000 418.400000
4852 16427 8933 1 109.50000 418.400000
4852 16427 9279 1 109.50000 418.400000
8378 16427 8933 1 109.50000 418.400000
8378 16427 9279 1 109.50000 418.400000
8933 16427 9279 1 109.50000 418.400000
8429 16428 11007 1 109.50000 418.400000
8429 16428 11008 1 109.50000 418.400000
8429 16428 11515 1 109.50000 418.400000
11007 16428 11008 1 109.50000 418.400000
11007 16428 11515 1 109.50000 418.400000
11008 16428 11515 1 109.50000 418.400000
1293 16429 8472 1 109.50000 418.400000
1293 16429 9646 1 109.50000 418.400000
1293 16429 10563 1 109.50000 418.400000
8472 16429 9646 1 109.50000 418.400000
8472 16429 10563 1 109.50000 418.400000
9646 16429 10563 1 109.50000 418.400000
789 16430 1245 1 109.50000 418.400000
789 16430 10484 1 109.50000 418.400000
789 16430 10955 1 109.50000 418.400000
1245 16430 10484 1 109.50000 418.400000
1245 16430 10955 1 109.50000 418.400000
10484 16430 10955 1 109.50000 418.400000
5058 16431 9500 1 109.50000 418.400000
5058 16431 9650 1 109.50000 418.400000
5058 16431 10758 1 109.50000 418.400000
9500 16431 9650 1 109.50000 418.400000
9500 16431 10758 1 109.50000 418.400000
9650 16431 10758 1 109.50000 418.400000
6091 16432 8522 1 109.50000 418.400000
6091 16432 8902 1 109.50000 418.400000
6091 16432 10925 1 109.50000 418.400000
8522 16432 8902 1 109.50000 418.400000
8522 16432 10925 1 109.50000 418.400000
8902 16432 10925 1 109.50000 418.400000
2354 16433 6078 1 109.50000 418.400000
2354 16433 9913 1 109.50000 418.400000
2354 16433 10969 1 109.50000 418.400000
6078 16433 9913 1 109.50000 418.400000
6078 16433 10969 1 109.50000 418.400000
9913 16433 10969 1 109.50000 418.400000
2518 16434 3100 1 109.50000 418.400000
2518 16434 10950 1 109.50000 418.400000
2518 16434 11448 1 109.50000 418.400000
3100 16434 10950 1 109.50000 418.400000
3100 16434 11448 1 109.50000 418.400000
10950 16434 11448 1 109.50000 418.400000
4416 16435 8402 1 109.50000 418.400000
4416 16435 10187 1 109.50000 418.400000
4416 16435 10435 1 109.50000 418.400000
8402 16435 10187 1 109.50000 418.400000
8402 16435 10435 1 109.50000 418.400000
10187 16435 10435 1 109.50000 418.400000
5080 16436 7318 1 109.50000 418.400000
5080 16436 8888 1 109.50000 418.400000
5080 16436 10543 1 109.50000 418.400000
7318 16436 8888 1 109.50000 418.400000
7318 16436 10543 1 109.50000 418.400000
8888 16436 10543 1 109.50000 418.400000
4899 16437 10466 1 109.50000 418.400000
4899 16437 10523 1 109.50000 418.400000
4899 16437 11010 1 109.50000 418.400000
10466 16437 10523 1 109.50000 418.400000
10466 16437 11010 1 109.50000 418.400000
10523 16437 11010 1 109.50000 418.400000
998 16438 2402 1 109.50000 418.400000
998 16438 8006 1 109.50000 418.400000
998 16438 9185 1 109.50000 418.400000
2402 16438 8006 1 109.50000 418.400000
2402 16438 9185 1 109.50000 418.400000
8006 16438 9185 1 109.50000 418.400000
8574 16439 8583 1 109.50000 418.400000
8574 16439 9543 1 109.50000 418.400000
8574 16439 10905 1 109.50000 418.400000
8583 16439 9543 1 109.50000 418.400000
8583 16439 10905 1 109.50000 418.400000
9543 16439 10905 1 109.50000 418.400000
2599 16440 5100 1 109.50000 418.400000
2599 16440 11011 1 109.50000 418.400000
2599 16440 11072 1 109.50000 418.400000
5100 16440 11011 1 109.50000 418.400000
5100 16440 11072 1 109.50000 418.400000
11011 16440 11072 1 109.50000 418.400000
879 16441 5096 1 109.50000 418.400000
879 16441 7642 1 109.50000 418.400000
879 16441 10136 1 109.50000 418.400000
5096 16441 7642 1 109.50000 418.400000
5096 16441 10136 1 109.50000 418.400000
7642 16441 10136 1 109.50000 418.400000
1967 16442 4386 1 109.50000 418.400000
1967 16442 8123 1 109.50000 418.400000
1967 16442 9794 1 109.50000 418.400000
4386 16442 8123 1 109.50000 418.400000
4386 16442 9794 1 109.50000 418.400000
8123 16442 9794 1 109.50000 418.400000
548 16443 1880 1 109.50000 418.400000
548 16443 3857 1 109.50000 418.400000
548 16443 11012 1 109.50000 418.400000
1880 16443 3857 1 109.50000 418.400000
1880 16443 11012 1 109.50000 418.400000
3857 16443 11012 1 109.50000 418.400000
2242 16444 9120 1 109.50000 418.400000
2242 16444 10927 1 109.50000 418.400000
2242 16444 11013 1 109.50000 418.400000
9120 16444 10927 1 109.50000 418.400000
9120 16444 11013 1 109.50000 418.400000
10927 16444 11013 1 109.50000 418.400000
5366 16445 5725 1 109.50000 418.400000
5366 16445 10980 1 109.50000 418.400000
5366 16445 11014 1 109.50000 418.400000
5725 16445 10980 1 109.50000 418.400000
5725 16445 11014 1 109.50000 418.400000
10980 16445 11014 1 109.50000 418.400000
5632 16446 5633 1 109.50000 418.400000
5632 16446 10169 1 109.50000 418.400000
5632 16446 11015 1 109.50000 418.400000
5633 16446 10169 1 109.50000 418.400000
5633 16446 11015 1 109.50000 418.400000
10169 16446 11015 1 109.50000 418.400000
2006 16447 7362 1 109.50000 418.400000
2006 16447 7915 1 109.50000 418.400000
2006 16447 11016 1 109.50000 418.400000
7362 16447 7915 1 109.50000 418.400000
7362 16447 11016 1 109.50000 418.400000
7915 16447 11016 1 109.50000 418.400000
1403 16448 4357 1 109.50000 418.400000
1403 16448 10739 1 109.50000 418.400000
1403 16448 10930 1 109.50000 418.400000
4357 16448 10739 1 109.50000 418.400000
4357 16448 10930 1 109.50000 418.400000
10739 16448 10930 1 109.50000 418.400000
9604 16449 10163 1 109.50000 418.400000
9604 16449 11018 1 109.50000 418.400000
9604 16449 11019 1 109.50000 418.400000
10163 16449 11018 1 109.50000 418.400000
10163 16449 11019 1 109.50000 418.400000
11018 16449 11019 1 109.50000 418.400000
6848 16450 7155 1 109.50000 418.400000
6848 16450 10697 1 109.50000 418.400000
6848 16450 10952 1 109.50000 418.400000
7155 16450 10697 1 109.50000 418.400000
7155 16450 10952 1 109.50000 418.400000
10697 16450 10952 1 109.50000 418.400000
661 16451 1304 1 109.50000 418.400000
661 16451 7350 1 109.50000 418.400000
661 16451 10338 1 109.50000 418.400000
1304 16451 7350 1 109.50000 418.400000
1304 16451 10338 1 109.50000 418.400000
7350 16451 10338 1 109.50000 418.400000
3021 16452 7052 1 109.50000 418.400000
3021 16452 9781 1 109.50000 418.400000
3021 16452 9930 1 109.50000 418.400000
7052 16452 9781 1 109.50000 418.400000
7052 16452 9930 1 109.50000 418.400000
9781 16452 9930 1 109.50000 418.400000
4790 16453 9021 1 109.50000 418.400000
4790 16453 10756 1 109.50000 418.400000
4790 16453 11148 1 109.50000 418.400000
9021 16453 10756 1 109.50000 418.400000
9021 16453 11148 1 109.50000 418.400000
10756 16453 11148 1 109.50000 418.400000
7091 16454 7092 1 109.50000 418.400000
7091 16454 8208 1 109.50000 418.400000
7091 16454 10301 1 109.50000 418.400000
7092 16454 8208 1 109.50000 418.400000
7092 16454 10301 1 109.50000 418.400000
8208 16454 10301 1 109.50000 418.400000
5699 16455 8064 1 109.50000 418.400000
5699 16455 10372 1 109.50000 418.400000
5699 16455 10936 1 109.50000 418.400000
8064 16455 10372 1 109.50000 418.400000
8064 16455 10936 1 109.50000 418.400000
10372 16455 10936 1 109.50000 418.400000
919 16456 2926 1 109.50000 418.400000
919 16456 9611 1 109.50000 418.400000
919 16456 10260 1 109.50000 418.400000
2926 16456 9611 1 109.50000 418.400000
2926 16456 10260 1 109.50000 418.400000
9611 16456 10260 1 109.50000 418.400000
8274 16457 8943 1 109.50000 418.400000
8274 16457 10730 1 109.50000 418.400000
8274 16457 11020 1 109.50000 418.400000
8943 16457 10730 1 109.50000 418.400000
8943 16457 11020 1 109.50000 418.400000
10730 16457 11020 1 109.50000 418.400000
5695 16458 8490 1 109.50000 418.400000
5695 16458 10319 1 109.50000 418.400000
5695 16458 11022 1 109.50000 418.400000
8490 16458 10319 1 109.50000 418.400000
8490 16458 11022 1 109.50000 418.400000
10319 16458 11022 1 109.50000 418.400000
183 16459 9733 1 109.50000 418.400000
183 16459 10364 1 109.50000 418.400000
183 16459 11023 1 109.50000 418.400000
9733 16459 10364 1 109.50000 418.400000
9733 16459 11023 1 109.50000 418.400000
10364 16459 11023 1 109.50000 418.400000
7108 16460 7789 1 109.50000 418.400000
7108 16460 10915 1 109.50000 418.400000
7108 16460 10966 1 109.50000 418.400000
7789 16460 10915 1 109.50000 418.400000
7789 16460 10966 1 109.50000 418.400000
10915 16460 10966 1 109.50000 418.400000
585 16461 2153 1 109.50000 418.400000
585 16461 2204 1 109.50000 418.400000
585 16461 2820 1 109.50000 418.400000
2153 16461 2204 1 109.50000 418.400000
2153 16461 2820 1 109.50000 418.400000
2204 16461 2820 1 109.50000 418.400000
4585 16462 7277 1 109.50000 418.400000
4585 16462 7279 1 109.50000 418.400000
4585 16462 10346 1 109.50000 418.400000
7277 16462 7279 1 109.50000 418.400000
7277 16462 10346 1 109.50000 418.400000
7279 16462 10346 1 109.50000 418.400000
2430 16463 2946 1 109.50000 418.400000
2430 16463 4298 1 109.50000 418.400000
2430 16463 7417 1 109.50000 418.400000
2946 16463 4298 1 109.50000 418.400000
2946 16463 7417 1 109.50000 418.400000
4298 16463 7417 1 109.50000 418.400000
115 16464 4165 1 109.50000 418.400000
115 16464 8098 1 109.50000 418.400000
115 16464 10208 1 109.50000 418.400000
4165 16464 8098 1 109.50000 418.400000
4165 16464 10208 1 109.50000 418.400000
8098 16464 10208 1 109.50000 418.400000
2742 16465 9553 1 109.50000 418.400000
2742 16465 11024 1 109.50000 418.400000
2742 16465 11025 1 109.50000 418.400000
9553 16465 11024 1 109.50000 418.400000
9553 16465 11025 1 109.50000 418.400000
11024 16465 11025 1 109.50000 418.400000
5755 16466 6206 1 109.50000 418.400000
5755 16466 9536 1 109.50000 418.400000
5755 16466 11026 1 109.50000 418.400000
6206 16466 9536 1 109.50000 418.400000
6206 16466 11026 1 109.50000 418.400000
9536 16466 11026 1 109.50000 418.400000
7473 16467 8803 1 109.50000 418.400000
7473 16467 10091 1 109.50000 418.400000
7473 16467 10871 1 109.50000 418.400000
8803 16467 10091 1 109.50000 418.400000
8803 16467 10871 1 109.50000 418.400000
10091 16467 10871 1 109.50000 418.400000
7060 16468 7649 1 109.50000 418.400000
7060 16468 9462 1 109.50000 418.400000
7060 16468 10458 1 109.50000 418.400000
7649 16468 9462 1 109.50000 418.400000
7649 16468 10458 1 109.50000 418.400000
9462 16468 10458 1 109.50000 418.400000
7586 16469 9111 1 109.50000 418.400000
7586 16469 10442 1 109.50000 418.400000
7586 16469 10607 1 109.50000 418.400000
9111 16469 10442 1 109.50000 418.400000
9111 16469 10607 1 109.50000 418.400000
10442 16469 10607 1 109.50000 418.400000
7924 16470 8988 1 109.50000 418.400000
7924 16470 10490 1 109.50000 418.400000
7924 16470 11027 1 109.50000 418.400000
8988 16470 10490 1 109.50000 418.400000
8988 16470 11027 1 109.50000 418.400000
10490 16470 11027 1 109.50000 418.400000
7411 16471 8403 1 109.50000 418.400000
7411 16471 9134 1 109.50000 418.400000
7411 16471 10305 1 109.50000 418.400000
8403 16471 9134 1 109.50000 418.400000
8403 16471 10305 1 109.50000 418.400000
9134 16471 10305 1 109.50000 418.400000
1930 16472 9177 1 109.50000 418.400000
1930 16472 10318 1 109.50000 418.400000
1930 16472 11028 1 109.50000 418.400000
9177 16472 10318 1 109.50000 418.400000
9177 16472 11028 1 109.50000 418.400000
10318 16472 11028 1 109.50000 418.400000
7472 16473 7895 1 109.50000 418.400000
7472 16473 11029 1 109.50000 418.400000
7472 16473 11030 1 109.50000 418.400000
7895 16473 11029 1 109.50000 418.400000
7895 16473 11030 1 109.50000 418.400000
11029 16473 11030 1 109.50000 418.400000
9108 16474 10483 1 109.50000 418.400000
9108 16474 10498 1 109.50000 418.400000
9108 16474 11031 1 109.50000 418.400000
10483 16474 10498 1 109.50000 418.400000
10483 16474 11031 1 109.50000 418.400000
10498 16474 11031 1 109.50000 418.400000
2086 16475 9664 1 109.50000 418.400000
2086 16475 10655 1 109.50000 418.400000
2086 16475 10770 1 109.50000 418.400000
9664 16475 10655 1 109.50000 418.400000
9664 16475 10770 1 109.50000 418.400000
10655 16475 10770 1 109.50000 418.400000
1871 16476 6659 1 109.50000 418.400000
1871 16476 7015 1 109.50000 418.400000
1871 16476 7723 1 109.50000 418.400000
6659 16476 7015 1 109.50000 418.400000
6659 16476 7723 1 109.50000 418.400000
7015 16476 7723 1 109.50000 418.400000
110 16477 1198 1 109.50000 418.400000
110 16477 4754 1 109.50000 418.400000
110 16477 4755 1 109.50000 418.400000
1198 16477 4754 1 109.50000 418.400000
1198 16477 4755 1 109.50000 418.400000
4754 16477 4755 1 109.50000 418.400000
5867 16478 10177 1 109.50000 418.400000
5867 16478 10520 1 109.50000 418.400000
5867 16478 10893 1 109.50000 418.400000
10177 16478 10520 1 109.50000 418.400000
10177 16478 10893 1 109.50000 418.400000
10520 16478 10893 1 109.50000 418.400000
3742 16479 8121 1 109.50000 418.400000
3742 16479 11012 1 109.50000 418.400000
3742 16479 11033 1 109.50000 418.400000
8121 16479 11012 1 109.50000 418.400000
8121 16479 11033 1 109.50000 418.400000
11012 16479 11033 1 109.50000 418.400000
1614 16480 6305 1 109.50000 418.400000
1614 16480 6993 1 109.50000 418.400000
1614 16480 10751 1 109.50000 418.400000
6305 16480 6993 1 109.50000 418.400000
6305 16480 10751 1 109.50000 418.400000
6993 16480 10751 1 109.50000 418.400000
7874 16481 10144 1 109.50000 418.400000
7874 16481 10462 1 109.50000 418.400000
7874 16481 10831 1 109.50000 418.400000
10144 16481 10462 1 109.50000 418.400000
10144 16481 10831 1 109.50000 418.400000
10462 16481 10831 1 109.50000 418.400000
2106 16482 5597 1 109.50000 418.400000
2106 16482 7319 1 109.50000 418.400000
2106 16482 10856 1 109.50000 418.400000
5597 16482 7319 1 109.50000 418.400000
5597 16482 10856 1 109.50000 418.400000
7319 16482 10856 1 109.50000 418.400000
9583 16483 10463 1 109.50000 418.400000
9583 16483 11333 1 109.50000 418.400000
9583 16483 11429 1 109.50000 418.400000
10463 16483 11333 1 109.50000 418.400000
10463 16483 11429 1 109.50000 418.400000
11333 16483 11429 1 109.50000 418.400000
4087 16484 10165 1 109.50000 418.400000
4087 16484 11279 1 109.50000 418.400000
4087 16484 11454 1 109.50000 418.400000
10165 16484 11279 1 109.50000 418.400000
10165 16484 11454 1 109.50000 418.400000
11279 16484 11454 1 109.50000 418.400000
4176 16485 5339 1 109.50000 418.400000
4176 16485 9155 1 109.50000 418.400000
4176 16485 10693 1 109.50000 418.400000
5339 16485 9155 1 109.50000 418.400000
5339 16485 10693 1 109.50000 418.400000
9155 16485 10693 1 109.50000 418.400000
1932 16486 3611 1 109.50000 418.400000
1932 16486 9101 1 109.50000 418.400000
1932 16486 10999 1 109.50000 418.400000
3611 16486 9101 1 109.50000 418.400000
3611 16486 10999 1 109.50000 418.400000
9101 16486 10999 1 109.50000 418.400000
2904 16487 7294 1 109.50000 418.400000
2904 16487 8561 1 109.50000 418.400000
2904 16487 10061 1 109.50000 418.400000
7294 16487 8561 1 109.50000 418.400000
7294 16487 10061 1 109.50000 418.400000
8561 16487 10061 1 109.50000 418.400000
165 16488 2621 1 109.50000 418.400000
165 16488 3505 1 109.50000 418.400000
165 16488 10182 1 109.50000 418.400000
2621 16488 3505 1 109.50000 418.400000
2621 16488 10182 1 109.50000 418.400000
3505 16488 10182 1 109.50000 418.400000
6118 16489 8756 1 109.50000 418.400000
6118 16489 9208 1 109.50000 418.400000
6118 16489 11034 1 109.50000 418.400000
8756 16489 9208 1 109.50000 418.400000
8756 16489 11034 1 109.50000 418.400000
9208 16489 11034 1 109.50000 418.400000
1853 16490 6289 1 109.50000 418.400000
1853 16490 6316 1 109.50000 418.400000
1853 16490 10883 1 109.50000 418.400000
6289 16490 6316 1 109.50000 418.400000
6289 16490 10883 1 109.50000 418.400000
6316 16490 10883 1 109.50000 418.400000
1323 16491 1342 1 109.50000 418.400000
1323 16491 2830 1 109.50000 418.400000
1323 16491 9036 1 109.50000 418.400000
1342 16491 2830 1 109.50000 418.400000
1342 16491 9036 1 109.50000 418.400000
2830 16491 9036 1 109.50000 418.400000
5702 16492 8566 1 109.50000 418.400000
5702 16492 9367 1 109.50000 418.400000
5702 16492 10890 1 109.50000 418.400000
8566 16492 9367 1 109.50000 418.400000
8566 16492 10890 1 109.50000 418.400000
9367 16492 10890 1 109.50000 418.400000
1157 16493 1468 1 109.50000 418.400000
1157 16493 8843 1 109.50000 418.400000
1157 16493 10143 1 109.50000 418.400000
1468 16493 8843 1 109.50000 418.400000
1468 16493 10143 1 109.50000 418.400000
8843 16493 10143 1 109.50000 418.400000
6570 16494 8267 1 109.50000 418.400000
6570 16494 9478 1 109.50000 418.400000
6570 16494 11004 1 109.50000 418.400000
8267 16494 9478 1 109.50000 418.400000
8267 16494 11004 1 109.50000 418.400000
9478 16494 11004 1 109.50000 418.400000
1521 16495 10452 1 109.50000 418.400000
1521 16495 10879 1 109.50000 418.400000
1521 16495 11035 1 109.50000 418.400000
10452 16495 10879 1 109.50000 418.400000
10452 16495 11035 1 109.50000 418.400000
10879 16495 11035 1 109.50000 418.400000
3671 16496 3763 1 109.50000 418.400000
3671 16496 4800 1 109.50000 418.400000
3671 16496 9444 1 109.50000 418.400000
3763 16496 4800 1 109.50000 418.400000
3763 16496 9444 1 109.50000 418.400000
4800 16496 9444 1 109.50000 418.400000
1310 16497 3155 1 109.50000 418.400000
1310 16497 7965 1 109.50000 418.400000
1310 16497 11036 1 109.50000 418.400000
3155 16497 7965 1 109.50000 418.400000
3155 16497 11036 1 109.50000 418.400000
7965 16497 11036 1 109.50000 418.400000
7639 16498 9055 1 109.50000 418.400000
7639 16498 9587 1 109.50000 418.400000
7639 16498 10679 1 109.50000 418.400000
9055 16498 9587 1 109.50000 418.400000
9055 16498 10679 1 109.50000 418.400000
9587 16498 10679 1 109.50000 418.400000
913 16499 8250 1 109.50000 418.400000
913 16499 10236 1 109.50000 418.400000
913 16499 11037 1 109.50000 418.400000
8250 16499 10236 1 109.50000 418.400000
8250 16499 11037 1 109.50000 418.400000
10236 16499 11037 1 109.50000 418.400000
2724 16500 4970 1 109.50000 418.400000
2724 16500 8598 1 109.50000 418.400000
2724 16500 9599 1 109.50000 418.400000
4970 16500 8598 1 109.50000 418.400000
4970 16500 9599 1 109.50000 418.400000
8598 16500 9599 1 109.50000 418.400000
607 16501 7211 1 109.50000 418.400000
607 16501 8921 1 109.50000 418.400000
607 16501 11038 1 109.50000 418.400000
7211 16501 8921 1 109.50000 418.400000
7211 16501 11038 1 109.50000 418.400000
8921 16501 11038 1 109.50000 418.400000
23 16502 10199 1 109.50000 418.400000
23 16502 10685 1 109.50000 418.400000
23 16502 10971 1 109.50000 418.400000
10199 16502 10685 1 109.50000 418.400000
10199 16502 10971 1 109.50000 418.400000
10685 16502 10971 1 109.50000 418.400000
6617 16503 8588 1 109.50000 418.400000
6617 16503 9756 1 109.50000 418.400000
6617 16503 11203 1 109.50000 418.400000
8588 16503 9756 1 109.50000 418.400000
8588 16503 11203 1 109.50000 418.400000
9756 16503 11203 1 109.50000 418.400000
1721 16504 5573 1 109.50000 418.400000
1721 16504 8732 1 109.50000 418.400000
1721 16504 10064 1 109.50000 418.400000
5573 16504 8732 1 109.50000 418.400000
5573 16504 10064 1 109.50000 418.400000
8732 16504 10064 1 109.50000 418.400000
6031 16505 6032 1 109.50000 418.400000
6031 16505 6494 1 109.50000 418.400000
6031 16505 10495 1 109.50000 418.400000
6032 16505 6494 1 109.50000 418.400000
6032 16505 10495 1 109.50000 418.400000
6494 16505 10495 1 109.50000 418.400000
2262 16506 8745 1 109.50000 418.400000
2262 16506 9373 1 109.50000 418.400000
2262 16506 10308 1 109.50000 418.400000
8745 16506 9373 1 109.50000 418.400000
8745 16506 10308 1 109.50000 418.400000
9373 16506 10308 1 109.50000 418.400000
1024 16507 1908 1 109.50000 418.400000
1024 16507 4101 1 109.50000 418.400000
1024 16507 10728 1 109.50000 418.400000
1908 16507 4101 1 109.50000 418.400000
1908 16507 10728 1 109.50000 418.400000
4101 16507 10728 1 109.50000 418.400000
233 16508 3059 1 109.50000 418.400000
233 16508 4478 1 109.50000 418.400000
233 16508 10185 1 109.50000 418.400000
3059 16508 4478 1 109.50000 418.400000
3059 16508 10185 1 109.50000 418.400000
4478 16508 10185 1 109.50000 418.400000
2539 16509 4469 1 109.50000 418.400000
2539 16509 10958 1 109.50000 418.400000
2539 16509 11039 1 109.50000 418.400000
4469 16509 10958 1 109.50000 418.400000
4469 16509 11039 1 109.50000 418.400000
10958 16509 11039 1 109.50000 418.400000
4735 16510 9701 1 109.50000 418.400000
4735 16510 10916 1 109.50000 418.400000
4735 16510 11429 1 109.50000 418.400000
9701 16510 10916 1 109.50000 418.400000
9701 16510 11429 1 109.50000 418.400000
10916 16510 11429 1 109.50000 418.400000
7130 16511 8470 1 109.50000 418.400000
7130 16511 8990 1 109.50000 418.400000
7130 16511 10946 1 109.50000 418.400000
8470 16511 8990 1 109.50000 418.400000
8470 16511 10946 1 109.50000 418.400000
8990 16511 10946 1 109.50000 418.400000
5635 16512 5805 1 109.50000 418.400000
5635 16512 10473 1 109.50000 418.400000
5635 16512 10810 1 109.50000 418.400000
5805 16512 10473 1 109.50000 418.400000
5805 16512 10810 1 109.50000 418.400000
10473 16512 10810 1 109.50000 418.400000
3159 16513 6420 1 109.50000 418.400000
3159 16513 7240 1 109.50000 418.400000
3159 16513 7241 1 109.50000 418.400000
6420 16513 7240 1 109.50000 418.400000
6420 16513 7241 1 109.50000 418.400000
7240 16513 7241 1 109.50000 418.400000
2129 16514 3870 1 109.50000 418.400000
2129 16514 4465 1 109.50000 418.400000
2129 16514 8486 1 109.50000 418.400000
3870 16514 4465 1 109.50000 418.400000
3870 16514 8486 1 109.50000 418.400000
4465 16514 8486 1 109.50000 418.400000
1509 16515 5818 1 109.50000 418.400000
1509 16515 10387 1 109.50000 418.400000
1509 16515 10885 1 109.50000 418.400000
5818 16515 10387 1 109.50000 418.400000
5818 16515 10885 1 109.50000 418.400000
10387 16515 10885 1 109.50000 418.400000
4316 16516 5316 1 109.50000 418.400000
4316 16516 6284 1 109.50000 418.400000
4316 16516 8992 1 109.50000 418.400000
5316 16516 6284 1 109.50000 418.400000
5316 16516 8992 1 109.50000 418.400000
6284 16516 8992 1 109.50000 418.400000
4022 16517 4025 1 109.50000 418.400000
4022 16517 9388 1 109.50000 418.400000
4022 16517 11040 1 109.50000 418.400000
4025 16517 9388 1 109.50000 418.400000
4025 16517 11040 1 109.50000 418.400000
9388 16517 11040 1 109.50000 418.400000
4505 16518 8126 1 109.50000 418.400000
4505 16518 8270 1 109.50000 418.400000
4505 16518 8495 1 109.50000 418.400000
8126 16518 8270 1 109.50000 418.400000
8126 16518 8495 1 109.50000 418.400000
8270 16518 8495 1 109.50000 418.400000
179 16519 4317 1 109.50000 418.400000
179 16519 8773 1 109.50000 418.400000
179 16519 10777 1 109.50000 418.400000
4317 16519 8773 1 109.50000 418.400000
4317 16519 10777 1 109.50000 418.400000
8773 16519 10777 1 109.50000 418.400000
3861 16520 10761 1 109.50000 418.400000
3861 16520 10924 1 109.50000 418.400000
3861 16520 10963 1 109.50000 418.400000
10761 16520 10924 1 109.50000 418.400000
10761 16520 10963 1 109.50000 418.400000
10924 16520 10963 1 109.50000 418.400000
4695 16521 9933 1 109.50000 418.400000
4695 16521 11041 1 109.50000 418.400000
4695 16521 11042 1 109.50000 418.400000
9933 16521 11041 1 109.50000 418.400000
9933 16521 11042 1 109.50000 418.400000
11041 16521 11042 1 109.50000 418.400000
4763 16522 5742 1 109.50000 418.400000
4763 16522 5744 1 109.50000 418.400000
4763 16522 9888 1 109.50000 418.400000
5742 16522 5744 1 109.50000 418.400000
5742 16522 9888 1 109.50000 418.400000
5744 16522 9888 1 109.50000 418.400000
2346 16523 4641 1 109.50000 418.400000
2346 16523 6227 1 109.50000 418.400000
2346 16523 7082 1 109.50000 418.400000
4641 16523 6227 1 109.50000 418.400000
4641 16523 7082 1 109.50000 418.400000
6227 16523 7082 1 109.50000 418.400000
1933 16524 10313 1 109.50000 418.400000
1933 16524 10721 1 109.50000 418.400000
1933 16524 10746 1 109.50000 418.400000
10313 16524 10721 1 109.50000 418.400000
10313 16524 10746 1 109.50000 418.400000
10721 16524 10746 1 109.50000 418.400000
964 16525 4784 1 109.50000 418.400000
964 16525 5898 1 109.50000 418.400000
964 16525 11043 1 109.50000 418.400000
4784 16525 5898 1 109.50000 418.400000
4784 16525 11043 1 109.50000 418.400000
5898 16525 11043 1 109.50000 418.400000
819 16526 6030 1 109.50000 418.400000
819 16526 9470 1 109.50000 418.400000
819 16526 10826 1 109.50000 418.400000
6030 16526 9470 1 109.50000 418.400000
6030 16526 10826 1 109.50000 418.400000
9470 16526 10826 1 109.50000 418.400000
2057 16527 4117 1 109.50000 418.400000
2057 16527 10343 1 109.50000 418.400000
2057 16527 10613 1 109.50000 418.400000
4117 16527 10343 1 109.50000 418.400000
4117 16527 10613 1 109.50000 418.400000
10343 16527 10613 1 109.50000 418.400000
8647 16528 10085 1 109.50000 418.400000
8647 16528 10303 1 109.50000 418.400000
8647 16528 11045 1 109.50000 418.400000
10085 16528 10303 1 109.50000 418.400000
10085 16528 11045 1 109.50000 418.400000
10303 16528 11045 1 109.50000 418.400000
4725 16529 7388 1 109.50000 418.400000
4725 16529 10070 1 109.50000 418.400000
4725 16529 10210 1 109.50000 418.400000
7388 16529 10070 1 109.50000 418.400000
7388 16529 10210 1 109.50000 418.400000
10070 16529 10210 1 109.50000 418.400000
5928 16530 7858 1 109.50000 418.400000
5928 16530 7896 1 109.50000 418.400000
5928 16530 8295 1 109.50000 418.400000
7858 16530 7896 1 109.50000 418.400000
7858 16530 8295 1 109.50000 418.400000
7896 16530 8295 1 109.50000 418.400000
6304 16531 10619 1 109.50000 418.400000
6304 16531 11046 1 109.50000 418.400000
6304 16531 11047 1 109.50000 418.400000
10619 16531 11046 1 109.50000 418.400000
10619 16531 11047 1 109.50000 418.400000
11046 16531 11047 1 109.50000 418.400000
1915 16532 6291 1 109.50000 418.400000
1915 16532 8446 1 109.50000 418.400000
1915 16532 10794 1 109.50000 418.400000
6291 16532 8446 1 109.50000 418.400000
6291 16532 10794 1 109.50000 418.400000
8446 16532 10794 1 109.50000 418.400000
9928 16533 10702 1 109.50000 418.400000
9928 16533 10745 1 109.50000 418.400000
9928 16533 11048 1 109.50000 418.400000
10702 16533 10745 1 109.50000 418.400000
10702 16533 11048 1 109.50000 418.400000
10745 16533 11048 1 109.50000 418.400000
3494 16534 5449 1 109.50000 418.400000
3494 16534 8321 1 109.50000 418.400000
3494 16534 11049 1 109.50000 418.400000
5449 16534 8321 1 109.50000 418.400000
5449 16534 11049 1 109.50000 418.400000
8321 16534 11049 1 109.50000 418.400000
1568 16535 2824 1 109.50000 418.400000
1568 16535 8451 1 109.50000 418.400000
1568 16535 8454 1 109.50000 418.400000
2824 16535 8451 1 109.50000 418.400000
2824 16535 8454 1 109.50000 418.400000
8451 16535 8454 1 109.50000 418.400000
1002 16536 2189 1 109.50000 418.400000
1002 16536 10799 1 109.50000 418.400000
1002 16536 11050 1 109.50000 418.400000
2189 16536 10799 1 109.50000 418.400000
2189 16536 11050 1 109.50000 418.400000
10799 16536 11050 1 109.50000 418.400000
2915 16537 7696 1 109.50000 418.400000
2915 16537 10529 1 109.50000 418.400000
2915 16537 10778 1 109.50000 418.400000
7696 16537 10529 1 109.50000 418.400000
7696 16537 10778 1 109.50000 418.400000
10529 16537 10778 1 109.50000 418.400000
3140 16538 6874 1 109.50000 418.400000
3140 16538 8903 1 109.50000 418.400000
3140 16538 9242 1 109.50000 418.400000
6874 16538 8903 1 109.50000 418.400000
6874 16538 9242 1 109.50000 418.400000
8903 16538 9242 1 109.50000 418.400000
8922 16539 9295 1 109.50000 418.400000
8922 16539 10273 1 109.50000 418.400000
8922 16539 10645 1 109.50000 418.400000
9295 16539 10273 1 109.50000 418.400000
9295 16539 10645 1 109.50000 418.400000
10273 16539 10645 1 109.50000 418.400000
791 16540 4491 1 109.50000 418.400000
791 16540 5413 1 109.50000 418.400000
791 16540 10230 1 109.50000 418.400000
4491 16540 5413 1 109.50000 418.400000
4491 16540 10230 1 109.50000 418.400000
5413 16540 10230 1 109.50000 418.400000
834 16541 1924 1 109.50000 418.400000
834 16541 8236 1 109.50000 418.400000
834 16541 10660 1 109.50000 418.400000
1924 16541 8236 1 109.50000 418.400000
1924 16541 10660 1 109.50000 418.400000
8236 16541 10660 1 109.50000 418.400000
7311 16542 8290 1 109.50000 418.400000
7311 16542 11182 1 109.50000 418.400000
7311 16542 11185 1 109.50000 418.400000
8290 16542 11182 1 109.50000 418.400000
8290 16542 11185 1 109.50000 418.400000
11182 16542 11185 1 109.50000 418.400000
7716 16543 8712 1 109.50000 418.400000
7716 16543 10553 1 109.50000 418.400000
7716 16543 11051 1 109.50000 418.400000
8712 16543 10553 1 109.50000 418.400000
8712 16543 11051 1 109.50000 418.400000
10553 16543 11051 1 109.50000 418.400000
4538 16544 5790 1 109.50000 418.400000
4538 16544 6640 1 109.50000 418.400000
4538 16544 8656 1 109.50000 418.400000
5790 16544 6640 1 109.50000 418.400000
5790 16544 8656 1 109.50000 418.400000
6640 16544 8656 1 109.50000 418.400000
95 16545 495 1 109.50000 418.400000
95 16545 4558 1 109.50000 418.400000
95 16545 9552 1 109.50000 418.400000
495 16545 4558 1 109.50000 418.400000
495 16545 9552 1 109.50000 418.400000
4558 16545 9552 1 109.50000 418.400000
2907 16546 2908 1 109.50000 418.400000
2907 16546 8540 1 109.50000 418.400000
2907 16546 10378 1 109.50000 418.400000
2908 16546 8540 1 109.50000 418.400000
2908 16546 10378 1 109.50000 418.400000
8540 16546 10378 1 109.50000 418.400000
4651 16547 10422 1 109.50000 418.400000
4651 16547 10760 1 109.50000 418.400000
4651 16547 11023 1 109.50000 418.400000
10422 16547 10760 1 109.50000 418.400000
10422 16547 11023 1 109.50000 418.400000
10760 16547 11023 1 109.50000 418.400000
10389 16548 10594 1 109.50000 418.400000
10389 16548 11020 1 109.50000 418.400000
10389 16548 11021 1 109.50000 418.400000
10594 16548 11020 1 109.50000 418.400000
10594 16548 11021 1 109.50000 418.400000
11020 16548 11021 1 109.50000 418.400000
4961 16549 10119 1 109.50000 418.400000
4961 16549 10306 1 109.50000 418.400000
4961 16549 11052 1 109.50000 418.400000
10119 16549 10306 1 109.50000 418.400000
10119 16549 11052 1 109.50000 418.400000
10306 16549 11052 1 109.50000 418.400000
2687 16550 4740 1 109.50000 418.400000
2687 16550 9745 1 109.50000 418.400000
2687 16550 11053 1 109.50000 418.400000
4740 16550 9745 1 109.50000 418.400000
4740 16550 11053 1 109.50000 418.400000
9745 16550 11053 1 109.50000 418.400000
4480 16551 4481 1 109.50000 418.400000
4480 16551 6824 1 109.50000 418.400000
4480 16551 11008 1 109.50000 418.400000
4481 16551 6824 1 109.50000 418.400000
4481 16551 11008 1 109.50000 418.400000
6824 16551 11008 1 109.50000 418.400000
5483 16552 8119 1 109.50000 418.400000
5483 16552 8947 1 109.50000 418.400000
5483 16552 9630 1 109.50000 418.400000
8119 16552 8947 1 109.50000 418.400000
8119 16552 9630 1 109.50000 418.400000
8947 16552 9630 1 109.50000 418.400000
7405 16553 9609 1 109.50000 418.400000
7405 16553 9610 1 109.50000 418.400000
7405 16553 9611 1 109.50000 418.400000
9609 16553 9610 1 109.50000 418.400000
9609 16553 9611 1 109.50000 418.400000
9610 16553 9611 1 109.50000 418.400000
104 16554 7826 1 109.50000 418.400000
104 16554 9079 1 109.50000 418.400000
104 16554 11056 1 109.50000 418.400000
7826 16554 9079 1 109.50000 418.400000
7826 16554 11056 1 109.50000 418.400000
9079 16554 11056 1 109.50000 418.400000
4423 16555 5226 1 109.50000 418.400000
4423 16555 5956 1 109.50000 418.400000
4423 16555 9872 1 109.50000 418.400000
5226 16555 5956 1 109.50000 418.400000
5226 16555 9872 1 109.50000 418.400000
5956 16555 9872 1 109.50000 418.400000
2456 16556 6621 1 109.50000 418.400000
2456 16556 8648 1 109.50000 418.400000
2456 16556 10357 1 109.50000 418.400000
6621 16556 8648 1 109.50000 418.400000
6621 16556 10357 1 109.50000 418.400000
8648 16556 10357 1 109.50000 418.400000
108 16557 170 1 109.50000 418.400000
108 16557 3078 1 109.50000 418.400000
108 16557 8065 1 109.50000 418.400000
170 16557 3078 1 109.50000 418.400000
170 16557 8065 1 109.50000 418.400000
3078 16557 8065 1 109.50000 418.400000
7761 16558 7829 1 109.50000 418.400000
7761 16558 8613 1 109.50000 418.400000
7761 16558 11038 1 109.50000 418.400000
7829 16558 8613 1 109.50000 418.400000
7829 16558 11038 1 109.50000 418.400000
8613 16558 11038 1 109.50000 418.400000
3194 16559 3196 1 109.50000 418.400000
3194 16559 8374 1 109.50000 418.400000
3194 16559 11037 1 109.50000 418.400000
3196 16559 8374 1 109.50000 418.400000
3196 16559 11037 1 109.50000 418.400000
8374 16559 11037 1 109.50000 418.400000
7869 16560 9450 1 109.50000 418.400000
7869 16560 10227 1 109.50000 418.400000
7869 16560 11006 1 109.50000 418.400000
9450 16560 10227 1 109.50000 418.400000
9450 16560 11006 1 109.50000 418.400000
10227 16560 11006 1 109.50000 418.400000
2929 16561 5227 1 109.50000 418.400000
2929 16561 9353 1 109.50000 418.400000
2929 16561 10190 1 109.50000 418.400000
5227 16561 9353 1 109.50000 418.400000
5227 16561 10190 1 109.50000 418.400000
9353 16561 10190 1 109.50000 418.400000
3321 16562 3718 1 109.50000 418.400000
3321 16562 10630 1 109.50000 418.400000
3321 16562 11057 1 109.50000 418.400000
3718 16562 10630 1 109.50000 418.400000
3718 16562 11057 1 109.50000 418.400000
10630 16562 11057 1 109.50000 418.400000
7095 16563 7670 1 109.50000 418.400000
7095 16563 9443 1 109.50000 418.400000
7095 16563 10722 1 109.50000 418.400000
7670 16563 9443 1 109.50000 418.400000
7670 16563 10722 1 109.50000 418.400000
9443 16563 10722 1 109.50000 418.400000
892 16564 8281 1 109.50000 418.400000
892 16564 10401 1 109.50000 418.400000
892 16564 11058 1 109.50000 418.400000
8281 16564 10401 1 109.50000 418.400000
8281 16564 11058 1 109.50000 418.400000
10401 16564 11058 1 109.50000 418.400000
4745 16565 8610 1 109.50000 418.400000
4745 16565 9692 1 109.50000 418.400000
4745 16565 10501 1 109.50000 418.400000
8610 16565 9692 1 109.50000 418.400000
8610 16565 10501 1 109.50000 418.400000
9692 16565 10501 1 109.50000 418.400000
2305 16566 8861 1 109.50000 418.400000
2305 16566 8970 1 109.50000 418.400000
2305 16566 11059 1 109.50000 418.400000
8861 16566 8970 1 109.50000 418.400000
8861 16566 11059 1 109.50000 418.400000
8970 16566 11059 1 109.50000 418.400000
7526 16567 9050 1 109.50000 418.400000
7526 16567 11060 1 109.50000 418.400000
7526 16567 11061 1 109.50000 418.400000
9050 16567 11060 1 109.50000 418.400000
9050 16567 11061 1 109.50000 418.400000
11060 16567 11061 1 109.50000 418.400000
1615 16568 3457 1 109.50000 418.400000
1615 16568 9099 1 109.50000 418.400000
1615 16568 10339 1 109.50000 418.400000
3457 16568 9099 1 109.50000 418.400000
3457 16568 10339 1 109.50000 418.400000
9099 16568 10339 1 109.50000 418.400000
3082 16569 7300 1 109.50000 418.400000
3082 16569 9941 1 109.50000 418.400000
3082 16569 11063 1 109.50000 418.400000
7300 16569 9941 1 109.50000 418.400000
7300 16569 11063 1 109.50000 418.400000
9941 16569 11063 1 109.50000 418.400000
3355 16570 5225 1 109.50000 418.400000
3355 16570 8226 1 109.50000 418.400000
3355 16570 10803 1 109.50000 418.400000
5225 16570 8226 1 109.50000 418.400000
5225 16570 10803 1 109.50000 418.400000
8226 16570 10803 1 109.50000 418.400000
7357 16571 8145 1 109.50000 418.400000
7357 16571 10354 1 109.50000 418.400000
7357 16571 10700 1 109.50000 418.400000
8145 16571 10354 1 109.50000 418.400000
8145 16571 10700 1 109.50000 418.400000
10354 16571 10700 1 109.50000 418.400000
3757 16572 8606 1 109.50000 418.400000
3757 16572 8691 1 109.50000 418.400000
3757 16572 10505 1 109.50000 418.400000
8606 16572 8691 1 109.50000 418.400000
8606 16572 10505 1 109.50000 418.400000
8691 16572 10505 1 109.50000 418.400000
2564 16573 3312 1 109.50000 418.400000
2564 16573 3684 1 109.50000 418.400000
2564 16573 8882 1 109.50000 418.400000
3312 16573 3684 1 109.50000 418.400000
3312 16573 8882 1 109.50000 418.400000
3684 16573 8882 1 109.50000 418.400000
2083 16574 2339 1 109.50000 418.400000
2083 16574 3316 1 109.50000 418.400000
2083 16574 11064 1 109.50000 418.400000
2339 16574 3316 1 109.50000 418.400000
2339 16574 11064 1 109.50000 418.400000
3316 16574 11064 1 109.50000 418.400000
489 16575 7798 1 109.50000 418.400000
489 16575 9610 1 109.50000 418.400000
489 16575 10642 1 109.50000 418.400000
7798 16575 9610 1 109.50000 418.400000
7798 16575 10642 1 109.50000 418.400000
9610 16575 10642 1 109.50000 418.400000
4373 16576 5576 1 109.50000 418.400000
4373 16576 7904 1 109.50000 418.400000
4373 16576 11065 1 109.50000 418.400000
5576 16576 7904 1 109.50000 418.400000
5576 16576 11065 1 109.50000 418.400000
7904 16576 11065 1 109.50000 418.400000
5195 16577 5503 1 109.50000 418.400000
5195 16577 9375 1 109.50000 418.400000
5195 16577 10561 1 109.50000 418.400000
5503 16577 9375 1 109.50000 418.400000
5503 16577 10561 1 109.50000 418.400000
9375 16577 10561 1 109.50000 418.400000
6571 16578 10073 1 109.50000 418.400000
6571 16578 10976 1 109.50000 418.400000
6571 16578 11066 1 109.50000 418.400000
10073 16578 10976 1 109.50000 418.400000
10073 16578 11066 1 109.50000 418.400000
10976 16578 11066 1 109.50000 418.400000
5680 16579 8147 1 109.50000 418.400000
5680 16579 9141 1 109.50000 418.400000
5680 16579 10524 1 109.50000 418.400000
8147 16579 9141 1 109.50000 418.400000
8147 16579 10524 1 109.50000 418.400000
9141 16579 10524 1 109.50000 418.400000
44 16580 807 1 109.50000 418.400000
44 16580 4858 1 109.50000 418.400000
44 16580 4988 1 109.50000 418.400000
807 16580 4858 1 109.50000 418.400000
807 16580 4988 1 109.50000 418.400000
4858 16580 4988 1 109.50000 418.400000
6059 16581 10041 1 109.50000 418.400000
6059 16581 10379 1 109.50000 418.400000
6059 16581 11068 1 109.50000 418.400000
10041 16581 10379 1 109.50000 418.400000
10041 16581 11068 1 109.50000 418.400000
10379 16581 11068 1 109.50000 418.400000
3529 16582 7111 1 109.50000 418.400000
3529 16582 8333 1 109.50000 418.400000
3529 16582 10682 1 109.50000 418.400000
7111 16582 8333 1 109.50000 418.400000
7111 16582 10682 1 109.50000 418.400000
8333 16582 10682 1 109.50000 418.400000
10030 16583 10544 1 109.50000 418.400000
10030 16583 11069 1 109.50000 418.400000
10030 16583 11187 1 109.50000 418.400000
10544 16583 11069 1 109.50000 418.400000
10544 16583 11187 1 109.50000 418.400000
11069 16583 11187 1 109.50000 418.400000
3406 16584 5580 1 109.50000 418.400000
3406 16584 6416 1 109.50000 418.400000
3406 16584 11070 1 109.50000 418.400000
5580 16584 6416 1 109.50000 418.400000
5580 16584 11070 1 109.50000 418.400000
6416 16584 11070 1 109.50000 418.400000
1092 16585 9907 1 109.50000 418.400000
1092 16585 10160 1 109.50000 418.400000
1092 16585 11071 1 109.50000 418.400000
9907 16585 10160 1 109.50000 418.400000
9907 16585 11071 1 109.50000 418.400000
10160 16585 11071 1 109.50000 418.400000
6863 16586 10933 1 109.50000 418.400000
6863 16586 11072 1 109.50000 418.400000
6863 16586 11073 1 109.50000 418.400000
10933 16586 11072 1 109.50000 418.400000
10933 16586 11073 1 109.50000 418.400000
11072 16586 11073 1 109.50000 418.400000
323 16587 2317 1 109.50000 418.400000
323 16587 5853 1 109.50000 418.400000
323 16587 11050 1 109.50000 418.400000
2317 16587 5853 1 109.50000 418.400000
2317 16587 11050 1 109.50000 418.400000
5853 16587 11050 1 109.50000 418.400000
8454 16588 10608 1 109.50000 418.400000
8454 16588 10943 1 109.50000 418.400000
8454 16588 10948 1 109.50000 418.400000
10608 16588 10943 1 109.50000 418.400000
10608 16588 10948 1 109.50000 418.400000
10943 16588 10948 1 109.50000 418.400000
4507 16589 7643 1 109.50000 418.400000
4507 16589 10095 1 109.50000 418.400000
4507 16589 10798 1 109.50000 418.400000
7643 16589 10095 1 109.50000 418.400000
7643 16589 10798 1 109.50000 418.400000
10095 16589 10798 1 109.50000 418.400000
833 16590 1720 1 109.50000 418.400000
833 16590 3848 1 109.50000 418.400000
833 16590 9624 1 109.50000 418.400000
1720 16590 3848 1 109.50000 418.400000
1720 16590 9624 1 109.50000 418.400000
3848 16590 9624 1 109.50000 418.400000
5544 16591 6401 1 109.50000 418.400000
5544 16591 7038 1 109.50000 418.400000
5544 16591 11074 1 109.50000 418.400000
6401 16591 7038 1 109.50000 418.400000
6401 16591 11074 1 109.50000 418.400000
7038 16591 11074 1 109.50000 418.400000
7982 16592 8934 1 109.50000 418.400000
7982 16592 9862 1 109.50000 418.400000
7982 16592 10429 1 109.50000 418.400000
8934 16592 9862 1 109.50000 418.400000
8934 16592 10429 1 109.50000 418.400000
9862 16592 10429 1 109.50000 418.400000
2522 16593 4681 1 109.50000 418.400000
2522 16593 7190 1 109.50000 418.400000
2522 16593 10717 1 109.50000 418.400000
4681 16593 7190 1 109.50000 418.400000
4681 16593 10717 1 109.50000 418.400000
7190 16593 10717 1 109.50000 418.400000
4106 16594 6040 1 109.50000 418.400000
4106 16594 9125 1 109.50000 418.400000
4106 16594 9126 1 109.50000 418.400000
6040 16594 9125 1 109.50000 418.400000
6040 16594 9126 1 109.50000 418.400000
9125 16594 9126 1 109.50000 418.400000
7802 16595 8130 1 109.50000 418.400000
7802 16595 9818 1 109.50000 418.400000
7802 16595 10968 1 109.50000 418.400000
8130 16595 9818 1 109.50000 418.400000
8130 16595 10968 1 109.50000 418.400000
9818 16595 10968 1 109.50000 418.400000
4748 16596 8538 1 109.50000 418.400000
4748 16596 9332 1 109.50000 418.400000
4748 16596 9863 1 109.50000 418.400000
8538 16596 9332 1 109.50000 418.400000
8538 16596 9863 1 109.50000 418.400000
9332 16596 9863 1 109.50000 418.400000
9064 16597 10861 1 109.50000 418.400000
9064 16597 10895 1 109.50000 418.400000
9064 16597 10975 1 109.50000 418.400000
10861 16597 10895 1 109.50000 418.400000
10861 16597 10975 1 109.50000 418.400000
10895 16597 10975 1 109.50000 418.400000
1257 16598 1577 1 109.50000 418.400000
1257 16598 8612 1 109.50000 418.400000
1257 16598 11076 1 109.50000 418.400000
1577 16598 8612 1 109.50000 418.400000
1577 16598 11076 1 109.50000 418.400000
8612 16598 11076 1 109.50000 418.400000
2500 16599 2921 1 109.50000 418.400000
2500 16599 7708 1 109.50000 418.400000
2500 16599 11143 1 109.50000 418.400000
2921 16599 7708 1 109.50000 418.400000
2921 16599 11143 1 109.50000 418.400000
7708 16599 11143 1 109.50000 418.400000
9139 16600 10411 1 109.50000 418.400000
9139 16600 10858 1 109.50000 418.400000
9139 16600 11075 1 109.50000 418.400000
10411 16600 10858 1 109.50000 418.400000
10411 16600 11075 1 109.50000 418.400000
10858 16600 11075 1 109.50000 418.400000
4074 16601 4313 1 109.50000 418.400000
4074 16601 4680 1 109.50000 418.400000
4074 16601 5906 1 109.50000 418.400000
4313 16601 4680 1 109.50000 418.400000
4313 16601 5906 1 109.50000 418.400000
4680 16601 5906 1 109.50000 418.400000
8228 16602 8812 1 109.50000 418.400000
8228 16602 10528 1 109.50000 418.400000
8228 16602 11028 1 109.50000 418.400000
8812 16602 10528 1 109.50000 418.400000
8812 16602 11028 1 109.50000 418.400000
10528 16602 11028 1 109.50000 418.400000
2355 16603 4004 1 109.50000 418.400000
2355 16603 9117 1 109.50000 418.400000
2355 16603 9285 1 109.50000 418.400000
4004 16603 9117 1 109.50000 418.400000
4004 16603 9285 1 109.50000 418.400000
9117 16603 9285 1 109.50000 418.400000
7536 16604 9106 1 109.50000 418.400000
7536 16604 10279 1 109.50000 418.400000
7536 16604 10310 1 109.50000 418.400000
9106 16604 10279 1 109.50000 418.400000
9106 16604 10310 1 109.50000 418.400000
10279 16604 10310 1 109.50000 418.400000
912 16605 2798 1 109.50000 418.400000
912 16605 6520 1 109.50000 418.400000
912 16605 11000 1 109.50000 418.400000
2798 16605 6520 1 109.50000 418.400000
2798 16605 11000 1 109.50000 418.400000
6520 16605 11000 1 109.50000 418.400000
3007 16606 5512 1 109.50000 418.400000
3007 16606 7916 1 109.50000 418.400000
3007 16606 11077 1 109.50000 418.400000
5512 16606 7916 1 109.50000 418.400000
5512 16606 11077 1 109.50000 418.400000
7916 16606 11077 1 109.50000 418.400000
1758 16607 5737 1 109.50000 418.400000
1758 16607 8731 1 109.50000 418.400000
1758 16607 9623 1 109.50000 418.400000
5737 16607 8731 1 109.50000 418.400000
5737 16607 9623 1 109.50000 418.400000
8731 16607 9623 1 109.50000 418.400000
3841 16608 7004 1 109.50000 418.400000
3841 16608 10904 1 109.50000 418.400000
3841 16608 10994 1 109.50000 418.400000
7004 16608 10904 1 109.50000 418.400000
7004 16608 10994 1 109.50000 418.400000
10904 16608 10994 1 109.50000 418.400000
365 16609 556 1 109.50000 418.400000
365 16609 1992 1 109.50000 418.400000
365 16609 10840 1 109.50000 418.400000
556 16609 1992 1 109.50000 418.400000
556 16609 10840 1 109.50000 418.400000
1992 16609 10840 1 109.50000 418.400000
6353 16610 8303 1 109.50000 418.400000
6353 16610 8809 1 109.50000 418.400000
6353 16610 10807 1 109.50000 418.400000
8303 16610 8809 1 109.50000 418.400000
8303 16610 10807 1 109.50000 418.400000
8809 16610 10807 1 109.50000 418.400000
1260 16611 4517 1 109.50000 418.400000
1260 16611 9202 1 109.50000 418.400000
1260 16611 11472 1 109.50000 418.400000
4517 16611 9202 1 109.50000 418.400000
4517 16611 11472 1 109.50000 418.400000
9202 16611 11472 1 109.50000 418.400000
3107 16612 8975 1 109.50000 418.400000
3107 16612 10194 1 109.50000 418.400000
3107 16612 10195 1 109.50000 418.400000
8975 16612 10194 1 109.50000 418.400000
8975 16612 10195 1 109.50000 418.400000
10194 16612 10195 1 109.50000 418.400000
2318 16613 3731 1 109.50000 418.400000
2318 16613 9396 1 109.50000 418.400000
2318 16613 10987 1 109.50000 418.400000
3731 16613 9396 1 109.50000 418.400000
3731 16613 10987 1 109.50000 418.400000
9396 16613 10987 1 109.50000 418.400000
5536 16614 9566 1 109.50000 418.400000
5536 16614 10918 1 109.50000 418.400000
5536 16614 11035 1 109.50000 418.400000
9566 16614 10918 1 109.50000 418.400000
9566 16614 11035 1 109.50000 418.400000
10918 16614 11035 1 109.50000 418.400000
8817 16615 9689 1 109.50000 418.400000
8817 16615 9890 1 109.50000 418.400000
8817 16615 10935 1 109.50000 418.400000
9689 16615 9890 1 109.50000 418.400000
9689 16615 10935 1 109.50000 418.400000
9890 16615 10935 1 109.50000 418.400000
6931 16616 10047 1 109.50000 418.400000
6931 16616 11078 1 109.50000 418.400000
6931 16616 11388 1 109.50000 418.400000
10047 16616 11078 1 109.50000 418.400000
10047 16616 11388 1 109.50000 418.400000
11078 16616 11388 1 109.50000 418.400000
7813 16617 10355 1 109.50000 418.400000
7813 16617 11329 1 109.50000 418.400000
7813 16617 11334 1 109.50000 418.400000
10355 16617 11329 1 109.50000 418.400000
10355 16617 11334 1 109.50000 418.400000
11329 16617 11334 1 109.50000 418.400000
7471 16618 8124 1 109.50000 418.400000
7471 16618 9317 1 109.50000 418.400000
7471 16618 10096 1 109.50000 418.400000
8124 16618 9317 1 109.50000 418.400000
8124 16618 10096 1 109.50000 418.400000
9317 16618 10096 1 109.50000 418.400000
1112 16619 5188 1 109.50000 418.400000
1112 16619 9395 1 109.50000 418.400000
1112 16619 11467 1 109.50000 418.400000
5188 16619 9395 1 109.50000 418.400000
5188 16619 11467 1 109.50000 418.400000
9395 16619 11467 1 109.50000 418.400000
4337 16620 11071 1 109.50000 418.400000
4337 16620 11079 1 109.50000 418.400000
4337 16620 11080 1 109.50000 418.400000
11071 16620 11079 1 109.50000 418.400000
11071 16620 11080 1 109.50000 418.400000
11079 16620 11080 1 109.50000 418.400000
2963 16621 5043 1 109.50000 418.400000
2963 16621 8444 1 109.50000 418.400000
2963 16621 11411 1 109.50000 418.400000
5043 16621 8444 1 109.50000 418.400000
5043 16621 11411 1 109.50000 418.400000
8444 16621 11411 1 109.50000 418.400000
5701 16622 7692 1 109.50000 418.400000
5701 16622 9217 1 109.50000 418.400000
5701 16622 9917 1 109.50000 418.400000
7692 16622 9217 1 109.50000 418.400000
7692 16622 9917 1 109.50000 418.400000
9217 16622 9917 1 109.50000 418.400000
2457 16623 2708 1 109.50000 418.400000
2457 16623 4603 1 109.50000 418.400000
2457 16623 11081 1 109.50000 418.400000
2708 16623 4603 1 109.50000 418.400000
2708 16623 11081 1 109.50000 418.400000
4603 16623 11081 1 109.50000 418.400000
2437 16624 3256 1 109.50000 418.400000
2437 16624 9826 1 109.50000 418.400000
2437 16624 10005 1 109.50000 418.400000
3256 16624 9826 1 109.50000 418.400000
3256 16624 10005 1 109.50000 418.400000
9826 16624 10005 1 109.50000 418.400000
5116 16625 9651 1 109.50000 418.400000
5116 16625 9700 1 109.50000 418.400000
5116 16625 11077 1 109.50000 418.400000
9651 16625 9700 1 109.50000 418.400000
9651 16625 11077 1 109.50000 418.400000
9700 16625 11077 1 109.50000 418.400000
4940 16626 4942 1 109.50000 418.400000
4940 16626 8358 1 109.50000 418.400000
4940 16626 10481 1 109.50000 418.400000
4942 16626 8358 1 109.50000 418.400000
4942 16626 10481 1 109.50000 418.400000
8358 16626 10481 1 109.50000 418.400000
4045 16627 5614 1 109.50000 418.400000
4045 16627 10595 1 109.50000 418.400000
4045 16627 11082 1 109.50000 418.400000
5614 16627 10595 1 109.50000 418.400000
5614 16627 11082 1 109.50000 418.400000
10595 16627 11082 1 109.50000 418.400000
5691 16628 7796 1 109.50000 418.400000
5691 16628 9382 1 109.50000 418.400000
5691 16628 11080 1 109.50000 418.400000
7796 16628 9382 1 109.50000 418.400000
7796 16628 11080 1 109.50000 418.400000
9382 16628 11080 1 109.50000 418.400000
1407 16629 10329 1 109.50000 418.400000
1407 16629 10385 1 109.50000 418.400000
1407 16629 11519 1 109.50000 418.400000
10329 16629 10385 1 109.50000 418.400000
10329 16629 11519 1 109.50000 418.400000
10385 16629 11519 1 109.50000 418.400000
5282 16630 5376 1 109.50000 418.400000
5282 16630 8870 1 109.50000 418.400000
5282 16630 10216 1 109.50000 418.400000
5376 16630 8870 1 109.50000 418.400000
5376 16630 10216 1 109.50000 418.400000
8870 16630 10216 1 109.50000 418.400000
812 16631 5064 1 109.50000 418.400000
812 16631 8201 1 109.50000 418.400000
812 16631 10017 1 109.50000 418.400000
5064 16631 8201 1 109.50000 418.400000
5064 16631 10017 1 109.50000 418.400000
8201 16631 10017 1 109.50000 418.400000
3640 16632 9376 1 109.50000 418.400000
3640 16632 10913 1 109.50000 418.400000
3640 16632 10920 1 109.50000 418.400000
9376 16632 10913 1 109.50000 418.400000
9376 16632 10920 1 109.50000 418.400000
10913 16632 10920 1 109.50000 418.400000
1797 16633 5186 1 109.50000 418.400000
1797 16633 6339 1 109.50000 418.400000
1797 16633 10846 1 109.50000 418.400000
5186 16633 6339 1 109.50000 418.400000
5186 16633 10846 1 109.50000 418.400000
6339 16633 10846 1 109.50000 418.400000
1127 16634 7880 1 109.50000 418.400000
1127 16634 9660 1 109.50000 418.400000
1127 16634 11083 1 109.50000 418.400000
7880 16634 9660 1 109.50000 418.400000
7880 16634 11083 1 109.50000 418.400000
9660 16634 11083 1 109.50000 418.400000
731 16635 6766 1 109.50000 418.400000
731 16635 10228 1 109.50000 418.400000
731 16635 10568 1 109.50000 418.400000
6766 16635 10228 1 109.50000 418.400000
6766 16635 10568 1 109.50000 418.400000
10228 16635 10568 1 109.50000 418.400000
6150 16636 7638 1 109.50000 418.400000
6150 16636 11014 1 109.50000 418.400000
6150 16636 11439 1 109.50000 418.400000
7638 16636 11014 1 109.50000 418.400000
7638 16636 11439 1 109.50000 418.400000
11014 16636 11439 1 109.50000 418.400000
235 16637 842 1 109.50000 418.400000
235 16637 9780 1 109.50000 418.400000
235 16637 10691 1 109.50000 418.400000
842 16637 9780 1 109.50000 418.400000
842 16637 10691 1 109.50000 418.400000
9780 16637 10691 1 109.50000 418.400000
1384 16638 4385 1 109.50000 418.400000
1384 16638 5213 1 109.50000 418.400000
1384 16638 6280 1 109.50000 418.400000
4385 16638 5213 1 109.50000 418.400000
4385 16638 6280 1 109.50000 418.400000
5213 16638 6280 1 109.50000 418.400000
4969 16639 8335 1 109.50000 418.400000
4969 16639 9962 1 109.50000 418.400000
4969 16639 10653 1 109.50000 418.400000
8335 16639 9962 1 109.50000 418.400000
8335 16639 10653 1 109.50000 418.400000
9962 16639 10653 1 109.50000 418.400000
6046 16640 6381 1 109.50000 418.400000
6046 16640 9612 1 109.50000 418.400000
6046 16640 10696 1 109.50000 418.400000
6381 16640 9612 1 109.50000 418.400000
6381 16640 10696 1 109.50000 418.400000
9612 16640 10696 1 109.50000 418.400000
1230 16641 8864 1 109.50000 418.400000
1230 16641 11025 1 109.50000 418.400000
1230 16641 11045 1 109.50000 418.400000
8864 16641 11025 1 109.50000 418.400000
8864 16641 11045 1 109.50000 418.400000
11025 16641 11045 1 109.50000 418.400000
1531 16642 2481 1 109.50000 418.400000
1531 16642 8352 1 109.50000 418.400000
1531 16642 9342 1 109.50000 418.400000
2481 16642 8352 1 109.50000 418.400000
2481 16642 9342 1 109.50000 418.400000
8352 16642 9342 1 109.50000 418.400000
6992 16643 7845 1 109.50000 418.400000
6992 16643 8420 1 109.50000 418.400000
6992 16643 11084 1 109.50000 418.400000
7845 16643 8420 1 109.50000 418.400000
7845 16643 11084 1 109.50000 418.400000
8420 16643 11084 1 109.50000 418.400000
3410 16644 8170 1 109.50000 418.400000
3410 16644 8346 1 109.50000 418.400000
3410 16644 9626 1 109.50000 418.400000
8170 16644 8346 1 109.50000 418.400000
8170 16644 9626 1 109.50000 418.400000
8346 16644 9626 1 109.50000 418.400000
8865 16645 9164 1 109.50000 418.400000
8865 16645 11239 1 109.50000 418.400000
8865 16645 11242 1 109.50000 418.400000
9164 16645 11239 1 109.50000 418.400000
9164 16645 11242 1 109.50000 418.400000
11239 16645 11242 1 109.50000 418.400000
7244 16646 7464 1 109.50000 418.400000
7244 16646 8015 1 109.50000 418.400000
7244 16646 11085 1 109.50000 418.400000
7464 16646 8015 1 109.50000 418.400000
7464 16646 11085 1 109.50000 418.400000
8015 16646 11085 1 109.50000 418.400000
8166 16647 8434 1 109.50000 418.400000
8166 16647 8436 1 109.50000 418.400000
8166 16647 9790 1 109.50000 418.400000
8434 16647 8436 1 109.50000 418.400000
8434 16647 9790 1 109.50000 418.400000
8436 16647 9790 1 109.50000 418.400000
368 16648 369 1 109.50000 418.400000
368 16648 370 1 109.50000 418.400000
368 16648 9982 1 109.50000 418.400000
369 16648 370 1 109.50000 418.400000
369 16648 9982 1 109.50000 418.400000
370 16648 9982 1 109.50000 418.400000
1901 16649 5626 1 109.50000 418.400000
1901 16649 9931 1 109.50000 418.400000
1901 16649 10294 1 109.50000 418.400000
5626 16649 9931 1 109.50000 418.400000
5626 16649 10294 1 109.50000 418.400000
9931 16649 10294 1 109.50000 418.400000
4160 16650 4215 1 109.50000 418.400000
4160 16650 10057 1 109.50000 418.400000
4160 16650 11086 1 109.50000 418.400000
4215 16650 10057 1 109.50000 418.400000
4215 16650 11086 1 109.50000 418.400000
10057 16650 11086 1 109.50000 418.400000
1095 16651 4802 1 109.50000 418.400000
1095 16651 10726 1 109.50000 418.400000
1095 16651 10937 1 109.50000 418.400000
4802 16651 10726 1 109.50000 418.400000
4802 16651 10937 1 109.50000 418.400000
10726 16651 10937 1 109.50000 418.400000
6177 16652 8820 1 109.50000 418.400000
6177 16652 10026 1 109.50000 418.400000
6177 16652 11087 1 109.50000 418.400000
8820 16652 10026 1 109.50000 418.400000
8820 16652 11087 1 109.50000 418.400000
10026 16652 11087 1 109.50000 418.400000
5943 16653 7934 1 109.50000 418.400000
5943 16653 9268 1 109.50000 418.400000
5943 16653 9408 1 109.50000 418.400000
7934 16653 9268 1 109.50000 418.400000
7934 16653 9408 1 109.50000 418.400000
9268 16653 9408 1 109.50000 418.400000
2610 16654 4204 1 109.50000 418.400000
2610 16654 6245 1 109.50000 418.400000
2610 16654 9411 1 109.50000 418.400000
4204 16654 6245 1 109.50000 418.400000
4204 16654 9411 1 109.50000 418.400000
6245 16654 9411 1 109.50000 418.400000
3854 16655 5842 1 109.50000 418.400000
3854 16655 10170 1 109.50000 418.400000
3854 16655 10285 1 109.50000 418.400000
5842 16655 10170 1 109.50000 418.400000
5842 16655 10285 1 109.50000 418.400000
10170 16655 10285 1 109.50000 418.400000
4208 16656 8473 1 109.50000 418.400000
4208 16656 9009 1 109.50000 418.400000
4208 16656 10424 1 109.50000 418.400000
8473 16656 9009 1 109.50000 418.400000
8473 16656 10424 1 109.50000 418.400000
9009 16656 10424 1 109.50000 418.400000
7882 16657 10620 1 109.50000 418.400000
7882 16657 10851 1 109.50000 418.400000
7882 16657 11088 1 109.50000 418.400000
10620 16657 10851 1 109.50000 418.400000
10620 16657 11088 1 109.50000 418.400000
10851 16657 11088 1 109.50000 418.400000
3580 16658 7041 1 109.50000 418.400000
3580 16658 9959 1 109.50000 418.400000
3580 16658 10941 1 109.50000 418.400000
7041 16658 9959 1 109.50000 418.400000
7041 16658 10941 1 109.50000 418.400000
9959 16658 10941 1 109.50000 418.400000
9857 16659 10719 1 109.50000 418.400000
9857 16659 11089 1 109.50000 418.400000
9857 16659 11090 1 109.50000 418.400000
10719 16659 11089 1 109.50000 418.400000
10719 16659 11090 1 109.50000 418.400000
11089 16659 11090 1 109.50000 418.400000
1215 16660 3499 1 109.50000 418.400000
1215 16660 9825 1 109.50000 418.400000
1215 16660 11091 1 109.50000 418.400000
3499 16660 9825 1 109.50000 418.400000
3499 16660 11091 1 109.50000 418.400000
9825 16660 11091 1 109.50000 418.400000
1843 16661 5477 1 109.50000 418.400000
1843 16661 10823 1 109.50000 418.400000
1843 16661 11051 1 109.50000 418.400000
5477 16661 10823 1 109.50000 418.400000
5477 16661 11051 1 109.50000 418.400000
10823 16661 11051 1 109.50000 418.400000
2279 16662 3225 1 109.50000 418.400000
2279 16662 6345 1 109.50000 418.400000
2279 16662 9291 1 109.50000 418.400000
3225 16662 6345 1 109.50000 418.400000
3225 16662 9291 1 109.50000 418.400000
6345 16662 9291 1 109.50000 418.400000
4029 16663 7771 1 109.50000 418.400000
4029 16663 8373 1 109.50000 418.400000
4029 16663 10415 1 109.50000 418.400000
7771 16663 8373 1 109.50000 418.400000
7771 16663 10415 1 109.50000 418.400000
8373 16663 10415 1 109.50000 418.400000
735 16664 3185 1 109.50000 418.400000
735 16664 10191 1 109.50000 418.400000
735 16664 10393 1 109.50000 418.400000
3185 16664 10191 1 109.50000 418.400000
3185 16664 10393 1 109.50000 418.400000
10191 16664 10393 1 109.50000 418.400000
4668 16665 6117 1 109.50000 418.400000
4668 16665 9254 1 109.50000 418.400000
4668 16665 10898 1 109.50000 418.400000
6117 16665 9254 1 109.50000 418.400000
6117 16665 10898 1 109.50000 418.400000
9254 16665 10898 1 109.50000 418.400000
466 16666 6821 1 109.50000 418.400000
466 16666 8167 1 109.50000 418.400000
466 16666 11061 1 109.50000 418.400000
6821 16666 8167 1 109.50000 418.400000
6821 16666 11061 1 109.50000 418.400000
8167 16666 11061 1 109.50000 418.400000
1750 16667 10502 1 109.50000 418.400000
1750 16667 10574 1 109.50000 418.400000
1750 16667 10583 1 109.50000 418.400000
10502 16667 10574 1 109.50000 418.400000
10502 16667 10583 1 109.50000 418.400000
10574 16667 10583 1 109.50000 418.400000
2300 16668 7197 1 109.50000 418.400000
2300 16668 8846 1 109.50000 418.400000
2300 16668 11093 1 109.50000 418.400000
7197 16668 8846 1 109.50000 418.400000
7197 16668 11093 1 109.50000 418.400000
8846 16668 11093 1 109.50000 418.400000
412 16669 1026 1 109.50000 418.400000
412 16669 2829 1 109.50000 418.400000
412 16669 5278 1 109.50000 418.400000
1026 16669 2829 1 109.50000 418.400000
1026 16669 5278 1 109.50000 418.400000
2829 16669 5278 1 109.50000 418.400000
3052 16670 7671 1 109.50000 418.400000
3052 16670 7672 1 109.50000 418.400000
3052 16670 10366 1 109.50000 418.400000
7671 16670 7672 1 109.50000 418.400000
7671 16670 10366 1 109.50000 418.400000
7672 16670 10366 1 109.50000 418.400000
2678 16671 4864 1 109.50000 418.400000
2678 16671 8945 1 109.50000 418.400000
2678 16671 10445 1 109.50000 418.400000
4864 16671 8945 1 109.50000 418.400000
4864 16671 10445 1 109.50000 418.400000
8945 16671 10445 1 109.50000 418.400000
9835 16672 10766 1 109.50000 418.400000
9835 16672 11081 1 109.50000 418.400000
9835 16672 11525 1 109.50000 418.400000
10766 16672 11081 1 109.50000 418.400000
10766 16672 11525 1 109.50000 418.400000
11081 16672 11525 1 109.50000 418.400000
1227 16673 1319 1 109.50000 418.400000
1227 16673 3083 1 109.50000 418.400000
1227 16673 3653 1 109.50000 418.400000
1319 16673 3083 1 109.50000 418.400000
1319 16673 3653 1 109.50000 418.400000
3083 16673 3653 1 109.50000 418.400000
928 16674 1014 1 109.50000 418.400000
928 16674 5720 1 109.50000 418.400000
928 16674 10198 1 109.50000 418.400000
1014 16674 5720 1 109.50000 418.400000
1014 16674 10198 1 109.50000 418.400000
5720 16674 10198 1 109.50000 418.400000
6095 16675 8537 1 109.50000 418.400000
6095 16675 8854 1 109.50000 418.400000
6095 16675 9096 1 109.50000 418.400000
8537 16675 8854 1 109.50000 418.400000
8537 16675 9096 1 109.50000 418.400000
8854 16675 9096 1 109.50000 418.400000
4607 16676 6525 1 109.50000 418.400000
4607 16676 8280 1 109.50000 418.400000
4607 16676 9313 1 109.50000 418.400000
6525 16676 8280 1 109.50000 418.400000
6525 16676 9313 1 109.50000 418.400000
8280 16676 9313 1 109.50000 418.400000
6782 16677 7105 1 109.50000 418.400000
6782 16677 9420 1 109.50000 418.400000
6782 16677 10249 1 109.50000 418.400000
7105 16677 9420 1 109.50000 418.400000
7105 16677 10249 1 109.50000 418.400000
9420 16677 10249 1 109.50000 418.400000
5417 16678 7568 1 109.50000 418.400000
5417 16678 9505 1 109.50000 418.400000
5417 16678 10795 1 109.50000 418.400000
7568 16678 9505 1 109.50000 418.400000
7568 16678 10795 1 109.50000 418.400000
9505 16678 10795 1 109.50000 418.400000
9399 16679 10762 1 109.50000 418.400000
9399 16679 10818 1 109.50000 418.400000
9399 16679 10979 1 109.50000 418.400000
10762 16679 10818 1 109.50000 418.400000
10762 16679 10979 1 109.50000 418.400000
10818 16679 10979 1 109.50000 418.400000
3974 16680 4432 1 109.50000 418.400000
3974 16680 4519 1 109.50000 418.400000
3974 16680 11157 1 109.50000 418.400000
4432 16680 4519 1 109.50000 418.400000
4432 16680 11157 1 109.50000 418.400000
4519 16680 11157 1 109.50000 418.400000
7863 16681 10587 1 109.50000 418.400000
7863 16681 11370 1 109.50000 418.400000
7863 16681 11405 1 109.50000 418.400000
10587 16681 11370 1 109.50000 418.400000
10587 16681 11405 1 109.50000 418.400000
11370 16681 11405 1 109.50000 418.400000
3658 16682 5167 1 109.50000 418.400000
3658 16682 6505 1 109.50000 418.400000
3658 16682 8860 1 109.50000 418.400000
5167 16682 6505 1 109.50000 418.400000
5167 16682 8860 1 109.50000 418.400000
6505 16682 8860 1 109.50000 418.400000
1631 16683 1633 1 109.50000 418.400000
1631 16683 2956 1 109.50000 418.400000
1631 16683 11057 1 109.50000 418.400000
1633 16683 2956 1 109.50000 418.400000
1633 16683 11057 1 109.50000 418.400000
2956 16683 11057 1 109.50000 418.400000
2462 16684 8028 1 109.50000 418.400000
2462 16684 8308 1 109.50000 418.400000
2462 16684 10330 1 109.50000 418.400000
8028 16684 8308 1 109.50000 418.400000
8028 16684 10330 1 109.50000 418.400000
8308 16684 10330 1 109.50000 418.400000
2461 16685 8205 1 109.50000 418.400000
2461 16685 10562 1 109.50000 418.400000
2461 16685 11094 1 109.50000 418.400000
8205 16685 10562 1 109.50000 418.400000
8205 16685 11094 1 109.50000 418.400000
10562 16685 11094 1 109.50000 418.400000
1696 16686 2144 1 109.50000 418.400000
1696 16686 9002 1 109.50000 418.400000
1696 16686 9181 1 109.50000 418.400000
2144 16686 9002 1 109.50000 418.400000
2144 16686 9181 1 109.50000 418.400000
9002 16686 9181 1 109.50000 418.400000
3784 16687 7442 1 109.50000 418.400000
3784 16687 10533 1 109.50000 418.400000
3784 16687 10572 1 109.50000 418.400000
7442 16687 10533 1 109.50000 418.400000
7442 16687 10572 1 109.50000 418.400000
10533 16687 10572 1 109.50000 418.400000
4404 16688 5045 1 109.50000 418.400000
4404 16688 6021 1 109.50000 418.400000
4404 16688 10646 1 109.50000 418.400000
5045 16688 6021 1 109.50000 418.400000
5045 16688 10646 1 109.50000 418.400000
6021 16688 10646 1 109.50000 418.400000
6801 16689 7522 1 109.50000 418.400000
6801 16689 8845 1 109.50000 418.400000
6801 16689 10901 1 109.50000 418.400000
7522 16689 8845 1 109.50000 418.400000
7522 16689 10901 1 109.50000 418.400000
8845 16689 10901 1 109.50000 418.400000
544 16690 9461 1 109.50000 418.400000
544 16690 10877 1 109.50000 418.400000
544 16690 11002 1 109.50000 418.400000
9461 16690 10877 1 109.50000 418.400000
9461 16690 11002 1 109.50000 418.400000
10877 16690 11002 1 109.50000 418.400000
1190 16691 9058 1 109.50000 418.400000
1190 16691 10589 1 109.50000 418.400000
1190 16691 10983 1 109.50000 418.400000
9058 16691 10589 1 109.50000 418.400000
9058 16691 10983 1 109.50000 418.400000
10589 16691 10983 1 109.50000 418.400000
6182 16692 6886 1 109.50000 418.400000
6182 16692 10288 1 109.50000 418.400000
6182 16692 10791 1 109.50000 418.400000
6886 16692 10288 1 109.50000 418.400000
6886 16692 10791 1 109.50000 418.400000
10288 16692 10791 1 109.50000 418.400000
7229 16693 7784 1 109.50000 418.400000
7229 16693 9589 1 109.50000 418.400000
7229 16693 11095 1 109.50000 418.400000
7784 16693 9589 1 109.50000 418.400000
7784 16693 11095 1 109.50000 418.400000
9589 16693 11095 1 109.50000 418.400000
2384 16694 9588 1 109.50000 418.400000
2384 16694 10580 1 109.50000 418.400000
2384 16694 11086 1 109.50000 418.400000
9588 16694 10580 1 109.50000 418.400000
9588 16694 11086 1 109.50000 418.400000
10580 16694 11086 1 109.50000 418.400000
2104 16695 5823 1 109.50000 418.400000
2104 16695 8139 1 109.50000 418.400000
2104 16695 9831 1 109.50000 418.400000
5823 16695 8139 1 109.50000 418.400000
5823 16695 9831 1 109.50000 418.400000
8139 16695 9831 1 109.50000 418.400000
2157 16696 2435 1 109.50000 418.400000
2157 16696 3800 1 109.50000 418.400000
2157 16696 5721 1 109.50000 418.400000
2435 16696 3800 1 109.50000 418.400000
2435 16696 5721 1 109.50000 418.400000
3800 16696 5721 1 109.50000 418.400000
6567 16697 9576 1 109.50000 418.400000
6567 16697 10603 1 109.50000 418.400000
6567 16697 11186 1 109.50000 418.400000
9576 16697 10603 1 109.50000 418.400000
9576 16697 11186 1 109.50000 418.400000
10603 16697 11186 1 109.50000 418.400000
2868 16698 4881 1 109.50000 418.400000
2868 16698 5560 1 109.50000 418.400000
2868 16698 7631 1 109.50000 418.400000
4881 16698 5560 1 109.50000 418.400000
4881 16698 7631 1 109.50000 418.400000
5560 16698 7631 1 109.50000 418.400000
1355 16699 7690 1 109.50000 418.400000
1355 16699 8314 1 109.50000 418.400000
1355 16699 11096 1 109.50000 418.400000
7690 16699 8314 1 109.50000 418.400000
7690 16699 11096 1 109.50000 418.400000
8314 16699 11096 1 109.50000 418.400000
1165 16700 3860 1 109.50000 418.400000
1165 16700 9135 1 109.50000 418.400000
1165 16700 10637 1 109.50000 418.400000
3860 16700 9135 1 109.50000 418.400000
3860 16700 10637 1 109.50000 418.400000
9135 16700 10637 1 109.50000 418.400000
8311 16701 9474 1 109.50000 418.400000
8311 16701 10990 1 109.50000 418.400000
8311 16701 11011 1 109.50000 418.400000
9474 16701 10990 1 109.50000 418.400000
9474 16701 11011 1 109.50000 418.400000
10990 16701 11011 1 109.50000 418.400000
6748 16702 6775 1 109.50000 418.400000
6748 16702 8432 1 109.50000 418.400000
6748 16702 9231 1 109.50000 418.400000
6775 16702 8432 1 109.50000 418.400000
6775 16702 9231 1 109.50000 418.400000
8432 16702 9231 1 109.50000 418.400000
590 16703 3761 1 109.50000 418.400000
590 16703 8966 1 109.50000 418.400000
590 16703 10235 1 109.50000 418.400000
3761 16703 8966 1 109.50000 418.400000
3761 16703 10235 1 109.50000 418.400000
8966 16703 10235 1 109.50000 418.400000
72 16704 5126 1 109.50000 418.400000
72 16704 8720 1 109.50000 418.400000
72 16704 11034 1 109.50000 418.400000
5126 16704 8720 1 109.50000 418.400000
5126 16704 11034 1 109.50000 418.400000
8720 16704 11034 1 109.50000 418.400000
3362 16705 6823 1 109.50000 418.400000
3362 16705 8429 1 109.50000 418.400000
3362 16705 8431 1 109.50000 418.400000
6823 16705 8429 1 109.50000 418.400000
6823 16705 8431 1 109.50000 418.400000
8429 16705 8431 1 109.50000 418.400000
3576 16706 4257 1 109.50000 418.400000
3576 16706 6043 1 109.50000 418.400000
3576 16706 10845 1 109.50000 418.400000
4257 16706 6043 1 109.50000 418.400000
4257 16706 10845 1 109.50000 418.400000
6043 16706 10845 1 109.50000 418.400000
3775 16707 5269 1 109.50000 418.400000
3775 16707 7991 1 109.50000 418.400000
3775 16707 11424 1 109.50000 418.400000
5269 16707 7991 1 109.50000 418.400000
5269 16707 11424 1 109.50000 418.400000
7991 16707 11424 1 109.50000 418.400000
2155 16708 7531 1 109.50000 418.400000
2155 16708 7592 1 109.50000 418.400000
2155 16708 10615 1 109.50000 418.400000
7531 16708 7592 1 109.50000 418.400000
7531 16708 10615 1 109.50000 418.400000
7592 16708 10615 1 109.50000 418.400000
4682 16709 6393 1 109.50000 418.400000
4682 16709 6866 1 109.50000 418.400000
4682 16709 10754 1 109.50000 418.400000
6393 16709 6866 1 109.50000 418.400000
6393 16709 10754 1 109.50000 418.400000
6866 16709 10754 1 109.50000 418.400000
4718 16710 6260 1 109.50000 418.400000
4718 16710 6805 1 109.50000 418.400000
4718 16710 10922 1 109.50000 418.400000
6260 16710 6805 1 109.50000 418.400000
6260 16710 10922 1 109.50000 418.400000
6805 16710 10922 1 109.50000 418.400000
1442 16711 8676 1 109.50000 418.400000
1442 16711 10967 1 109.50000 418.400000
1442 16711 10997 1 109.50000 418.400000
8676 16711 10967 1 109.50000 418.400000
8676 16711 10997 1 109.50000 418.400000
10967 16711 10997 1 109.50000 418.400000
3066 16712 5551 1 109.50000 418.400000
3066 16712 8013 1 109.50000 418.400000
3066 16712 9808 1 109.50000 418.400000
5551 16712 8013 1 109.50000 418.400000
5551 16712 9808 1 109.50000 418.400000
8013 16712 9808 1 109.50000 418.400000
7338 16713 8532 1 109.50000 418.400000
7338 16713 9895 1 109.50000 418.400000
7338 16713 11098 1 109.50000 418.400000
8532 16713 9895 1 109.50000 418.400000
8532 16713 11098 1 109.50000 418.400000
9895 16713 11098 1 109.50000 418.400000
525 16714 969 1 109.50000 418.400000
525 16714 5525 1 109.50000 418.400000
525 16714 6559 1 109.50000 418.400000
969 16714 5525 1 109.50000 418.400000
969 16714 6559 1 109.50000 418.400000
5525 16714 6559 1 109.50000 418.400000
5012 16715 5013 1 109.50000 418.400000
5012 16715 7621 1 109.50000 418.400000
5012 16715 7828 1 109.50000 418.400000
5013 16715 7621 1 109.50000 418.400000
5013 16715 7828 1 109.50000 418.400000
7621 16715 7828 1 109.50000 418.400000
7192 16716 8326 1 109.50000 418.400000
7192 16716 10650 1 109.50000 418.400000
7192 16716 10716 1 109.50000 418.400000
8326 16716 10650 1 109.50000 418.400000
8326 16716 10716 1 109.50000 418.400000
10650 16716 10716 1 109.50000 418.400000
2950 16717 5643 1 109.50000 418.400000
2950 16717 10980 1 109.50000 418.400000
2950 16717 10981 1 109.50000 418.400000
5643 16717 10980 1 109.50000 418.400000
5643 16717 10981 1 109.50000 418.400000
10980 16717 10981 1 109.50000 418.400000
2694 16718 7097 1 109.50000 418.400000
2694 16718 9966 1 109.50000 418.400000
2694 16718 11041 1 109.50000 418.400000
7097 16718 9966 1 109.50000 418.400000
7097 16718 11041 1 109.50000 418.400000
9966 16718 11041 1 109.50000 418.400000
978 16719 2313 1 109.50000 418.400000
978 16719 4530 1 109.50000 418.400000
978 16719 11428 1 109.50000 418.400000
2313 16719 4530 1 109.50000 418.400000
2313 16719 11428 1 109.50000 418.400000
4530 16719 11428 1 109.50000 418.400000
862 16720 1274 1 109.50000 418.400000
862 16720 1914 1 109.50000 418.400000
862 16720 10577 1 109.50000 418.400000
1274 16720 1914 1 109.50000 418.400000
1274 16720 10577 1 109.50000 418.400000
1914 16720 10577 1 109.50000 418.400000
1780 16721 3555 1 109.50000 418.400000
1780 16721 8772 1 109.50000 418.400000
1780 16721 8940 1 109.50000 418.400000
3555 16721 8772 1 109.50000 418.400000
3555 16721 8940 1 109.50000 418.400000
8772 16721 8940 1 109.50000 418.400000
1348 16722 1459 1 109.50000 418.400000
1348 16722 4992 1 109.50000 418.400000
1348 16722 8734 1 109.50000 418.400000
1459 16722 4992 1 109.50000 418.400000
1459 16722 8734 1 109.50000 418.400000
4992 16722 8734 1 109.50000 418.400000
4911 16723 4948 1 109.50000 418.400000
4911 16723 6213 1 109.50000 418.400000
4911 16723 7216 1 109.50000 418.400000
4948 16723 6213 1 109.50000 418.400000
4948 16723 7216 1 109.50000 418.400000
6213 16723 7216 1 109.50000 418.400000
3353 16724 10075 1 109.50000 418.400000
3353 16724 10974 1 109.50000 418.400000
3353 16724 11338 1 109.50000 418.400000
10075 16724 10974 1 109.50000 418.400000
10075 16724 11338 1 109.50000 418.400000
10974 16724 11338 1 109.50000 418.400000
1562 16725 7902 1 109.50000 418.400000
1562 16725 8187 1 109.50000 418.400000
1562 16725 11099 1 109.50000 418.400000
7902 16725 8187 1 109.50000 418.400000
7902 16725 11099 1 109.50000 418.400000
8187 16725 11099 1 109.50000 418.400000
212 16726 1875 1 109.50000 418.400000
212 16726 10098 1 109.50000 418.400000
212 16726 11100 1 109.50000 418.400000
1875 16726 10098 1 109.50000 418.400000
1875 16726 11100 1 109.50000 418.400000
10098 16726 11100 1 109.50000 418.400000
481 16727 7280 1 109.50000 418.400000
481 16727 9238 1 109.50000 418.400000
481 16727 10557 1 109.50000 418.400000
7280 16727 9238 1 109.50000 418.400000
7280 16727 10557 1 109.50000 418.400000
9238 16727 10557 1 109.50000 418.400000
3413 16728 7957 1 109.50000 418.400000
3413 16728 11101 1 109.50000 418.400000
3413 16728 11102 1 109.50000 418.400000
7957 16728 11101 1 109.50000 418.400000
7957 16728 11102 1 109.50000 418.400000
11101 16728 11102 1 109.50000 418.400000
355 16729 3513 1 109.50000 418.400000
355 16729 3829 1 109.50000 418.400000
355 16729 11103 1 109.50000 418.400000
3513 16729 3829 1 109.50000 418.400000
3513 16729 11103 1 109.50000 418.400000
3829 16729 11103 1 109.50000 418.400000
7951 16730 8929 1 109.50000 418.400000
7951 16730 11074 1 109.50000 418.400000
7951 16730 11104 1 109.50000 418.400000
8929 16730 11074 1 109.50000 418.400000
8929 16730 11104 1 109.50000 418.400000
11074 16730 11104 1 109.50000 418.400000
2193 16731 4831 1 109.50000 418.400000
2193 16731 8666 1 109.50000 418.400000
2193 16731 8826 1 109.50000 418.400000
4831 16731 8666 1 109.50000 418.400000
4831 16731 8826 1 109.50000 418.400000
8666 16731 8826 1 109.50000 418.400000
1928 16732 6167 1 109.50000 418.400000
1928 16732 7245 1 109.50000 418.400000
1928 16732 11105 1 109.50000 418.400000
6167 16732 7245 1 109.50000 418.400000
6167 16732 11105 1 109.50000 418.400000
7245 16732 11105 1 109.50000 418.400000
790 16733 8671 1 109.50000 418.400000
790 16733 8984 1 109.50000 418.400000
790 16733 11106 1 109.50000 418.400000
8671 16733 8984 1 109.50000 418.400000
8671 16733 11106 1 109.50000 418.400000
8984 16733 11106 1 109.50000 418.400000
3587 16734 4365 1 109.50000 418.400000
3587 16734 6308 1 109.50000 418.400000
3587 16734 7463 1 109.50000 418.400000
4365 16734 6308 1 109.50000 418.400000
4365 16734 7463 1 109.50000 418.400000
6308 16734 7463 1 109.50000 418.400000
197 16735 9584 1 109.50000 418.400000
197 16735 10623 1 109.50000 418.400000
197 16735 11107 1 109.50000 418.400000
9584 16735 10623 1 109.50000 418.400000
9584 16735 11107 1 109.50000 418.400000
10623 16735 11107 1 109.50000 418.400000
2271 16736 6811 1 109.50000 418.400000
2271 16736 10117 1 109.50000 418.400000
2271 16736 10628 1 109.50000 418.400000
6811 16736 10117 1 109.50000 418.400000
6811 16736 10628 1 109.50000 418.400000
10117 16736 10628 1 109.50000 418.400000
5057 16737 6019 1 109.50000 418.400000
5057 16737 6189 1 109.50000 418.400000
5057 16737 8900 1 109.50000 418.400000
6019 16737 6189 1 109.50000 418.400000
6019 16737 8900 1 109.50000 418.400000
6189 16737 8900 1 109.50000 418.400000
5059 16738 8895 1 109.50000 418.400000
5059 16738 10077 1 109.50000 418.400000
5059 16738 11073 1 109.50000 418.400000
8895 16738 10077 1 109.50000 418.400000
8895 16738 11073 1 109.50000 418.400000
10077 16738 11073 1 109.50000 418.400000
223 16739 6437 1 109.50000 418.400000
223 16739 9978 1 109.50000 418.400000
223 16739 10023 1 109.50000 418.400000
6437 16739 9978 1 109.50000 418.400000
6437 16739 10023 1 109.50000 418.400000
9978 16739 10023 1 109.50000 418.400000
2914 16740 5091 1 109.50000 418.400000
2914 16740 11311 1 109.50000 418.400000
2914 16740 11359 1 109.50000 418.400000
5091 16740 11311 1 109.50000 418.400000
5091 16740 11359 1 109.50000 418.400000
11311 16740 11359 1 109.50000 418.400000
8867 16741 10043 1 109.50000 418.400000
8867 16741 10954 1 109.50000 418.400000
8867 16741 11152 1 109.50000 418.400000
10043 16741 10954 1 109.50000 418.400000
10043 16741 11152 1 109.50000 418.400000
10954 16741 11152 1 109.50000 418.400000
4125 16742 10512 1 109.50000 418.400000
4125 16742 10992 1 109.50000 418.400000
4125 16742 11083 1 109.50000 418.400000
10512 16742 10992 1 109.50000 418.400000
10512 16742 11083 1 109.50000 418.400000
10992 16742 11083 1 109.50000 418.400000
4021 16743 6994 1 109.50000 418.400000
4021 16743 8603 1 109.50000 418.400000
4021 16743 11108 1 109.50000 418.400000
6994 16743 8603 1 109.50000 418.400000
6994 16743 11108 1 109.50000 418.400000
8603 16743 11108 1 109.50000 418.400000
4027 16744 4145 1 109.50000 418.400000
4027 16744 10684 1 109.50000 418.400000
4027 16744 11107 1 109.50000 418.400000
4145 16744 10684 1 109.50000 418.400000
4145 16744 11107 1 109.50000 418.400000
10684 16744 11107 1 109.50000 418.400000
934 16745 1361 1 109.50000 418.400000
934 16745 8687 1 109.50000 418.400000
934 16745 9354 1 109.50000 418.400000
1361 16745 8687 1 109.50000 418.400000
1361 16745 9354 1 109.50000 418.400000
8687 16745 9354 1 109.50000 418.400000
1446 16746 8380 1 109.50000 418.400000
1446 16746 11021 1 109.50000 418.400000
1446 16746 11098 1 109.50000 418.400000
8380 16746 11021 1 109.50000 418.400000
8380 16746 11098 1 109.50000 418.400000
11021 16746 11098 1 109.50000 418.400000
1920 16747 8426 1 109.50000 418.400000
1920 16747 8427 1 109.50000 418.400000
1920 16747 8428 1 109.50000 418.400000
8426 16747 8427 1 109.50000 418.400000
8426 16747 8428 1 109.50000 418.400000
8427 16747 8428 1 109.50000 418.400000
9903 16748 10158 1 109.50000 418.400000
9903 16748 10413 1 109.50000 418.400000
9903 16748 11462 1 109.50000 418.400000
10158 16748 10413 1 109.50000 418.400000
10158 16748 11462 1 109.50000 418.400000
10413 16748 11462 1 109.50000 418.400000
2710 16749 4978 1 109.50000 418.400000
2710 16749 6332 1 109.50000 418.400000
2710 16749 11104 1 109.50000 418.400000
4978 16749 6332 1 109.50000 418.400000
4978 16749 11104 1 109.50000 418.400000
6332 16749 11104 1 109.50000 418.400000
459 16750 817 1 109.50000 418.400000
459 16750 8365 1 109.50000 418.400000
459 16750 10833 1 109.50000 418.400000
817 16750 8365 1 109.50000 418.400000
817 16750 10833 1 109.50000 418.400000
8365 16750 10833 1 109.50000 418.400000
1415 16751 7911 1 109.50000 418.400000
1415 16751 10264 1 109.50000 418.400000
1415 16751 11109 1 109.50000 418.400000
7911 16751 10264 1 109.50000 418.400000
7911 16751 11109 1 109.50000 418.400000
10264 16751 11109 1 109.50000 418.400000
9100 16752 9146 1 109.50000 418.400000
9100 16752 9960 1 109.50000 418.400000
9100 16752 11046 1 109.50000 418.400000
9146 16752 9960 1 109.50000 418.400000
9146 16752 11046 1 109.50000 418.400000
9960 16752 11046 1 109.50000 418.400000
5919 16753 9644 1 109.50000 418.400000
5919 16753 11042 1 109.50000 418.400000
5919 16753 11110 1 109.50000 418.400000
9644 16753 11042 1 109.50000 418.400000
9644 16753 11110 1 109.50000 418.400000
11042 16753 11110 1 109.50000 418.400000
2194 16754 2195 1 109.50000 418.400000
2194 16754 7368 1 109.50000 418.400000
2194 16754 10609 1 109.50000 418.400000
2195 16754 7368 1 109.50000 418.400000
2195 16754 10609 1 109.50000 418.400000
7368 16754 10609 1 109.50000 418.400000
5995 16755 8663 1 109.50000 418.400000
5995 16755 10394 1 109.50000 418.400000
5995 16755 10892 1 109.50000 418.400000
8663 16755 10394 1 109.50000 418.400000
8663 16755 10892 1 109.50000 418.400000
10394 16755 10892 1 109.50000 418.400000
6575 16756 8460 1 109.50000 418.400000
6575 16756 8461 1 109.50000 418.400000
6575 16756 10172 1 109.50000 418.400000
8460 16756 8461 1 109.50000 418.400000
8460 16756 10172 1 109.50000 418.400000
8461 16756 10172 1 109.50000 418.400000
4195 16757 4251 1 109.50000 418.400000
4195 16757 5222 1 109.50000 418.400000
4195 16757 10910 1 109.50000 418.400000
4251 16757 5222 1 109.50000 418.400000
4251 16757 10910 1 109.50000 418.400000
5222 16757 10910 1 109.50000 418.400000
1113 16758 1114 1 109.50000 418.400000
1113 16758 1314 1 109.50000 418.400000
1113 16758 6693 1 109.50000 418.400000
1114 16758 1314 1 109.50000 418.400000
1114 16758 6693 1 109.50000 418.400000
1314 16758 6693 1 109.50000 418.400000
2557 16759 2928 1 109.50000 418.400000
2557 16759 6921 1 109.50000 418.400000
2557 16759 10942 1 109.50000 418.400000
2928 16759 6921 1 109.50000 418.400000
2928 16759 10942 1 109.50000 418.400000
6921 16759 10942 1 109.50000 418.400000
10707 16760 10844 1 109.50000 418.400000
10707 16760 11027 1 109.50000 418.400000
10707 16760 11111 1 109.50000 418.400000
10844 16760 11027 1 109.50000 418.400000
10844 16760 11111 1 109.50000 418.400000
11027 16760 11111 1 109.50000 418.400000
4916 16761 7700 1 109.50000 418.400000
4916 16761 9309 1 109.50000 418.400000
4916 16761 11103 1 109.50000 418.400000
7700 16761 9309 1 109.50000 418.400000
7700 16761 11103 1 109.50000 418.400000
9309 16761 11103 1 109.50000 418.400000
3110 16762 7832 1 109.50000 418.400000
3110 16762 8559 1 109.50000 418.400000
3110 16762 10610 1 109.50000 418.400000
7832 16762 8559 1 109.50000 418.400000
7832 16762 10610 1 109.50000 418.400000
8559 16762 10610 1 109.50000 418.400000
3162 16763 5481 1 109.50000 418.400000
3162 16763 6512 1 109.50000 418.400000
3162 16763 7360 1 109.50000 418.400000
5481 16763 6512 1 109.50000 418.400000
5481 16763 7360 1 109.50000 418.400000
6512 16763 7360 1 109.50000 418.400000
227 16764 4639 1 109.50000 418.400000
227 16764 4910 1 109.50000 418.400000
227 16764 11001 1 109.50000 418.400000
4639 16764 4910 1 109.50000 418.400000
4639 16764 11001 1 109.50000 418.400000
4910 16764 11001 1 109.50000 418.400000
10542 16765 10706 1 109.50000 418.400000
10542 16765 11067 1 109.50000 418.400000
10542 16765 11112 1 109.50000 418.400000
10706 16765 11067 1 109.50000 418.400000
10706 16765 11112 1 109.50000 418.400000
11067 16765 11112 1 109.50000 418.400000
3676 16766 10932 1 109.50000 418.400000
3676 16766 11092 1 109.50000 418.400000
3676 16766 11113 1 109.50000 418.400000
10932 16766 11092 1 109.50000 418.400000
10932 16766 11113 1 109.50000 418.400000
11092 16766 11113 1 109.50000 418.400000
7583 16767 9243 1 109.50000 418.400000
7583 16767 10525 1 109.50000 418.400000
7583 16767 11114 1 109.50000 418.400000
9243 16767 10525 1 109.50000 418.400000
9243 16767 11114 1 109.50000 418.400000
10525 16767 11114 1 109.50000 418.400000
6776 16768 7030 1 109.50000 418.400000
6776 16768 10284 1 109.50000 418.400000
6776 16768 11030 1 109.50000 418.400000
7030 16768 10284 1 109.50000 418.400000
7030 16768 11030 1 109.50000 418.400000
10284 16768 11030 1 109.50000 418.400000
3557 16769 4786 1 109.50000 418.400000
3557 16769 5423 1 109.50000 418.400000
3557 16769 5869 1 109.50000 418.400000
4786 16769 5423 1 109.50000 418.400000
4786 16769 5869 1 109.50000 418.400000
5423 16769 5869 1 109.50000 418.400000
1993 16770 10550 1 109.50000 418.400000
1993 16770 11310 1 109.50000 418.400000
1993 16770 11422 1 109.50000 418.400000
10550 16770 11310 1 109.50000 418.400000
10550 16770 11422 1 109.50000 418.400000
11310 16770 11422 1 109.50000 418.400000
4531 16771 6578 1 109.50000 418.400000
4531 16771 7072 1 109.50000 418.400000
4531 16771 11106 1 109.50000 418.400000
6578 16771 7072 1 109.50000 418.400000
6578 16771 11106 1 109.50000 418.400000
7072 16771 11106 1 109.50000 418.400000
863 16772 2511 1 109.50000 418.400000
863 16772 9891 1 109.50000 418.400000
863 16772 11060 1 109.50000 418.400000
2511 16772 9891 1 109.50000 418.400000
2511 16772 11060 1 109.50000 418.400000
9891 16772 11060 1 109.50000 418.400000
527 16773 9008 1 109.50000 418.400000
527 16773 10986 1 109.50000 418.400000
527 16773 11026 1 109.50000 418.400000
9008 16773 10986 1 109.50000 418.400000
9008 16773 11026 1 109.50000 418.400000
10986 16773 11026 1 109.50000 418.400000
2520 16774 8218 1 109.50000 418.400000
2520 16774 8931 1 109.50000 418.400000
2520 16774 9387 1 109.50000 418.400000
8218 16774 8931 1 109.50000 418.400000
8218 16774 9387 1 109.50000 418.400000
8931 16774 9387 1 109.50000 418.400000
5324 16775 7154 1 109.50000 418.400000
5324 16775 8979 1 109.50000 418.400000
5324 16775 10556 1 109.50000 418.400000
7154 16775 8979 1 109.50000 418.400000
7154 16775 10556 1 109.50000 418.400000
8979 16775 10556 1 109.50000 418.400000
5819 16776 8576 1 109.50000 418.400000
5819 16776 10065 1 109.50000 418.400000
5819 16776 11115 1 109.50000 418.400000
8576 16776 10065 1 109.50000 418.400000
8576 16776 11115 1 109.50000 418.400000
10065 16776 11115 1 109.50000 418.400000
6698 16777 11049 1 109.50000 418.400000
6698 16777 11116 1 109.50000 418.400000
6698 16777 11225 1 109.50000 418.400000
11049 16777 11116 1 109.50000 418.400000
11049 16777 11225 1 109.50000 418.400000
11116 16777 11225 1 109.50000 418.400000
7008 16778 7978 1 109.50000 418.400000
7008 16778 10582 1 109.50000 418.400000
7008 16778 11286 1 109.50000 418.400000
7978 16778 10582 1 109.50000 418.400000
7978 16778 11286 1 109.50000 418.400000
10582 16778 11286 1 109.50000 418.400000
1818 16779 2863 1 109.50000 418.400000
1818 16779 3073 1 109.50000 418.400000
1818 16779 10891 1 109.50000 418.400000
2863 16779 3073 1 109.50000 418.400000
2863 16779 10891 1 109.50000 418.400000
3073 16779 10891 1 109.50000 418.400000
5332 16780 9586 1 109.50000 418.400000
5332 16780 10788 1 109.50000 418.400000
5332 16780 11063 1 109.50000 418.400000
9586 16780 10788 1 109.50000 418.400000
9586 16780 11063 1 109.50000 418.400000
10788 16780 11063 1 109.50000 418.400000
997 16781 4485 1 109.50000 418.400000
997 16781 8556 1 109.50000 418.400000
997 16781 10225 1 109.50000 418.400000
4485 16781 8556 1 109.50000 418.400000
4485 16781 10225 1 109.50000 418.400000
8556 16781 10225 1 109.50000 418.400000
2711 16782 4976 1 109.50000 418.400000
2711 16782 9912 1 109.50000 418.400000
2711 16782 11117 1 109.50000 418.400000
4976 16782 9912 1 109.50000 418.400000
4976 16782 11117 1 109.50000 418.400000
9912 16782 11117 1 109.50000 418.400000
572 16783 1188 1 109.50000 418.400000
572 16783 8563 1 109.50000 418.400000
572 16783 10972 1 109.50000 418.400000
1188 16783 8563 1 109.50000 418.400000
1188 16783 10972 1 109.50000 418.400000
8563 16783 10972 1 109.50000 418.400000
680 16784 1538 1 109.50000 418.400000
680 16784 6543 1 109.50000 418.400000
680 16784 8073 1 109.50000 418.400000
1538 16784 6543 1 109.50000 418.400000
1538 16784 8073 1 109.50000 418.400000
6543 16784 8073 1 109.50000 418.400000
1651 16785 8398 1 109.50000 418.400000
1651 16785 8564 1 109.50000 418.400000
1651 16785 11069 1 109.50000 418.400000
8398 16785 8564 1 109.50000 418.400000
8398 16785 11069 1 109.50000 418.400000
8564 16785 11069 1 109.50000 418.400000
4549 16786 6861 1 109.50000 418.400000
4549 16786 8819 1 109.50000 418.400000
4549 16786 11093 1 109.50000 418.400000
6861 16786 8819 1 109.50000 418.400000
6861 16786 11093 1 109.50000 418.400000
8819 16786 11093 1 109.50000 418.400000
3694 16787 4683 1 109.50000 418.400000
3694 16787 8517 1 109.50000 418.400000
3694 16787 11118 1 109.50000 418.400000
4683 16787 8517 1 109.50000 418.400000
4683 16787 11118 1 109.50000 418.400000
8517 16787 11118 1 109.50000 418.400000
2150 16788 3626 1 109.50000 418.400000
2150 16788 11110 1 109.50000 418.400000
2150 16788 11241 1 109.50000 418.400000
3626 16788 11110 1 109.50000 418.400000
3626 16788 11241 1 109.50000 418.400000
11110 16788 11241 1 109.50000 418.400000
8240 16789 8242 1 109.50000 418.400000
8240 16789 9782 1 109.50000 418.400000
8240 16789 10044 1 109.50000 418.400000
8242 16789 9782 1 109.50000 418.400000
8242 16789 10044 1 109.50000 418.400000
9782 16789 10044 1 109.50000 418.400000
1108 16790 2925 1 109.50000 418.400000
1108 16790 6072 1 109.50000 418.400000
1108 16790 6322 1 109.50000 418.400000
2925 16790 6072 1 109.50000 418.400000
2925 16790 6322 1 109.50000 418.400000
6072 16790 6322 1 109.50000 418.400000
2951 16791 2952 1 109.50000 418.400000
2951 16791 2953 1 109.50000 418.400000
2951 16791 2954 1 109.50000 418.400000
2952 16791 2953 1 109.50000 418.400000
2952 16791 2954 1 109.50000 418.400000
2953 16791 2954 1 109.50000 418.400000
8605 16792 8693 1 109.50000 418.400000
8605 16792 9171 1 109.50000 418.400000
8605 16792 11119 1 109.50000 418.400000
8693 16792 9171 1 109.50000 418.400000
8693 16792 11119 1 109.50000 418.400000
9171 16792 11119 1 109.50000 418.400000
5468 16793 8361 1 109.50000 418.400000
5468 16793 11029 1 109.50000 418.400000
5468 16793 11357 1 109.50000 418.400000
8361 16793 11029 1 109.50000 418.400000
8361 16793 11357 1 109.50000 418.400000
11029 16793 11357 1 109.50000 418.400000
785 16794 3463 1 109.50000 418.400000
785 16794 6500 1 109.50000 418.400000
785 16794 11398 1 109.50000 418.400000
3463 16794 6500 1 109.50000 418.400000
3463 16794 11398 1 109.50000 418.400000
6500 16794 11398 1 109.50000 418.400000
5103 16795 10078 1 109.50000 418.400000
5103 16795 11102 1 109.50000 418.400000
5103 16795 11120 1 109.50000 418.400000
10078 16795 11102 1 109.50000 418.400000
10078 16795 11120 1 109.50000 418.400000
11102 16795 11120 1 109.50000 418.400000
1726 16796 2981 1 109.50000 418.400000
1726 16796 7778 1 109.50000 418.400000
1726 16796 10651 1 109.50000 418.400000
2981 16796 7778 1 109.50000 418.400000
2981 16796 10651 1 109.50000 418.400000
7778 16796 10651 1 109.50000 418.400000
5500 16797 7929 1 109.50000 418.400000
5500 16797 9783 1 109.50000 418.400000
5500 16797 10914 1 109.50000 418.400000
7929 16797 9783 1 109.50000 418.400000
7929 16797 10914 1 109.50000 418.400000
9783 16797 10914 1 109.50000 418.400000
29 16798 782 1 109.50000 418.400000
29 16798 11070 1 109.50000 418.400000
29 16798 11121 1 109.50000 418.400000
782 16798 11070 1 109.50000 418.400000
782 16798 11121 1 109.50000 418.400000
11070 16798 11121 1 109.50000 418.400000
3027 16799 6288 1 109.50000 418.400000
3027 16799 9017 1 109.50000 418.400000
3027 16799 10363 1 109.50000 418.400000
6288 16799 9017 1 109.50000 418.400000
6288 16799 10363 1 109.50000 418.400000
9017 16799 10363 1 109.50000 418.400000
5839 16800 5840 1 109.50000 418.400000
5839 16800 5841 1 109.50000 418.400000
5839 16800 5842 1 109.50000 418.400000
5840 16800 5841 1 109.50000 418.400000
5840 16800 5842 1 109.50000 418.400000
5841 16800 5842 1 109.50000 418.400000
7782 16801 10299 1 109.50000 418.400000
7782 16801 10420 1 109.50000 418.400000
7782 16801 10872 1 109.50000 418.400000
10299 16801 10420 1 109.50000 418.400000
10299 16801 10872 1 109.50000 418.400000
10420 16801 10872 1 109.50000 418.400000
989 16802 3441 1 109.50000 418.400000
989 16802 4555 1 109.50000 418.400000
989 16802 11005 1 109.50000 418.400000
3441 16802 4555 1 109.50000 418.400000
3441 16802 11005 1 109.50000 418.400000
4555 16802 11005 1 109.50000 418.400000
4452 16803 8927 1 109.50000 418.400000
4452 16803 10776 1 109.50000 418.400000
4452 16803 11296 1 109.50000 418.400000
8927 16803 10776 1 109.50000 418.400000
8927 16803 11296 1 109.50000 418.400000
10776 16803 11296 1 109.50000 418.400000
1706 16804 2034 1 109.50000 418.400000
1706 16804 3366 1 109.50000 418.400000
1706 16804 8133 1 109.50000 418.400000
2034 16804 3366 1 109.50000 418.400000
2034 16804 8133 1 109.50000 418.400000
3366 16804 8133 1 109.50000 418.400000
3198 16805 8534 1 109.50000 418.400000
3198 16805 9524 1 109.50000 418.400000
3198 16805 9845 1 109.50000 418.400000
8534 16805 9524 1 109.50000 418.400000
8534 16805 9845 1 109.50000 418.400000
9524 16805 9845 1 109.50000 418.400000
1146 16806 2648 1 109.50000 418.400000
1146 16806 2649 1 109.50000 418.400000
1146 16806 5400 1 109.50000 418.400000
2648 16806 2649 1 109.50000 418.400000
2648 16806 5400 1 109.50000 418.400000
2649 16806 5400 1 109.50000 418.400000
825 16807 826 1 109.50000 418.400000
825 16807 8046 1 109.50000 418.400000
825 16807 8595 1 109.50000 418.400000
826 16807 8046 1 109.50000 418.400000
826 16807 8595 1 109.50000 418.400000
8046 16807 8595 1 109.50000 418.400000
3697 16808 5445 1 109.50000 418.400000
3697 16808 5931 1 109.50000 418.400000
3697 16808 9762 1 109.50000 418.400000
5445 16808 5931 1 109.50000 418.400000
5445 16808 9762 1 109.50000 418.400000
5931 16808 9762 1 109.50000 418.400000
6290 16809 6374 1 109.50000 418.400000
6290 16809 7955 1 109.50000 418.400000
6290 16809 8488 1 109.50000 418.400000
6374 16809 7955 1 109.50000 418.400000
6374 16809 8488 1 109.50000 418.400000
7955 16809 8488 1 109.50000 418.400000
6268 16810 8904 1 109.50000 418.400000
6268 16810 10127 1 109.50000 418.400000
6268 16810 11109 1 109.50000 418.400000
8904 16810 10127 1 109.50000 418.400000
8904 16810 11109 1 109.50000 418.400000
10127 16810 11109 1 109.50000 418.400000
1596 16811 3116 1 109.50000 418.400000
1596 16811 7715 1 109.50000 418.400000
1596 16811 8738 1 109.50000 418.400000
3116 16811 7715 1 109.50000 418.400000
3116 16811 8738 1 109.50000 418.400000
7715 16811 8738 1 109.50000 418.400000
419 16812 1168 1 109.50000 418.400000
419 16812 4116 1 109.50000 418.400000
419 16812 9673 1 109.50000 418.400000
1168 16812 4116 1 109.50000 418.400000
1168 16812 9673 1 109.50000 418.400000
4116 16812 9673 1 109.50000 418.400000
5496 16813 7539 1 109.50000 418.400000
5496 16813 9565 1 109.50000 418.400000
5496 16813 11013 1 109.50000 418.400000
7539 16813 9565 1 109.50000 418.400000
7539 16813 11013 1 109.50000 418.400000
9565 16813 11013 1 109.50000 418.400000
920 16814 8578 1 109.50000 418.400000
920 16814 11055 1 109.50000 418.400000
920 16814 11122 1 109.50000 418.400000
8578 16814 11055 1 109.50000 418.400000
8578 16814 11122 1 109.50000 418.400000
11055 16814 11122 1 109.50000 418.400000
1458 16815 5012 1 109.50000 418.400000
1458 16815 10734 1 109.50000 418.400000
1458 16815 11076 1 109.50000 418.400000
5012 16815 10734 1 109.50000 418.400000
5012 16815 11076 1 109.50000 418.400000
10734 16815 11076 1 109.50000 418.400000
2538 16816 6352 1 109.50000 418.400000
2538 16816 6530 1 109.50000 418.400000
2538 16816 7018 1 109.50000 418.400000
6352 16816 6530 1 109.50000 418.400000
6352 16816 7018 1 109.50000 418.400000
6530 16816 7018 1 109.50000 418.400000
1966 16817 3814 1 109.50000 418.400000
1966 16817 10103 1 109.50000 418.400000
1966 16817 11123 1 109.50000 418.400000
3814 16817 10103 1 109.50000 418.400000
3814 16817 11123 1 109.50000 418.400000
10103 16817 11123 1 109.50000 418.400000
2098 16818 2099 1 109.50000 418.400000
2098 16818 5776 1 109.50000 418.400000
2098 16818 10419 1 109.50000 418.400000
2099 16818 5776 1 109.50000 418.400000
2099 16818 10419 1 109.50000 418.400000
5776 16818 10419 1 109.50000 418.400000
3062 16819 5161 1 109.50000 418.400000
3062 16819 5162 1 109.50000 418.400000
3062 16819 10984 1 109.50000 418.400000
5161 16819 5162 1 109.50000 418.400000
5161 16819 10984 1 109.50000 418.400000
5162 16819 10984 1 109.50000 418.400000
4205 16820 7226 1 109.50000 418.400000
4205 16820 9368 1 109.50000 418.400000
4205 16820 11010 1 109.50000 418.400000
7226 16820 9368 1 109.50000 418.400000
7226 16820 11010 1 109.50000 418.400000
9368 16820 11010 1 109.50000 418.400000
994 16821 6005 1 109.50000 418.400000
994 16821 10929 1 109.50000 418.400000
994 16821 10960 1 109.50000 418.400000
6005 16821 10929 1 109.50000 418.400000
6005 16821 10960 1 109.50000 418.400000
10929 16821 10960 1 109.50000 418.400000
2934 16822 9186 1 109.50000 418.400000
2934 16822 10261 1 109.50000 418.400000
2934 16822 10351 1 109.50000 418.400000
9186 16822 10261 1 109.50000 418.400000
9186 16822 10351 1 109.50000 418.400000
10261 16822 10351 1 109.50000 418.400000
1656 16823 5198 1 109.50000 418.400000
1656 16823 8110 1 109.50000 418.400000
1656 16823 9833 1 109.50000 418.400000
5198 16823 8110 1 109.50000 418.400000
5198 16823 9833 1 109.50000 418.400000
8110 16823 9833 1 109.50000 418.400000
2619 16824 3128 1 109.50000 418.400000
2619 16824 7023 1 109.50000 418.400000
2619 16824 10965 1 109.50000 418.400000
3128 16824 7023 1 109.50000 418.400000
3128 16824 10965 1 109.50000 418.400000
7023 16824 10965 1 109.50000 418.400000
428 16825 4508 1 109.50000 418.400000
428 16825 5681 1 109.50000 418.400000
428 16825 11087 1 109.50000 418.400000
4508 16825 5681 1 109.50000 418.400000
4508 16825 11087 1 109.50000 418.400000
5681 16825 11087 1 109.50000 418.400000
7598 16826 10808 1 109.50000 418.400000
7598 16826 11220 1 109.50000 418.400000
7598 16826 11374 1 109.50000 418.400000
10808 16826 11220 1 109.50000 418.400000
10808 16826 11374 1 109.50000 418.400000
11220 16826 11374 1 109.50000 418.400000
4414 16827 5987 1 109.50000 418.400000
4414 16827 8401 1 109.50000 418.400000
4414 16827 10624 1 109.50000 418.400000
5987 16827 8401 1 109.50000 418.400000
5987 16827 10624 1 109.50000 418.400000
8401 16827 10624 1 109.50000 418.400000
5015 16828 7322 1 109.50000 418.400000
5015 16828 7889 1 109.50000 418.400000
5015 16828 10973 1 109.50000 418.400000
7322 16828 7889 1 109.50000 418.400000
7322 16828 10973 1 109.50000 418.400000
7889 16828 10973 1 109.50000 418.400000
3411 16829 10079 1 109.50000 418.400000
3411 16829 10680 1 109.50000 418.400000
3411 16829 11053 1 109.50000 418.400000
10079 16829 10680 1 109.50000 418.400000
10079 16829 11053 1 109.50000 418.400000
10680 16829 11053 1 109.50000 418.400000
2940 16830 4320 1 109.50000 418.400000
2940 16830 4652 1 109.50000 418.400000
2940 16830 9735 1 109.50000 418.400000
4320 16830 4652 1 109.50000 418.400000
4320 16830 9735 1 109.50000 418.400000
4652 16830 9735 1 109.50000 418.400000
520 16831 2176 1 109.50000 418.400000
520 16831 2178 1 109.50000 418.400000
520 16831 11124 1 109.50000 418.400000
2176 16831 2178 1 109.50000 418.400000
2176 16831 11124 1 109.50000 418.400000
2178 16831 11124 1 109.50000 418.400000
10377 16832 10639 1 109.50000 418.400000
10377 16832 11054 1 109.50000 418.400000
10377 16832 11115 1 109.50000 418.400000
10639 16832 11054 1 109.50000 418.400000
10639 16832 11115 1 109.50000 418.400000
11054 16832 11115 1 109.50000 418.400000
3837 16833 7972 1 109.50000 418.400000
3837 16833 7973 1 109.50000 418.400000
3837 16833 7974 1 109.50000 418.400000
7972 16833 7973 1 109.50000 418.400000
7972 16833 7974 1 109.50000 418.400000
7973 16833 7974 1 109.50000 418.400000
85 16834 2406 1 109.50000 418.400000
85 16834 6731 1 109.50000 418.400000
85 16834 10062 1 109.50000 418.400000
2406 16834 6731 1 109.50000 418.400000
2406 16834 10062 1 109.50000 418.400000
6731 16834 10062 1 109.50000 418.400000
3489 16835 9205 1 109.50000 418.400000
3489 16835 10386 1 109.50000 418.400000
3489 16835 10907 1 109.50000 418.400000
9205 16835 10386 1 109.50000 418.400000
9205 16835 10907 1 109.50000 418.400000
10386 16835 10907 1 109.50000 418.400000
2108 16836 3589 1 109.50000 418.400000
2108 16836 5844 1 109.50000 418.400000
2108 16836 8994 1 109.50000 418.400000
3589 16836 5844 1 109.50000 418.400000
3589 16836 8994 1 109.50000 418.400000
5844 16836 8994 1 109.50000 418.400000
6648 16837 7954 1 109.50000 418.400000
6648 16837 10359 1 109.50000 418.400000
6648 16837 10537 1 109.50000 418.400000
7954 16837 10359 1 109.50000 418.400000
7954 16837 10537 1 109.50000 418.400000
10359 16837 10537 1 109.50000 418.400000
6538 16838 10087 1 109.50000 418.400000
6538 16838 10670 1 109.50000 418.400000
6538 16838 11427 1 109.50000 418.400000
10087 16838 10670 1 109.50000 418.400000
10087 16838 11427 1 109.50000 418.400000
10670 16838 11427 1 109.50000 418.400000
6778 16839 9546 1 109.50000 418.400000
6778 16839 9814 1 109.50000 418.400000
6778 16839 10510 1 109.50000 418.400000
9546 16839 9814 1 109.50000 418.400000
9546 16839 10510 1 109.50000 418.400000
9814 16839 10510 1 109.50000 418.400000
1543 16840 9207 1 109.50000 418.400000
1543 16840 9274 1 109.50000 418.400000
1543 16840 10850 1 109.50000 418.400000
9207 16840 9274 1 109.50000 418.400000
9207 16840 10850 1 109.50000 418.400000
9274 16840 10850 1 109.50000 418.400000
824 16841 6394 1 109.50000 418.400000
824 16841 10601 1 109.50000 418.400000
824 16841 11065 1 109.50000 418.400000
6394 16841 10601 1 109.50000 418.400000
6394 16841 11065 1 109.50000 418.400000
10601 16841 11065 1 109.50000 418.400000
1284 16842 1285 1 109.50000 418.400000
1284 16842 5949 1 109.50000 418.400000
1284 16842 10699 1 109.50000 418.400000
1285 16842 5949 1 109.50000 418.400000
1285 16842 10699 1 109.50000 418.400000
5949 16842 10699 1 109.50000 418.400000
4105 16843 5215 1 109.50000 418.400000
4105 16843 9539 1 109.50000 418.400000
4105 16843 11018 1 109.50000 418.400000
5215 16843 9539 1 109.50000 418.400000
5215 16843 11018 1 109.50000 418.400000
9539 16843 11018 1 109.50000 418.400000
7523 16844 9123 1 109.50000 418.400000
7523 16844 10809 1 109.50000 418.400000
7523 16844 11082 1 109.50000 418.400000
9123 16844 10809 1 109.50000 418.400000
9123 16844 11082 1 109.50000 418.400000
10809 16844 11082 1 109.50000 418.400000
338 16845 4532 1 109.50000 418.400000
338 16845 8670 1 109.50000 418.400000
338 16845 9680 1 109.50000 418.400000
4532 16845 8670 1 109.50000 418.400000
4532 16845 9680 1 109.50000 418.400000
8670 16845 9680 1 109.50000 418.400000
382 16846 10509 1 109.50000 418.400000
382 16846 10796 1 109.50000 418.400000
382 16846 10978 1 109.50000 418.400000
10509 16846 10796 1 109.50000 418.400000
10509 16846 10978 1 109.50000 418.400000
10796 16846 10978 1 109.50000 418.400000
1295 16847 2041 1 109.50000 418.400000
1295 16847 3752 1 109.50000 418.400000
1295 16847 4326 1 109.50000 418.400000
2041 16847 3752 1 109.50000 418.400000
2041 16847 4326 1 109.50000 418.400000
3752 16847 4326 1 109.50000 418.400000
1449 16848 5760 1 109.50000 418.400000
1449 16848 5815 1 109.50000 418.400000
1449 16848 7336 1 109.50000 418.400000
5760 16848 5815 1 109.50000 418.400000
5760 16848 7336 1 109.50000 418.400000
5815 16848 7336 1 109.50000 418.400000
2173 16849 7382 1 109.50000 418.400000
2173 16849 8025 1 109.50000 418.400000
2173 16849 10039 1 109.50000 418.400000
7382 16849 8025 1 109.50000 418.400000
7382 16849 10039 1 109.50000 418.400000
8025 16849 10039 1 109.50000 418.400000
247 16850 587 1 109.50000 418.400000
247 16850 7961 1 109.50000 418.400000
247 16850 10709 1 109.50000 418.400000
587 16850 7961 1 109.50000 418.400000
587 16850 10709 1 109.50000 418.400000
7961 16850 10709 1 109.50000 418.400000
947 16851 2466 1 109.50000 418.400000
947 16851 6955 1 109.50000 418.400000
947 16851 9488 1 109.50000 418.400000
2466 16851 6955 1 109.50000 418.400000
2466 16851 9488 1 109.50000 418.400000
6955 16851 9488 1 109.50000 418.400000
4107 16852 8159 1 109.50000 418.400000
4107 16852 10436 1 109.50000 418.400000
4107 16852 11126 1 109.50000 418.400000
8159 16852 10436 1 109.50000 418.400000
8159 16852 11126 1 109.50000 418.400000
10436 16852 11126 1 109.50000 418.400000
2395 16853 2397 1 109.50000 418.400000
2395 16853 4283 1 109.50000 418.400000
2395 16853 8310 1 109.50000 418.400000
2397 16853 4283 1 109.50000 418.400000
2397 16853 8310 1 109.50000 418.400000
4283 16853 8310 1 109.50000 418.400000
364 16854 4503 1 109.50000 418.400000
364 16854 6325 1 109.50000 418.400000
364 16854 7134 1 109.50000 418.400000
4503 16854 6325 1 109.50000 418.400000
4503 16854 7134 1 109.50000 418.400000
6325 16854 7134 1 109.50000 418.400000
5435 16855 6804 1 109.50000 418.400000
5435 16855 7587 1 109.50000 418.400000
5435 16855 10921 1 109.50000 418.400000
6804 16855 7587 1 109.50000 418.400000
6804 16855 10921 1 109.50000 418.400000
7587 16855 10921 1 109.50000 418.400000
1103 16856 7537 1 109.50000 418.400000
1103 16856 10107 1 109.50000 418.400000
1103 16856 11127 1 109.50000 418.400000
7537 16856 10107 1 109.50000 418.400000
7537 16856 11127 1 109.50000 418.400000
10107 16856 11127 1 109.50000 418.400000
1079 16857 1890 1 109.50000 418.400000
1079 16857 7150 1 109.50000 418.400000
1079 16857 7759 1 109.50000 418.400000
1890 16857 7150 1 109.50000 418.400000
1890 16857 7759 1 109.50000 418.400000
7150 16857 7759 1 109.50000 418.400000
6328 16858 8332 1 109.50000 418.400000
6328 16858 9638 1 109.50000 418.400000
6328 16858 11128 1 109.50000 418.400000
8332 16858 9638 1 109.50000 418.400000
8332 16858 11128 1 109.50000 418.400000
9638 16858 11128 1 109.50000 418.400000
6278 16859 9381 1 109.50000 418.400000
6278 16859 10102 1 109.50000 418.400000
6278 16859 10897 1 109.50000 418.400000
9381 16859 10102 1 109.50000 418.400000
9381 16859 10897 1 109.50000 418.400000
10102 16859 10897 1 109.50000 418.400000
2980 16860 9149 1 109.50000 418.400000
2980 16860 11017 1 109.50000 418.400000
2980 16860 11129 1 109.50000 418.400000
9149 16860 11017 1 109.50000 418.400000
9149 16860 11129 1 109.50000 418.400000
11017 16860 11129 1 109.50000 418.400000
2477 16861 2479 1 109.50000 418.400000
2477 16861 3081 1 109.50000 418.400000
2477 16861 9339 1 109.50000 418.400000
2479 16861 3081 1 109.50000 418.400000
2479 16861 9339 1 109.50000 418.400000
3081 16861 9339 1 109.50000 418.400000
6061 16862 7684 1 109.50000 418.400000
6061 16862 10847 1 109.50000 418.400000
6061 16862 11031 1 109.50000 418.400000
7684 16862 10847 1 109.50000 418.400000
7684 16862 11031 1 109.50000 418.400000
10847 16862 11031 1 109.50000 418.400000
2634 16863 7729 1 109.50000 418.400000
2634 16863 9088 1 109.50000 418.400000
2634 16863 9868 1 109.50000 418.400000
7729 16863 9088 1 109.50000 418.400000
7729 16863 9868 1 109.50000 418.400000
9088 16863 9868 1 109.50000 418.400000
2828 16864 4120 1 109.50000 418.400000
2828 16864 9523 1 109.50000 418.400000
2828 16864 11114 1 109.50000 418.400000
4120 16864 9523 1 109.50000 418.400000
4120 16864 11114 1 109.50000 418.400000
9523 16864 11114 1 109.50000 418.400000
10579 16865 10887 1 109.50000 418.400000
10579 16865 11095 1 109.50000 418.400000
10579 16865 11097 1 109.50000 418.400000
10887 16865 11095 1 109.50000 418.400000
10887 16865 11097 1 109.50000 418.400000
11095 16865 11097 1 109.50000 418.400000
6241 16866 6351 1 109.50000 418.400000
6241 16866 6404 1 109.50000 418.400000
6241 16866 9875 1 109.50000 418.400000
6351 16866 6404 1 109.50000 418.400000
6351 16866 9875 1 109.50000 418.400000
6404 16866 9875 1 109.50000 418.400000
124 16867 2331 1 109.50000 418.400000
124 16867 8116 1 109.50000 418.400000
124 16867 11130 1 109.50000 418.400000
2331 16867 8116 1 109.50000 418.400000
2331 16867 11130 1 109.50000 418.400000
8116 16867 11130 1 109.50000 418.400000
8735 16868 10446 1 109.50000 418.400000
8735 16868 10733 1 109.50000 418.400000
8735 16868 11113 1 109.50000 418.400000
10446 16868 10733 1 109.50000 418.400000
10446 16868 11113 1 109.50000 418.400000
10733 16868 11113 1 109.50000 418.400000
2608 16869 3982 1 109.50000 418.400000
2608 16869 10848 1 109.50000 418.400000
2608 16869 11100 1 109.50000 418.400000
3982 16869 10848 1 109.50000 418.400000
3982 16869 11100 1 109.50000 418.400000
10848 16869 11100 1 109.50000 418.400000
3732 16870 10938 1 109.50000 418.400000
3732 16870 10989 1 109.50000 418.400000
3732 16870 11066 1 109.50000 418.400000
10938 16870 10989 1 109.50000 418.400000
10938 16870 11066 1 109.50000 418.400000
10989 16870 11066 1 109.50000 418.400000
2124 16871 3528 1 109.50000 418.400000
2124 16871 7972 1 109.50000 418.400000
2124 16871 10156 1 109.50000 418.400000
3528 16871 7972 1 109.50000 418.400000
3528 16871 10156 1 109.50000 418.400000
7972 16871 10156 1 109.50000 418.400000
1001 16872 4931 1 109.50000 418.400000
1001 16872 9451 1 109.50000 418.400000
1001 16872 10909 1 109.50000 418.400000
4931 16872 9451 1 109.50000 418.400000
4931 16872 10909 1 109.50000 418.400000
9451 16872 10909 1 109.50000 418.400000
2291 16873 9617 1 109.50000 418.400000
2291 16873 10215 1 109.50000 418.400000
2291 16873 10812 1 109.50000 418.400000
9617 16873 10215 1 109.50000 418.400000
9617 16873 10812 1 109.50000 418.400000
10215 16873 10812 1 109.50000 418.400000
4300 16874 4445 1 109.50000 418.400000
4300 16874 8557 1 109.50000 418.400000
4300 16874 11127 1 109.50000 418.400000
4445 16874 8557 1 109.50000 418.400000
4445 16874 11127 1 109.50000 418.400000
8557 16874 11127 1 109.50000 418.400000
3865 16875 5537 1 109.50000 418.400000
3865 16875 5668 1 109.50000 418.400000
3865 16875 8996 1 109.50000 418.400000
5537 16875 5668 1 109.50000 418.400000
5537 16875 8996 1 109.50000 418.400000
5668 16875 8996 1 109.50000 418.400000
5623 16876 9503 1 109.50000 418.400000
5623 16876 9924 1 109.50000 418.400000
5623 16876 11048 1 109.50000 418.400000
9503 16876 9924 1 109.50000 418.400000
9503 16876 11048 1 109.50000 418.400000
9924 16876 11048 1 109.50000 418.400000
4520 16877 8697 1 109.50000 418.400000
4520 16877 10827 1 109.50000 418.400000
4520 16877 11131 1 109.50000 418.400000
8697 16877 10827 1 109.50000 418.400000
8697 16877 11131 1 109.50000 418.400000
10827 16877 11131 1 109.50000 418.400000
4726 16878 7378 1 109.50000 418.400000
4726 16878 8319 1 109.50000 418.400000
4726 16878 8516 1 109.50000 418.400000
7378 16878 8319 1 109.50000 418.400000
7378 16878 8516 1 109.50000 418.400000
8319 16878 8516 1 109.50000 418.400000
1287 16879 1897 1 109.50000 418.400000
1287 16879 3833 1 109.50000 418.400000
1287 16879 10899 1 109.50000 418.400000
1897 16879 3833 1 109.50000 418.400000
1897 16879 10899 1 109.50000 418.400000
3833 16879 10899 1 109.50000 418.400000
7654 16880 8739 1 109.50000 418.400000
7654 16880 10454 1 109.50000 418.400000
7654 16880 11096 1 109.50000 418.400000
8739 16880 10454 1 109.50000 418.400000
8739 16880 11096 1 109.50000 418.400000
10454 16880 11096 1 109.50000 418.400000
465 16881 8347 1 109.50000 418.400000
465 16881 10007 1 109.50000 418.400000
465 16881 10792 1 109.50000 418.400000
8347 16881 10007 1 109.50000 418.400000
8347 16881 10792 1 109.50000 418.400000
10007 16881 10792 1 109.50000 418.400000
2269 16882 2270 1 109.50000 418.400000
2269 16882 6796 1 109.50000 418.400000
2269 16882 11123 1 109.50000 418.400000
2270 16882 6796 1 109.50000 418.400000
2270 16882 11123 1 109.50000 418.400000
6796 16882 11123 1 109.50000 418.400000
4119 16883 6915 1 109.50000 418.400000
4119 16883 10371 1 109.50000 418.400000
4119 16883 11410 1 109.50000 418.400000
6915 16883 10371 1 109.50000 418.400000
6915 16883 11410 1 109.50000 418.400000
10371 16883 11410 1 109.50000 418.400000
2951 16884 5399 1 109.50000 418.400000
2951 16884 10106 1 109.50000 418.400000
2951 16884 10596 1 109.50000 418.400000
5399 16884 10106 1 109.50000 418.400000
5399 16884 10596 1 109.50000 418.400000
10106 16884 10596 1 109.50000 418.400000
4277 16885 8607 1 109.50000 418.400000
4277 16885 10503 1 109.50000 418.400000
4277 16885 10548 1 109.50000 418.400000
8607 16885 10503 1 109.50000 418.400000
8607 16885 10548 1 109.50000 418.400000
10503 16885 10548 1 109.50000 418.400000
6673 16886 7561 1 109.50000 418.400000
6673 16886 9850 1 109.50000 418.400000
6673 16886 11079 1 109.50000 418.400000
7561 16886 9850 1 109.50000 418.400000
7561 16886 11079 1 109.50000 418.400000
9850 16886 11079 1 109.50000 418.400000
3398 16887 8542 1 109.50000 418.400000
3398 16887 11084 1 109.50000 418.400000
3398 16887 11130 1 109.50000 418.400000
8542 16887 11084 1 109.50000 418.400000
8542 16887 11130 1 109.50000 418.400000
11084 16887 11130 1 109.50000 418.400000
2989 16888 4560 1 109.50000 418.400000
2989 16888 5262 1 109.50000 418.400000
2989 16888 5266 1 109.50000 418.400000
4560 16888 5262 1 109.50000 418.400000
4560 16888 5266 1 109.50000 418.400000
5262 16888 5266 1 109.50000 418.400000
6529 16889 10287 1 109.50000 418.400000
6529 16889 10789 1 109.50000 418.400000
6529 16889 11132 1 109.50000 418.400000
10287 16889 10789 1 109.50000 418.400000
10287 16889 11132 1 109.50000 418.400000
10789 16889 11132 1 109.50000 418.400000
2162 16890 2595 1 109.50000 418.400000
2162 16890 9456 1 109.50000 418.400000
2162 16890 11007 1 109.50000 418.400000
2595 16890 9456 1 109.50000 418.400000
2595 16890 11007 1 109.50000 418.400000
9456 16890 11007 1 109.50000 418.400000
224 16891 3114 1 109.50000 418.400000
224 16891 6829 1 109.50000 418.400000
224 16891 10455 1 109.50000 418.400000
3114 16891 6829 1 109.50000 418.400000
3114 16891 10455 1 109.50000 418.400000
6829 16891 10455 1 109.50000 418.400000
1071 16892 6221 1 109.50000 418.400000
1071 16892 9174 1 109.50000 418.400000
1071 16892 10115 1 109.50000 418.400000
6221 16892 9174 1 109.50000 418.400000
6221 16892 10115 1 109.50000 418.400000
9174 16892 10115 1 109.50000 418.400000
1262 16893 5418 1 109.50000 418.400000
1262 16893 6751 1 109.50000 418.400000
1262 16893 9880 1 109.50000 418.400000
5418 16893 6751 1 109.50000 418.400000
5418 16893 9880 1 109.50000 418.400000
6751 16893 9880 1 109.50000 418.400000
7988 16894 8127 1 109.50000 418.400000
7988 16894 10234 1 109.50000 418.400000
7988 16894 11129 1 109.50000 418.400000
8127 16894 10234 1 109.50000 418.400000
8127 16894 11129 1 109.50000 418.400000
10234 16894 11129 1 109.50000 418.400000
2999 16895 3997 1 109.50000 418.400000
2999 16895 8855 1 109.50000 418.400000
2999 16895 10245 1 109.50000 418.400000
3997 16895 8855 1 109.50000 418.400000
3997 16895 10245 1 109.50000 418.400000
8855 16895 10245 1 109.50000 418.400000
8210 16896 9001 1 109.50000 418.400000
8210 16896 10356 1 109.50000 418.400000
8210 16896 11473 1 109.50000 418.400000
9001 16896 10356 1 109.50000 418.400000
9001 16896 11473 1 109.50000 418.400000
10356 16896 11473 1 109.50000 418.400000
3748 16897 4413 1 109.50000 418.400000
3748 16897 10093 1 109.50000 418.400000
3748 16897 11126 1 109.50000 418.400000
4413 16897 10093 1 109.50000 418.400000
4413 16897 11126 1 109.50000 418.400000
10093 16897 11126 1 109.50000 418.400000
213 16898 2717 1 109.50000 418.400000
213 16898 5168 1 109.50000 418.400000
213 16898 7175 1 109.50000 418.400000
2717 16898 5168 1 109.50000 418.400000
2717 16898 7175 1 109.50000 418.400000
5168 16898 7175 1 109.50000 418.400000
122 16899 867 1 109.50000 418.400000
122 16899 10945 1 109.50000 418.400000
122 16899 11409 1 109.50000 418.400000
867 16899 10945 1 109.50000 418.400000
867 16899 11409 1 109.50000 418.400000
10945 16899 11409 1 109.50000 418.400000
2657 16900 6688 1 109.50000 418.400000
2657 16900 10353 1 109.50000 418.400000
2657 16900 11122 1 109.50000 418.400000
6688 16900 10353 1 109.50000 418.400000
6688 16900 11122 1 109.50000 418.400000
10353 16900 11122 1 109.50000 418.400000
4977 16901 8238 1 109.50000 418.400000
4977 16901 10024 1 109.50000 418.400000
4977 16901 10272 1 109.50000 418.400000
8238 16901 10024 1 109.50000 418.400000
8238 16901 10272 1 109.50000 418.400000
10024 16901 10272 1 109.50000 418.400000
2826 16902 8949 1 109.50000 418.400000
2826 16902 10011 1 109.50000 418.400000
2826 16902 10993 1 109.50000 418.400000
8949 16902 10011 1 109.50000 418.400000
8949 16902 10993 1 109.50000 418.400000
10011 16902 10993 1 109.50000 418.400000
7258 16903 7940 1 109.50000 418.400000
7258 16903 9297 1 109.50000 418.400000
7258 16903 9696 1 109.50000 418.400000
7940 16903 9297 1 109.50000 418.400000
7940 16903 9696 1 109.50000 418.400000
9297 16903 9696 1 109.50000 418.400000
2598 16904 7439 1 109.50000 418.400000
2598 16904 10101 1 109.50000 418.400000
2598 16904 11120 1 109.50000 418.400000
7439 16904 10101 1 109.50000 418.400000
7439 16904 11120 1 109.50000 418.400000
10101 16904 11120 1 109.50000 418.400000
3282 16905 4561 1 109.50000 418.400000
3282 16905 9683 1 109.50000 418.400000
3282 16905 11085 1 109.50000 418.400000
4561 16905 9683 1 109.50000 418.400000
4561 16905 11085 1 109.50000 418.400000
9683 16905 11085 1 109.50000 418.400000
1587 16906 1588 1 109.50000 418.400000
1587 16906 9166 1 109.50000 418.400000
1587 16906 11089 1 109.50000 418.400000
1588 16906 9166 1 109.50000 418.400000
1588 16906 11089 1 109.50000 418.400000
9166 16906 11089 1 109.50000 418.400000
5649 16907 7718 1 109.50000 418.400000
5649 16907 8206 1 109.50000 418.400000
5649 16907 9620 1 109.50000 418.400000
7718 16907 8206 1 109.50000 418.400000
7718 16907 9620 1 109.50000 418.400000
8206 16907 9620 1 109.50000 418.400000
3129 16908 7347 1 109.50000 418.400000
3129 16908 10931 1 109.50000 418.400000
3129 16908 10985 1 109.50000 418.400000
7347 16908 10931 1 109.50000 418.400000
7347 16908 10985 1 109.50000 418.400000
10931 16908 10985 1 109.50000 418.400000
9319 16909 9776 1 109.50000 418.400000
9319 16909 10375 1 109.50000 418.400000
9319 16909 11133 1 109.50000 418.400000
9776 16909 10375 1 109.50000 418.400000
9776 16909 11133 1 109.50000 418.400000
10375 16909 11133 1 109.50000 418.400000
7757 16910 10606 1 109.50000 418.400000
7757 16910 10742 1 109.50000 418.400000
7757 16910 11125 1 109.50000 418.400000
10606 16910 10742 1 109.50000 418.400000
10606 16910 11125 1 109.50000 418.400000
10742 16910 11125 1 109.50000 418.400000
3735 16911 9853 1 109.50000 418.400000
3735 16911 10593 1 109.50000 418.400000
3735 16911 10991 1 109.50000 418.400000
9853 16911 10593 1 109.50000 418.400000
9853 16911 10991 1 109.50000 418.400000
10593 16911 10991 1 109.50000 418.400000
2078 16912 3750 1 109.50000 418.400000
2078 16912 10368 1 109.50000 418.400000
2078 16912 10703 1 109.50000 418.400000
3750 16912 10368 1 109.50000 418.400000
3750 16912 10703 1 109.50000 418.400000
10368 16912 10703 1 109.50000 418.400000
210 16913 6704 1 109.50000 418.400000
210 16913 9070 1 109.50000 418.400000
210 16913 9127 1 109.50000 418.400000
6704 16913 9070 1 109.50000 418.400000
6704 16913 9127 1 109.50000 418.400000
9070 16913 9127 1 109.50000 418.400000
562 16914 7447 1 109.50000 418.400000
562 16914 8946 1 109.50000 418.400000
562 16914 9577 1 109.50000 418.400000
7447 16914 8946 1 109.50000 418.400000
7447 16914 9577 1 109.50000 418.400000
8946 16914 9577 1 109.50000 418.400000
2125 16915 4502 1 109.50000 418.400000
2125 16915 6562 1 109.50000 418.400000
2125 16915 6867 1 109.50000 418.400000
4502 16915 6562 1 109.50000 418.400000
4502 16915 6867 1 109.50000 418.400000
6562 16915 6867 1 109.50000 418.400000
3047 16916 6001 1 109.50000 418.400000
3047 16916 8554 1 109.50000 418.400000
3047 16916 10888 1 109.50000 418.400000
6001 16916 8554 1 109.50000 418.400000
6001 16916 10888 1 109.50000 418.400000
8554 16916 10888 1 109.50000 418.400000
1153 16917 6016 1 109.50000 418.400000
1153 16917 11101 1 109.50000 418.400000
1153 16917 11124 1 109.50000 418.400000
6016 16917 11101 1 109.50000 418.400000
6016 16917 11124 1 109.50000 418.400000
11101 16917 11124 1 109.50000 418.400000
5358 16918 9748 1 109.50000 418.400000
5358 16918 10497 1 109.50000 418.400000
5358 16918 11091 1 109.50000 418.400000
9748 16918 10497 1 109.50000 418.400000
9748 16918 11091 1 109.50000 418.400000
10497 16918 11091 1 109.50000 418.400000
4667 16919 6066 1 109.50000 418.400000
4667 16919 8216 1 109.50000 418.400000
4667 16919 8925 1 109.50000 418.400000
6066 16919 8216 1 109.50000 418.400000
6066 16919 8925 1 109.50000 418.400000
8216 16919 8925 1 109.50000 418.400000
9812 16920 10052 1 109.50000 418.400000
9812 16920 11064 1 109.50000 418.400000
9812 16920 11134 1 109.50000 418.400000
10052 16920 11064 1 109.50000 418.400000
10052 16920 11134 1 109.50000 418.400000
11064 16920 11134 1 109.50000 418.400000
662 16921 663 1 109.50000 418.400000
662 16921 6282 1 109.50000 418.400000
662 16921 7349 1 109.50000 418.400000
663 16921 6282 1 109.50000 418.400000
663 16921 7349 1 109.50000 418.400000
6282 16921 7349 1 109.50000 418.400000
313 16922 3016 1 109.50000 418.400000
313 16922 6103 1 109.50000 418.400000
313 16922 11135 1 109.50000 418.400000
3016 16922 6103 1 109.50000 418.400000
3016 16922 11135 1 109.50000 418.400000
6103 16922 11135 1 109.50000 418.400000
2556 16923 6329 1 109.50000 418.400000
2556 16923 10602 1 109.50000 418.400000
2556 16923 10953 1 109.50000 418.400000
6329 16923 10602 1 109.50000 418.400000
6329 16923 10953 1 109.50000 418.400000
10602 16923 10953 1 109.50000 418.400000
6050 16924 8783 1 109.50000 418.400000
6050 16924 8965 1 109.50000 418.400000
6050 16924 9693 1 109.50000 418.400000
8783 16924 8965 1 109.50000 418.400000
8783 16924 9693 1 109.50000 418.400000
8965 16924 9693 1 109.50000 418.400000
4489 16925 6242 1 109.50000 418.400000
4489 16925 6880 1 109.50000 418.400000
4489 16925 9749 1 109.50000 418.400000
6242 16925 6880 1 109.50000 418.400000
6242 16925 9749 1 109.50000 418.400000
6880 16925 9749 1 109.50000 418.400000
7535 16926 8020 1 109.50000 418.400000
7535 16926 10781 1 109.50000 418.400000
7535 16926 11056 1 109.50000 418.400000
8020 16926 10781 1 109.50000 418.400000
8020 16926 11056 1 109.50000 418.400000
10781 16926 11056 1 109.50000 418.400000
8 16927 2247 1 109.50000 418.400000
8 16927 5024 1 109.50000 418.400000
8 16927 9052 1 109.50000 418.400000
2247 16927 5024 1 109.50000 418.400000
2247 16927 9052 1 109.50000 418.400000
5024 16927 9052 1 109.50000 418.400000
3921 16928 4342 1 109.50000 418.400000
3921 16928 10695 1 109.50000 418.400000
3921 16928 10849 1 109.50000 418.400000
4342 16928 10695 1 109.50000 418.400000
4342 16928 10849 1 109.50000 418.400000
10695 16928 10849 1 109.50000 418.400000
3538 16929 6348 1 109.50000 418.400000
3538 16929 7868 1 109.50000 418.400000
3538 16929 11121 1 109.50000 418.400000
6348 16929 7868 1 109.50000 418.400000
6348 16929 11121 1 109.50000 418.400000
7868 16929 11121 1 109.50000 418.400000
3562 16930 5652 1 109.50000 418.400000
3562 16930 7962 1 109.50000 418.400000
3562 16930 11094 1 109.50000 418.400000
5652 16930 7962 1 109.50000 418.400000
5652 16930 11094 1 109.50000 418.400000
7962 16930 11094 1 109.50000 418.400000
526 16931 8467 1 109.50000 418.400000
526 16931 9195 1 109.50000 418.400000
526 16931 10056 1 109.50000 418.400000
8467 16931 9195 1 109.50000 418.400000
8467 16931 10056 1 109.50000 418.400000
9195 16931 10056 1 109.50000 418.400000
1083 16932 4636 1 109.50000 418.400000
1083 16932 5142 1 109.50000 418.400000
1083 16932 11205 1 109.50000 418.400000
4636 16932 5142 1 109.50000 418.400000
4636 16932 11205 1 109.50000 418.400000
5142 16932 11205 1 109.50000 418.400000
2725 16933 3394 1 109.50000 418.400000
2725 16933 8850 1 109.50000 418.400000
2725 16933 10805 1 109.50000 418.400000
3394 16933 8850 1 109.50000 418.400000
3394 16933 10805 1 109.50000 418.400000
8850 16933 10805 1 109.50000 418.400000
330 16934 996 1 109.50000 418.400000
330 16934 10347 1 109.50000 418.400000
330 16934 10959 1 109.50000 418.400000
996 16934 10347 1 109.50000 418.400000
996 16934 10959 1 109.50000 418.400000
10347 16934 10959 1 109.50000 418.400000
106 16935 7827 1 109.50000 418.400000
106 16935 10374 1 109.50000 418.400000
106 16935 10880 1 109.50000 418.400000
7827 16935 10374 1 109.50000 418.400000
7827 16935 10880 1 109.50000 418.400000
10374 16935 10880 1 109.50000 418.400000
2413 16936 7984 1 109.50000 418.400000
2413 16936 10614 1 109.50000 418.400000
2413 16936 11058 1 109.50000 418.400000
7984 16936 10614 1 109.50000 418.400000
7984 16936 11058 1 109.50000 418.400000
10614 16936 11058 1 109.50000 418.400000
9293 16937 9484 1 109.50000 418.400000
9293 16937 9516 1 109.50000 418.400000
9293 16937 10894 1 109.50000 418.400000
9484 16937 9516 1 109.50000 418.400000
9484 16937 10894 1 109.50000 418.400000
9516 16937 10894 1 109.50000 418.400000
403 16938 9687 1 109.50000 418.400000
403 16938 9688 1 109.50000 418.400000
403 16938 10600 1 109.50000 418.400000
9687 16938 9688 1 109.50000 418.400000
9687 16938 10600 1 109.50000 418.400000
9688 16938 10600 1 109.50000 418.400000
8930 16939 9281 1 109.50000 418.400000
8930 16939 9385 1 109.50000 418.400000
8930 16939 10817 1 109.50000 418.400000
9281 16939 9385 1 109.50000 418.400000
9281 16939 10817 1 109.50000 418.400000
9385 16939 10817 1 109.50000 418.400000
2215 16940 7755 1 109.50000 418.400000
2215 16940 9211 1 109.50000 418.400000
2215 16940 10590 1 109.50000 418.400000
7755 16940 9211 1 109.50000 418.400000
7755 16940 10590 1 109.50000 418.400000
9211 16940 10590 1 109.50000 418.400000
3458 16941 10713 1 109.50000 418.400000
3458 16941 11047 1 109.50000 418.400000
3458 16941 11108 1 109.50000 418.400000
10713 16941 11047 1 109.50000 418.400000
10713 16941 11108 1 109.50000 418.400000
11047 16941 11108 1 109.50000 418.400000
1968 16942 2771 1 109.50000 418.400000
1968 16942 7055 1 109.50000 418.400000
1968 16942 9322 1 109.50000 418.400000
2771 16942 7055 1 109.50000 418.400000
2771 16942 9322 1 109.50000 418.400000
7055 16942 9322 1 109.50000 418.400000
7697 16943 7699 1 109.50000 418.400000
7697 16943 9436 1 109.50000 418.400000
7697 16943 9634 1 109.50000 418.400000
7699 16943 9436 1 109.50000 418.400000
7699 16943 9634 1 109.50000 418.400000
9436 16943 9634 1 109.50000 418.400000
5415 16944 9807 1 109.50000 418.400000
5415 16944 10083 1 109.50000 418.400000
5415 16944 11410 1 109.50000 418.400000
9807 16944 10083 1 109.50000 418.400000
9807 16944 11410 1 109.50000 418.400000
10083 16944 11410 1 109.50000 418.400000
3901 16945 9639 1 109.50000 418.400000
3901 16945 10757 1 109.50000 418.400000
3901 16945 11039 1 109.50000 418.400000
9639 16945 10757 1 109.50000 418.400000
9639 16945 11039 1 109.50000 418.400000
10757 16945 11039 1 109.50000 418.400000
7240 16946 7304 1 109.50000 418.400000
7240 16946 8480 1 109.50000 418.400000
7240 16946 11024 1 109.50000 418.400000
7304 16946 8480 1 109.50000 418.400000
7304 16946 11024 1 109.50000 418.400000
8480 16946 11024 1 109.50000 418.400000
4218 16947 7824 1 109.50000 418.400000
4218 16947 9986 1 109.50000 418.400000
4218 16947 10559 1 109.50000 418.400000
7824 16947 9986 1 109.50000 418.400000
7824 16947 10559 1 109.50000 418.400000
9986 16947 10559 1 109.50000 418.400000
2192 16948 2653 1 109.50000 418.400000
2192 16948 8291 1 109.50000 418.400000
2192 16948 10837 1 109.50000 418.400000
2653 16948 8291 1 109.50000 418.400000
2653 16948 10837 1 109.50000 418.400000
8291 16948 10837 1 109.50000 418.400000
1263 16949 7341 1 109.50000 418.400000
1263 16949 8672 1 109.50000 418.400000
1263 16949 10554 1 109.50000 418.400000
7341 16949 8672 1 109.50000 418.400000
7341 16949 10554 1 109.50000 418.400000
8672 16949 10554 1 109.50000 418.400000
1869 16950 8017 1 109.50000 418.400000
1869 16950 8627 1 109.50000 418.400000
1869 16950 11111 1 109.50000 418.400000
8017 16950 8627 1 109.50000 418.400000
8017 16950 11111 1 109.50000 418.400000
8627 16950 11111 1 109.50000 418.400000
2748 16951 10317 1 109.50000 418.400000
2748 16951 11043 1 109.50000 418.400000
2748 16951 11425 1 109.50000 418.400000
10317 16951 11043 1 109.50000 418.400000
10317 16951 11425 1 109.50000 418.400000
11043 16951 11425 1 109.50000 418.400000
7353 16952 8230 1 109.50000 418.400000
7353 16952 10465 1 109.50000 418.400000
7353 16952 11136 1 109.50000 418.400000
8230 16952 10465 1 109.50000 418.400000
8230 16952 11136 1 109.50000 418.400000
10465 16952 11136 1 109.50000 418.400000
3710 16953 10743 1 109.50000 418.400000
3710 16953 10873 1 109.50000 418.400000
3710 16953 10988 1 109.50000 418.400000
10743 16953 10873 1 109.50000 418.400000
10743 16953 10988 1 109.50000 418.400000
10873 16953 10988 1 109.50000 418.400000
1866 16954 2606 1 109.50000 418.400000
1866 16954 2607 1 109.50000 418.400000
1866 16954 11128 1 109.50000 418.400000
2606 16954 2607 1 109.50000 418.400000
2606 16954 11128 1 109.50000 418.400000
2607 16954 11128 1 109.50000 418.400000
3048 16955 8030 1 109.50000 418.400000
3048 16955 8715 1 109.50000 418.400000
3048 16955 11116 1 109.50000 418.400000
8030 16955 8715 1 109.50000 418.400000
8030 16955 11116 1 109.50000 418.400000
8715 16955 11116 1 109.50000 418.400000
2186 16956 10689 1 109.50000 418.400000
2186 16956 10853 1 109.50000 418.400000
2186 16956 11016 1 109.50000 418.400000
10689 16956 10853 1 109.50000 418.400000
10689 16956 11016 1 109.50000 418.400000
10853 16956 11016 1 109.50000 418.400000
68 16957 121 1 109.50000 418.400000
68 16957 9771 1 109.50000 418.400000
68 16957 11137 1 109.50000 418.400000
121 16957 9771 1 109.50000 418.400000
121 16957 11137 1 109.50000 418.400000
9771 16957 11137 1 109.50000 418.400000
414 16958 493 1 109.50000 418.400000
414 16958 3746 1 109.50000 418.400000
414 16958 4109 1 109.50000 418.400000
493 16958 3746 1 109.50000 418.400000
493 16958 4109 1 109.50000 418.400000
3746 16958 4109 1 109.50000 418.400000
266 16959 8394 1 109.50000 418.400000
266 16959 8905 1 109.50000 418.400000
266 16959 10830 1 109.50000 418.400000
8394 16959 8905 1 109.50000 418.400000
8394 16959 10830 1 109.50000 418.400000
8905 16959 10830 1 109.50000 418.400000
4570 16960 9007 1 109.50000 418.400000
4570 16960 9580 1 109.50000 418.400000
4570 16960 11117 1 109.50000 418.400000
9007 16960 9580 1 109.50000 418.400000
9007 16960 11117 1 109.50000 418.400000
9580 16960 11117 1 109.50000 418.400000
4660 16961 5456 1 109.50000 418.400000
4660 16961 5517 1 109.50000 418.400000
4660 16961 8952 1 109.50000 418.400000
5456 16961 5517 1 109.50000 418.400000
5456 16961 8952 1 109.50000 418.400000
5517 16961 8952 1 109.50000 418.400000
4037 16962 5590 1 109.50000 418.400000
4037 16962 9133 1 109.50000 418.400000
4037 16962 9534 1 109.50000 418.400000
5590 16962 9133 1 109.50000 418.400000
5590 16962 9534 1 109.50000 418.400000
9133 16962 9534 1 109.50000 418.400000
5049 16963 5050 1 109.50000 418.400000
5049 16963 6764 1 109.50000 418.400000
5049 16963 7554 1 109.50000 418.400000
5050 16963 6764 1 109.50000 418.400000
5050 16963 7554 1 109.50000 418.400000
6764 16963 7554 1 109.50000 418.400000
6809 16964 7056 1 109.50000 418.400000
6809 16964 7794 1 109.50000 418.400000
6809 16964 10152 1 109.50000 418.400000
7056 16964 7794 1 109.50000 418.400000
7056 16964 10152 1 109.50000 418.400000
7794 16964 10152 1 109.50000 418.400000
2743 16965 3812 1 109.50000 418.400000
2743 16965 8479 1 109.50000 418.400000
2743 16965 10255 1 109.50000 418.400000
3812 16965 8479 1 109.50000 418.400000
3812 16965 10255 1 109.50000 418.400000
8479 16965 10255 1 109.50000 418.400000
3776 16966 6735 1 109.50000 418.400000
3776 16966 10626 1 109.50000 418.400000
3776 16966 11537 1 109.50000 418.400000
6735 16966 10626 1 109.50000 418.400000
6735 16966 11537 1 109.50000 418.400000
10626 16966 11537 1 109.50000 418.400000
6838 16967 7425 1 109.50000 418.400000
6838 16967 10449 1 109.50000 418.400000
6838 16967 10912 1 109.50000 418.400000
7425 16967 10449 1 109.50000 418.400000
7425 16967 10912 1 109.50000 418.400000
10449 16967 10912 1 109.50000 418.400000
3738 16968 4384 1 109.50000 418.400000
3738 16968 5974 1 109.50000 418.400000
3738 16968 11252 1 109.50000 418.400000
4384 16968 5974 1 109.50000 418.400000
4384 16968 11252 1 109.50000 418.400000
5974 16968 11252 1 109.50000 418.400000
1106 16969 5200 1 109.50000 418.400000
1106 16969 9078 1 109.50000 418.400000
1106 16969 11133 1 109.50000 418.400000
5200 16969 9078 1 109.50000 418.400000
5200 16969 11133 1 109.50000 418.400000
9078 16969 11133 1 109.50000 418.400000
3161 16970 5611 1 109.50000 418.400000
3161 16970 8406 1 109.50000 418.400000
3161 16970 10688 1 109.50000 418.400000
5611 16970 8406 1 109.50000 418.400000
5611 16970 10688 1 109.50000 418.400000
8406 16970 10688 1 109.50000 418.400000
2887 16971 8382 1 109.50000 418.400000
2887 16971 9886 1 109.50000 418.400000
2887 16971 11068 1 109.50000 418.400000
8382 16971 9886 1 109.50000 418.400000
8382 16971 11068 1 109.50000 418.400000
9886 16971 11068 1 109.50000 418.400000
1428 16972 2920 1 109.50000 418.400000
1428 16972 3069 1 109.50000 418.400000
1428 16972 9897 1 109.50000 418.400000
2920 16972 3069 1 109.50000 418.400000
2920 16972 9897 1 109.50000 418.400000
3069 16972 9897 1 109.50000 418.400000
4264 16973 9434 1 109.50000 418.400000
4264 16973 9854 1 109.50000 418.400000
4264 16973 11112 1 109.50000 418.400000
9434 16973 9854 1 109.50000 418.400000
9434 16973 11112 1 109.50000 418.400000
9854 16973 11112 1 109.50000 418.400000
7348 16974 7864 1 109.50000 418.400000
7348 16974 9885 1 109.50000 418.400000
7348 16974 10804 1 109.50000 418.400000
7864 16974 9885 1 109.50000 418.400000
7864 16974 10804 1 109.50000 418.400000
9885 16974 10804 1 109.50000 418.400000
4836 16975 8688 1 109.50000 418.400000
4836 16975 9253 1 109.50000 418.400000
4836 16975 9923 1 109.50000 418.400000
8688 16975 9253 1 109.50000 418.400000
8688 16975 9923 1 109.50000 418.400000
9253 16975 9923 1 109.50000 418.400000
4477 16976 6230 1 109.50000 418.400000
4477 16976 10274 1 109.50000 418.400000
4477 16976 11059 1 109.50000 418.400000
6230 16976 10274 1 109.50000 418.400000
6230 16976 11059 1 109.50000 418.400000
10274 16976 11059 1 109.50000 418.400000
7400 16977 7765 1 109.50000 418.400000
7400 16977 7790 1 109.50000 418.400000
7400 16977 10258 1 109.50000 418.400000
7765 16977 7790 1 109.50000 418.400000
7765 16977 10258 1 109.50000 418.400000
7790 16977 10258 1 109.50000 418.400000
7242 16978 10168 1 109.50000 418.400000
7242 16978 10183 1 109.50000 418.400000
7242 16978 11118 1 109.50000 418.400000
10168 16978 10183 1 109.50000 418.400000
10168 16978 11118 1 109.50000 418.400000
10183 16978 11118 1 109.50000 418.400000
1670 16979 5285 1 109.50000 418.400000
1670 16979 10180 1 109.50000 418.400000
1670 16979 10391 1 109.50000 418.400000
5285 16979 10180 1 109.50000 418.400000
5285 16979 10391 1 109.50000 418.400000
10180 16979 10391 1 109.50000 418.400000
1878 16980 4887 1 109.50000 418.400000
1878 16980 7927 1 109.50000 418.400000
1878 16980 8571 1 109.50000 418.400000
4887 16980 7927 1 109.50000 418.400000
4887 16980 8571 1 109.50000 418.400000
7927 16980 8571 1 109.50000 418.400000
3013 16981 11137 1 109.50000 418.400000
3013 16981 11171 1 109.50000 418.400000
3013 16981 11409 1 109.50000 418.400000
11137 16981 11171 1 109.50000 418.400000
11137 16981 11409 1 109.50000 418.400000
11171 16981 11409 1 109.50000 418.400000
1739 16982 1741 1 109.50000 418.400000
1739 16982 6036 1 109.50000 418.400000
1739 16982 11088 1 109.50000 418.400000
1741 16982 6036 1 109.50000 418.400000
1741 16982 11088 1 109.50000 418.400000
6036 16982 11088 1 109.50000 418.400000
9278 16983 10174 1 109.50000 418.400000
9278 16983 11019 1 109.50000 418.400000
9278 16983 11135 1 109.50000 418.400000
10174 16983 11019 1 109.50000 418.400000
10174 16983 11135 1 109.50000 418.400000
11019 16983 11135 1 109.50000 418.400000
77 16984 6088 1 109.50000 418.400000
77 16984 10869 1 109.50000 418.400000
77 16984 11105 1 109.50000 418.400000
6088 16984 10869 1 109.50000 418.400000
6088 16984 11105 1 109.50000 418.400000
10869 16984 11105 1 109.50000 418.400000
3275 16985 4647 1 109.50000 418.400000
3275 16985 9806 1 109.50000 418.400000
3275 16985 10886 1 109.50000 418.400000
4647 16985 9806 1 109.50000 418.400000
4647 16985 10886 1 109.50000 418.400000
9806 16985 10886 1 109.50000 418.400000
712 16986 8255 1 109.50000 418.400000
712 16986 8336 1 109.50000 418.400000
712 16986 10881 1 109.50000 418.400000
8255 16986 8336 1 109.50000 418.400000
8255 16986 10881 1 109.50000 418.400000
8336 16986 10881 1 109.50000 418.400000
83 16987 9429 1 109.50000 418.400000
83 16987 9716 1 109.50000 418.400000
83 16987 10157 1 109.50000 418.400000
9429 16987 9716 1 109.50000 418.400000
9429 16987 10157 1 109.50000 418.400000
9716 16987 10157 1 109.50000 418.400000
10280 16988 10298 1 109.50000 418.400000
10280 16988 10309 1 109.50000 418.400000
10280 16988 10748 1 109.50000 418.400000
10298 16988 10309 1 109.50000 418.400000
10298 16988 10748 1 109.50000 418.400000
10309 16988 10748 1 109.50000 418.400000
6076 16989 7112 1 109.50000 418.400000
6076 16989 8312 1 109.50000 418.400000
6076 16989 10939 1 109.50000 418.400000
7112 16989 8312 1 109.50000 418.400000
7112 16989 10939 1 109.50000 418.400000
8312 16989 10939 1 109.50000 418.400000
7616 16990 10226 1 109.50000 418.400000
7616 16990 10896 1 109.50000 418.400000
7616 16990 10961 1 109.50000 418.400000
10226 16990 10896 1 109.50000 418.400000
10226 16990 10961 1 109.50000 418.400000
10896 16990 10961 1 109.50000 418.400000
2389 16991 10037 1 109.50000 418.400000
2389 16991 11131 1 109.50000 418.400000
2389 16991 11132 1 109.50000 418.400000
10037 16991 11131 1 109.50000 418.400000
10037 16991 11132 1 109.50000 418.400000
11131 16991 11132 1 109.50000 418.400000
4733 16992 9971 1 109.50000 418.400000
4733 16992 10036 1 109.50000 418.400000
4733 16992 11438 1 109.50000 418.400000
9971 16992 10036 1 109.50000 418.400000
9971 16992 11438 1 109.50000 418.400000
10036 16992 11438 1 109.50000 418.400000
614 16993 7832 1 109.50000 418.400000
614 16993 7833 1 109.50000 418.400000
614 16993 10256 1 109.50000 418.400000
7832 16993 7833 1 109.50000 418.400000
7832 16993 10256 1 109.50000 418.400000
7833 16993 10256 1 109.50000 418.400000
5117 16994 5513 1 109.50000 418.400000
5117 16994 8971 1 109.50000 418.400000
5117 16994 10350 1 109.50000 418.400000
5513 16994 8971 1 109.50000 418.400000
5513 16994 10350 1 109.50000 418.400000
8971 16994 10350 1 109.50000 418.400000
8225 16995 10196 1 109.50000 418.400000
8225 16995 10573 1 109.50000 418.400000
8225 16995 11015 1 109.50000 418.400000
10196 16995 10573 1 109.50000 418.400000
10196 16995 11015 1 109.50000 418.400000
10573 16995 11015 1 109.50000 418.400000
990 16996 3918 1 109.50000 418.400000
990 16996 5487 1 109.50000 418.400000
990 16996 7552 1 109.50000 418.400000
3918 16996 5487 1 109.50000 418.400000
3918 16996 7552 1 109.50000 418.400000
5487 16996 7552 1 109.50000 418.400000
2823 16997 3283 1 109.50000 418.400000
2823 16997 8524 1 109.50000 418.400000
2823 16997 8987 1 109.50000 418.400000
3283 16997 8524 1 109.50000 418.400000
3283 16997 8987 1 109.50000 418.400000
8524 16997 8987 1 109.50000 418.400000
6677 16998 10059 1 109.50000 418.400000
6677 16998 11033 1 109.50000 418.400000
6677 16998 11099 1 109.50000 418.400000
10059 16998 11033 1 109.50000 418.400000
10059 16998 11099 1 109.50000 418.400000
11033 16998 11099 1 109.50000 418.400000
2663 16999 6355 1 109.50000 418.400000
2663 16999 6959 1 109.50000 418.400000
2663 16999 8963 1 109.50000 418.400000
6355 16999 6959 1 109.50000 418.400000
6355 16999 8963 1 109.50000 418.400000
6959 16999 8963 1 109.50000 418.400000
660 17000 1902 1 109.50000 418.400000
660 17000 10934 1 109.50000 418.400000
660 17000 11134 1 109.50000 418.400000
1902 17000 10934 1 109.50000 418.400000
1902 17000 11134 1 109.50000 418.400000
10934 17000 11134 1 109.50000 418.400000
2923 17001 5081 1 109.50000 418.400000
2923 17001 5436 1 109.50000 418.400000
2923 17001 9475 1 109.50000 418.400000
5081 17001 5436 1 109.50000 418.400000
5081 17001 9475 1 109.50000 418.400000
5436 17001 9475 1 109.50000 418.400000
1776 17002 3011 1 109.50000 418.400000
1776 17002 8518 1 109.50000 418.400000
1776 17002 10947 1 109.50000 418.400000
3011 17002 8518 1 109.50000 418.400000
3011 17002 10947 1 109.50000 418.400000
8518 17002 10947 1 109.50000 418.400000
2644 17003 3986 1 109.50000 418.400000
2644 17003 6752 1 109.50000 418.400000
2644 17003 9439 1 109.50000 418.400000
3986 17003 6752 1 109.50000 418.400000
3986 17003 9439 1 109.50000 418.400000
6752 17003 9439 1 109.50000 418.400000
1074 17004 1661 1 109.50000 418.400000
1074 17004 4448 1 109.50000 418.400000
1074 17004 11036 1 109.50000 418.400000
1661 17004 4448 1 109.50000 418.400000
1661 17004 11036 1 109.50000 418.400000
4448 17004 11036 1 109.50000 418.400000
4661 17005 5106 1 109.50000 418.400000
4661 17005 7454 1 109.50000 418.400000
4661 17005 8268 1 109.50000 418.400000
5106 17005 7454 1 109.50000 418.400000
5106 17005 8268 1 109.50000 418.400000
7454 17005 8268 1 109.50000 418.400000
3485 17006 3536 1 109.50000 418.400000
3485 17006 4290 1 109.50000 418.400000
3485 17006 10360 1 109.50000 418.400000
3536 17006 4290 1 109.50000 418.400000
3536 17006 10360 1 109.50000 418.400000
4290 17006 10360 1 109.50000 418.400000
177 17007 1271 1 109.50000 418.400000
177 17007 1805 1 109.50000 418.400000
177 17007 3357 1 109.50000 418.400000
1271 17007 1805 1 109.50000 418.400000
1271 17007 3357 1 109.50000 418.400000
1805 17007 3357 1 109.50000 418.400000
948 17008 6340 1 109.50000 418.400000
948 17008 8958 1 109.50000 418.400000
948 17008 10292 1 109.50000 418.400000
6340 17008 8958 1 109.50000 418.400000
6340 17008 10292 1 109.50000 418.400000
8958 17008 10292 1 109.50000 418.400000
645 17009 2721 1 109.50000 418.400000
645 17009 6714 1 109.50000 418.400000
645 17009 9793 1 109.50000 418.400000
2721 17009 6714 1 109.50000 418.400000
2721 17009 9793 1 109.50000 418.400000
6714 17009 9793 1 109.50000 418.400000
5591 17010 7331 1 109.50000 418.400000
5591 17010 10202 1 109.50000 418.400000
5591 17010 11136 1 109.50000 418.400000
7331 17010 10202 1 109.50000 418.400000
7331 17010 11136 1 109.50000 418.400000
10202 17010 11136 1 109.50000 418.400000
1447 17011 1824 1 109.50000 418.400000
1447 17011 2794 1 109.50000 418.400000
1447 17011 3201 1 109.50000 418.400000
1824 17011 2794 1 109.50000 418.400000
1824 17011 3201 1 109.50000 418.400000
2794 17011 3201 1 109.50000 418.400000
9165 17012 10229 1 109.50000 418.400000
9165 17012 10402 1 109.50000 418.400000
9165 17012 10800 1 109.50000 418.400000
10229 17012 10402 1 109.50000 418.400000
10229 17012 10800 1 109.50000 418.400000
10402 17012 10800 1 109.50000 418.400000
8160 17013 9522 1 109.50000 418.400000
8160 17013 10244 1 109.50000 418.400000
8160 17013 11119 1 109.50000 418.400000
9522 17013 10244 1 109.50000 418.400000
9522 17013 11119 1 109.50000 418.400000
10244 17013 11119 1 109.50000 418.400000
4866 17014 5887 1 109.50000 418.400000
4866 17014 7830 1 109.50000 418.400000
4866 17014 10996 1 109.50000 418.400000
5887 17014 7830 1 109.50000 418.400000
5887 17014 10996 1 109.50000 418.400000
7830 17014 10996 1 109.50000 418.400000
3238 17015 4431 1 109.50000 418.400000
3238 17015 9080 1 109.50000 418.400000
3238 17015 10297 1 109.50000 418.400000
4431 17015 9080 1 109.50000 418.400000
4431 17015 10297 1 109.50000 418.400000
9080 17015 10297 1 109.50000 418.400000
8273 17016 9095 1 109.50000 418.400000
8273 17016 9418 1 109.50000 418.400000
8273 17016 10344 1 109.50000 418.400000
9095 17016 9418 1 109.50000 418.400000
9095 17016 10344 1 109.50000 418.400000
9418 17016 10344 1 109.50000 418.400000
5071 17017 6175 1 109.50000 418.400000
5071 17017 6178 1 109.50000 418.400000
5071 17017 6787 1 109.50000 418.400000
6175 17017 6178 1 109.50000 418.400000
6175 17017 6787 1 109.50000 418.400000
6178 17017 6787 1 109.50000 418.400000
17018 17019 17020 1 119.8800511 375.723200
17018 17019 17028 1 119.8800511 375.723200
17020 17019 17028 1 120.0200517 532.790560
17019 17020 17021 1 121.3800518 83.010560
17019 17020 17022 1 120.0200517 532.790560
17021 17020 17022 1 121.3800518 83.010560
775 17021 8265 1 109.50000 418.400000
775 17021 17020 1 103.70004 836.800000
775 17021 17030 1 109.50000 418.400000
8265 17021 17020 1 103.70004 836.800000
8265 17021 17030 1 109.50000 418.400000
17020 17021 17030 1 103.70004 1034.033760
17020 17022 17023 1 119.8800511 375.723200
17020 17022 17024 1 120.0200517 532.790560
17023 17022 17024 1 119.8800511 375.723200
17022 17024 17025 1 119.8800511 375.723200
17022 17024 17026 1 120.0200517 532.790560
17025 17024 17026 1 119.8800511 375.723200
17024 17026 17027 1 119.8800511 375.723200
17024 17026 17028 1 120.0200517 532.790560
17027 17026 17028 1 119.8800511 375.723200
17019 17028 17026 1 120.0200517 532.790560
17019 17028 17029 1 119.8800511 375.723200
17026 17028 17029 1 119.8800511 375.723200
17021 17030 17031 1 115.00000 209.200000
17032 17033 17034 1 119.8800511 375.723200
17032 17033 17042 1 119.8800511 375.723200
17034 17033 17042 1 120.0200517 532.790560
17033 17034 17035 1 121.3800518 83.010560
17033 17034 17036 1 120.0200517 532.790560
17035 17034 17036 1 121.3800518 83.010560
3047 17035 3048 1 109.50000 418.400000
3047 17035 17034 1 103.70004 836.800000
3047 17035 17044 1 109.50000 418.400000
3048 17035 17034 1 103.70004 836.800000
3048 17035 17044 1 109.50000 418.400000
17034 17035 17044 1 103.70004 1034.033760
17034 17036 17037 1 119.8800511 375.723200
17034 17036 17038 1 120.0200517 532.790560
17037 17036 17038 1 119.8800511 375.723200
17036 17038 17039 1 119.8800511 375.723200
17036 17038 17040 1 120.0200517 532.790560
17039 17038 17040 1 119.8800511 375.723200
17038 17040 17041 1 119.8800511 375.723200
17038 17040 17042 1 120.0200517 532.790560
17041 17040 17042 1 119.8800511 375.723200
17033 17042 17040 1 120.0200517 532.790560
17033 17042 17043 1 119.8800511 375.723200
17040 17042 17043 1 119.8800511 375.723200
17035 17044 17045 1 115.00000 209.200000
17046 17047 17048 1 119.8800511 375.723200
17046 17047 17056 1 119.8800511 375.723200
17048 17047 17056 1 120.0200517 532.790560
17047 17048 17049 1 121.3800518 83.010560
17047 17048 17050 1 120.0200517 532.790560
17049 17048 17050 1 121.3800518 83.010560
3569 17049 3570 1 109.50000 418.400000
3569 17049 17048 1 103.70004 836.800000
3569 17049 17058 1 109.50000 418.400000
3570 17049 17048 1 103.70004 836.800000
3570 17049 17058 1 109.50000 418.400000
17048 17049 17058 1 103.70004 1034.033760
17048 17050 17051 1 119.8800511 375.723200
17048 17050 17052 1 120.0200517 532.790560
17051 17050 17052 1 119.8800511 375.723200
17050 17052 17053 1 119.8800511 375.723200
17050 17052 17054 1 120.0200517 532.790560
17053 17052 17054 1 119.8800511 375.723200
17052 17054 17055 1 119.8800511 375.723200
17052 17054 17056 1 120.0200517 532.790560
17055 17054 17056 1 119.8800511 375.723200
17047 17056 17054 1 120.0200517 532.790560
17047 17056 17057 1 119.8800511 375.723200
17054 17056 17057 1 119.8800511 375.723200
17049 17058 17059 1 115.00000 209.200000
17060 17061 17062 1 119.8800511 375.723200
17060 17061 17070 1 119.8800511 375.723200
17062 17061 17070 1 120.0200517 532.790560
17061 17062 17063 1 121.3800518 83.010560
17061 17062 17064 1 120.0200517 532.790560
17063 17062 17064 1 121.3800518 83.010560
2605 17063 4304 1 109.50000 418.400000
2605 17063 17062 1 103.70004 836.800000
2605 17063 17072 1 109.50000 418.400000
4304 17063 17062 1 103.70004 836.800000
4304 17063 17072 1 109.50000 418.400000
17062 17063 17072 1 103.70004 1034.033760
17062 17064 17065 1 119.8800511 375.723200
17062 17064 17066 1 120.0200517 532.790560
17065 17064 17066 1 119.8800511 375.723200
17064 17066 17067 1 119.8800511 375.723200
17064 17066 17068 1 120.0200517 532.790560
17067 17066 17068 1 119.8800511 375.723200
17066 17068 17069 1 119.8800511 375.723200
17066 17068 17070 1 120.0200517 532.790560
17069 17068 17070 1 119.8800511 375.723200
17061 17070 17068 1 120.0200517 532.790560
17061 17070 17071 1 119.8800511 375.723200
17068 17070 17071 1 119.8800511 375.723200
17063 17072 17073 1 115.00000 209.200000
17074 17075 17076 1 119.8800511 375.723200
17074 17075 17084 1 119.8800511 375.723200
17076 17075 17084 1 120.0200517 532.790560
17075 17076 17077 1 121.3800518 83.010560
17075 17076 17078 1 120.0200517 532.790560
17077 17076 17078 1 121.3800518 83.010560
10868 17077 10869 1 109.50000 418.400000
10868 17077 17076 1 103.70004 836.800000
10868 17077 17086 1 109.50000 418.400000
10869 17077 17076 1 103.70004 836.800000
10869 17077 17086 1 109.50000 418.400000
17076 17077 17086 1 103.70004 1034.033760
17076 17078 17079 1 119.8800511 375.723200
17076 17078 17080 1 120.0200517 532.790560
17079 17078 17080 1 119.8800511 375.723200
17078 17080 17081 1 119.8800511 375.723200
17078 17080 17082 1 120.0200517 532.790560
17081 17080 17082 1 119.8800511 375.723200
17080 17082 17083 1 119.8800511 375.723200
17080 17082 17084 1 120.0200517 532.790560
17083 17082 17084 1 119.8800511 375.723200
17075 17084 17082 1 120.0200517 532.790560
17075 17084 17085 1 119.8800511 375.723200
17082 17084 17085 1 119.8800511 375.723200
17077 17086 17087 1 115.00000 209.200000
17088 17089 17090 1 119.8800511 375.723200
17088 17089 17098 1 119.8800511 375.723200
17090 17089 17098 1 120.0200517 532.790560
17089 17090 17091 1 121.3800518 83.010560
17089 17090 17092 1 120.0200517 532.790560
17091 17090 17092 1 121.3800518 83.010560
722 17091 8412 1 109.50000 418.400000
722 17091 17090 1 103.70004 836.800000
722 17091 17100 1 109.50000 418.400000
8412 17091 17090 1 103.70004 836.800000
8412 17091 17100 1 109.50000 418.400000
17090 17091 17100 1 103.70004 1034.033760
17090 17092 17093 1 119.8800511 375.723200
17090 17092 17094 1 120.0200517 532.790560
17093 17092 17094 1 119.8800511 375.723200
17092 17094 17095 1 119.8800511 375.723200
17092 17094 17096 1 120.0200517 532.790560
17095 17094 17096 1 119.8800511 375.723200
17094 17096 17097 1 119.8800511 375.723200
17094 17096 17098 1 120.0200517 532.790560
17097 17096 17098 1 119.8800511 375.723200
17089 17098 17096 1 120.0200517 532.790560
17089 17098 17099 1 119.8800511 375.723200
17096 17098 17099 1 119.8800511 375.723200
17091 17100 17101 1 115.00000 209.200000
17102 17103 17104 1 119.8800511 375.723200
17102 17103 17112 1 119.8800511 375.723200
17104 17103 17112 1 120.0200517 532.790560
17103 17104 17105 1 121.3800518 83.010560
17103 17104 17106 1 120.0200517 532.790560
17105 17104 17106 1 121.3800518 83.010560
3993 17105 8879 1 109.50000 418.400000
3993 17105 17104 1 103.70004 836.800000
3993 17105 17114 1 109.50000 418.400000
8879 17105 17104 1 103.70004 836.800000
8879 17105 17114 1 109.50000 418.400000
17104 17105 17114 1 103.70004 1034.033760
17104 17106 17107 1 119.8800511 375.723200
17104 17106 17108 1 120.0200517 532.790560
17107 17106 17108 1 119.8800511 375.723200
17106 17108 17109 1 119.8800511 375.723200
17106 17108 17110 1 120.0200517 532.790560
17109 17108 17110 1 119.8800511 375.723200
17108 17110 17111 1 119.8800511 375.723200
17108 17110 17112 1 120.0200517 532.790560
17111 17110 17112 1 119.8800511 375.723200
17103 17112 17110 1 120.0200517 532.790560
17103 17112 17113 1 119.8800511 375.723200
17110 17112 17113 1 119.8800511 375.723200
17105 17114 17115 1 115.00000 209.200000
17116 17117 17118 1 119.8800511 375.723200
17116 17117 17126 1 119.8800511 375.723200
17118 17117 17126 1 120.0200517 532.790560
17117 17118 17119 1 121.3800518 83.010560
17117 17118 17120 1 120.0200517 532.790560
17119 17118 17120 1 121.3800518 83.010560
245 17119 9797 1 109.50000 418.400000
245 17119 17118 1 103.70004 836.800000
245 17119 17128 1 109.50000 418.400000
9797 17119 17118 1 103.70004 836.800000
9797 17119 17128 1 109.50000 418.400000
17118 17119 17128 1 103.70004 1034.033760
17118 17120 17121 1 119.8800511 375.723200
17118 17120 17122 1 120.0200517 532.790560
17121 17120 17122 1 119.8800511 375.723200
17120 17122 17123 1 119.8800511 375.723200
17120 17122 17124 1 120.0200517 532.790560
17123 17122 17124 1 119.8800511 375.723200
17122 17124 17125 1 119.8800511 375.723200
17122 17124 17126 1 120.0200517 532.790560
17125 17124 17126 1 119.8800511 375.723200
17117 17126 17124 1 120.0200517 532.790560
17117 17126 17127 1 119.8800511 375.723200
17124 17126 17127 1 119.8800511 375.723200
17119 17128 17129 1 115.00000 209.200000
17130 17131 17132 1 119.8800511 375.723200
17130 17131 17140 1 119.8800511 375.723200
17132 17131 17140 1 120.0200517 532.790560
17131 17132 17133 1 121.3800518 83.010560
17131 17132 17134 1 120.0200517 532.790560
17133 17132 17134 1 121.3800518 83.010560
2046 17133 6921 1 109.50000 418.400000
2046 17133 17132 1 103.70004 836.800000
2046 17133 17142 1 109.50000 418.400000
6921 17133 17132 1 103.70004 836.800000
6921 17133 17142 1 109.50000 418.400000
17132 17133 17142 1 103.70004 1034.033760
17132 17134 17135 1 119.8800511 375.723200
17132 17134 17136 1 120.0200517 532.790560
17135 17134 17136 1 119.8800511 375.723200
17134 17136 17137 1 119.8800511 375.723200
17134 17136 17138 1 120.0200517 532.790560
17137 17136 17138 1 119.8800511 375.723200
17136 17138 17139 1 119.8800511 375.723200
17136 17138 17140 1 120.0200517 532.790560
17139 17138 17140 1 119.8800511 375.723200
17131 17140 17138 1 120.0200517 532.790560
17131 17140 17141 1 119.8800511 375.723200
17138 17140 17141 1 119.8800511 375.723200
17133 17142 17143 1 115.00000 209.200000
17144 17145 17146 1 119.8800511 375.723200
17144 17145 17154 1 119.8800511 375.723200
17146 17145 17154 1 120.0200517 532.790560
17145 17146 17147 1 121.3800518 83.010560
17145 17146 17148 1 120.0200517 532.790560
17147 17146 17148 1 121.3800518 83.010560
3543 17147 11092 1 109.50000 418.400000
3543 17147 17146 1 103.70004 836.800000
3543 17147 17156 1 109.50000 418.400000
11092 17147 17146 1 103.70004 836.800000
11092 17147 17156 1 109.50000 418.400000
17146 17147 17156 1 103.70004 1034.033760
17146 17148 17149 1 119.8800511 375.723200
17146 17148 17150 1 120.0200517 532.790560
17149 17148 17150 1 119.8800511 375.723200
17148 17150 17151 1 119.8800511 375.723200
17148 17150 17152 1 120.0200517 532.790560
17151 17150 17152 1 119.8800511 375.723200
17150 17152 17153 1 119.8800511 375.723200
17150 17152 17154 1 120.0200517 532.790560
17153 17152 17154 1 119.8800511 375.723200
17145 17154 17152 1 120.0200517 532.790560
17145 17154 17155 1 119.8800511 375.723200
17152 17154 17155 1 119.8800511 375.723200
17147 17156 17157 1 115.00000 209.200000
17158 17159 17160 1 119.8800511 375.723200
17158 17159 17168 1 119.8800511 375.723200
17160 17159 17168 1 120.0200517 532.790560
17159 17160 17161 1 121.3800518 83.010560
17159 17160 17162 1 120.0200517 532.790560
17161 17160 17162 1 121.3800518 83.010560
7066 17161 7470 1 109.50000 418.400000
7066 17161 17160 1 103.70004 836.800000
7066 17161 17170 1 109.50000 418.400000
7470 17161 17160 1 103.70004 836.800000
7470 17161 17170 1 109.50000 418.400000
17160 17161 17170 1 103.70004 1034.033760
17160 17162 17163 1 119.8800511 375.723200
17160 17162 17164 1 120.0200517 532.790560
17163 17162 17164 1 119.8800511 375.723200
17162 17164 17165 1 119.8800511 375.723200
17162 17164 17166 1 120.0200517 532.790560
17165 17164 17166 1 119.8800511 375.723200
17164 17166 17167 1 119.8800511 375.723200
17164 17166 17168 1 120.0200517 532.790560
17167 17166 17168 1 119.8800511 375.723200
17159 17168 17166 1 120.0200517 532.790560
17159 17168 17169 1 119.8800511 375.723200
17166 17168 17169 1 119.8800511 375.723200
17161 17170 17171 1 115.00000 209.200000
17172 17173 17174 1 119.8800511 375.723200
17172 17173 17182 1 119.8800511 375.723200
17174 17173 17182 1 120.0200517 532.790560
17173 17174 17175 1 121.3800518 83.010560
17173 17174 17176 1 120.0200517 532.790560
17175 17174 17176 1 121.3800518 83.010560
1750 17175 4922 1 109.50000 418.400000
1750 17175 17174 1 103.70004 836.800000
1750 17175 17184 1 109.50000 418.400000
4922 17175 17174 1 103.70004 836.800000
4922 17175 17184 1 109.50000 418.400000
17174 17175 17184 1 103.70004 1034.033760
17174 17176 17177 1 119.8800511 375.723200
17174 17176 17178 1 120.0200517 532.790560
17177 17176 17178 1 119.8800511 375.723200
17176 17178 17179 1 119.8800511 375.723200
17176 17178 17180 1 120.0200517 532.790560
17179 17178 17180 1 119.8800511 375.723200
17178 17180 17181 1 119.8800511 375.723200
17178 17180 17182 1 120.0200517 532.790560
17181 17180 17182 1 119.8800511 375.723200
17173 17182 17180 1 120.0200517 532.790560
17173 17182 17183 1 119.8800511 375.723200
17180 17182 17183 1 119.8800511 375.723200
17175 17184 17185 1 115.00000 209.200000
17186 17187 17188 1 119.8800511 375.723200
17186 17187 17196 1 119.8800511 375.723200
17188 17187 17196 1 120.0200517 532.790560
17187 17188 17189 1 121.3800518 83.010560
17187 17188 17190 1 120.0200517 532.790560
17189 17188 17190 1 121.3800518 83.010560
7909 17189 10821 1 109.50000 418.400000
7909 17189 17188 1 103.70004 836.800000
7909 17189 17198 1 109.50000 418.400000
10821 17189 17188 1 103.70004 836.800000
10821 17189 17198 1 109.50000 418.400000
17188 17189 17198 1 103.70004 1034.033760
17188 17190 17191 1 119.8800511 375.723200
17188 17190 17192 1 120.0200517 532.790560
17191 17190 17192 1 119.8800511 375.723200
17190 17192 17193 1 119.8800511 375.723200
17190 17192 17194 1 120.0200517 532.790560
17193 17192 17194 1 119.8800511 375.723200
17192 17194 17195 1 119.8800511 375.723200
17192 17194 17196 1 120.0200517 532.790560
17195 17194 17196 1 119.8800511 375.723200
17187 17196 17194 1 120.0200517 532.790560
17187 17196 17197 1 119.8800511 375.723200
17194 17196 17197 1 119.8800511 375.723200
17189 17198 17199 1 115.00000 209.200000
17200 17201 17202 1 119.8800511 375.723200
17200 17201 17210 1 119.8800511 375.723200
17202 17201 17210 1 120.0200517 532.790560
17201 17202 17203 1 121.3800518 83.010560
17201 17202 17204 1 120.0200517 532.790560
17203 17202 17204 1 121.3800518 83.010560
10829 17203 10957 1 109.50000 418.400000
10829 17203 17202 1 103.70004 836.800000
10829 17203 17212 1 109.50000 418.400000
10957 17203 17202 1 103.70004 836.800000
10957 17203 17212 1 109.50000 418.400000
17202 17203 17212 1 103.70004 1034.033760
17202 17204 17205 1 119.8800511 375.723200
17202 17204 17206 1 120.0200517 532.790560
17205 17204 17206 1 119.8800511 375.723200
17204 17206 17207 1 119.8800511 375.723200
17204 17206 17208 1 120.0200517 532.790560
17207 17206 17208 1 119.8800511 375.723200
17206 17208 17209 1 119.8800511 375.723200
17206 17208 17210 1 120.0200517 532.790560
17209 17208 17210 1 119.8800511 375.723200
17201 17210 17208 1 120.0200517 532.790560
17201 17210 17211 1 119.8800511 375.723200
17208 17210 17211 1 119.8800511 375.723200
17203 17212 17213 1 115.00000 209.200000
17214 17215 17216 1 119.8800511 375.723200
17214 17215 17224 1 119.8800511 375.723200
17216 17215 17224 1 120.0200517 532.790560
17215 17216 17217 1 121.3800518 83.010560
17215 17216 17218 1 120.0200517 532.790560
17217 17216 17218 1 121.3800518 83.010560
4318 17217 9492 1 109.50000 418.400000
4318 17217 17216 1 103.70004 836.800000
4318 17217 17226 1 109.50000 418.400000
9492 17217 17216 1 103.70004 836.800000
9492 17217 17226 1 109.50000 418.400000
17216 17217 17226 1 103.70004 1034.033760
17216 17218 17219 1 119.8800511 375.723200
17216 17218 17220 1 120.0200517 532.790560
17219 17218 17220 1 119.8800511 375.723200
17218 17220 17221 1 119.8800511 375.723200
17218 17220 17222 1 120.0200517 532.790560
17221 17220 17222 1 119.8800511 375.723200
17220 17222 17223 1 119.8800511 375.723200
17220 17222 17224 1 120.0200517 532.790560
17223 17222 17224 1 119.8800511 375.723200
17215 17224 17222 1 120.0200517 532.790560
17215 17224 17225 1 119.8800511 375.723200
17222 17224 17225 1 119.8800511 375.723200
17217 17226 17227 1 115.00000 209.200000
17228 17229 17230 1 119.8800511 375.723200
17228 17229 17238 1 119.8800511 375.723200
17230 17229 17238 1 120.0200517 532.790560
17229 17230 17231 1 121.3800518 83.010560
17229 17230 17232 1 120.0200517 532.790560
17231 17230 17232 1 121.3800518 83.010560
1443 17231 1444 1 109.50000 418.400000
1443 17231 17230 1 103.70004 836.800000
1443 17231 17240 1 109.50000 418.400000
1444 17231 17230 1 103.70004 836.800000
1444 17231 17240 1 109.50000 418.400000
17230 17231 17240 1 103.70004 1034.033760
17230 17232 17233 1 119.8800511 375.723200
17230 17232 17234 1 120.0200517 532.790560
17233 17232 17234 1 119.8800511 375.723200
17232 17234 17235 1 119.8800511 375.723200
17232 17234 17236 1 120.0200517 532.790560
17235 17234 17236 1 119.8800511 375.723200
17234 17236 17237 1 119.8800511 375.723200
17234 17236 17238 1 120.0200517 532.790560
17237 17236 17238 1 119.8800511 375.723200
17229 17238 17236 1 120.0200517 532.790560
17229 17238 17239 1 119.8800511 375.723200
17236 17238 17239 1 119.8800511 375.723200
17231 17240 17241 1 115.00000 209.200000
17242 17243 17244 1 119.8800511 375.723200
17242 17243 17252 1 119.8800511 375.723200
17244 17243 17252 1 120.0200517 532.790560
17243 17244 17245 1 121.3800518 83.010560
17243 17244 17246 1 120.0200517 532.790560
17245 17244 17246 1 121.3800518 83.010560
9691 17245 10852 1 109.50000 418.400000
9691 17245 17244 1 103.70004 836.800000
9691 17245 17254 1 109.50000 418.400000
10852 17245 17244 1 103.70004 836.800000
10852 17245 17254 1 109.50000 418.400000
17244 17245 17254 1 103.70004 1034.033760
17244 17246 17247 1 119.8800511 375.723200
17244 17246 17248 1 120.0200517 532.790560
17247 17246 17248 1 119.8800511 375.723200
17246 17248 17249 1 119.8800511 375.723200
17246 17248 17250 1 120.0200517 532.790560
17249 17248 17250 1 119.8800511 375.723200
17248 17250 17251 1 119.8800511 375.723200
17248 17250 17252 1 120.0200517 532.790560
17251 17250 17252 1 119.8800511 375.723200
17243 17252 17250 1 120.0200517 532.790560
17243 17252 17253 1 119.8800511 375.723200
17250 17252 17253 1 119.8800511 375.723200
17245 17254 17255 1 115.00000 209.200000
17256 17257 17258 1 119.8800511 375.723200
17256 17257 17266 1 119.8800511 375.723200
17258 17257 17266 1 120.0200517 532.790560
17257 17258 17259 1 121.3800518 83.010560
17257 17258 17260 1 120.0200517 532.790560
17259 17258 17260 1 121.3800518 83.010560
4102 17259 9375 1 109.50000 418.400000
4102 17259 17258 1 103.70004 836.800000
4102 17259 17268 1 109.50000 418.400000
9375 17259 17258 1 103.70004 836.800000
9375 17259 17268 1 109.50000 418.400000
17258 17259 17268 1 103.70004 1034.033760
17258 17260 17261 1 119.8800511 375.723200
17258 17260 17262 1 120.0200517 532.790560
17261 17260 17262 1 119.8800511 375.723200
17260 17262 17263 1 119.8800511 375.723200
17260 17262 17264 1 120.0200517 532.790560
17263 17262 17264 1 119.8800511 375.723200
17262 17264 17265 1 119.8800511 375.723200
17262 17264 17266 1 120.0200517 532.790560
17265 17264 17266 1 119.8800511 375.723200
17257 17266 17264 1 120.0200517 532.790560
17257 17266 17267 1 119.8800511 375.723200
17264 17266 17267 1 119.8800511 375.723200
17259 17268 17269 1 115.00000 209.200000
17270 17271 17272 1 119.8800511 375.723200
17270 17271 17280 1 119.8800511 375.723200
17272 17271 17280 1 120.0200517 532.790560
17271 17272 17273 1 121.3800518 83.010560
17271 17272 17274 1 120.0200517 532.790560
17273 17272 17274 1 121.3800518 83.010560
7580 17273 9549 1 109.50000 418.400000
7580 17273 17272 1 103.70004 836.800000
7580 17273 17282 1 109.50000 418.400000
9549 17273 17272 1 103.70004 836.800000
9549 17273 17282 1 109.50000 418.400000
17272 17273 17282 1 103.70004 1034.033760
17272 17274 17275 1 119.8800511 375.723200
17272 17274 17276 1 120.0200517 532.790560
17275 17274 17276 1 119.8800511 375.723200
17274 17276 17277 1 119.8800511 375.723200
17274 17276 17278 1 120.0200517 532.790560
17277 17276 17278 1 119.8800511 375.723200
17276 17278 17279 1 119.8800511 375.723200
17276 17278 17280 1 120.0200517 532.790560
17279 17278 17280 1 119.8800511 375.723200
17271 17280 17278 1 120.0200517 532.790560
17271 17280 17281 1 119.8800511 375.723200
17278 17280 17281 1 119.8800511 375.723200
17273 17282 17283 1 115.00000 209.200000
17284 17285 17286 1 119.8800511 375.723200
17284 17285 17294 1 119.8800511 375.723200
17286 17285 17294 1 120.0200517 532.790560
17285 17286 17287 1 121.3800518 83.010560
17285 17286 17288 1 120.0200517 532.790560
17287 17286 17288 1 121.3800518 83.010560
7020 17287 9542 1 109.50000 418.400000
7020 17287 17286 1 103.70004 836.800000
7020 17287 17296 1 109.50000 418.400000
9542 17287 17286 1 103.70004 836.800000
9542 17287 17296 1 109.50000 418.400000
17286 17287 17296 1 103.70004 1034.033760
17286 17288 17289 1 119.8800511 375.723200
17286 17288 17290 1 120.0200517 532.790560
17289 17288 17290 1 119.8800511 375.723200
17288 17290 17291 1 119.8800511 375.723200
17288 17290 17292 1 120.0200517 532.790560
17291 17290 17292 1 119.8800511 375.723200
17290 17292 17293 1 119.8800511 375.723200
17290 17292 17294 1 120.0200517 532.790560
17293 17292 17294 1 119.8800511 375.723200
17285 17294 17292 1 120.0200517 532.790560
17285 17294 17295 1 119.8800511 375.723200
17292 17294 17295 1 119.8800511 375.723200
17287 17296 17297 1 115.00000 209.200000
17298 17299 17300 1 119.8800511 375.723200
17298 17299 17308 1 119.8800511 375.723200
17300 17299 17308 1 120.0200517 532.790560
17299 17300 17301 1 121.3800518 83.010560
17299 17300 17302 1 120.0200517 532.790560
17301 17300 17302 1 121.3800518 83.010560
1684 17301 5566 1 109.50000 418.400000
1684 17301 17300 1 103.70004 836.800000
1684 17301 17310 1 109.50000 418.400000
5566 17301 17300 1 103.70004 836.800000
5566 17301 17310 1 109.50000 418.400000
17300 17301 17310 1 103.70004 1034.033760
17300 17302 17303 1 119.8800511 375.723200
17300 17302 17304 1 120.0200517 532.790560
17303 17302 17304 1 119.8800511 375.723200
17302 17304 17305 1 119.8800511 375.723200
17302 17304 17306 1 120.0200517 532.790560
17305 17304 17306 1 119.8800511 375.723200
17304 17306 17307 1 119.8800511 375.723200
17304 17306 17308 1 120.0200517 532.790560
17307 17306 17308 1 119.8800511 375.723200
17299 17308 17306 1 120.0200517 532.790560
17299 17308 17309 1 119.8800511 375.723200
17306 17308 17309 1 119.8800511 375.723200
17301 17310 17311 1 115.00000 209.200000
17312 17313 17314 1 119.8800511 375.723200
17312 17313 17322 1 119.8800511 375.723200
17314 17313 17322 1 120.0200517 532.790560
17313 17314 17315 1 121.3800518 83.010560
17313 17314 17316 1 120.0200517 532.790560
17315 17314 17316 1 121.3800518 83.010560
10053 17315 10545 1 109.50000 418.400000
10053 17315 17314 1 103.70004 836.800000
10053 17315 17324 1 109.50000 418.400000
10545 17315 17314 1 103.70004 836.800000
10545 17315 17324 1 109.50000 418.400000
17314 17315 17324 1 103.70004 1034.033760
17314 17316 17317 1 119.8800511 375.723200
17314 17316 17318 1 120.0200517 532.790560
17317 17316 17318 1 119.8800511 375.723200
17316 17318 17319 1 119.8800511 375.723200
17316 17318 17320 1 120.0200517 532.790560
17319 17318 17320 1 119.8800511 375.723200
17318 17320 17321 1 119.8800511 375.723200
17318 17320 17322 1 120.0200517 532.790560
17321 17320 17322 1 119.8800511 375.723200
17313 17322 17320 1 120.0200517 532.790560
17313 17322 17323 1 119.8800511 375.723200
17320 17322 17323 1 119.8800511 375.723200
17315 17324 17325 1 115.00000 209.200000
17326 17327 17328 1 119.8800511 375.723200
17326 17327 17336 1 119.8800511 375.723200
17328 17327 17336 1 120.0200517 532.790560
17327 17328 17329 1 121.3800518 83.010560
17327 17328 17330 1 120.0200517 532.790560
17329 17328 17330 1 121.3800518 83.010560
416 17329 7933 1 109.50000 418.400000
416 17329 17328 1 103.70004 836.800000
416 17329 17338 1 109.50000 418.400000
7933 17329 17328 1 103.70004 836.800000
7933 17329 17338 1 109.50000 418.400000
17328 17329 17338 1 103.70004 1034.033760
17328 17330 17331 1 119.8800511 375.723200
17328 17330 17332 1 120.0200517 532.790560
17331 17330 17332 1 119.8800511 375.723200
17330 17332 17333 1 119.8800511 375.723200
17330 17332 17334 1 120.0200517 532.790560
17333 17332 17334 1 119.8800511 375.723200
17332 17334 17335 1 119.8800511 375.723200
17332 17334 17336 1 120.0200517 532.790560
17335 17334 17336 1 119.8800511 375.723200
17327 17336 17334 1 120.0200517 532.790560
17327 17336 17337 1 119.8800511 375.723200
17334 17336 17337 1 119.8800511 375.723200
17329 17338 17339 1 115.00000 209.200000
17340 17341 17342 1 119.8800511 375.723200
17340 17341 17350 1 119.8800511 375.723200
17342 17341 17350 1 120.0200517 532.790560
17341 17342 17343 1 121.3800518 83.010560
17341 17342 17344 1 120.0200517 532.790560
17343 17342 17344 1 121.3800518 83.010560
4051 17343 10314 1 109.50000 418.400000
4051 17343 17342 1 103.70004 836.800000
4051 17343 17352 1 109.50000 418.400000
10314 17343 17342 1 103.70004 836.800000
10314 17343 17352 1 109.50000 418.400000
17342 17343 17352 1 103.70004 1034.033760
17342 17344 17345 1 119.8800511 375.723200
17342 17344 17346 1 120.0200517 532.790560
17345 17344 17346 1 119.8800511 375.723200
17344 17346 17347 1 119.8800511 375.723200
17344 17346 17348 1 120.0200517 532.790560
17347 17346 17348 1 119.8800511 375.723200
17346 17348 17349 1 119.8800511 375.723200
17346 17348 17350 1 120.0200517 532.790560
17349 17348 17350 1 119.8800511 375.723200
17341 17350 17348 1 120.0200517 532.790560
17341 17350 17351 1 119.8800511 375.723200
17348 17350 17351 1 119.8800511 375.723200
17343 17352 17353 1 115.00000 209.200000
17354 17355 17356 1 119.8800511 375.723200
17354 17355 17364 1 119.8800511 375.723200
17356 17355 17364 1 120.0200517 532.790560
17355 17356 17357 1 121.3800518 83.010560
17355 17356 17358 1 120.0200517 532.790560
17357 17356 17358 1 121.3800518 83.010560
5298 17357 5299 1 109.50000 418.400000
5298 17357 17356 1 103.70004 836.800000
5298 17357 17366 1 109.50000 418.400000
5299 17357 17356 1 103.70004 836.800000
5299 17357 17366 1 109.50000 418.400000
17356 17357 17366 1 103.70004 1034.033760
17356 17358 17359 1 119.8800511 375.723200
17356 17358 17360 1 120.0200517 532.790560
17359 17358 17360 1 119.8800511 375.723200
17358 17360 17361 1 119.8800511 375.723200
17358 17360 17362 1 120.0200517 532.790560
17361 17360 17362 1 119.8800511 375.723200
17360 17362 17363 1 119.8800511 375.723200
17360 17362 17364 1 120.0200517 532.790560
17363 17362 17364 1 119.8800511 375.723200
17355 17364 17362 1 120.0200517 532.790560
17355 17364 17365 1 119.8800511 375.723200
17362 17364 17365 1 119.8800511 375.723200
17357 17366 17367 1 115.00000 209.200000
17368 17369 17370 1 119.8800511 375.723200
17368 17369 17378 1 119.8800511 375.723200
17370 17369 17378 1 120.0200517 532.790560
17369 17370 17371 1 121.3800518 83.010560
17369 17370 17372 1 120.0200517 532.790560
17371 17370 17372 1 121.3800518 83.010560
178 17371 6130 1 109.50000 418.400000
178 17371 17370 1 103.70004 836.800000
178 17371 17380 1 109.50000 418.400000
6130 17371 17370 1 103.70004 836.800000
6130 17371 17380 1 109.50000 418.400000
17370 17371 17380 1 103.70004 1034.033760
17370 17372 17373 1 119.8800511 375.723200
17370 17372 17374 1 120.0200517 532.790560
17373 17372 17374 1 119.8800511 375.723200
17372 17374 17375 1 119.8800511 375.723200
17372 17374 17376 1 120.0200517 532.790560
17375 17374 17376 1 119.8800511 375.723200
17374 17376 17377 1 119.8800511 375.723200
17374 17376 17378 1 120.0200517 532.790560
17377 17376 17378 1 119.8800511 375.723200
17369 17378 17376 1 120.0200517 532.790560
17369 17378 17379 1 119.8800511 375.723200
17376 17378 17379 1 119.8800511 375.723200
17371 17380 17381 1 115.00000 209.200000
17382 17383 17384 1 119.8800511 375.723200
17382 17383 17392 1 119.8800511 375.723200
17384 17383 17392 1 120.0200517 532.790560
17383 17384 17385 1 121.3800518 83.010560
17383 17384 17386 1 120.0200517 532.790560
17385 17384 17386 1 121.3800518 83.010560
4454 17385 4961 1 109.50000 418.400000
4454 17385 17384 1 103.70004 836.800000
4454 17385 17394 1 109.50000 418.400000
4961 17385 17384 1 103.70004 836.800000
4961 17385 17394 1 109.50000 418.400000
17384 17385 17394 1 103.70004 1034.033760
17384 17386 17387 1 119.8800511 375.723200
17384 17386 17388 1 120.0200517 532.790560
17387 17386 17388 1 119.8800511 375.723200
17386 17388 17389 1 119.8800511 375.723200
17386 17388 17390 1 120.0200517 532.790560
17389 17388 17390 1 119.8800511 375.723200
17388 17390 17391 1 119.8800511 375.723200
17388 17390 17392 1 120.0200517 532.790560
17391 17390 17392 1 119.8800511 375.723200
17383 17392 17390 1 120.0200517 532.790560
17383 17392 17393 1 119.8800511 375.723200
17390 17392 17393 1 119.8800511 375.723200
17385 17394 17395 1 115.00000 209.200000
17396 17397 17398 1 119.8800511 375.723200
17396 17397 17406 1 119.8800511 375.723200
17398 17397 17406 1 120.0200517 532.790560
17397 17398 17399 1 121.3800518 83.010560
17397 17398 17400 1 120.0200517 532.790560
17399 17398 17400 1 121.3800518 83.010560
1686 17399 8093 1 109.50000 418.400000
1686 17399 17398 1 103.70004 836.800000
1686 17399 17408 1 109.50000 418.400000
8093 17399 17398 1 103.70004 836.800000
8093 17399 17408 1 109.50000 418.400000
17398 17399 17408 1 103.70004 1034.033760
17398 17400 17401 1 119.8800511 375.723200
17398 17400 17402 1 120.0200517 532.790560
17401 17400 17402 1 119.8800511 375.723200
17400 17402 17403 1 119.8800511 375.723200
17400 17402 17404 1 120.0200517 532.790560
17403 17402 17404 1 119.8800511 375.723200
17402 17404 17405 1 119.8800511 375.723200
17402 17404 17406 1 120.0200517 532.790560
17405 17404 17406 1 119.8800511 375.723200
17397 17406 17404 1 120.0200517 532.790560
17397 17406 17407 1 119.8800511 375.723200
17404 17406 17407 1 119.8800511 375.723200
17399 17408 17409 1 115.00000 209.200000
17410 17411 17412 1 119.8800511 375.723200
17410 17411 17420 1 119.8800511 375.723200
17412 17411 17420 1 120.0200517 532.790560
17411 17412 17413 1 121.3800518 83.010560
17411 17412 17414 1 120.0200517 532.790560
17413 17412 17414 1 121.3800518 83.010560
3184 17413 6126 1 109.50000 418.400000
3184 17413 17412 1 103.70004 836.800000
3184 17413 17422 1 109.50000 418.400000
6126 17413 17412 1 103.70004 836.800000
6126 17413 17422 1 109.50000 418.400000
17412 17413 17422 1 103.70004 1034.033760
17412 17414 17415 1 119.8800511 375.723200
17412 17414 17416 1 120.0200517 532.790560
17415 17414 17416 1 119.8800511 375.723200
17414 17416 17417 1 119.8800511 375.723200
17414 17416 17418 1 120.0200517 532.790560
17417 17416 17418 1 119.8800511 375.723200
17416 17418 17419 1 119.8800511 375.723200
17416 17418 17420 1 120.0200517 532.790560
17419 17418 17420 1 119.8800511 375.723200
17411 17420 17418 1 120.0200517 532.790560
17411 17420 17421 1 119.8800511 375.723200
17418 17420 17421 1 119.8800511 375.723200
17413 17422 17423 1 115.00000 209.200000
17424 17425 17426 1 119.8800511 375.723200
17424 17425 17434 1 119.8800511 375.723200
17426 17425 17434 1 120.0200517 532.790560
17425 17426 17427 1 121.3800518 83.010560
17425 17426 17428 1 120.0200517 532.790560
17427 17426 17428 1 121.3800518 83.010560
2494 17427 6827 1 109.50000 418.400000
2494 17427 17426 1 103.70004 836.800000
2494 17427 17436 1 109.50000 418.400000
6827 17427 17426 1 103.70004 836.800000
6827 17427 17436 1 109.50000 418.400000
17426 17427 17436 1 103.70004 1034.033760
17426 17428 17429 1 119.8800511 375.723200
17426 17428 17430 1 120.0200517 532.790560
17429 17428 17430 1 119.8800511 375.723200
17428 17430 17431 1 119.8800511 375.723200
17428 17430 17432 1 120.0200517 532.790560
17431 17430 17432 1 119.8800511 375.723200
17430 17432 17433 1 119.8800511 375.723200
17430 17432 17434 1 120.0200517 532.790560
17433 17432 17434 1 119.8800511 375.723200
17425 17434 17432 1 120.0200517 532.790560
17425 17434 17435 1 119.8800511 375.723200
17432 17434 17435 1 119.8800511 375.723200
17427 17436 17437 1 115.00000 209.200000
17438 17439 17440 1 119.8800511 375.723200
17438 17439 17448 1 119.8800511 375.723200
17440 17439 17448 1 120.0200517 532.790560
17439 17440 17441 1 121.3800518 83.010560
17439 17440 17442 1 120.0200517 532.790560
17441 17440 17442 1 121.3800518 83.010560
205 17441 1944 1 109.50000 418.400000
205 17441 17440 1 103.70004 836.800000
205 17441 17450 1 109.50000 418.400000
1944 17441 17440 1 103.70004 836.800000
1944 17441 17450 1 109.50000 418.400000
17440 17441 17450 1 103.70004 1034.033760
17440 17442 17443 1 119.8800511 375.723200
17440 17442 17444 1 120.0200517 532.790560
17443 17442 17444 1 119.8800511 375.723200
17442 17444 17445 1 119.8800511 375.723200
17442 17444 17446 1 120.0200517 532.790560
17445 17444 17446 1 119.8800511 375.723200
17444 17446 17447 1 119.8800511 375.723200
17444 17446 17448 1 120.0200517 532.790560
17447 17446 17448 1 119.8800511 375.723200
17439 17448 17446 1 120.0200517 532.790560
17439 17448 17449 1 119.8800511 375.723200
17446 17448 17449 1 119.8800511 375.723200
17441 17450 17451 1 115.00000 209.200000
17452 17453 17454 1 119.8800511 375.723200
17452 17453 17462 1 119.8800511 375.723200
17454 17453 17462 1 120.0200517 532.790560
17453 17454 17455 1 121.3800518 83.010560
17453 17454 17456 1 120.0200517 532.790560
17455 17454 17456 1 121.3800518 83.010560
1807 17455 1808 1 109.50000 418.400000
1807 17455 17454 1 103.70004 836.800000
1807 17455 17464 1 109.50000 418.400000
1808 17455 17454 1 103.70004 836.800000
1808 17455 17464 1 109.50000 418.400000
17454 17455 17464 1 103.70004 1034.033760
17454 17456 17457 1 119.8800511 375.723200
17454 17456 17458 1 120.0200517 532.790560
17457 17456 17458 1 119.8800511 375.723200
17456 17458 17459 1 119.8800511 375.723200
17456 17458 17460 1 120.0200517 532.790560
17459 17458 17460 1 119.8800511 375.723200
17458 17460 17461 1 119.8800511 375.723200
17458 17460 17462 1 120.0200517 532.790560
17461 17460 17462 1 119.8800511 375.723200
17453 17462 17460 1 120.0200517 532.790560
17453 17462 17463 1 119.8800511 375.723200
17460 17462 17463 1 119.8800511 375.723200
17455 17464 17465 1 115.00000 209.200000
17466 17467 17468 1 119.8800511 375.723200
17466 17467 17476 1 119.8800511 375.723200
17468 17467 17476 1 120.0200517 532.790560
17467 17468 17469 1 121.3800518 83.010560
17467 17468 17470 1 120.0200517 532.790560
17469 17468 17470 1 121.3800518 83.010560
5997 17469 10786 1 109.50000 418.400000
5997 17469 17468 1 103.70004 836.800000
5997 17469 17478 1 109.50000 418.400000
10786 17469 17468 1 103.70004 836.800000
10786 17469 17478 1 109.50000 418.400000
17468 17469 17478 1 103.70004 1034.033760
17468 17470 17471 1 119.8800511 375.723200
17468 17470 17472 1 120.0200517 532.790560
17471 17470 17472 1 119.8800511 375.723200
17470 17472 17473 1 119.8800511 375.723200
17470 17472 17474 1 120.0200517 532.790560
17473 17472 17474 1 119.8800511 375.723200
17472 17474 17475 1 119.8800511 375.723200
17472 17474 17476 1 120.0200517 532.790560
17475 17474 17476 1 119.8800511 375.723200
17467 17476 17474 1 120.0200517 532.790560
17467 17476 17477 1 119.8800511 375.723200
17474 17476 17477 1 119.8800511 375.723200
17469 17478 17479 1 115.00000 209.200000
17480 17481 17482 1 119.8800511 375.723200
17480 17481 17490 1 119.8800511 375.723200
17482 17481 17490 1 120.0200517 532.790560
17481 17482 17483 1 121.3800518 83.010560
17481 17482 17484 1 120.0200517 532.790560
17483 17482 17484 1 121.3800518 83.010560
8928 17483 9424 1 109.50000 418.400000
8928 17483 9823 1 109.50000 418.400000
8928 17483 17482 1 103.70004 836.800000
9424 17483 9823 1 109.50000 418.400000
9424 17483 17482 1 103.70004 836.800000
9823 17483 17482 1 103.70004 836.800000
17482 17484 17485 1 119.8800511 375.723200
17482 17484 17486 1 120.0200517 532.790560
17485 17484 17486 1 119.8800511 375.723200
17484 17486 17487 1 119.8800511 375.723200
17484 17486 17488 1 120.0200517 532.790560
17487 17486 17488 1 119.8800511 375.723200
17486 17488 17489 1 119.8800511 375.723200
17486 17488 17490 1 120.0200517 532.790560
17489 17488 17490 1 119.8800511 375.723200
17481 17490 17488 1 120.0200517 532.790560
17481 17490 17491 1 119.8800511 375.723200
17488 17490 17491 1 119.8800511 375.723200
17492 17493 17494 1 119.8800511 375.723200
17492 17493 17502 1 119.8800511 375.723200
17494 17493 17502 1 120.0200517 532.790560
17493 17494 17495 1 121.3800518 83.010560
17493 17494 17496 1 120.0200517 532.790560
17495 17494 17496 1 121.3800518 83.010560
652 17495 3221 1 109.50000 418.400000
652 17495 11350 1 109.50000 418.400000
652 17495 17494 1 103.70004 836.800000
3221 17495 11350 1 109.50000 418.400000
3221 17495 17494 1 103.70004 836.800000
11350 17495 17494 1 103.70004 836.800000
17494 17496 17497 1 119.8800511 375.723200
17494 17496 17498 1 120.0200517 532.790560
17497 17496 17498 1 119.8800511 375.723200
17496 17498 17499 1 119.8800511 375.723200
17496 17498 17500 1 120.0200517 532.790560
17499 17498 17500 1 119.8800511 375.723200
17498 17500 17501 1 119.8800511 375.723200
17498 17500 17502 1 120.0200517 532.790560
17501 17500 17502 1 119.8800511 375.723200
17493 17502 17500 1 120.0200517 532.790560
17493 17502 17503 1 119.8800511 375.723200
17500 17502 17503 1 119.8800511 375.723200
17504 17505 17506 1 119.8800511 375.723200
17504 17505 17514 1 119.8800511 375.723200
17506 17505 17514 1 120.0200517 532.790560
17505 17506 17507 1 121.3800518 83.010560
17505 17506 17508 1 120.0200517 532.790560
17507 17506 17508 1 121.3800518 83.010560
9644 17507 9645 1 109.50000 418.400000
9644 17507 11241 1 109.50000 418.400000
9644 17507 17506 1 103.70004 836.800000
9645 17507 11241 1 109.50000 418.400000
9645 17507 17506 1 103.70004 836.800000
11241 17507 17506 1 103.70004 836.800000
17506 17508 17509 1 119.8800511 375.723200
17506 17508 17510 1 120.0200517 532.790560
17509 17508 17510 1 119.8800511 375.723200
17508 17510 17511 1 119.8800511 375.723200
17508 17510 17512 1 120.0200517 532.790560
17511 17510 17512 1 119.8800511 375.723200
17510 17512 17513 1 119.8800511 375.723200
17510 17512 17514 1 120.0200517 532.790560
17513 17512 17514 1 119.8800511 375.723200
17505 17514 17512 1 120.0200517 532.790560
17505 17514 17515 1 119.8800511 375.723200
17512 17514 17515 1 119.8800511 375.723200
17516 17517 17518 1 119.8800511 375.723200
17516 17517 17526 1 119.8800511 375.723200
17518 17517 17526 1 120.0200517 532.790560
17517 17518 17519 1 121.3800518 83.010560
17517 17518 17520 1 120.0200517 532.790560
17519 17518 17520 1 121.3800518 83.010560
4278 17519 4930 1 109.50000 418.400000
4278 17519 6233 1 109.50000 418.400000
4278 17519 17518 1 103.70004 836.800000
4930 17519 6233 1 109.50000 418.400000
4930 17519 17518 1 103.70004 836.800000
6233 17519 17518 1 103.70004 836.800000
17518 17520 17521 1 119.8800511 375.723200
17518 17520 17522 1 120.0200517 532.790560
17521 17520 17522 1 119.8800511 375.723200
17520 17522 17523 1 119.8800511 375.723200
17520 17522 17524 1 120.0200517 532.790560
17523 17522 17524 1 119.8800511 375.723200
17522 17524 17525 1 119.8800511 375.723200
17522 17524 17526 1 120.0200517 532.790560
17525 17524 17526 1 119.8800511 375.723200
17517 17526 17524 1 120.0200517 532.790560
17517 17526 17527 1 119.8800511 375.723200
17524 17526 17527 1 119.8800511 375.723200
17528 17529 17530 1 119.8800511 375.723200
17528 17529 17538 1 119.8800511 375.723200
17530 17529 17538 1 120.0200517 532.790560
17529 17530 17531 1 121.3800518 83.010560
17529 17530 17532 1 120.0200517 532.790560
17531 17530 17532 1 121.3800518 83.010560
2558 17531 2559 1 109.50000 418.400000
2558 17531 2560 1 109.50000 418.400000
2558 17531 17530 1 103.70004 836.800000
2559 17531 2560 1 109.50000 418.400000
2559 17531 17530 1 103.70004 836.800000
2560 17531 17530 1 103.70004 836.800000
17530 17532 17533 1 119.8800511 375.723200
17530 17532 17534 1 120.0200517 532.790560
17533 17532 17534 1 119.8800511 375.723200
17532 17534 17535 1 119.8800511 375.723200
17532 17534 17536 1 120.0200517 532.790560
17535 17534 17536 1 119.8800511 375.723200
17534 17536 17537 1 119.8800511 375.723200
17534 17536 17538 1 120.0200517 532.790560
17537 17536 17538 1 119.8800511 375.723200
17529 17538 17536 1 120.0200517 532.790560
17529 17538 17539 1 119.8800511 375.723200
17536 17538 17539 1 119.8800511 375.723200
17540 17541 17542 1 119.8800511 375.723200
17540 17541 17550 1 119.8800511 375.723200
17542 17541 17550 1 120.0200517 532.790560
17541 17542 17543 1 121.3800518 83.010560
17541 17542 17544 1 120.0200517 532.790560
17543 17542 17544 1 121.3800518 83.010560
2462 17543 2463 1 109.50000 418.400000
2462 17543 11212 1 109.50000 418.400000
2462 17543 17542 1 103.70004 836.800000
2463 17543 11212 1 109.50000 418.400000
2463 17543 17542 1 103.70004 836.800000
11212 17543 17542 1 103.70004 836.800000
17542 17544 17545 1 119.8800511 375.723200
17542 17544 17546 1 120.0200517 532.790560
17545 17544 17546 1 119.8800511 375.723200
17544 17546 17547 1 119.8800511 375.723200
17544 17546 17548 1 120.0200517 532.790560
17547 17546 17548 1 119.8800511 375.723200
17546 17548 17549 1 119.8800511 375.723200
17546 17548 17550 1 120.0200517 532.790560
17549 17548 17550 1 119.8800511 375.723200
17541 17550 17548 1 120.0200517 532.790560
17541 17550 17551 1 119.8800511 375.723200
17548 17550 17551 1 119.8800511 375.723200
17552 17553 17554 1 119.8800511 375.723200
17552 17553 17562 1 119.8800511 375.723200
17554 17553 17562 1 120.0200517 532.790560
17553 17554 17555 1 121.3800518 83.010560
17553 17554 17556 1 120.0200517 532.790560
17555 17554 17556 1 121.3800518 83.010560
2026 17555 5542 1 109.50000 418.400000
2026 17555 11272 1 109.50000 418.400000
2026 17555 17554 1 103.70004 836.800000
5542 17555 11272 1 109.50000 418.400000
5542 17555 17554 1 103.70004 836.800000
11272 17555 17554 1 103.70004 836.800000
17554 17556 17557 1 119.8800511 375.723200
17554 17556 17558 1 120.0200517 532.790560
17557 17556 17558 1 119.8800511 375.723200
17556 17558 17559 1 119.8800511 375.723200
17556 17558 17560 1 120.0200517 532.790560
17559 17558 17560 1 119.8800511 375.723200
17558 17560 17561 1 119.8800511 375.723200
17558 17560 17562 1 120.0200517 532.790560
17561 17560 17562 1 119.8800511 375.723200
17553 17562 17560 1 120.0200517 532.790560
17553 17562 17563 1 119.8800511 375.723200
17560 17562 17563 1 119.8800511 375.723200
17564 17565 17566 1 119.8800511 375.723200
17564 17565 17574 1 119.8800511 375.723200
17566 17565 17574 1 120.0200517 532.790560
17565 17566 17567 1 121.3800518 83.010560
17565 17566 17568 1 120.0200517 532.790560
17567 17566 17568 1 121.3800518 83.010560
7551 17567 8520 1 109.50000 418.400000
7551 17567 11390 1 109.50000 418.400000
7551 17567 17566 1 103.70004 836.800000
8520 17567 11390 1 109.50000 418.400000
8520 17567 17566 1 103.70004 836.800000
11390 17567 17566 1 103.70004 836.800000
17566 17568 17569 1 119.8800511 375.723200
17566 17568 17570 1 120.0200517 532.790560
17569 17568 17570 1 119.8800511 375.723200
17568 17570 17571 1 119.8800511 375.723200
17568 17570 17572 1 120.0200517 532.790560
17571 17570 17572 1 119.8800511 375.723200
17570 17572 17573 1 119.8800511 375.723200
17570 17572 17574 1 120.0200517 532.790560
17573 17572 17574 1 119.8800511 375.723200
17565 17574 17572 1 120.0200517 532.790560
17565 17574 17575 1 119.8800511 375.723200
17572 17574 17575 1 119.8800511 375.723200
17576 17577 17578 1 119.8800511 375.723200
17576 17577 17586 1 119.8800511 375.723200
17578 17577 17586 1 120.0200517 532.790560
17577 17578 17579 1 121.3800518 83.010560
17577 17578 17580 1 120.0200517 532.790560
17579 17578 17580 1 121.3800518 83.010560
10222 17579 11032 1 109.50000 418.400000
10222 17579 11249 1 109.50000 418.400000
10222 17579 17578 1 103.70004 836.800000
11032 17579 11249 1 109.50000 418.400000
11032 17579 17578 1 103.70004 836.800000
11249 17579 17578 1 103.70004 836.800000
17578 17580 17581 1 119.8800511 375.723200
17578 17580 17582 1 120.0200517 532.790560
17581 17580 17582 1 119.8800511 375.723200
17580 17582 17583 1 119.8800511 375.723200
17580 17582 17584 1 120.0200517 532.790560
17583 17582 17584 1 119.8800511 375.723200
17582 17584 17585 1 119.8800511 375.723200
17582 17584 17586 1 120.0200517 532.790560
17585 17584 17586 1 119.8800511 375.723200
17577 17586 17584 1 120.0200517 532.790560
17577 17586 17587 1 119.8800511 375.723200
17584 17586 17587 1 119.8800511 375.723200
17588 17589 17590 1 119.8800511 375.723200
17588 17589 17598 1 119.8800511 375.723200
17590 17589 17598 1 120.0200517 532.790560
17589 17590 17591 1 121.3800518 83.010560
17589 17590 17592 1 120.0200517 532.790560
17591 17590 17592 1 121.3800518 83.010560
7980 17591 8501 1 109.50000 418.400000
7980 17591 11352 1 109.50000 418.400000
7980 17591 17590 1 103.70004 836.800000
8501 17591 11352 1 109.50000 418.400000
8501 17591 17590 1 103.70004 836.800000
11352 17591 17590 1 103.70004 836.800000
17590 17592 17593 1 119.8800511 375.723200
17590 17592 17594 1 120.0200517 532.790560
17593 17592 17594 1 119.8800511 375.723200
17592 17594 17595 1 119.8800511 375.723200
17592 17594 17596 1 120.0200517 532.790560
17595 17594 17596 1 119.8800511 375.723200
17594 17596 17597 1 119.8800511 375.723200
17594 17596 17598 1 120.0200517 532.790560
17597 17596 17598 1 119.8800511 375.723200
17589 17598 17596 1 120.0200517 532.790560
17589 17598 17599 1 119.8800511 375.723200
17596 17598 17599 1 119.8800511 375.723200
17600 17601 17602 1 119.8800511 375.723200
17600 17601 17610 1 119.8800511 375.723200
17602 17601 17610 1 120.0200517 532.790560
17601 17602 17603 1 121.3800518 83.010560
17601 17602 17604 1 120.0200517 532.790560
17603 17602 17604 1 121.3800518 83.010560
4779 17603 6100 1 109.50000 418.400000
4779 17603 9541 1 109.50000 418.400000
4779 17603 17602 1 103.70004 836.800000
6100 17603 9541 1 109.50000 418.400000
6100 17603 17602 1 103.70004 836.800000
9541 17603 17602 1 103.70004 836.800000
17602 17604 17605 1 119.8800511 375.723200
17602 17604 17606 1 120.0200517 532.790560
17605 17604 17606 1 119.8800511 375.723200
17604 17606 17607 1 119.8800511 375.723200
17604 17606 17608 1 120.0200517 532.790560
17607 17606 17608 1 119.8800511 375.723200
17606 17608 17609 1 119.8800511 375.723200
17606 17608 17610 1 120.0200517 532.790560
17609 17608 17610 1 119.8800511 375.723200
17601 17610 17608 1 120.0200517 532.790560
17601 17610 17611 1 119.8800511 375.723200
17608 17610 17611 1 119.8800511 375.723200
17612 17613 17614 1 119.8800511 375.723200
17612 17613 17622 1 119.8800511 375.723200
17614 17613 17622 1 120.0200517 532.790560
17613 17614 17615 1 121.3800518 83.010560
17613 17614 17616 1 120.0200517 532.790560
17615 17614 17616 1 121.3800518 83.010560
7860 17615 8222 1 109.50000 418.400000
7860 17615 11283 1 109.50000 418.400000
7860 17615 17614 1 103.70004 836.800000
8222 17615 11283 1 109.50000 418.400000
8222 17615 17614 1 103.70004 836.800000
11283 17615 17614 1 103.70004 836.800000
17614 17616 17617 1 119.8800511 375.723200
17614 17616 17618 1 120.0200517 532.790560
17617 17616 17618 1 119.8800511 375.723200
17616 17618 17619 1 119.8800511 375.723200
17616 17618 17620 1 120.0200517 532.790560
17619 17618 17620 1 119.8800511 375.723200
17618 17620 17621 1 119.8800511 375.723200
17618 17620 17622 1 120.0200517 532.790560
17621 17620 17622 1 119.8800511 375.723200
17613 17622 17620 1 120.0200517 532.790560
17613 17622 17623 1 119.8800511 375.723200
17620 17622 17623 1 119.8800511 375.723200
17624 17625 17626 1 119.8800511 375.723200
17624 17625 17634 1 119.8800511 375.723200
17626 17625 17634 1 120.0200517 532.790560
17625 17626 17627 1 121.3800518 83.010560
17625 17626 17628 1 120.0200517 532.790560
17627 17626 17628 1 121.3800518 83.010560
7168 17627 7169 1 109.50000 418.400000
7168 17627 7170 1 109.50000 418.400000
7168 17627 17626 1 103.70004 836.800000
7169 17627 7170 1 109.50000 418.400000
7169 17627 17626 1 103.70004 836.800000
7170 17627 17626 1 103.70004 836.800000
17626 17628 17629 1 119.8800511 375.723200
17626 17628 17630 1 120.0200517 532.790560
17629 17628 17630 1 119.8800511 375.723200
17628 17630 17631 1 119.8800511 375.723200
17628 17630 17632 1 120.0200517 532.790560
17631 17630 17632 1 119.8800511 375.723200
17630 17632 17633 1 119.8800511 375.723200
17630 17632 17634 1 120.0200517 532.790560
17633 17632 17634 1 119.8800511 375.723200
17625 17634 17632 1 120.0200517 532.790560
17625 17634 17635 1 119.8800511 375.723200
17632 17634 17635 1 119.8800511 375.723200
17636 17637 17638 1 119.8800511 375.723200
17636 17637 17646 1 119.8800511 375.723200
17638 17637 17646 1 120.0200517 532.790560
17637 17638 17639 1 121.3800518 83.010560
17637 17638 17640 1 120.0200517 532.790560
17639 17638 17640 1 121.3800518 83.010560
5427 17639 8058 1 109.50000 418.400000
5427 17639 9727 1 109.50000 418.400000
5427 17639 17638 1 103.70004 836.800000
8058 17639 9727 1 109.50000 418.400000
8058 17639 17638 1 103.70004 836.800000
9727 17639 17638 1 103.70004 836.800000
17638 17640 17641 1 119.8800511 375.723200
17638 17640 17642 1 120.0200517 532.790560
17641 17640 17642 1 119.8800511 375.723200
17640 17642 17643 1 119.8800511 375.723200
17640 17642 17644 1 120.0200517 532.790560
17643 17642 17644 1 119.8800511 375.723200
17642 17644 17645 1 119.8800511 375.723200
17642 17644 17646 1 120.0200517 532.790560
17645 17644 17646 1 119.8800511 375.723200
17637 17646 17644 1 120.0200517 532.790560
17637 17646 17647 1 119.8800511 375.723200
17644 17646 17647 1 119.8800511 375.723200
17648 17649 17650 1 119.8800511 375.723200
17648 17649 17658 1 119.8800511 375.723200
17650 17649 17658 1 120.0200517 532.790560
17649 17650 17651 1 121.3800518 83.010560
17649 17650 17652 1 120.0200517 532.790560
17651 17650 17652 1 121.3800518 83.010560
6314 17651 6315 1 109.50000 418.400000
6314 17651 11140 1 109.50000 418.400000
6314 17651 17650 1 103.70004 836.800000
6315 17651 11140 1 109.50000 418.400000
6315 17651 17650 1 103.70004 836.800000
11140 17651 17650 1 103.70004 836.800000
17650 17652 17653 1 119.8800511 375.723200
17650 17652 17654 1 120.0200517 532.790560
17653 17652 17654 1 119.8800511 375.723200
17652 17654 17655 1 119.8800511 375.723200
17652 17654 17656 1 120.0200517 532.790560
17655 17654 17656 1 119.8800511 375.723200
17654 17656 17657 1 119.8800511 375.723200
17654 17656 17658 1 120.0200517 532.790560
17657 17656 17658 1 119.8800511 375.723200
17649 17658 17656 1 120.0200517 532.790560
17649 17658 17659 1 119.8800511 375.723200
17656 17658 17659 1 119.8800511 375.723200
17660 17661 17662 1 119.8800511 375.723200
17660 17661 17670 1 119.8800511 375.723200
17662 17661 17670 1 120.0200517 532.790560
17661 17662 17663 1 121.3800518 83.010560
17661 17662 17664 1 120.0200517 532.790560
17663 17662 17664 1 121.3800518 83.010560
3347 17663 10567 1 109.50000 418.400000
3347 17663 11340 1 109.50000 418.400000
3347 17663 17662 1 103.70004 836.800000
10567 17663 11340 1 109.50000 418.400000
10567 17663 17662 1 103.70004 836.800000
11340 17663 17662 1 103.70004 836.800000
17662 17664 17665 1 119.8800511 375.723200
17662 17664 17666 1 120.0200517 532.790560
17665 17664 17666 1 119.8800511 375.723200
17664 17666 17667 1 119.8800511 375.723200
17664 17666 17668 1 120.0200517 532.790560
17667 17666 17668 1 119.8800511 375.723200
17666 17668 17669 1 119.8800511 375.723200
17666 17668 17670 1 120.0200517 532.790560
17669 17668 17670 1 119.8800511 375.723200
17661 17670 17668 1 120.0200517 532.790560
17661 17670 17671 1 119.8800511 375.723200
17668 17670 17671 1 119.8800511 375.723200
17672 17673 17674 1 119.8800511 375.723200
17672 17673 17682 1 119.8800511 375.723200
17674 17673 17682 1 120.0200517 532.790560
17673 17674 17675 1 121.3800518 83.010560
17673 17674 17676 1 120.0200517 532.790560
17675 17674 17676 1 121.3800518 83.010560
2324 17675 2325 1 109.50000 418.400000
2324 17675 11391 1 109.50000 418.400000
2324 17675 17674 1 103.70004 836.800000
2325 17675 11391 1 109.50000 418.400000
2325 17675 17674 1 103.70004 836.800000
11391 17675 17674 1 103.70004 836.800000
17674 17676 17677 1 119.8800511 375.723200
17674 17676 17678 1 120.0200517 532.790560
17677 17676 17678 1 119.8800511 375.723200
17676 17678 17679 1 119.8800511 375.723200
17676 17678 17680 1 120.0200517 532.790560
17679 17678 17680 1 119.8800511 375.723200
17678 17680 17681 1 119.8800511 375.723200
17678 17680 17682 1 120.0200517 532.790560
17681 17680 17682 1 119.8800511 375.723200
17673 17682 17680 1 120.0200517 532.790560
17673 17682 17683 1 119.8800511 375.723200
17680 17682 17683 1 119.8800511 375.723200
17684 17685 17686 1 119.8800511 375.723200
17684 17685 17694 1 119.8800511 375.723200
17686 17685 17694 1 120.0200517 532.790560
17685 17686 17687 1 121.3800518 83.010560
17685 17686 17688 1 120.0200517 532.790560
17687 17686 17688 1 121.3800518 83.010560
3625 17687 5256 1 109.50000 418.400000
3625 17687 5257 1 109.50000 418.400000
3625 17687 17686 1 103.70004 836.800000
5256 17687 5257 1 109.50000 418.400000
5256 17687 17686 1 103.70004 836.800000
5257 17687 17686 1 103.70004 836.800000
17686 17688 17689 1 119.8800511 375.723200
17686 17688 17690 1 120.0200517 532.790560
17689 17688 17690 1 119.8800511 375.723200
17688 17690 17691 1 119.8800511 375.723200
17688 17690 17692 1 120.0200517 532.790560
17691 17690 17692 1 119.8800511 375.723200
17690 17692 17693 1 119.8800511 375.723200
17690 17692 17694 1 120.0200517 532.790560
17693 17692 17694 1 119.8800511 375.723200
17685 17694 17692 1 120.0200517 532.790560
17685 17694 17695 1 119.8800511 375.723200
17692 17694 17695 1 119.8800511 375.723200
17696 17697 17698 1 119.8800511 375.723200
17696 17697 17706 1 119.8800511 375.723200
17698 17697 17706 1 120.0200517 532.790560
17697 17698 17699 1 121.3800518 83.010560
17697 17698 17700 1 120.0200517 532.790560
17699 17698 17700 1 121.3800518 83.010560
4991 17699 6726 1 109.50000 418.400000
4991 17699 11364 1 109.50000 418.400000
4991 17699 17698 1 103.70004 836.800000
6726 17699 11364 1 109.50000 418.400000
6726 17699 17698 1 103.70004 836.800000
11364 17699 17698 1 103.70004 836.800000
17698 17700 17701 1 119.8800511 375.723200
17698 17700 17702 1 120.0200517 532.790560
17701 17700 17702 1 119.8800511 375.723200
17700 17702 17703 1 119.8800511 375.723200
17700 17702 17704 1 120.0200517 532.790560
17703 17702 17704 1 119.8800511 375.723200
17702 17704 17705 1 119.8800511 375.723200
17702 17704 17706 1 120.0200517 532.790560
17705 17704 17706 1 119.8800511 375.723200
17697 17706 17704 1 120.0200517 532.790560
17697 17706 17707 1 119.8800511 375.723200
17704 17706 17707 1 119.8800511 375.723200
17708 17709 17710 1 119.8800511 375.723200
17708 17709 17718 1 119.8800511 375.723200
17710 17709 17718 1 120.0200517 532.790560
17709 17710 17711 1 121.3800518 83.010560
17709 17710 17712 1 120.0200517 532.790560
17711 17710 17712 1 121.3800518 83.010560
3101 17711 7657 1 109.50000 418.400000
3101 17711 9284 1 109.50000 418.400000
3101 17711 17710 1 103.70004 836.800000
7657 17711 9284 1 109.50000 418.400000
7657 17711 17710 1 103.70004 836.800000
9284 17711 17710 1 103.70004 836.800000
17710 17712 17713 1 119.8800511 375.723200
17710 17712 17714 1 120.0200517 532.790560
17713 17712 17714 1 119.8800511 375.723200
17712 17714 17715 1 119.8800511 375.723200
17712 17714 17716 1 120.0200517 532.790560
17715 17714 17716 1 119.8800511 375.723200
17714 17716 17717 1 119.8800511 375.723200
17714 17716 17718 1 120.0200517 532.790560
17717 17716 17718 1 119.8800511 375.723200
17709 17718 17716 1 120.0200517 532.790560
17709 17718 17719 1 119.8800511 375.723200
17716 17718 17719 1 119.8800511 375.723200
17720 17721 17722 1 119.8800511 375.723200
17720 17721 17730 1 119.8800511 375.723200
17722 17721 17730 1 120.0200517 532.790560
17721 17722 17723 1 121.3800518 83.010560
17721 17722 17724 1 120.0200517 532.790560
17723 17722 17724 1 121.3800518 83.010560
521 17723 523 1 109.50000 418.400000
521 17723 2066 1 109.50000 418.400000
521 17723 17722 1 103.70004 836.800000
523 17723 2066 1 109.50000 418.400000
523 17723 17722 1 103.70004 836.800000
2066 17723 17722 1 103.70004 836.800000
17722 17724 17725 1 119.8800511 375.723200
17722 17724 17726 1 120.0200517 532.790560
17725 17724 17726 1 119.8800511 375.723200
17724 17726 17727 1 119.8800511 375.723200
17724 17726 17728 1 120.0200517 532.790560
17727 17726 17728 1 119.8800511 375.723200
17726 17728 17729 1 119.8800511 375.723200
17726 17728 17730 1 120.0200517 532.790560
17729 17728 17730 1 119.8800511 375.723200
17721 17730 17728 1 120.0200517 532.790560
17721 17730 17731 1 119.8800511 375.723200
17728 17730 17731 1 119.8800511 375.723200
17732 17733 17734 1 119.8800511 375.723200
17732 17733 17742 1 119.8800511 375.723200
17734 17733 17742 1 120.0200517 532.790560
17733 17734 17735 1 121.3800518 83.010560
17733 17734 17736 1 120.0200517 532.790560
17735 17734 17736 1 121.3800518 83.010560
601 17735 8459 1 109.50000 418.400000
601 17735 11317 1 109.50000 418.400000
601 17735 17734 1 103.70004 836.800000
8459 17735 11317 1 109.50000 418.400000
8459 17735 17734 1 103.70004 836.800000
11317 17735 17734 1 103.70004 836.800000
17734 17736 17737 1 119.8800511 375.723200
17734 17736 17738 1 120.0200517 532.790560
17737 17736 17738 1 119.8800511 375.723200
17736 17738 17739 1 119.8800511 375.723200
17736 17738 17740 1 120.0200517 532.790560
17739 17738 17740 1 119.8800511 375.723200
17738 17740 17741 1 119.8800511 375.723200
17738 17740 17742 1 120.0200517 532.790560
17741 17740 17742 1 119.8800511 375.723200
17733 17742 17740 1 120.0200517 532.790560
17733 17742 17743 1 119.8800511 375.723200
17740 17742 17743 1 119.8800511 375.723200
17744 17745 17746 1 119.8800511 375.723200
17744 17745 17754 1 119.8800511 375.723200
17746 17745 17754 1 120.0200517 532.790560
17745 17746 17747 1 121.3800518 83.010560
17745 17746 17748 1 120.0200517 532.790560
17747 17746 17748 1 121.3800518 83.010560
1180 17747 2990 1 109.50000 418.400000
1180 17747 11319 1 109.50000 418.400000
1180 17747 17746 1 103.70004 836.800000
2990 17747 11319 1 109.50000 418.400000
2990 17747 17746 1 103.70004 836.800000
11319 17747 17746 1 103.70004 836.800000
17746 17748 17749 1 119.8800511 375.723200
17746 17748 17750 1 120.0200517 532.790560
17749 17748 17750 1 119.8800511 375.723200
17748 17750 17751 1 119.8800511 375.723200
17748 17750 17752 1 120.0200517 532.790560
17751 17750 17752 1 119.8800511 375.723200
17750 17752 17753 1 119.8800511 375.723200
17750 17752 17754 1 120.0200517 532.790560
17753 17752 17754 1 119.8800511 375.723200
17745 17754 17752 1 120.0200517 532.790560
17745 17754 17755 1 119.8800511 375.723200
17752 17754 17755 1 119.8800511 375.723200
17756 17757 17758 1 119.8800511 375.723200
17756 17757 17766 1 119.8800511 375.723200
17758 17757 17766 1 120.0200517 532.790560
17757 17758 17759 1 121.3800518 83.010560
17757 17758 17760 1 120.0200517 532.790560
17759 17758 17760 1 121.3800518 83.010560
1123 17759 3601 1 109.50000 418.400000
1123 17759 11304 1 109.50000 418.400000
1123 17759 17758 1 103.70004 836.800000
3601 17759 11304 1 109.50000 418.400000
3601 17759 17758 1 103.70004 836.800000
11304 17759 17758 1 103.70004 836.800000
17758 17760 17761 1 119.8800511 375.723200
17758 17760 17762 1 120.0200517 532.790560
17761 17760 17762 1 119.8800511 375.723200
17760 17762 17763 1 119.8800511 375.723200
17760 17762 17764 1 120.0200517 532.790560
17763 17762 17764 1 119.8800511 375.723200
17762 17764 17765 1 119.8800511 375.723200
17762 17764 17766 1 120.0200517 532.790560
17765 17764 17766 1 119.8800511 375.723200
17757 17766 17764 1 120.0200517 532.790560
17757 17766 17767 1 119.8800511 375.723200
17764 17766 17767 1 119.8800511 375.723200
17768 17769 17770 1 119.8800511 375.723200
17768 17769 17778 1 119.8800511 375.723200
17770 17769 17778 1 120.0200517 532.790560
17769 17770 17771 1 121.3800518 83.010560
17769 17770 17772 1 120.0200517 532.790560
17771 17770 17772 1 121.3800518 83.010560
1858 17771 6427 1 109.50000 418.400000
1858 17771 7257 1 109.50000 418.400000
1858 17771 17770 1 103.70004 836.800000
6427 17771 7257 1 109.50000 418.400000
6427 17771 17770 1 103.70004 836.800000
7257 17771 17770 1 103.70004 836.800000
17770 17772 17773 1 119.8800511 375.723200
17770 17772 17774 1 120.0200517 532.790560
17773 17772 17774 1 119.8800511 375.723200
17772 17774 17775 1 119.8800511 375.723200
17772 17774 17776 1 120.0200517 532.790560
17775 17774 17776 1 119.8800511 375.723200
17774 17776 17777 1 119.8800511 375.723200
17774 17776 17778 1 120.0200517 532.790560
17777 17776 17778 1 119.8800511 375.723200
17769 17778 17776 1 120.0200517 532.790560
17769 17778 17779 1 119.8800511 375.723200
17776 17778 17779 1 119.8800511 375.723200
17780 17781 17782 1 119.8800511 375.723200
17780 17781 17790 1 119.8800511 375.723200
17782 17781 17790 1 120.0200517 532.790560
17781 17782 17783 1 121.3800518 83.010560
17781 17782 17784 1 120.0200517 532.790560
17783 17782 17784 1 121.3800518 83.010560
7805 17783 8404 1 109.50000 418.400000
7805 17783 8405 1 109.50000 418.400000
7805 17783 17782 1 103.70004 836.800000
8404 17783 8405 1 109.50000 418.400000
8404 17783 17782 1 103.70004 836.800000
8405 17783 17782 1 103.70004 836.800000
17782 17784 17785 1 119.8800511 375.723200
17782 17784 17786 1 120.0200517 532.790560
17785 17784 17786 1 119.8800511 375.723200
17784 17786 17787 1 119.8800511 375.723200
17784 17786 17788 1 120.0200517 532.790560
17787 17786 17788 1 119.8800511 375.723200
17786 17788 17789 1 119.8800511 375.723200
17786 17788 17790 1 120.0200517 532.790560
17789 17788 17790 1 119.8800511 375.723200
17781 17790 17788 1 120.0200517 532.790560
17781 17790 17791 1 119.8800511 375.723200
17788 17790 17791 1 119.8800511 375.723200
17792 17793 17794 1 119.8800511 375.723200
17792 17793 17802 1 119.8800511 375.723200
17794 17793 17802 1 120.0200517 532.790560
17793 17794 17795 1 121.3800518 83.010560
17793 17794 17796 1 120.0200517 532.790560
17795 17794 17796 1 121.3800518 83.010560
1984 17795 3195 1 109.50000 418.400000
1984 17795 10747 1 109.50000 418.400000
1984 17795 17794 1 103.70004 836.800000
3195 17795 10747 1 109.50000 418.400000
3195 17795 17794 1 103.70004 836.800000
10747 17795 17794 1 103.70004 836.800000
17794 17796 17797 1 119.8800511 375.723200
17794 17796 17798 1 120.0200517 532.790560
17797 17796 17798 1 119.8800511 375.723200
17796 17798 17799 1 119.8800511 375.723200
17796 17798 17800 1 120.0200517 532.790560
17799 17798 17800 1 119.8800511 375.723200
17798 17800 17801 1 119.8800511 375.723200
17798 17800 17802 1 120.0200517 532.790560
17801 17800 17802 1 119.8800511 375.723200
17793 17802 17800 1 120.0200517 532.790560
17793 17802 17803 1 119.8800511 375.723200
17800 17802 17803 1 119.8800511 375.723200
17804 17805 17806 1 119.8800511 375.723200
17804 17805 17814 1 119.8800511 375.723200
17806 17805 17814 1 120.0200517 532.790560
17805 17806 17807 1 121.3800518 83.010560
17805 17806 17808 1 120.0200517 532.790560
17807 17806 17808 1 121.3800518 83.010560
9405 17807 9993 1 109.50000 418.400000
9405 17807 9995 1 109.50000 418.400000
9405 17807 17806 1 103.70004 836.800000
9993 17807 9995 1 109.50000 418.400000
9993 17807 17806 1 103.70004 836.800000
9995 17807 17806 1 103.70004 836.800000
17806 17808 17809 1 119.8800511 375.723200
17806 17808 17810 1 120.0200517 532.790560
17809 17808 17810 1 119.8800511 375.723200
17808 17810 17811 1 119.8800511 375.723200
17808 17810 17812 1 120.0200517 532.790560
17811 17810 17812 1 119.8800511 375.723200
17810 17812 17813 1 119.8800511 375.723200
17810 17812 17814 1 120.0200517 532.790560
17813 17812 17814 1 119.8800511 375.723200
17805 17814 17812 1 120.0200517 532.790560
17805 17814 17815 1 119.8800511 375.723200
17812 17814 17815 1 119.8800511 375.723200
17816 17817 17818 1 119.8800511 375.723200
17816 17817 17826 1 119.8800511 375.723200
17818 17817 17826 1 120.0200517 532.790560
17817 17818 17819 1 121.3800518 83.010560
17817 17818 17820 1 120.0200517 532.790560
17819 17818 17820 1 121.3800518 83.010560
8045 17819 8851 1 109.50000 418.400000
8045 17819 11281 1 109.50000 418.400000
8045 17819 17818 1 103.70004 836.800000
8851 17819 11281 1 109.50000 418.400000
8851 17819 17818 1 103.70004 836.800000
11281 17819 17818 1 103.70004 836.800000
17818 17820 17821 1 119.8800511 375.723200
17818 17820 17822 1 120.0200517 532.790560
17821 17820 17822 1 119.8800511 375.723200
17820 17822 17823 1 119.8800511 375.723200
17820 17822 17824 1 120.0200517 532.790560
17823 17822 17824 1 119.8800511 375.723200
17822 17824 17825 1 119.8800511 375.723200
17822 17824 17826 1 120.0200517 532.790560
17825 17824 17826 1 119.8800511 375.723200
17817 17826 17824 1 120.0200517 532.790560
17817 17826 17827 1 119.8800511 375.723200
17824 17826 17827 1 119.8800511 375.723200
17828 17829 17830 1 119.8800511 375.723200
17828 17829 17838 1 119.8800511 375.723200
17830 17829 17838 1 120.0200517 532.790560
17829 17830 17831 1 121.3800518 83.010560
17829 17830 17832 1 120.0200517 532.790560
17831 17830 17832 1 121.3800518 83.010560
3147 17831 6233 1 109.50000 418.400000
3147 17831 11327 1 109.50000 418.400000
3147 17831 17830 1 103.70004 836.800000
6233 17831 11327 1 109.50000 418.400000
6233 17831 17830 1 103.70004 836.800000
11327 17831 17830 1 103.70004 836.800000
17830 17832 17833 1 119.8800511 375.723200
17830 17832 17834 1 120.0200517 532.790560
17833 17832 17834 1 119.8800511 375.723200
17832 17834 17835 1 119.8800511 375.723200
17832 17834 17836 1 120.0200517 532.790560
17835 17834 17836 1 119.8800511 375.723200
17834 17836 17837 1 119.8800511 375.723200
17834 17836 17838 1 120.0200517 532.790560
17837 17836 17838 1 119.8800511 375.723200
17829 17838 17836 1 120.0200517 532.790560
17829 17838 17839 1 119.8800511 375.723200
17836 17838 17839 1 119.8800511 375.723200
17840 17841 17842 1 119.8800511 375.723200
17840 17841 17850 1 119.8800511 375.723200
17842 17841 17850 1 120.0200517 532.790560
17841 17842 17843 1 121.3800518 83.010560
17841 17842 17844 1 120.0200517 532.790560
17843 17842 17844 1 121.3800518 83.010560
2107 17843 6556 1 109.50000 418.400000
2107 17843 6557 1 109.50000 418.400000
2107 17843 17842 1 103.70004 836.800000
6556 17843 6557 1 109.50000 418.400000
6556 17843 17842 1 103.70004 836.800000
6557 17843 17842 1 103.70004 836.800000
17842 17844 17845 1 119.8800511 375.723200
17842 17844 17846 1 120.0200517 532.790560
17845 17844 17846 1 119.8800511 375.723200
17844 17846 17847 1 119.8800511 375.723200
17844 17846 17848 1 120.0200517 532.790560
17847 17846 17848 1 119.8800511 375.723200
17846 17848 17849 1 119.8800511 375.723200
17846 17848 17850 1 120.0200517 532.790560
17849 17848 17850 1 119.8800511 375.723200
17841 17850 17848 1 120.0200517 532.790560
17841 17850 17851 1 119.8800511 375.723200
17848 17850 17851 1 119.8800511 375.723200
17852 17853 17854 1 119.8800511 375.723200
17852 17853 17862 1 119.8800511 375.723200
17854 17853 17862 1 120.0200517 532.790560
17853 17854 17855 1 121.3800518 83.010560
17853 17854 17856 1 120.0200517 532.790560
17855 17854 17856 1 121.3800518 83.010560
3537 17855 9859 1 109.50000 418.400000
3537 17855 11188 1 109.50000 418.400000
3537 17855 17854 1 103.70004 836.800000
9859 17855 11188 1 109.50000 418.400000
9859 17855 17854 1 103.70004 836.800000
11188 17855 17854 1 103.70004 836.800000
17854 17856 17857 1 119.8800511 375.723200
17854 17856 17858 1 120.0200517 532.790560
17857 17856 17858 1 119.8800511 375.723200
17856 17858 17859 1 119.8800511 375.723200
17856 17858 17860 1 120.0200517 532.790560
17859 17858 17860 1 119.8800511 375.723200
17858 17860 17861 1 119.8800511 375.723200
17858 17860 17862 1 120.0200517 532.790560
17861 17860 17862 1 119.8800511 375.723200
17853 17862 17860 1 120.0200517 532.790560
17853 17862 17863 1 119.8800511 375.723200
17860 17862 17863 1 119.8800511 375.723200
17864 17865 17866 1 119.8800511 375.723200
17864 17865 17874 1 119.8800511 375.723200
17866 17865 17874 1 120.0200517 532.790560
17865 17866 17867 1 121.3800518 83.010560
17865 17866 17868 1 120.0200517 532.790560
17867 17866 17868 1 121.3800518 83.010560
2452 17867 8619 1 109.50000 418.400000
2452 17867 8954 1 109.50000 418.400000
2452 17867 17866 1 103.70004 836.800000
8619 17867 8954 1 109.50000 418.400000
8619 17867 17866 1 103.70004 836.800000
8954 17867 17866 1 103.70004 836.800000
17866 17868 17869 1 119.8800511 375.723200
17866 17868 17870 1 120.0200517 532.790560
17869 17868 17870 1 119.8800511 375.723200
17868 17870 17871 1 119.8800511 375.723200
17868 17870 17872 1 120.0200517 532.790560
17871 17870 17872 1 119.8800511 375.723200
17870 17872 17873 1 119.8800511 375.723200
17870 17872 17874 1 120.0200517 532.790560
17873 17872 17874 1 119.8800511 375.723200
17865 17874 17872 1 120.0200517 532.790560
17865 17874 17875 1 119.8800511 375.723200
17872 17874 17875 1 119.8800511 375.723200
17876 17877 17878 1 119.8800511 375.723200
17876 17877 17886 1 119.8800511 375.723200
17878 17877 17886 1 120.0200517 532.790560
17877 17878 17879 1 121.3800518 83.010560
17877 17878 17880 1 120.0200517 532.790560
17879 17878 17880 1 121.3800518 83.010560
3477 17879 3478 1 109.50000 418.400000
3477 17879 3479 1 109.50000 418.400000
3477 17879 17878 1 103.70004 836.800000
3478 17879 3479 1 109.50000 418.400000
3478 17879 17878 1 103.70004 836.800000
3479 17879 17878 1 103.70004 836.800000
17878 17880 17881 1 119.8800511 375.723200
17878 17880 17882 1 120.0200517 532.790560
17881 17880 17882 1 119.8800511 375.723200
17880 17882 17883 1 119.8800511 375.723200
17880 17882 17884 1 120.0200517 532.790560
17883 17882 17884 1 119.8800511 375.723200
17882 17884 17885 1 119.8800511 375.723200
17882 17884 17886 1 120.0200517 532.790560
17885 17884 17886 1 119.8800511 375.723200
17877 17886 17884 1 120.0200517 532.790560
17877 17886 17887 1 119.8800511 375.723200
17884 17886 17887 1 119.8800511 375.723200
17888 17889 17890 1 119.8800511 375.723200
17888 17889 17898 1 119.8800511 375.723200
17890 17889 17898 1 120.0200517 532.790560
17889 17890 17891 1 121.3800518 83.010560
17889 17890 17892 1 120.0200517 532.790560
17891 17890 17892 1 121.3800518 83.010560
4041 17891 8961 1 109.50000 418.400000
4041 17891 10146 1 109.50000 418.400000
4041 17891 17890 1 103.70004 836.800000
8961 17891 10146 1 109.50000 418.400000
8961 17891 17890 1 103.70004 836.800000
10146 17891 17890 1 103.70004 836.800000
17890 17892 17893 1 119.8800511 375.723200
17890 17892 17894 1 120.0200517 532.790560
17893 17892 17894 1 119.8800511 375.723200
17892 17894 17895 1 119.8800511 375.723200
17892 17894 17896 1 120.0200517 532.790560
17895 17894 17896 1 119.8800511 375.723200
17894 17896 17897 1 119.8800511 375.723200
17894 17896 17898 1 120.0200517 532.790560
17897 17896 17898 1 119.8800511 375.723200
17889 17898 17896 1 120.0200517 532.790560
17889 17898 17899 1 119.8800511 375.723200
17896 17898 17899 1 119.8800511 375.723200
17900 17901 17902 1 119.8800511 375.723200
17900 17901 17910 1 119.8800511 375.723200
17902 17901 17910 1 120.0200517 532.790560
17901 17902 17903 1 121.3800518 83.010560
17901 17902 17904 1 120.0200517 532.790560
17903 17902 17904 1 121.3800518 83.010560
6152 17903 8498 1 109.50000 418.400000
6152 17903 10747 1 109.50000 418.400000
6152 17903 17902 1 103.70004 836.800000
8498 17903 10747 1 109.50000 418.400000
8498 17903 17902 1 103.70004 836.800000
10747 17903 17902 1 103.70004 836.800000
17902 17904 17905 1 119.8800511 375.723200
17902 17904 17906 1 120.0200517 532.790560
17905 17904 17906 1 119.8800511 375.723200
17904 17906 17907 1 119.8800511 375.723200
17904 17906 17908 1 120.0200517 532.790560
17907 17906 17908 1 119.8800511 375.723200
17906 17908 17909 1 119.8800511 375.723200
17906 17908 17910 1 120.0200517 532.790560
17909 17908 17910 1 119.8800511 375.723200
17901 17910 17908 1 120.0200517 532.790560
17901 17910 17911 1 119.8800511 375.723200
17908 17910 17911 1 119.8800511 375.723200
17912 17913 17914 1 119.8800511 375.723200
17912 17913 17922 1 119.8800511 375.723200
17914 17913 17922 1 120.0200517 532.790560
17913 17914 17915 1 121.3800518 83.010560
17913 17914 17916 1 120.0200517 532.790560
17915 17914 17916 1 121.3800518 83.010560
579 17915 3434 1 109.50000 418.400000
579 17915 5660 1 109.50000 418.400000
579 17915 17914 1 103.70004 836.800000
3434 17915 5660 1 109.50000 418.400000
3434 17915 17914 1 103.70004 836.800000
5660 17915 17914 1 103.70004 836.800000
17914 17916 17917 1 119.8800511 375.723200
17914 17916 17918 1 120.0200517 532.790560
17917 17916 17918 1 119.8800511 375.723200
17916 17918 17919 1 119.8800511 375.723200
17916 17918 17920 1 120.0200517 532.790560
17919 17918 17920 1 119.8800511 375.723200
17918 17920 17921 1 119.8800511 375.723200
17918 17920 17922 1 120.0200517 532.790560
17921 17920 17922 1 119.8800511 375.723200
17913 17922 17920 1 120.0200517 532.790560
17913 17922 17923 1 119.8800511 375.723200
17920 17922 17923 1 119.8800511 375.723200
17924 17925 17926 1 119.8800511 375.723200
17924 17925 17934 1 119.8800511 375.723200
17926 17925 17934 1 120.0200517 532.790560
17925 17926 17927 1 121.3800518 83.010560
17925 17926 17928 1 120.0200517 532.790560
17927 17926 17928 1 121.3800518 83.010560
285 17927 6031 1 109.50000 418.400000
285 17927 11330 1 109.50000 418.400000
285 17927 17926 1 103.70004 836.800000
6031 17927 11330 1 109.50000 418.400000
6031 17927 17926 1 103.70004 836.800000
11330 17927 17926 1 103.70004 836.800000
17926 17928 17929 1 119.8800511 375.723200
17926 17928 17930 1 120.0200517 532.790560
17929 17928 17930 1 119.8800511 375.723200
17928 17930 17931 1 119.8800511 375.723200
17928 17930 17932 1 120.0200517 532.790560
17931 17930 17932 1 119.8800511 375.723200
17930 17932 17933 1 119.8800511 375.723200
17930 17932 17934 1 120.0200517 532.790560
17933 17932 17934 1 119.8800511 375.723200
17925 17934 17932 1 120.0200517 532.790560
17925 17934 17935 1 119.8800511 375.723200
17932 17934 17935 1 119.8800511 375.723200
17936 17937 17938 1 119.8800511 375.723200
17936 17937 17946 1 119.8800511 375.723200
17938 17937 17946 1 120.0200517 532.790560
17937 17938 17939 1 121.3800518 83.010560
17937 17938 17940 1 120.0200517 532.790560
17939 17938 17940 1 121.3800518 83.010560
192 17939 1858 1 109.50000 418.400000
192 17939 11187 1 109.50000 418.400000
192 17939 17938 1 103.70004 836.800000
1858 17939 11187 1 109.50000 418.400000
1858 17939 17938 1 103.70004 836.800000
11187 17939 17938 1 103.70004 836.800000
17938 17940 17941 1 119.8800511 375.723200
17938 17940 17942 1 120.0200517 532.790560
17941 17940 17942 1 119.8800511 375.723200
17940 17942 17943 1 119.8800511 375.723200
17940 17942 17944 1 120.0200517 532.790560
17943 17942 17944 1 119.8800511 375.723200
17942 17944 17945 1 119.8800511 375.723200
17942 17944 17946 1 120.0200517 532.790560
17945 17944 17946 1 119.8800511 375.723200
17937 17946 17944 1 120.0200517 532.790560
17937 17946 17947 1 119.8800511 375.723200
17944 17946 17947 1 119.8800511 375.723200
17948 17949 17950 1 119.8800511 375.723200
17948 17949 17958 1 119.8800511 375.723200
17950 17949 17958 1 120.0200517 532.790560
17949 17950 17951 1 121.3800518 83.010560
17949 17950 17952 1 120.0200517 532.790560
17951 17950 17952 1 121.3800518 83.010560
797 17951 798 1 109.50000 418.400000
797 17951 799 1 109.50000 418.400000
797 17951 17950 1 103.70004 836.800000
798 17951 799 1 109.50000 418.400000
798 17951 17950 1 103.70004 836.800000
799 17951 17950 1 103.70004 836.800000
17950 17952 17953 1 119.8800511 375.723200
17950 17952 17954 1 120.0200517 532.790560
17953 17952 17954 1 119.8800511 375.723200
17952 17954 17955 1 119.8800511 375.723200
17952 17954 17956 1 120.0200517 532.790560
17955 17954 17956 1 119.8800511 375.723200
17954 17956 17957 1 119.8800511 375.723200
17954 17956 17958 1 120.0200517 532.790560
17957 17956 17958 1 119.8800511 375.723200
17949 17958 17956 1 120.0200517 532.790560
17949 17958 17959 1 119.8800511 375.723200
17956 17958 17959 1 119.8800511 375.723200
17960 17961 17962 1 119.8800511 375.723200
17960 17961 17970 1 119.8800511 375.723200
17962 17961 17970 1 120.0200517 532.790560
17961 17962 17963 1 121.3800518 83.010560
17961 17962 17964 1 120.0200517 532.790560
17963 17962 17964 1 121.3800518 83.010560
1481 17963 3644 1 109.50000 418.400000
1481 17963 11292 1 109.50000 418.400000
1481 17963 17962 1 103.70004 836.800000
3644 17963 11292 1 109.50000 418.400000
3644 17963 17962 1 103.70004 836.800000
11292 17963 17962 1 103.70004 836.800000
17962 17964 17965 1 119.8800511 375.723200
17962 17964 17966 1 120.0200517 532.790560
17965 17964 17966 1 119.8800511 375.723200
17964 17966 17967 1 119.8800511 375.723200
17964 17966 17968 1 120.0200517 532.790560
17967 17966 17968 1 119.8800511 375.723200
17966 17968 17969 1 119.8800511 375.723200
17966 17968 17970 1 120.0200517 532.790560
17969 17968 17970 1 119.8800511 375.723200
17961 17970 17968 1 120.0200517 532.790560
17961 17970 17971 1 119.8800511 375.723200
17968 17970 17971 1 119.8800511 375.723200
17972 17973 17974 1 119.8800511 375.723200
17972 17973 17982 1 119.8800511 375.723200
17974 17973 17982 1 120.0200517 532.790560
17973 17974 17975 1 121.3800518 83.010560
17973 17974 17976 1 120.0200517 532.790560
17975 17974 17976 1 121.3800518 83.010560
7733 17975 7877 1 109.50000 418.400000
7733 17975 10940 1 109.50000 418.400000
7733 17975 17974 1 103.70004 836.800000
7877 17975 10940 1 109.50000 418.400000
7877 17975 17974 1 103.70004 836.800000
10940 17975 17974 1 103.70004 836.800000
17974 17976 17977 1 119.8800511 375.723200
17974 17976 17978 1 120.0200517 532.790560
17977 17976 17978 1 119.8800511 375.723200
17976 17978 17979 1 119.8800511 375.723200
17976 17978 17980 1 120.0200517 532.790560
17979 17978 17980 1 119.8800511 375.723200
17978 17980 17981 1 119.8800511 375.723200
17978 17980 17982 1 120.0200517 532.790560
17981 17980 17982 1 119.8800511 375.723200
17973 17982 17980 1 120.0200517 532.790560
17973 17982 17983 1 119.8800511 375.723200
17980 17982 17983 1 119.8800511 375.723200
17984 17985 17986 1 119.8800511 375.723200
17984 17985 17994 1 119.8800511 375.723200
17986 17985 17994 1 120.0200517 532.790560
17985 17986 17987 1 121.3800518 83.010560
17985 17986 17988 1 120.0200517 532.790560
17987 17986 17988 1 121.3800518 83.010560
3633 17987 3635 1 109.50000 418.400000
3633 17987 11275 1 109.50000 418.400000
3633 17987 17986 1 103.70004 836.800000
3635 17987 11275 1 109.50000 418.400000
3635 17987 17986 1 103.70004 836.800000
11275 17987 17986 1 103.70004 836.800000
17986 17988 17989 1 119.8800511 375.723200
17986 17988 17990 1 120.0200517 532.790560
17989 17988 17990 1 119.8800511 375.723200
17988 17990 17991 1 119.8800511 375.723200
17988 17990 17992 1 120.0200517 532.790560
17991 17990 17992 1 119.8800511 375.723200
17990 17992 17993 1 119.8800511 375.723200
17990 17992 17994 1 120.0200517 532.790560
17993 17992 17994 1 119.8800511 375.723200
17985 17994 17992 1 120.0200517 532.790560
17985 17994 17995 1 119.8800511 375.723200
17992 17994 17995 1 119.8800511 375.723200
17996 17997 17998 1 119.8800511 375.723200
17996 17997 18006 1 119.8800511 375.723200
17998 17997 18006 1 120.0200517 532.790560
17997 17998 17999 1 121.3800518 83.010560
17997 17998 18000 1 120.0200517 532.790560
17999 17998 18000 1 121.3800518 83.010560
442 17999 5141 1 109.50000 418.400000
442 17999 11205 1 109.50000 418.400000
442 17999 17998 1 103.70004 836.800000
5141 17999 11205 1 109.50000 418.400000
5141 17999 17998 1 103.70004 836.800000
11205 17999 17998 1 103.70004 836.800000
17998 18000 18001 1 119.8800511 375.723200
17998 18000 18002 1 120.0200517 532.790560
18001 18000 18002 1 119.8800511 375.723200
18000 18002 18003 1 119.8800511 375.723200
18000 18002 18004 1 120.0200517 532.790560
18003 18002 18004 1 119.8800511 375.723200
18002 18004 18005 1 119.8800511 375.723200
18002 18004 18006 1 120.0200517 532.790560
18005 18004 18006 1 119.8800511 375.723200
17997 18006 18004 1 120.0200517 532.790560
17997 18006 18007 1 119.8800511 375.723200
18004 18006 18007 1 119.8800511 375.723200
18008 18009 18010 1 119.8800511 375.723200
18008 18009 18018 1 119.8800511 375.723200
18010 18009 18018 1 120.0200517 532.790560
18009 18010 18011 1 121.3800518 83.010560
18009 18010 18012 1 120.0200517 532.790560
18011 18010 18012 1 121.3800518 83.010560
6 18011 7818 1 109.50000 418.400000
6 18011 7819 1 109.50000 418.400000
6 18011 18010 1 103.70004 836.800000
7818 18011 7819 1 109.50000 418.400000
7818 18011 18010 1 103.70004 836.800000
7819 18011 18010 1 103.70004 836.800000
18010 18012 18013 1 119.8800511 375.723200
18010 18012 18014 1 120.0200517 532.790560
18013 18012 18014 1 119.8800511 375.723200
18012 18014 18015 1 119.8800511 375.723200
18012 18014 18016 1 120.0200517 532.790560
18015 18014 18016 1 119.8800511 375.723200
18014 18016 18017 1 119.8800511 375.723200
18014 18016 18018 1 120.0200517 532.790560
18017 18016 18018 1 119.8800511 375.723200
18009 18018 18016 1 120.0200517 532.790560
18009 18018 18019 1 119.8800511 375.723200
18016 18018 18019 1 119.8800511 375.723200
18020 18021 18022 1 119.8800511 375.723200
18020 18021 18030 1 119.8800511 375.723200
18022 18021 18030 1 120.0200517 532.790560
18021 18022 18023 1 121.3800518 83.010560
18021 18022 18024 1 120.0200517 532.790560
18023 18022 18024 1 121.3800518 83.010560
8962 18023 9672 1 109.50000 418.400000
8962 18023 11202 1 109.50000 418.400000
8962 18023 18022 1 103.70004 836.800000
9672 18023 11202 1 109.50000 418.400000
9672 18023 18022 1 103.70004 836.800000
11202 18023 18022 1 103.70004 836.800000
18022 18024 18025 1 119.8800511 375.723200
18022 18024 18026 1 120.0200517 532.790560
18025 18024 18026 1 119.8800511 375.723200
18024 18026 18027 1 119.8800511 375.723200
18024 18026 18028 1 120.0200517 532.790560
18027 18026 18028 1 119.8800511 375.723200
18026 18028 18029 1 119.8800511 375.723200
18026 18028 18030 1 120.0200517 532.790560
18029 18028 18030 1 119.8800511 375.723200
18021 18030 18028 1 120.0200517 532.790560
18021 18030 18031 1 119.8800511 375.723200
18028 18030 18031 1 119.8800511 375.723200
18032 18033 18034 1 119.8800511 375.723200
18032 18033 18042 1 119.8800511 375.723200
18034 18033 18042 1 120.0200517 532.790560
18033 18034 18035 1 121.3800518 83.010560
18033 18034 18036 1 120.0200517 532.790560
18035 18034 18036 1 121.3800518 83.010560
8841 18035 10957 1 109.50000 418.400000
8841 18035 11309 1 109.50000 418.400000
8841 18035 18034 1 103.70004 836.800000
10957 18035 11309 1 109.50000 418.400000
10957 18035 18034 1 103.70004 836.800000
11309 18035 18034 1 103.70004 836.800000
18034 18036 18037 1 119.8800511 375.723200
18034 18036 18038 1 120.0200517 532.790560
18037 18036 18038 1 119.8800511 375.723200
18036 18038 18039 1 119.8800511 375.723200
18036 18038 18040 1 120.0200517 532.790560
18039 18038 18040 1 119.8800511 375.723200
18038 18040 18041 1 119.8800511 375.723200
18038 18040 18042 1 120.0200517 532.790560
18041 18040 18042 1 119.8800511 375.723200
18033 18042 18040 1 120.0200517 532.790560
18033 18042 18043 1 119.8800511 375.723200
18040 18042 18043 1 119.8800511 375.723200
18044 18045 18046 1 119.8800511 375.723200
18044 18045 18054 1 119.8800511 375.723200
18046 18045 18054 1 120.0200517 532.790560
18045 18046 18047 1 121.3800518 83.010560
18045 18046 18048 1 120.0200517 532.790560
18047 18046 18048 1 121.3800518 83.010560
1207 18047 3332 1 109.50000 418.400000
1207 18047 11288 1 109.50000 418.400000
1207 18047 18046 1 103.70004 836.800000
3332 18047 11288 1 109.50000 418.400000
3332 18047 18046 1 103.70004 836.800000
11288 18047 18046 1 103.70004 836.800000
18046 18048 18049 1 119.8800511 375.723200
18046 18048 18050 1 120.0200517 532.790560
18049 18048 18050 1 119.8800511 375.723200
18048 18050 18051 1 119.8800511 375.723200
18048 18050 18052 1 120.0200517 532.790560
18051 18050 18052 1 119.8800511 375.723200
18050 18052 18053 1 119.8800511 375.723200
18050 18052 18054 1 120.0200517 532.790560
18053 18052 18054 1 119.8800511 375.723200
18045 18054 18052 1 120.0200517 532.790560
18045 18054 18055 1 119.8800511 375.723200
18052 18054 18055 1 119.8800511 375.723200
18056 18057 18058 1 119.8800511 375.723200
18056 18057 18066 1 119.8800511 375.723200
18058 18057 18066 1 120.0200517 532.790560
18057 18058 18059 1 121.3800518 83.010560
18057 18058 18060 1 120.0200517 532.790560
18059 18058 18060 1 121.3800518 83.010560
4817 18059 7219 1 109.50000 418.400000
4817 18059 8381 1 109.50000 418.400000
4817 18059 18058 1 103.70004 836.800000
7219 18059 8381 1 109.50000 418.400000
7219 18059 18058 1 103.70004 836.800000
8381 18059 18058 1 103.70004 836.800000
18058 18060 18061 1 119.8800511 375.723200
18058 18060 18062 1 120.0200517 532.790560
18061 18060 18062 1 119.8800511 375.723200
18060 18062 18063 1 119.8800511 375.723200
18060 18062 18064 1 120.0200517 532.790560
18063 18062 18064 1 119.8800511 375.723200
18062 18064 18065 1 119.8800511 375.723200
18062 18064 18066 1 120.0200517 532.790560
18065 18064 18066 1 119.8800511 375.723200
18057 18066 18064 1 120.0200517 532.790560
18057 18066 18067 1 119.8800511 375.723200
18064 18066 18067 1 119.8800511 375.723200
18068 18069 18070 1 119.8800511 375.723200
18068 18069 18078 1 119.8800511 375.723200
18070 18069 18078 1 120.0200517 532.790560
18069 18070 18071 1 121.3800518 83.010560
18069 18070 18072 1 120.0200517 532.790560
18071 18070 18072 1 121.3800518 83.010560
1863 18071 1864 1 109.50000 418.400000
1863 18071 1865 1 109.50000 418.400000
1863 18071 18070 1 103.70004 836.800000
1864 18071 1865 1 109.50000 418.400000
1864 18071 18070 1 103.70004 836.800000
1865 18071 18070 1 103.70004 836.800000
18070 18072 18073 1 119.8800511 375.723200
18070 18072 18074 1 120.0200517 532.790560
18073 18072 18074 1 119.8800511 375.723200
18072 18074 18075 1 119.8800511 375.723200
18072 18074 18076 1 120.0200517 532.790560
18075 18074 18076 1 119.8800511 375.723200
18074 18076 18077 1 119.8800511 375.723200
18074 18076 18078 1 120.0200517 532.790560
18077 18076 18078 1 119.8800511 375.723200
18069 18078 18076 1 120.0200517 532.790560
18069 18078 18079 1 119.8800511 375.723200
18076 18078 18079 1 119.8800511 375.723200
18080 18081 18082 1 119.8800511 375.723200
18080 18081 18090 1 119.8800511 375.723200
18082 18081 18090 1 120.0200517 532.790560
18081 18082 18083 1 121.3800518 83.010560
18081 18082 18084 1 120.0200517 532.790560
18083 18082 18084 1 121.3800518 83.010560
242 18083 243 1 109.50000 418.400000
242 18083 244 1 109.50000 418.400000
242 18083 18082 1 103.70004 836.800000
243 18083 244 1 109.50000 418.400000
243 18083 18082 1 103.70004 836.800000
244 18083 18082 1 103.70004 836.800000
18082 18084 18085 1 119.8800511 375.723200
18082 18084 18086 1 120.0200517 532.790560
18085 18084 18086 1 119.8800511 375.723200
18084 18086 18087 1 119.8800511 375.723200
18084 18086 18088 1 120.0200517 532.790560
18087 18086 18088 1 119.8800511 375.723200
18086 18088 18089 1 119.8800511 375.723200
18086 18088 18090 1 120.0200517 532.790560
18089 18088 18090 1 119.8800511 375.723200
18081 18090 18088 1 120.0200517 532.790560
18081 18090 18091 1 119.8800511 375.723200
18088 18090 18091 1 119.8800511 375.723200
18092 18093 18094 1 119.8800511 375.723200
18092 18093 18102 1 119.8800511 375.723200
18094 18093 18102 1 120.0200517 532.790560
18093 18094 18095 1 121.3800518 83.010560
18093 18094 18096 1 120.0200517 532.790560
18095 18094 18096 1 121.3800518 83.010560
221 18095 5234 1 109.50000 418.400000
221 18095 6192 1 109.50000 418.400000
221 18095 18094 1 103.70004 836.800000
5234 18095 6192 1 109.50000 418.400000
5234 18095 18094 1 103.70004 836.800000
6192 18095 18094 1 103.70004 836.800000
18094 18096 18097 1 119.8800511 375.723200
18094 18096 18098 1 120.0200517 532.790560
18097 18096 18098 1 119.8800511 375.723200
18096 18098 18099 1 119.8800511 375.723200
18096 18098 18100 1 120.0200517 532.790560
18099 18098 18100 1 119.8800511 375.723200
18098 18100 18101 1 119.8800511 375.723200
18098 18100 18102 1 120.0200517 532.790560
18101 18100 18102 1 119.8800511 375.723200
18093 18102 18100 1 120.0200517 532.790560
18093 18102 18103 1 119.8800511 375.723200
18100 18102 18103 1 119.8800511 375.723200
18104 18105 18106 1 119.8800511 375.723200
18104 18105 18114 1 119.8800511 375.723200
18106 18105 18114 1 120.0200517 532.790560
18105 18106 18107 1 121.3800518 83.010560
18105 18106 18108 1 120.0200517 532.790560
18107 18106 18108 1 121.3800518 83.010560
5171 18107 5287 1 109.50000 418.400000
5171 18107 5288 1 109.50000 418.400000
5171 18107 18106 1 103.70004 836.800000
5287 18107 5288 1 109.50000 418.400000
5287 18107 18106 1 103.70004 836.800000
5288 18107 18106 1 103.70004 836.800000
18106 18108 18109 1 119.8800511 375.723200
18106 18108 18110 1 120.0200517 532.790560
18109 18108 18110 1 119.8800511 375.723200
18108 18110 18111 1 119.8800511 375.723200
18108 18110 18112 1 120.0200517 532.790560
18111 18110 18112 1 119.8800511 375.723200
18110 18112 18113 1 119.8800511 375.723200
18110 18112 18114 1 120.0200517 532.790560
18113 18112 18114 1 119.8800511 375.723200
18105 18114 18112 1 120.0200517 532.790560
18105 18114 18115 1 119.8800511 375.723200
18112 18114 18115 1 119.8800511 375.723200
18116 18117 18118 1 119.8800511 375.723200
18116 18117 18126 1 119.8800511 375.723200
18118 18117 18126 1 120.0200517 532.790560
18117 18118 18119 1 121.3800518 83.010560
18117 18118 18120 1 120.0200517 532.790560
18119 18118 18120 1 121.3800518 83.010560
6341 18119 7990 1 109.50000 418.400000
6341 18119 11125 1 109.50000 418.400000
6341 18119 18118 1 103.70004 836.800000
7990 18119 11125 1 109.50000 418.400000
7990 18119 18118 1 103.70004 836.800000
11125 18119 18118 1 103.70004 836.800000
18118 18120 18121 1 119.8800511 375.723200
18118 18120 18122 1 120.0200517 532.790560
18121 18120 18122 1 119.8800511 375.723200
18120 18122 18123 1 119.8800511 375.723200
18120 18122 18124 1 120.0200517 532.790560
18123 18122 18124 1 119.8800511 375.723200
18122 18124 18125 1 119.8800511 375.723200
18122 18124 18126 1 120.0200517 532.790560
18125 18124 18126 1 119.8800511 375.723200
18117 18126 18124 1 120.0200517 532.790560
18117 18126 18127 1 119.8800511 375.723200
18124 18126 18127 1 119.8800511 375.723200
18128 18129 18130 1 119.8800511 375.723200
18128 18129 18138 1 119.8800511 375.723200
18130 18129 18138 1 120.0200517 532.790560
18129 18130 18131 1 121.3800518 83.010560
18129 18130 18132 1 120.0200517 532.790560
18131 18130 18132 1 121.3800518 83.010560
232 18131 6232 1 109.50000 418.400000
232 18131 9388 1 109.50000 418.400000
232 18131 18130 1 103.70004 836.800000
6232 18131 9388 1 109.50000 418.400000
6232 18131 18130 1 103.70004 836.800000
9388 18131 18130 1 103.70004 836.800000
18130 18132 18133 1 119.8800511 375.723200
18130 18132 18134 1 120.0200517 532.790560
18133 18132 18134 1 119.8800511 375.723200
18132 18134 18135 1 119.8800511 375.723200
18132 18134 18136 1 120.0200517 532.790560
18135 18134 18136 1 119.8800511 375.723200
18134 18136 18137 1 119.8800511 375.723200
18134 18136 18138 1 120.0200517 532.790560
18137 18136 18138 1 119.8800511 375.723200
18129 18138 18136 1 120.0200517 532.790560
18129 18138 18139 1 119.8800511 375.723200
18136 18138 18139 1 119.8800511 375.723200
18140 18141 18142 1 119.8800511 375.723200
18140 18141 18150 1 119.8800511 375.723200
18142 18141 18150 1 120.0200517 532.790560
18141 18142 18143 1 121.3800518 83.010560
18141 18142 18144 1 120.0200517 532.790560
18143 18142 18144 1 121.3800518 83.010560
4776 18143 9852 1 109.50000 418.400000
4776 18143 9853 1 109.50000 418.400000
4776 18143 18142 1 103.70004 836.800000
9852 18143 9853 1 109.50000 418.400000
9852 18143 18142 1 103.70004 836.800000
9853 18143 18142 1 103.70004 836.800000
18142 18144 18145 1 119.8800511 375.723200
18142 18144 18146 1 120.0200517 532.790560
18145 18144 18146 1 119.8800511 375.723200
18144 18146 18147 1 119.8800511 375.723200
18144 18146 18148 1 120.0200517 532.790560
18147 18146 18148 1 119.8800511 375.723200
18146 18148 18149 1 119.8800511 375.723200
18146 18148 18150 1 120.0200517 532.790560
18149 18148 18150 1 119.8800511 375.723200
18141 18150 18148 1 120.0200517 532.790560
18141 18150 18151 1 119.8800511 375.723200
18148 18150 18151 1 119.8800511 375.723200
18152 18153 18154 1 119.8800511 375.723200
18152 18153 18162 1 119.8800511 375.723200
18154 18153 18162 1 120.0200517 532.790560
18153 18154 18155 1 121.3800518 83.010560
18153 18154 18156 1 120.0200517 532.790560
18155 18154 18156 1 121.3800518 83.010560
65 18155 66 1 109.50000 418.400000
65 18155 67 1 109.50000 418.400000
65 18155 18154 1 103.70004 836.800000
66 18155 67 1 109.50000 418.400000
66 18155 18154 1 103.70004 836.800000
67 18155 18154 1 103.70004 836.800000
18154 18156 18157 1 119.8800511 375.723200
18154 18156 18158 1 120.0200517 532.790560
18157 18156 18158 1 119.8800511 375.723200
18156 18158 18159 1 119.8800511 375.723200
18156 18158 18160 1 120.0200517 532.790560
18159 18158 18160 1 119.8800511 375.723200
18158 18160 18161 1 119.8800511 375.723200
18158 18160 18162 1 120.0200517 532.790560
18161 18160 18162 1 119.8800511 375.723200
18153 18162 18160 1 120.0200517 532.790560
18153 18162 18163 1 119.8800511 375.723200
18160 18162 18163 1 119.8800511 375.723200
18164 18165 18166 1 119.8800511 375.723200
18164 18165 18174 1 119.8800511 375.723200
18166 18165 18174 1 120.0200517 532.790560
18165 18166 18167 1 121.3800518 83.010560
18165 18166 18168 1 120.0200517 532.790560
18167 18166 18168 1 121.3800518 83.010560
1470 18167 1471 1 109.50000 418.400000
1470 18167 11325 1 109.50000 418.400000
1470 18167 18166 1 103.70004 836.800000
1471 18167 11325 1 109.50000 418.400000
1471 18167 18166 1 103.70004 836.800000
11325 18167 18166 1 103.70004 836.800000
18166 18168 18169 1 119.8800511 375.723200
18166 18168 18170 1 120.0200517 532.790560
18169 18168 18170 1 119.8800511 375.723200
18168 18170 18171 1 119.8800511 375.723200
18168 18170 18172 1 120.0200517 532.790560
18171 18170 18172 1 119.8800511 375.723200
18170 18172 18173 1 119.8800511 375.723200
18170 18172 18174 1 120.0200517 532.790560
18173 18172 18174 1 119.8800511 375.723200
18165 18174 18172 1 120.0200517 532.790560
18165 18174 18175 1 119.8800511 375.723200
18172 18174 18175 1 119.8800511 375.723200
18176 18177 18178 1 119.8800511 375.723200
18176 18177 18186 1 119.8800511 375.723200
18178 18177 18186 1 120.0200517 532.790560
18177 18178 18179 1 121.3800518 83.010560
18177 18178 18180 1 120.0200517 532.790560
18179 18178 18180 1 121.3800518 83.010560
3425 18179 7859 1 109.50000 418.400000
3425 18179 11170 1 109.50000 418.400000
3425 18179 18178 1 103.70004 836.800000
7859 18179 11170 1 109.50000 418.400000
7859 18179 18178 1 103.70004 836.800000
11170 18179 18178 1 103.70004 836.800000
18178 18180 18181 1 119.8800511 375.723200
18178 18180 18182 1 120.0200517 532.790560
18181 18180 18182 1 119.8800511 375.723200
18180 18182 18183 1 119.8800511 375.723200
18180 18182 18184 1 120.0200517 532.790560
18183 18182 18184 1 119.8800511 375.723200
18182 18184 18185 1 119.8800511 375.723200
18182 18184 18186 1 120.0200517 532.790560
18185 18184 18186 1 119.8800511 375.723200
18177 18186 18184 1 120.0200517 532.790560
18177 18186 18187 1 119.8800511 375.723200
18184 18186 18187 1 119.8800511 375.723200
18188 18189 18190 1 119.8800511 375.723200
18188 18189 18198 1 119.8800511 375.723200
18190 18189 18198 1 120.0200517 532.790560
18189 18190 18191 1 121.3800518 83.010560
18189 18190 18192 1 120.0200517 532.790560
18191 18190 18192 1 121.3800518 83.010560
4018 18191 4082 1 109.50000 418.400000
4018 18191 10560 1 109.50000 418.400000
4018 18191 18190 1 103.70004 836.800000
4082 18191 10560 1 109.50000 418.400000
4082 18191 18190 1 103.70004 836.800000
10560 18191 18190 1 103.70004 836.800000
18190 18192 18193 1 119.8800511 375.723200
18190 18192 18194 1 120.0200517 532.790560
18193 18192 18194 1 119.8800511 375.723200
18192 18194 18195 1 119.8800511 375.723200
18192 18194 18196 1 120.0200517 532.790560
18195 18194 18196 1 119.8800511 375.723200
18194 18196 18197 1 119.8800511 375.723200
18194 18196 18198 1 120.0200517 532.790560
18197 18196 18198 1 119.8800511 375.723200
18189 18198 18196 1 120.0200517 532.790560
18189 18198 18199 1 119.8800511 375.723200
18196 18198 18199 1 119.8800511 375.723200
18200 18201 18202 1 119.8800511 375.723200
18200 18201 18210 1 119.8800511 375.723200
18202 18201 18210 1 120.0200517 532.790560
18201 18202 18203 1 121.3800518 83.010560
18201 18202 18204 1 120.0200517 532.790560
18203 18202 18204 1 121.3800518 83.010560
1222 18203 1223 1 109.50000 418.400000
1222 18203 1224 1 109.50000 418.400000
1222 18203 18202 1 103.70004 836.800000
1223 18203 1224 1 109.50000 418.400000
1223 18203 18202 1 103.70004 836.800000
1224 18203 18202 1 103.70004 836.800000
18202 18204 18205 1 119.8800511 375.723200
18202 18204 18206 1 120.0200517 532.790560
18205 18204 18206 1 119.8800511 375.723200
18204 18206 18207 1 119.8800511 375.723200
18204 18206 18208 1 120.0200517 532.790560
18207 18206 18208 1 119.8800511 375.723200
18206 18208 18209 1 119.8800511 375.723200
18206 18208 18210 1 120.0200517 532.790560
18209 18208 18210 1 119.8800511 375.723200
18201 18210 18208 1 120.0200517 532.790560
18201 18210 18211 1 119.8800511 375.723200
18208 18210 18211 1 119.8800511 375.723200
5 18212 6 1 109.50000 418.400000
5 18212 3184 1 109.50000 418.400000
5 18212 18213 1 109.50000 418.400000
6 18212 3184 1 109.50000 418.400000
6 18212 18213 1 109.50000 418.400000
3184 18212 18213 1 109.50000 418.400000
18212 18213 18214 1 115.00000 209.200000
30 18215 31 1 109.50000 418.400000
30 18215 32 1 109.50000 418.400000
30 18215 18216 1 109.50000 418.400000
31 18215 32 1 109.50000 418.400000
31 18215 18216 1 109.50000 418.400000
32 18215 18216 1 109.50000 418.400000
18215 18216 18217 1 115.00000 209.200000
68 18218 69 1 109.50000 418.400000
68 18218 11158 1 109.50000 418.400000
68 18218 18219 1 109.50000 418.400000
69 18218 11158 1 109.50000 418.400000
69 18218 18219 1 109.50000 418.400000
11158 18218 18219 1 109.50000 418.400000
18218 18219 18220 1 115.00000 209.200000
121 18221 122 1 109.50000 418.400000
121 18221 11376 1 109.50000 418.400000
121 18221 18222 1 109.50000 418.400000
122 18221 11376 1 109.50000 418.400000
122 18221 18222 1 109.50000 418.400000
11376 18221 18222 1 109.50000 418.400000
18221 18222 18223 1 115.00000 209.200000
123 18224 124 1 109.50000 418.400000
123 18224 125 1 109.50000 418.400000
123 18224 18225 1 109.50000 418.400000
124 18224 125 1 109.50000 418.400000
124 18224 18225 1 109.50000 418.400000
125 18224 18225 1 109.50000 418.400000
18224 18225 18226 1 115.00000 209.200000
221 18227 222 1 109.50000 418.400000
221 18227 223 1 109.50000 418.400000
221 18227 18228 1 109.50000 418.400000
222 18227 223 1 109.50000 418.400000
222 18227 18228 1 109.50000 418.400000
223 18227 18228 1 109.50000 418.400000
18227 18228 18229 1 115.00000 209.200000
232 18230 233 1 109.50000 418.400000
232 18230 234 1 109.50000 418.400000
232 18230 18231 1 109.50000 418.400000
233 18230 234 1 109.50000 418.400000
233 18230 18231 1 109.50000 418.400000
234 18230 18231 1 109.50000 418.400000
18230 18231 18232 1 115.00000 209.200000
254 18233 255 1 109.50000 418.400000
254 18233 11189 1 109.50000 418.400000
254 18233 18234 1 109.50000 418.400000
255 18233 11189 1 109.50000 418.400000
255 18233 18234 1 109.50000 418.400000
11189 18233 18234 1 109.50000 418.400000
18233 18234 18235 1 115.00000 209.200000
350 18236 351 1 109.50000 418.400000
350 18236 6650 1 109.50000 418.400000
350 18236 18237 1 109.50000 418.400000
351 18236 6650 1 109.50000 418.400000
351 18236 18237 1 109.50000 418.400000
6650 18236 18237 1 109.50000 418.400000
18236 18237 18238 1 115.00000 209.200000
417 18239 418 1 109.50000 418.400000
417 18239 419 1 109.50000 418.400000
417 18239 18240 1 109.50000 418.400000
418 18239 419 1 109.50000 418.400000
418 18239 18240 1 109.50000 418.400000
419 18239 18240 1 109.50000 418.400000
18239 18240 18241 1 115.00000 209.200000
473 18242 474 1 109.50000 418.400000
473 18242 11289 1 109.50000 418.400000
473 18242 18243 1 109.50000 418.400000
474 18242 11289 1 109.50000 418.400000
474 18242 18243 1 109.50000 418.400000
11289 18242 18243 1 109.50000 418.400000
18242 18243 18244 1 115.00000 209.200000
556 18245 557 1 109.50000 418.400000
556 18245 558 1 109.50000 418.400000
556 18245 18246 1 109.50000 418.400000
557 18245 558 1 109.50000 418.400000
557 18245 18246 1 109.50000 418.400000
558 18245 18246 1 109.50000 418.400000
18245 18246 18247 1 115.00000 209.200000
137 18248 578 1 109.50000 418.400000
137 18248 579 1 109.50000 418.400000
137 18248 18249 1 109.50000 418.400000
578 18248 579 1 109.50000 418.400000
578 18248 18249 1 109.50000 418.400000
579 18248 18249 1 109.50000 418.400000
18248 18249 18250 1 115.00000 209.200000
601 18251 602 1 109.50000 418.400000
601 18251 603 1 109.50000 418.400000
601 18251 18252 1 109.50000 418.400000
602 18251 603 1 109.50000 418.400000
602 18251 18252 1 109.50000 418.400000
603 18251 18252 1 109.50000 418.400000
18251 18252 18253 1 115.00000 209.200000
619 18254 620 1 109.50000 418.400000
619 18254 621 1 109.50000 418.400000
619 18254 18255 1 109.50000 418.400000
620 18254 621 1 109.50000 418.400000
620 18254 18255 1 109.50000 418.400000
621 18254 18255 1 109.50000 418.400000
18254 18255 18256 1 115.00000 209.200000
783 18257 784 1 109.50000 418.400000
783 18257 785 1 109.50000 418.400000
783 18257 18258 1 109.50000 418.400000
784 18257 785 1 109.50000 418.400000
784 18257 18258 1 109.50000 418.400000
785 18257 18258 1 109.50000 418.400000
18257 18258 18259 1 115.00000 209.200000
837 18260 838 1 109.50000 418.400000
837 18260 839 1 109.50000 418.400000
837 18260 18261 1 109.50000 418.400000
838 18260 839 1 109.50000 418.400000
838 18260 18261 1 109.50000 418.400000
839 18260 18261 1 109.50000 418.400000
18260 18261 18262 1 115.00000 209.200000
840 18263 8869 1 109.50000 418.400000
840 18263 11367 1 109.50000 418.400000
840 18263 18264 1 109.50000 418.400000
8869 18263 11367 1 109.50000 418.400000
8869 18263 18264 1 109.50000 418.400000
11367 18263 18264 1 109.50000 418.400000
18263 18264 18265 1 115.00000 209.200000
887 18266 888 1 109.50000 418.400000
887 18266 889 1 109.50000 418.400000
887 18266 18267 1 109.50000 418.400000
888 18266 889 1 109.50000 418.400000
888 18266 18267 1 109.50000 418.400000
889 18266 18267 1 109.50000 418.400000
18266 18267 18268 1 115.00000 209.200000
964 18269 965 1 109.50000 418.400000
964 18269 11203 1 109.50000 418.400000
964 18269 18270 1 109.50000 418.400000
965 18269 11203 1 109.50000 418.400000
965 18269 18270 1 109.50000 418.400000
11203 18269 18270 1 109.50000 418.400000
18269 18270 18271 1 115.00000 209.200000
1042 18272 1043 1 109.50000 418.400000
1042 18272 1044 1 109.50000 418.400000
1042 18272 18273 1 109.50000 418.400000
1043 18272 1044 1 109.50000 418.400000
1043 18272 18273 1 109.50000 418.400000
1044 18272 18273 1 109.50000 418.400000
18272 18273 18274 1 115.00000 209.200000
1110 18275 1111 1 109.50000 418.400000
1110 18275 1112 1 109.50000 418.400000
1110 18275 18276 1 109.50000 418.400000
1111 18275 1112 1 109.50000 418.400000
1111 18275 18276 1 109.50000 418.400000
1112 18275 18276 1 109.50000 418.400000
18275 18276 18277 1 115.00000 209.200000
1179 18278 1180 1 109.50000 418.400000
1179 18278 11183 1 109.50000 418.400000
1179 18278 18279 1 109.50000 418.400000
1180 18278 11183 1 109.50000 418.400000
1180 18278 18279 1 109.50000 418.400000
11183 18278 18279 1 109.50000 418.400000
18278 18279 18280 1 115.00000 209.200000
1343 18281 1344 1 109.50000 418.400000
1343 18281 11198 1 109.50000 418.400000
1343 18281 18282 1 109.50000 418.400000
1344 18281 11198 1 109.50000 418.400000
1344 18281 18282 1 109.50000 418.400000
11198 18281 18282 1 109.50000 418.400000
18281 18282 18283 1 115.00000 209.200000
1387 18284 1388 1 109.50000 418.400000
1387 18284 1389 1 109.50000 418.400000
1387 18284 18285 1 109.50000 418.400000
1388 18284 1389 1 109.50000 418.400000
1388 18284 18285 1 109.50000 418.400000
1389 18284 18285 1 109.50000 418.400000
18284 18285 18286 1 115.00000 209.200000
1413 18287 1414 1 109.50000 418.400000
1413 18287 11179 1 109.50000 418.400000
1413 18287 18288 1 109.50000 418.400000
1414 18287 11179 1 109.50000 418.400000
1414 18287 18288 1 109.50000 418.400000
11179 18287 18288 1 109.50000 418.400000
18287 18288 18289 1 115.00000 209.200000
1623 18290 1624 1 109.50000 418.400000
1623 18290 1625 1 109.50000 418.400000
1623 18290 18291 1 109.50000 418.400000
1624 18290 1625 1 109.50000 418.400000
1624 18290 18291 1 109.50000 418.400000
1625 18290 18291 1 109.50000 418.400000
18290 18291 18292 1 115.00000 209.200000
1687 18293 1688 1 109.50000 418.400000
1687 18293 8376 1 109.50000 418.400000
1687 18293 18294 1 109.50000 418.400000
1688 18293 8376 1 109.50000 418.400000
1688 18293 18294 1 109.50000 418.400000
8376 18293 18294 1 109.50000 418.400000
18293 18294 18295 1 115.00000 209.200000
1689 18296 1690 1 109.50000 418.400000
1689 18296 1691 1 109.50000 418.400000
1689 18296 18297 1 109.50000 418.400000
1690 18296 1691 1 109.50000 418.400000
1690 18296 18297 1 109.50000 418.400000
1691 18296 18297 1 109.50000 418.400000
18296 18297 18298 1 115.00000 209.200000
1036 18299 1073 1 109.50000 418.400000
1036 18299 1727 1 109.50000 418.400000
1036 18299 18300 1 109.50000 418.400000
1073 18299 1727 1 109.50000 418.400000
1073 18299 18300 1 109.50000 418.400000
1727 18299 18300 1 109.50000 418.400000
18299 18300 18301 1 115.00000 209.200000
1735 18302 1736 1 109.50000 418.400000
1735 18302 1737 1 109.50000 418.400000
1735 18302 18303 1 109.50000 418.400000
1736 18302 1737 1 109.50000 418.400000
1736 18302 18303 1 109.50000 418.400000
1737 18302 18303 1 109.50000 418.400000
18302 18303 18304 1 115.00000 209.200000
1742 18305 8259 1 109.50000 418.400000
1742 18305 11301 1 109.50000 418.400000
1742 18305 18306 1 109.50000 418.400000
8259 18305 11301 1 109.50000 418.400000
8259 18305 18306 1 109.50000 418.400000
11301 18305 18306 1 109.50000 418.400000
18305 18306 18307 1 115.00000 209.200000
1258 18308 1776 1 109.50000 418.400000
1258 18308 1777 1 109.50000 418.400000
1258 18308 18309 1 109.50000 418.400000
1776 18308 1777 1 109.50000 418.400000
1776 18308 18309 1 109.50000 418.400000
1777 18308 18309 1 109.50000 418.400000
18308 18309 18310 1 115.00000 209.200000
1829 18311 1830 1 109.50000 418.400000
1829 18311 1831 1 109.50000 418.400000
1829 18311 18312 1 109.50000 418.400000
1830 18311 1831 1 109.50000 418.400000
1830 18311 18312 1 109.50000 418.400000
1831 18311 18312 1 109.50000 418.400000
18311 18312 18313 1 115.00000 209.200000
1986 18314 2066 1 109.50000 418.400000
1986 18314 11280 1 109.50000 418.400000
1986 18314 18315 1 109.50000 418.400000
2066 18314 11280 1 109.50000 418.400000
2066 18314 18315 1 109.50000 418.400000
11280 18314 18315 1 109.50000 418.400000
18314 18315 18316 1 115.00000 209.200000
2165 18317 2166 1 109.50000 418.400000
2165 18317 9001 1 109.50000 418.400000
2165 18317 18318 1 109.50000 418.400000
2166 18317 9001 1 109.50000 418.400000
2166 18317 18318 1 109.50000 418.400000
9001 18317 18318 1 109.50000 418.400000
18317 18318 18319 1 115.00000 209.200000
2200 18320 2201 1 109.50000 418.400000
2200 18320 11307 1 109.50000 418.400000
2200 18320 18321 1 109.50000 418.400000
2201 18320 11307 1 109.50000 418.400000
2201 18320 18321 1 109.50000 418.400000
11307 18320 18321 1 109.50000 418.400000
18320 18321 18322 1 115.00000 209.200000
845 18323 2299 1 109.50000 418.400000
845 18323 11355 1 109.50000 418.400000
845 18323 18324 1 109.50000 418.400000
2299 18323 11355 1 109.50000 418.400000
2299 18323 18324 1 109.50000 418.400000
11355 18323 18324 1 109.50000 418.400000
18323 18324 18325 1 115.00000 209.200000
2450 18326 2451 1 109.50000 418.400000
2450 18326 2452 1 109.50000 418.400000
2450 18326 18327 1 109.50000 418.400000
2451 18326 2452 1 109.50000 418.400000
2451 18326 18327 1 109.50000 418.400000
2452 18326 18327 1 109.50000 418.400000
18326 18327 18328 1 115.00000 209.200000
2483 18329 2484 1 109.50000 418.400000
2483 18329 2485 1 109.50000 418.400000
2483 18329 18330 1 109.50000 418.400000
2484 18329 2485 1 109.50000 418.400000
2484 18329 18330 1 109.50000 418.400000
2485 18329 18330 1 109.50000 418.400000
18329 18330 18331 1 115.00000 209.200000
2505 18332 2506 1 109.50000 418.400000
2505 18332 5440 1 109.50000 418.400000
2505 18332 18333 1 109.50000 418.400000
2506 18332 5440 1 109.50000 418.400000
2506 18332 18333 1 109.50000 418.400000
5440 18332 18333 1 109.50000 418.400000
18332 18333 18334 1 115.00000 209.200000
2623 18335 2624 1 109.50000 418.400000
2623 18335 11322 1 109.50000 418.400000
2623 18335 18336 1 109.50000 418.400000
2624 18335 11322 1 109.50000 418.400000
2624 18335 18336 1 109.50000 418.400000
11322 18335 18336 1 109.50000 418.400000
18335 18336 18337 1 115.00000 209.200000
2729 18338 2730 1 109.50000 418.400000
2729 18338 2731 1 109.50000 418.400000
2729 18338 18339 1 109.50000 418.400000
2730 18338 2731 1 109.50000 418.400000
2730 18338 18339 1 109.50000 418.400000
2731 18338 18339 1 109.50000 418.400000
18338 18339 18340 1 115.00000 209.200000
1216 18341 2857 1 109.50000 418.400000
1216 18341 11210 1 109.50000 418.400000
1216 18341 18342 1 109.50000 418.400000
2857 18341 11210 1 109.50000 418.400000
2857 18341 18342 1 109.50000 418.400000
11210 18341 18342 1 109.50000 418.400000
18341 18342 18343 1 115.00000 209.200000
2559 18344 2884 1 109.50000 418.400000
2559 18344 2885 1 109.50000 418.400000
2559 18344 18345 1 109.50000 418.400000
2884 18344 2885 1 109.50000 418.400000
2884 18344 18345 1 109.50000 418.400000
2885 18344 18345 1 109.50000 418.400000
18344 18345 18346 1 115.00000 209.200000
2604 18347 2605 1 109.50000 418.400000
2604 18347 2991 1 109.50000 418.400000
2604 18347 18348 1 109.50000 418.400000
2605 18347 2991 1 109.50000 418.400000
2605 18347 18348 1 109.50000 418.400000
2991 18347 18348 1 109.50000 418.400000
18347 18348 18349 1 115.00000 209.200000
2139 18350 2995 1 109.50000 418.400000
2139 18350 10649 1 109.50000 418.400000
2139 18350 18351 1 109.50000 418.400000
2995 18350 10649 1 109.50000 418.400000
2995 18350 18351 1 109.50000 418.400000
10649 18350 18351 1 109.50000 418.400000
18350 18351 18352 1 115.00000 209.200000
3490 18353 10069 1 109.50000 418.400000
3490 18353 11251 1 109.50000 418.400000
3490 18353 18354 1 109.50000 418.400000
10069 18353 11251 1 109.50000 418.400000
10069 18353 18354 1 109.50000 418.400000
11251 18353 18354 1 109.50000 418.400000
18353 18354 18355 1 115.00000 209.200000
3104 18356 3105 1 109.50000 418.400000
3104 18356 3106 1 109.50000 418.400000
3104 18356 18357 1 109.50000 418.400000
3105 18356 3106 1 109.50000 418.400000
3105 18356 18357 1 109.50000 418.400000
3106 18356 18357 1 109.50000 418.400000
18356 18357 18358 1 115.00000 209.200000
440 18359 3109 1 109.50000 418.400000
440 18359 10195 1 109.50000 418.400000
440 18359 18360 1 109.50000 418.400000
3109 18359 10195 1 109.50000 418.400000
3109 18359 18360 1 109.50000 418.400000
10195 18359 18360 1 109.50000 418.400000
18359 18360 18361 1 115.00000 209.200000
3109 18362 3161 1 109.50000 418.400000
3109 18362 11193 1 109.50000 418.400000
3109 18362 18363 1 109.50000 418.400000
3161 18362 11193 1 109.50000 418.400000
3161 18362 18363 1 109.50000 418.400000
11193 18362 18363 1 109.50000 418.400000
18362 18363 18364 1 115.00000 209.200000
3284 18365 3285 1 109.50000 418.400000
3284 18365 11267 1 109.50000 418.400000
3284 18365 18366 1 109.50000 418.400000
3285 18365 11267 1 109.50000 418.400000
3285 18365 18366 1 109.50000 418.400000
11267 18365 18366 1 109.50000 418.400000
18365 18366 18367 1 115.00000 209.200000
3302 18368 3303 1 109.50000 418.400000
3302 18368 3304 1 109.50000 418.400000
3302 18368 18369 1 109.50000 418.400000
3303 18368 3304 1 109.50000 418.400000
3303 18368 18369 1 109.50000 418.400000
3304 18368 18369 1 109.50000 418.400000
18368 18369 18370 1 115.00000 209.200000
3351 18371 3352 1 109.50000 418.400000
3351 18371 3353 1 109.50000 418.400000
3351 18371 18372 1 109.50000 418.400000
3352 18371 3353 1 109.50000 418.400000
3352 18371 18372 1 109.50000 418.400000
3353 18371 18372 1 109.50000 418.400000
18371 18372 18373 1 115.00000 209.200000
125 18374 3371 1 109.50000 418.400000
125 18374 11145 1 109.50000 418.400000
125 18374 18375 1 109.50000 418.400000
3371 18374 11145 1 109.50000 418.400000
3371 18374 18375 1 109.50000 418.400000
11145 18374 18375 1 109.50000 418.400000
18374 18375 18376 1 115.00000 209.200000
3376 18377 3377 1 109.50000 418.400000
3376 18377 3378 1 109.50000 418.400000
3376 18377 18378 1 109.50000 418.400000
3377 18377 3378 1 109.50000 418.400000
3377 18377 18378 1 109.50000 418.400000
3378 18377 18378 1 109.50000 418.400000
18377 18378 18379 1 115.00000 209.200000
3379 18380 3380 1 109.50000 418.400000
3379 18380 11209 1 109.50000 418.400000
3379 18380 18381 1 109.50000 418.400000
3380 18380 11209 1 109.50000 418.400000
3380 18380 18381 1 109.50000 418.400000
11209 18380 18381 1 109.50000 418.400000
18380 18381 18382 1 115.00000 209.200000
3417 18383 3418 1 109.50000 418.400000
3417 18383 3419 1 109.50000 418.400000
3417 18383 18384 1 109.50000 418.400000
3418 18383 3419 1 109.50000 418.400000
3418 18383 18384 1 109.50000 418.400000
3419 18383 18384 1 109.50000 418.400000
18383 18384 18385 1 115.00000 209.200000
3430 18386 3431 1 109.50000 418.400000
3430 18386 11346 1 109.50000 418.400000
3430 18386 18387 1 109.50000 418.400000
3431 18386 11346 1 109.50000 418.400000
3431 18386 18387 1 109.50000 418.400000
11346 18386 18387 1 109.50000 418.400000
18386 18387 18388 1 115.00000 209.200000
3525 18389 3526 1 109.50000 418.400000
3525 18389 3527 1 109.50000 418.400000
3525 18389 18390 1 109.50000 418.400000
3526 18389 3527 1 109.50000 418.400000
3526 18389 18390 1 109.50000 418.400000
3527 18389 18390 1 109.50000 418.400000
18389 18390 18391 1 115.00000 209.200000
3559 18392 3560 1 109.50000 418.400000
3559 18392 3561 1 109.50000 418.400000
3559 18392 18393 1 109.50000 418.400000
3560 18392 3561 1 109.50000 418.400000
3560 18392 18393 1 109.50000 418.400000
3561 18392 18393 1 109.50000 418.400000
18392 18393 18394 1 115.00000 209.200000
3676 18395 3677 1 109.50000 418.400000
3676 18395 11221 1 109.50000 418.400000
3676 18395 18396 1 109.50000 418.400000
3677 18395 11221 1 109.50000 418.400000
3677 18395 18396 1 109.50000 418.400000
11221 18395 18396 1 109.50000 418.400000
18395 18396 18397 1 115.00000 209.200000
2095 18398 3736 1 109.50000 418.400000
2095 18398 3737 1 109.50000 418.400000
2095 18398 18399 1 109.50000 418.400000
3736 18398 3737 1 109.50000 418.400000
3736 18398 18399 1 109.50000 418.400000
3737 18398 18399 1 109.50000 418.400000
18398 18399 18400 1 115.00000 209.200000
458 18401 3771 1 109.50000 418.400000
458 18401 3772 1 109.50000 418.400000
458 18401 18402 1 109.50000 418.400000
3771 18401 3772 1 109.50000 418.400000
3771 18401 18402 1 109.50000 418.400000
3772 18401 18402 1 109.50000 418.400000
18401 18402 18403 1 115.00000 209.200000
2097 18404 3877 1 109.50000 418.400000
2097 18404 3878 1 109.50000 418.400000
2097 18404 18405 1 109.50000 418.400000
3877 18404 3878 1 109.50000 418.400000
3877 18404 18405 1 109.50000 418.400000
3878 18404 18405 1 109.50000 418.400000
18404 18405 18406 1 115.00000 209.200000
3879 18407 3880 1 109.50000 418.400000
3879 18407 3881 1 109.50000 418.400000
3879 18407 18408 1 109.50000 418.400000
3880 18407 3881 1 109.50000 418.400000
3880 18407 18408 1 109.50000 418.400000
3881 18407 18408 1 109.50000 418.400000
18407 18408 18409 1 115.00000 209.200000
1689 18410 4017 1 109.50000 418.400000
1689 18410 4018 1 109.50000 418.400000
1689 18410 18411 1 109.50000 418.400000
4017 18410 4018 1 109.50000 418.400000
4017 18410 18411 1 109.50000 418.400000
4018 18410 18411 1 109.50000 418.400000
18410 18411 18412 1 115.00000 209.200000
840 18413 4033 1 109.50000 418.400000
840 18413 4034 1 109.50000 418.400000
840 18413 18414 1 109.50000 418.400000
4033 18413 4034 1 109.50000 418.400000
4033 18413 18414 1 109.50000 418.400000
4034 18413 18414 1 109.50000 418.400000
18413 18414 18415 1 115.00000 209.200000
1170 18416 4041 1 109.50000 418.400000
1170 18416 4042 1 109.50000 418.400000
1170 18416 18417 1 109.50000 418.400000
4041 18416 4042 1 109.50000 418.400000
4041 18416 18417 1 109.50000 418.400000
4042 18416 18417 1 109.50000 418.400000
18416 18417 18418 1 115.00000 209.200000
480 18419 3500 1 109.50000 418.400000
480 18419 4167 1 109.50000 418.400000
480 18419 18420 1 109.50000 418.400000
3500 18419 4167 1 109.50000 418.400000
3500 18419 18420 1 109.50000 418.400000
4167 18419 18420 1 109.50000 418.400000
18419 18420 18421 1 115.00000 209.200000
2684 18422 4172 1 109.50000 418.400000
2684 18422 11375 1 109.50000 418.400000
2684 18422 18423 1 109.50000 418.400000
4172 18422 11375 1 109.50000 418.400000
4172 18422 18423 1 109.50000 418.400000
11375 18422 18423 1 109.50000 418.400000
18422 18423 18424 1 115.00000 209.200000
4208 18425 4209 1 109.50000 418.400000
4208 18425 11295 1 109.50000 418.400000
4208 18425 18426 1 109.50000 418.400000
4209 18425 11295 1 109.50000 418.400000
4209 18425 18426 1 109.50000 418.400000
11295 18425 18426 1 109.50000 418.400000
18425 18426 18427 1 115.00000 209.200000
1699 18428 4236 1 109.50000 418.400000
1699 18428 11270 1 109.50000 418.400000
1699 18428 18429 1 109.50000 418.400000
4236 18428 11270 1 109.50000 418.400000
4236 18428 18429 1 109.50000 418.400000
11270 18428 18429 1 109.50000 418.400000
18428 18429 18430 1 115.00000 209.200000
2490 18431 2492 1 109.50000 418.400000
2490 18431 4374 1 109.50000 418.400000
2490 18431 18432 1 109.50000 418.400000
2492 18431 4374 1 109.50000 418.400000
2492 18431 18432 1 109.50000 418.400000
4374 18431 18432 1 109.50000 418.400000
18431 18432 18433 1 115.00000 209.200000
4398 18434 4399 1 109.50000 418.400000
4398 18434 4400 1 109.50000 418.400000
4398 18434 18435 1 109.50000 418.400000
4399 18434 4400 1 109.50000 418.400000
4399 18434 18435 1 109.50000 418.400000
4400 18434 18435 1 109.50000 418.400000
18434 18435 18436 1 115.00000 209.200000
4432 18437 4433 1 109.50000 418.400000
4432 18437 4434 1 109.50000 418.400000
4432 18437 18438 1 109.50000 418.400000
4433 18437 4434 1 109.50000 418.400000
4433 18437 18438 1 109.50000 418.400000
4434 18437 18438 1 109.50000 418.400000
18437 18438 18439 1 115.00000 209.200000
4476 18440 4477 1 109.50000 418.400000
4476 18440 4478 1 109.50000 418.400000
4476 18440 18441 1 109.50000 418.400000
4477 18440 4478 1 109.50000 418.400000
4477 18440 18441 1 109.50000 418.400000
4478 18440 18441 1 109.50000 418.400000
18440 18441 18442 1 115.00000 209.200000
3303 18443 3365 1 109.50000 418.400000
3303 18443 11362 1 109.50000 418.400000
3303 18443 18444 1 109.50000 418.400000
3365 18443 11362 1 109.50000 418.400000
3365 18443 18444 1 109.50000 418.400000
11362 18443 18444 1 109.50000 418.400000
18443 18444 18445 1 115.00000 209.200000
4509 18446 4510 1 109.50000 418.400000
4509 18446 11360 1 109.50000 418.400000
4509 18446 18447 1 109.50000 418.400000
4510 18446 11360 1 109.50000 418.400000
4510 18446 18447 1 109.50000 418.400000
11360 18446 18447 1 109.50000 418.400000
18446 18447 18448 1 115.00000 209.200000
4515 18449 4516 1 109.50000 418.400000
4515 18449 4517 1 109.50000 418.400000
4515 18449 18450 1 109.50000 418.400000
4516 18449 4517 1 109.50000 418.400000
4516 18449 18450 1 109.50000 418.400000
4517 18449 18450 1 109.50000 418.400000
18449 18450 18451 1 115.00000 209.200000
4691 18452 4692 1 109.50000 418.400000
4691 18452 4693 1 109.50000 418.400000
4691 18452 18453 1 109.50000 418.400000
4692 18452 4693 1 109.50000 418.400000
4692 18452 18453 1 109.50000 418.400000
4693 18452 18453 1 109.50000 418.400000
18452 18453 18454 1 115.00000 209.200000
4771 18455 4772 1 109.50000 418.400000
4771 18455 11335 1 109.50000 418.400000
4771 18455 18456 1 109.50000 418.400000
4772 18455 11335 1 109.50000 418.400000
4772 18455 18456 1 109.50000 418.400000
11335 18455 18456 1 109.50000 418.400000
18455 18456 18457 1 115.00000 209.200000
4790 18458 4791 1 109.50000 418.400000
4790 18458 4792 1 109.50000 418.400000
4790 18458 18459 1 109.50000 418.400000
4791 18458 4792 1 109.50000 418.400000
4791 18458 18459 1 109.50000 418.400000
4792 18458 18459 1 109.50000 418.400000
18458 18459 18460 1 115.00000 209.200000
4807 18461 4808 1 109.50000 418.400000
4807 18461 4809 1 109.50000 418.400000
4807 18461 18462 1 109.50000 418.400000
4808 18461 4809 1 109.50000 418.400000
4808 18461 18462 1 109.50000 418.400000
4809 18461 18462 1 109.50000 418.400000
18461 18462 18463 1 115.00000 209.200000
274 18464 4813 1 109.50000 418.400000
274 18464 4814 1 109.50000 418.400000
274 18464 18465 1 109.50000 418.400000
4813 18464 4814 1 109.50000 418.400000
4813 18464 18465 1 109.50000 418.400000
4814 18464 18465 1 109.50000 418.400000
18464 18465 18466 1 115.00000 209.200000
4825 18467 4826 1 109.50000 418.400000
4825 18467 4827 1 109.50000 418.400000
4825 18467 18468 1 109.50000 418.400000
4826 18467 4827 1 109.50000 418.400000
4826 18467 18468 1 109.50000 418.400000
4827 18467 18468 1 109.50000 418.400000
18467 18468 18469 1 115.00000 209.200000
2324 18470 3904 1 109.50000 418.400000
2324 18470 4792 1 109.50000 418.400000
2324 18470 18471 1 109.50000 418.400000
3904 18470 4792 1 109.50000 418.400000
3904 18470 18471 1 109.50000 418.400000
4792 18470 18471 1 109.50000 418.400000
18470 18471 18472 1 115.00000 209.200000
4861 18473 4862 1 109.50000 418.400000
4861 18473 11347 1 109.50000 418.400000
4861 18473 18474 1 109.50000 418.400000
4862 18473 11347 1 109.50000 418.400000
4862 18473 18474 1 109.50000 418.400000
11347 18473 18474 1 109.50000 418.400000
18473 18474 18475 1 115.00000 209.200000
523 18476 889 1 109.50000 418.400000
523 18476 4879 1 109.50000 418.400000
523 18476 18477 1 109.50000 418.400000
889 18476 4879 1 109.50000 418.400000
889 18476 18477 1 109.50000 418.400000
4879 18476 18477 1 109.50000 418.400000
18476 18477 18478 1 115.00000 209.200000
2517 18479 4894 1 109.50000 418.400000
2517 18479 11242 1 109.50000 418.400000
2517 18479 18480 1 109.50000 418.400000
4894 18479 11242 1 109.50000 418.400000
4894 18479 18480 1 109.50000 418.400000
11242 18479 18480 1 109.50000 418.400000
18479 18480 18481 1 115.00000 209.200000
4895 18482 4896 1 109.50000 418.400000
4895 18482 11247 1 109.50000 418.400000
4895 18482 18483 1 109.50000 418.400000
4896 18482 11247 1 109.50000 418.400000
4896 18482 18483 1 109.50000 418.400000
11247 18482 18483 1 109.50000 418.400000
18482 18483 18484 1 115.00000 209.200000
4994 18485 4995 1 109.50000 418.400000
4994 18485 5969 1 109.50000 418.400000
4994 18485 18486 1 109.50000 418.400000
4995 18485 5969 1 109.50000 418.400000
4995 18485 18486 1 109.50000 418.400000
5969 18485 18486 1 109.50000 418.400000
18485 18486 18487 1 115.00000 209.200000
4996 18488 4997 1 109.50000 418.400000
4996 18488 11332 1 109.50000 418.400000
4996 18488 18489 1 109.50000 418.400000
4997 18488 11332 1 109.50000 418.400000
4997 18488 18489 1 109.50000 418.400000
11332 18488 18489 1 109.50000 418.400000
18488 18489 18490 1 115.00000 209.200000
1972 18491 5030 1 109.50000 418.400000
1972 18491 5031 1 109.50000 418.400000
1972 18491 18492 1 109.50000 418.400000
5030 18491 5031 1 109.50000 418.400000
5030 18491 18492 1 109.50000 418.400000
5031 18491 18492 1 109.50000 418.400000
18491 18492 18493 1 115.00000 209.200000
5043 18494 5044 1 109.50000 418.400000
5043 18494 11384 1 109.50000 418.400000
5043 18494 18495 1 109.50000 418.400000
5044 18494 11384 1 109.50000 418.400000
5044 18494 18495 1 109.50000 418.400000
11384 18494 18495 1 109.50000 418.400000
18494 18495 18496 1 115.00000 209.200000
654 18497 5054 1 109.50000 418.400000
654 18497 5055 1 109.50000 418.400000
654 18497 18498 1 109.50000 418.400000
5054 18497 5055 1 109.50000 418.400000
5054 18497 18498 1 109.50000 418.400000
5055 18497 18498 1 109.50000 418.400000
18497 18498 18499 1 115.00000 209.200000
4709 18500 5104 1 109.50000 418.400000
4709 18500 5105 1 109.50000 418.400000
4709 18500 18501 1 109.50000 418.400000
5104 18500 5105 1 109.50000 418.400000
5104 18500 18501 1 109.50000 418.400000
5105 18500 18501 1 109.50000 418.400000
18500 18501 18502 1 115.00000 209.200000
5130 18503 5131 1 109.50000 418.400000
5130 18503 5132 1 109.50000 418.400000
5130 18503 18504 1 109.50000 418.400000
5131 18503 5132 1 109.50000 418.400000
5131 18503 18504 1 109.50000 418.400000
5132 18503 18504 1 109.50000 418.400000
18503 18504 18505 1 115.00000 209.200000
5141 18506 5142 1 109.50000 418.400000
5141 18506 5143 1 109.50000 418.400000
5141 18506 18507 1 109.50000 418.400000
5142 18506 5143 1 109.50000 418.400000
5142 18506 18507 1 109.50000 418.400000
5143 18506 18507 1 109.50000 418.400000
18506 18507 18508 1 115.00000 209.200000
3686 18509 5163 1 109.50000 418.400000
3686 18509 5164 1 109.50000 418.400000
3686 18509 18510 1 109.50000 418.400000
5163 18509 5164 1 109.50000 418.400000
5163 18509 18510 1 109.50000 418.400000
5164 18509 18510 1 109.50000 418.400000
18509 18510 18511 1 115.00000 209.200000
5173 18512 5174 1 109.50000 418.400000
5173 18512 11271 1 109.50000 418.400000
5173 18512 18513 1 109.50000 418.400000
5174 18512 11271 1 109.50000 418.400000
5174 18512 18513 1 109.50000 418.400000
11271 18512 18513 1 109.50000 418.400000
18512 18513 18514 1 115.00000 209.200000
1643 18515 5134 1 109.50000 418.400000
1643 18515 5221 1 109.50000 418.400000
1643 18515 18516 1 109.50000 418.400000
5134 18515 5221 1 109.50000 418.400000
5134 18515 18516 1 109.50000 418.400000
5221 18515 18516 1 109.50000 418.400000
18515 18516 18517 1 115.00000 209.200000
5249 18518 5250 1 109.50000 418.400000
5249 18518 5251 1 109.50000 418.400000
5249 18518 18519 1 109.50000 418.400000
5250 18518 5251 1 109.50000 418.400000
5250 18518 18519 1 109.50000 418.400000
5251 18518 18519 1 109.50000 418.400000
18518 18519 18520 1 115.00000 209.200000
5324 18521 5325 1 109.50000 418.400000
5324 18521 11379 1 109.50000 418.400000
5324 18521 18522 1 109.50000 418.400000
5325 18521 11379 1 109.50000 418.400000
5325 18521 18522 1 109.50000 418.400000
11379 18521 18522 1 109.50000 418.400000
18521 18522 18523 1 115.00000 209.200000
1526 18524 5356 1 109.50000 418.400000
1526 18524 11358 1 109.50000 418.400000
1526 18524 18525 1 109.50000 418.400000
5356 18524 11358 1 109.50000 418.400000
5356 18524 18525 1 109.50000 418.400000
11358 18524 18525 1 109.50000 418.400000
18524 18525 18526 1 115.00000 209.200000
5373 18527 5374 1 109.50000 418.400000
5373 18527 11348 1 109.50000 418.400000
5373 18527 18528 1 109.50000 418.400000
5374 18527 11348 1 109.50000 418.400000
5374 18527 18528 1 109.50000 418.400000
11348 18527 18528 1 109.50000 418.400000
18527 18528 18529 1 115.00000 209.200000
4427 18530 5427 1 109.50000 418.400000
4427 18530 5428 1 109.50000 418.400000
4427 18530 18531 1 109.50000 418.400000
5427 18530 5428 1 109.50000 418.400000
5427 18530 18531 1 109.50000 418.400000
5428 18530 18531 1 109.50000 418.400000
18530 18531 18532 1 115.00000 209.200000
5496 18533 5497 1 109.50000 418.400000
5496 18533 5498 1 109.50000 418.400000
5496 18533 18534 1 109.50000 418.400000
5497 18533 5498 1 109.50000 418.400000
5497 18533 18534 1 109.50000 418.400000
5498 18533 18534 1 109.50000 418.400000
18533 18534 18535 1 115.00000 209.200000
5501 18536 5502 1 109.50000 418.400000
5501 18536 5503 1 109.50000 418.400000
5501 18536 18537 1 109.50000 418.400000
5502 18536 5503 1 109.50000 418.400000
5502 18536 18537 1 109.50000 418.400000
5503 18536 18537 1 109.50000 418.400000
18536 18537 18538 1 115.00000 209.200000
2431 18539 5578 1 109.50000 418.400000
2431 18539 11365 1 109.50000 418.400000
2431 18539 18540 1 109.50000 418.400000
5578 18539 11365 1 109.50000 418.400000
5578 18539 18540 1 109.50000 418.400000
11365 18539 18540 1 109.50000 418.400000
18539 18540 18541 1 115.00000 209.200000
5725 18542 5726 1 109.50000 418.400000
5725 18542 5727 1 109.50000 418.400000
5725 18542 18543 1 109.50000 418.400000
5726 18542 5727 1 109.50000 418.400000
5726 18542 18543 1 109.50000 418.400000
5727 18542 18543 1 109.50000 418.400000
18542 18543 18544 1 115.00000 209.200000
864 18545 2451 1 109.50000 418.400000
864 18545 5839 1 109.50000 418.400000
864 18545 18546 1 109.50000 418.400000
2451 18545 5839 1 109.50000 418.400000
2451 18545 18546 1 109.50000 418.400000
5839 18545 18546 1 109.50000 418.400000
18545 18546 18547 1 115.00000 209.200000
3628 18548 5860 1 109.50000 418.400000
3628 18548 10356 1 109.50000 418.400000
3628 18548 18549 1 109.50000 418.400000
5860 18548 10356 1 109.50000 418.400000
5860 18548 18549 1 109.50000 418.400000
10356 18548 18549 1 109.50000 418.400000
18548 18549 18550 1 115.00000 209.200000
1685 18551 6005 1 109.50000 418.400000
1685 18551 6006 1 109.50000 418.400000
1685 18551 18552 1 109.50000 418.400000
6005 18551 6006 1 109.50000 418.400000
6005 18551 18552 1 109.50000 418.400000
6006 18551 18552 1 109.50000 418.400000
18551 18552 18553 1 115.00000 209.200000
1148 18554 6026 1 109.50000 418.400000
1148 18554 6027 1 109.50000 418.400000
1148 18554 18555 1 109.50000 418.400000
6026 18554 6027 1 109.50000 418.400000
6026 18554 18555 1 109.50000 418.400000
6027 18554 18555 1 109.50000 418.400000
18554 18555 18556 1 115.00000 209.200000
3645 18557 6032 1 109.50000 418.400000
3645 18557 9558 1 109.50000 418.400000
3645 18557 18558 1 109.50000 418.400000
6032 18557 9558 1 109.50000 418.400000
6032 18557 18558 1 109.50000 418.400000
9558 18557 18558 1 109.50000 418.400000
18557 18558 18559 1 115.00000 209.200000
6099 18560 6100 1 109.50000 418.400000
6099 18560 6101 1 109.50000 418.400000
6099 18560 18561 1 109.50000 418.400000
6100 18560 6101 1 109.50000 418.400000
6100 18560 18561 1 109.50000 418.400000
6101 18560 18561 1 109.50000 418.400000
18560 18561 18562 1 115.00000 209.200000
6038 18563 6173 1 109.50000 418.400000
6038 18563 6174 1 109.50000 418.400000
6038 18563 18564 1 109.50000 418.400000
6173 18563 6174 1 109.50000 418.400000
6173 18563 18564 1 109.50000 418.400000
6174 18563 18564 1 109.50000 418.400000
18563 18564 18565 1 115.00000 209.200000
4554 18566 6276 1 109.50000 418.400000
4554 18566 6277 1 109.50000 418.400000
4554 18566 18567 1 109.50000 418.400000
6276 18566 6277 1 109.50000 418.400000
6276 18566 18567 1 109.50000 418.400000
6277 18566 18567 1 109.50000 418.400000
18566 18567 18568 1 115.00000 209.200000
2730 18569 6385 1 109.50000 418.400000
2730 18569 6386 1 109.50000 418.400000
2730 18569 18570 1 109.50000 418.400000
6385 18569 6386 1 109.50000 418.400000
6385 18569 18570 1 109.50000 418.400000
6386 18569 18570 1 109.50000 418.400000
18569 18570 18571 1 115.00000 209.200000
5361 18572 6026 1 109.50000 418.400000
5361 18572 11388 1 109.50000 418.400000
5361 18572 18573 1 109.50000 418.400000
6026 18572 11388 1 109.50000 418.400000
6026 18572 18573 1 109.50000 418.400000
11388 18572 18573 1 109.50000 418.400000
18572 18573 18574 1 115.00000 209.200000
6486 18575 6487 1 109.50000 418.400000
6486 18575 7783 1 109.50000 418.400000
6486 18575 18576 1 109.50000 418.400000
6487 18575 7783 1 109.50000 418.400000
6487 18575 18576 1 109.50000 418.400000
7783 18575 18576 1 109.50000 418.400000
18575 18576 18577 1 115.00000 209.200000
4777 18578 5251 1 109.50000 418.400000
4777 18578 6526 1 109.50000 418.400000
4777 18578 18579 1 109.50000 418.400000
5251 18578 6526 1 109.50000 418.400000
5251 18578 18579 1 109.50000 418.400000
6526 18578 18579 1 109.50000 418.400000
18578 18579 18580 1 115.00000 209.200000
6566 18581 6567 1 109.50000 418.400000
6566 18581 6568 1 109.50000 418.400000
6566 18581 18582 1 109.50000 418.400000
6567 18581 6568 1 109.50000 418.400000
6567 18581 18582 1 109.50000 418.400000
6568 18581 18582 1 109.50000 418.400000
18581 18582 18583 1 115.00000 209.200000
1945 18584 6569 1 109.50000 418.400000
1945 18584 6570 1 109.50000 418.400000
1945 18584 18585 1 109.50000 418.400000
6569 18584 6570 1 109.50000 418.400000
6569 18584 18585 1 109.50000 418.400000
6570 18584 18585 1 109.50000 418.400000
18584 18585 18586 1 115.00000 209.200000
6572 18587 6573 1 109.50000 418.400000
6572 18587 10080 1 109.50000 418.400000
6572 18587 18588 1 109.50000 418.400000
6573 18587 10080 1 109.50000 418.400000
6573 18587 18588 1 109.50000 418.400000
10080 18587 18588 1 109.50000 418.400000
18587 18588 18589 1 115.00000 209.200000
2495 18590 5424 1 109.50000 418.400000
2495 18590 6643 1 109.50000 418.400000
2495 18590 18591 1 109.50000 418.400000
5424 18590 6643 1 109.50000 418.400000
5424 18590 18591 1 109.50000 418.400000
6643 18590 18591 1 109.50000 418.400000
18590 18591 18592 1 115.00000 209.200000
174 18593 6557 1 109.50000 418.400000
174 18593 6647 1 109.50000 418.400000
174 18593 18594 1 109.50000 418.400000
6557 18593 6647 1 109.50000 418.400000
6557 18593 18594 1 109.50000 418.400000
6647 18593 18594 1 109.50000 418.400000
18593 18594 18595 1 115.00000 209.200000
6383 18596 6658 1 109.50000 418.400000
6383 18596 11172 1 109.50000 418.400000
6383 18596 18597 1 109.50000 418.400000
6658 18596 11172 1 109.50000 418.400000
6658 18596 18597 1 109.50000 418.400000
11172 18596 18597 1 109.50000 418.400000
18596 18597 18598 1 115.00000 209.200000
5582 18599 6741 1 109.50000 418.400000
5582 18599 6742 1 109.50000 418.400000
5582 18599 18600 1 109.50000 418.400000
6741 18599 6742 1 109.50000 418.400000
6741 18599 18600 1 109.50000 418.400000
6742 18599 18600 1 109.50000 418.400000
18599 18600 18601 1 115.00000 209.200000
2540 18602 6901 1 109.50000 418.400000
2540 18602 11148 1 109.50000 418.400000
2540 18602 18603 1 109.50000 418.400000
6901 18602 11148 1 109.50000 418.400000
6901 18602 18603 1 109.50000 418.400000
11148 18602 18603 1 109.50000 418.400000
18602 18603 18604 1 115.00000 209.200000
1717 18605 6926 1 109.50000 418.400000
1717 18605 11152 1 109.50000 418.400000
1717 18605 18606 1 109.50000 418.400000
6926 18605 11152 1 109.50000 418.400000
6926 18605 18606 1 109.50000 418.400000
11152 18605 18606 1 109.50000 418.400000
18605 18606 18607 1 115.00000 209.200000
2240 18608 6978 1 109.50000 418.400000
2240 18608 11273 1 109.50000 418.400000
2240 18608 18609 1 109.50000 418.400000
6978 18608 11273 1 109.50000 418.400000
6978 18608 18609 1 109.50000 418.400000
11273 18608 18609 1 109.50000 418.400000
18608 18609 18610 1 115.00000 209.200000
2043 18611 4814 1 109.50000 418.400000
2043 18611 7001 1 109.50000 418.400000
2043 18611 18612 1 109.50000 418.400000
4814 18611 7001 1 109.50000 418.400000
4814 18611 18612 1 109.50000 418.400000
7001 18611 18612 1 109.50000 418.400000
18611 18612 18613 1 115.00000 209.200000
4938 18614 5866 1 109.50000 418.400000
4938 18614 7098 1 109.50000 418.400000
4938 18614 18615 1 109.50000 418.400000
5866 18614 7098 1 109.50000 418.400000
5866 18614 18615 1 109.50000 418.400000
7098 18614 18615 1 109.50000 418.400000
18614 18615 18616 1 115.00000 209.200000
5039 18617 7141 1 109.50000 418.400000
5039 18617 7142 1 109.50000 418.400000
5039 18617 18618 1 109.50000 418.400000
7141 18617 7142 1 109.50000 418.400000
7141 18617 18618 1 109.50000 418.400000
7142 18617 18618 1 109.50000 418.400000
18617 18618 18619 1 115.00000 209.200000
1455 18620 7180 1 109.50000 418.400000
1455 18620 11324 1 109.50000 418.400000
1455 18620 18621 1 109.50000 418.400000
7180 18620 11324 1 109.50000 418.400000
7180 18620 18621 1 109.50000 418.400000
11324 18620 18621 1 109.50000 418.400000
18620 18621 18622 1 115.00000 209.200000
1291 18623 1684 1 109.50000 418.400000
1291 18623 7198 1 109.50000 418.400000
1291 18623 18624 1 109.50000 418.400000
1684 18623 7198 1 109.50000 418.400000
1684 18623 18624 1 109.50000 418.400000
7198 18623 18624 1 109.50000 418.400000
18623 18624 18625 1 115.00000 209.200000
4455 18626 5146 1 109.50000 418.400000
4455 18626 7217 1 109.50000 418.400000
4455 18626 18627 1 109.50000 418.400000
5146 18626 7217 1 109.50000 418.400000
5146 18626 18627 1 109.50000 418.400000
7217 18626 18627 1 109.50000 418.400000
18626 18627 18628 1 115.00000 209.200000
5736 18629 7301 1 109.50000 418.400000
5736 18629 7302 1 109.50000 418.400000
5736 18629 18630 1 109.50000 418.400000
7301 18629 7302 1 109.50000 418.400000
7301 18629 18630 1 109.50000 418.400000
7302 18629 18630 1 109.50000 418.400000
18629 18630 18631 1 115.00000 209.200000
1110 18632 2651 1 109.50000 418.400000
1110 18632 2690 1 109.50000 418.400000
1110 18632 18633 1 109.50000 418.400000
2651 18632 2690 1 109.50000 418.400000
2651 18632 18633 1 109.50000 418.400000
2690 18632 18633 1 109.50000 418.400000
18632 18633 18634 1 115.00000 209.200000
3148 18635 7375 1 109.50000 418.400000
3148 18635 7376 1 109.50000 418.400000
3148 18635 18636 1 109.50000 418.400000
7375 18635 7376 1 109.50000 418.400000
7375 18635 18636 1 109.50000 418.400000
7376 18635 18636 1 109.50000 418.400000
18635 18636 18637 1 115.00000 209.200000
7399 18638 7400 1 109.50000 418.400000
7399 18638 11343 1 109.50000 418.400000
7399 18638 18639 1 109.50000 418.400000
7400 18638 11343 1 109.50000 418.400000
7400 18638 18639 1 109.50000 418.400000
11343 18638 18639 1 109.50000 418.400000
18638 18639 18640 1 115.00000 209.200000
2746 18641 4785 1 109.50000 418.400000
2746 18641 7497 1 109.50000 418.400000
2746 18641 18642 1 109.50000 418.400000
4785 18641 7497 1 109.50000 418.400000
4785 18641 18642 1 109.50000 418.400000
7497 18641 18642 1 109.50000 418.400000
18641 18642 18643 1 115.00000 209.200000
5834 18644 7510 1 109.50000 418.400000
5834 18644 11277 1 109.50000 418.400000
5834 18644 18645 1 109.50000 418.400000
7510 18644 11277 1 109.50000 418.400000
7510 18644 18645 1 109.50000 418.400000
11277 18644 18645 1 109.50000 418.400000
18644 18645 18646 1 115.00000 209.200000
6486 18647 7363 1 109.50000 418.400000
6486 18647 11255 1 109.50000 418.400000
6486 18647 18648 1 109.50000 418.400000
7363 18647 11255 1 109.50000 418.400000
7363 18647 18648 1 109.50000 418.400000
11255 18647 18648 1 109.50000 418.400000
18647 18648 18649 1 115.00000 209.200000
3189 18650 6057 1 109.50000 418.400000
3189 18650 11139 1 109.50000 418.400000
3189 18650 18651 1 109.50000 418.400000
6057 18650 11139 1 109.50000 418.400000
6057 18650 18651 1 109.50000 418.400000
11139 18650 18651 1 109.50000 418.400000
18650 18651 18652 1 115.00000 209.200000
3035 18653 7636 1 109.50000 418.400000
3035 18653 11176 1 109.50000 418.400000
3035 18653 18654 1 109.50000 418.400000
7636 18653 11176 1 109.50000 418.400000
7636 18653 18654 1 109.50000 418.400000
11176 18653 18654 1 109.50000 418.400000
18653 18654 18655 1 115.00000 209.200000
7661 18656 7662 1 109.50000 418.400000
7661 18656 11232 1 109.50000 418.400000
7661 18656 18657 1 109.50000 418.400000
7662 18656 11232 1 109.50000 418.400000
7662 18656 18657 1 109.50000 418.400000
11232 18656 18657 1 109.50000 418.400000
18656 18657 18658 1 115.00000 209.200000
5261 18659 7664 1 109.50000 418.400000
5261 18659 11318 1 109.50000 418.400000
5261 18659 18660 1 109.50000 418.400000
7664 18659 11318 1 109.50000 418.400000
7664 18659 18660 1 109.50000 418.400000
11318 18659 18660 1 109.50000 418.400000
18659 18660 18661 1 115.00000 209.200000
6379 18662 7686 1 109.50000 418.400000
6379 18662 11328 1 109.50000 418.400000
6379 18662 18663 1 109.50000 418.400000
7686 18662 11328 1 109.50000 418.400000
7686 18662 18663 1 109.50000 418.400000
11328 18662 18663 1 109.50000 418.400000
18662 18663 18664 1 115.00000 209.200000
5041 18665 7687 1 109.50000 418.400000
5041 18665 7688 1 109.50000 418.400000
5041 18665 18666 1 109.50000 418.400000
7687 18665 7688 1 109.50000 418.400000
7687 18665 18666 1 109.50000 418.400000
7688 18665 18666 1 109.50000 418.400000
18665 18666 18667 1 115.00000 209.200000
6364 18668 7769 1 109.50000 418.400000
6364 18668 7770 1 109.50000 418.400000
6364 18668 18669 1 109.50000 418.400000
7769 18668 7770 1 109.50000 418.400000
7769 18668 18669 1 109.50000 418.400000
7770 18668 18669 1 109.50000 418.400000
18668 18669 18670 1 115.00000 209.200000
7843 18671 7844 1 109.50000 418.400000
7843 18671 7845 1 109.50000 418.400000
7843 18671 18672 1 109.50000 418.400000
7844 18671 7845 1 109.50000 418.400000
7844 18671 18672 1 109.50000 418.400000
7845 18671 18672 1 109.50000 418.400000
18671 18672 18673 1 115.00000 209.200000
2419 18674 3922 1 109.50000 418.400000
2419 18674 7908 1 109.50000 418.400000
2419 18674 18675 1 109.50000 418.400000
3922 18674 7908 1 109.50000 418.400000
3922 18674 18675 1 109.50000 418.400000
7908 18674 18675 1 109.50000 418.400000
18674 18675 18676 1 115.00000 209.200000
6646 18677 8043 1 109.50000 418.400000
6646 18677 11293 1 109.50000 418.400000
6646 18677 18678 1 109.50000 418.400000
8043 18677 11293 1 109.50000 418.400000
8043 18677 18678 1 109.50000 418.400000
11293 18677 18678 1 109.50000 418.400000
18677 18678 18679 1 115.00000 209.200000
4216 18680 8058 1 109.50000 418.400000
4216 18680 8059 1 109.50000 418.400000
4216 18680 18681 1 109.50000 418.400000
8058 18680 8059 1 109.50000 418.400000
8058 18680 18681 1 109.50000 418.400000
8059 18680 18681 1 109.50000 418.400000
18680 18681 18682 1 115.00000 209.200000
8091 18683 8092 1 109.50000 418.400000
8091 18683 8093 1 109.50000 418.400000
8091 18683 18684 1 109.50000 418.400000
8092 18683 8093 1 109.50000 418.400000
8092 18683 18684 1 109.50000 418.400000
8093 18683 18684 1 109.50000 418.400000
18683 18684 18685 1 115.00000 209.200000
7364 18686 7762 1 109.50000 418.400000
7364 18686 7763 1 109.50000 418.400000
7364 18686 18687 1 109.50000 418.400000
7762 18686 7763 1 109.50000 418.400000
7762 18686 18687 1 109.50000 418.400000
7763 18686 18687 1 109.50000 418.400000
18686 18687 18688 1 115.00000 209.200000
2177 18689 4737 1 109.50000 418.400000
2177 18689 8153 1 109.50000 418.400000
2177 18689 18690 1 109.50000 418.400000
4737 18689 8153 1 109.50000 418.400000
4737 18689 18690 1 109.50000 418.400000
8153 18689 18690 1 109.50000 418.400000
18689 18690 18691 1 115.00000 209.200000
5717 18692 7910 1 109.50000 418.400000
5717 18692 8221 1 109.50000 418.400000
5717 18692 18693 1 109.50000 418.400000
7910 18692 8221 1 109.50000 418.400000
7910 18692 18693 1 109.50000 418.400000
8221 18692 18693 1 109.50000 418.400000
18692 18693 18694 1 115.00000 209.200000
5352 18695 8237 1 109.50000 418.400000
5352 18695 8373 1 109.50000 418.400000
5352 18695 18696 1 109.50000 418.400000
8237 18695 8373 1 109.50000 418.400000
8237 18695 18696 1 109.50000 418.400000
8373 18695 18696 1 109.50000 418.400000
18695 18696 18697 1 115.00000 209.200000
1742 18698 4270 1 109.50000 418.400000
1742 18698 11234 1 109.50000 418.400000
1742 18698 18699 1 109.50000 418.400000
4270 18698 11234 1 109.50000 418.400000
4270 18698 18699 1 109.50000 418.400000
11234 18698 18699 1 109.50000 418.400000
18698 18699 18700 1 115.00000 209.200000
2587 18701 5183 1 109.50000 418.400000
2587 18701 8262 1 109.50000 418.400000
2587 18701 18702 1 109.50000 418.400000
5183 18701 8262 1 109.50000 418.400000
5183 18701 18702 1 109.50000 418.400000
8262 18701 18702 1 109.50000 418.400000
18701 18702 18703 1 115.00000 209.200000
5299 18704 6666 1 109.50000 418.400000
5299 18704 8298 1 109.50000 418.400000
5299 18704 18705 1 109.50000 418.400000
6666 18704 8298 1 109.50000 418.400000
6666 18704 18705 1 109.50000 418.400000
8298 18704 18705 1 109.50000 418.400000
18704 18705 18706 1 115.00000 209.200000
5998 18707 7217 1 109.50000 418.400000
5998 18707 8354 1 109.50000 418.400000
5998 18707 18708 1 109.50000 418.400000
7217 18707 8354 1 109.50000 418.400000
7217 18707 18708 1 109.50000 418.400000
8354 18707 18708 1 109.50000 418.400000
18707 18708 18709 1 115.00000 209.200000
943 18710 8371 1 109.50000 418.400000
943 18710 11389 1 109.50000 418.400000
943 18710 18711 1 109.50000 418.400000
8371 18710 11389 1 109.50000 418.400000
8371 18710 18711 1 109.50000 418.400000
11389 18710 18711 1 109.50000 418.400000
18710 18711 18712 1 115.00000 209.200000
1137 18713 4896 1 109.50000 418.400000
1137 18713 8492 1 109.50000 418.400000
1137 18713 18714 1 109.50000 418.400000
4896 18713 8492 1 109.50000 418.400000
4896 18713 18714 1 109.50000 418.400000
8492 18713 18714 1 109.50000 418.400000
18713 18714 18715 1 115.00000 209.200000
1701 18716 4553 1 109.50000 418.400000
1701 18716 8520 1 109.50000 418.400000
1701 18716 18717 1 109.50000 418.400000
4553 18716 8520 1 109.50000 418.400000
4553 18716 18717 1 109.50000 418.400000
8520 18716 18717 1 109.50000 418.400000
18716 18717 18718 1 115.00000 209.200000
46 18719 5848 1 109.50000 418.400000
46 18719 11246 1 109.50000 418.400000
46 18719 18720 1 109.50000 418.400000
5848 18719 11246 1 109.50000 418.400000
5848 18719 18720 1 109.50000 418.400000
11246 18719 18720 1 109.50000 418.400000
18719 18720 18721 1 115.00000 209.200000
5440 18722 8573 1 109.50000 418.400000
5440 18722 8574 1 109.50000 418.400000
5440 18722 18723 1 109.50000 418.400000
8573 18722 8574 1 109.50000 418.400000
8573 18722 18723 1 109.50000 418.400000
8574 18722 18723 1 109.50000 418.400000
18722 18723 18724 1 115.00000 209.200000
4281 18725 8621 1 109.50000 418.400000
4281 18725 11250 1 109.50000 418.400000
4281 18725 18726 1 109.50000 418.400000
8621 18725 11250 1 109.50000 418.400000
8621 18725 18726 1 109.50000 418.400000
11250 18725 18726 1 109.50000 418.400000
18725 18726 18727 1 115.00000 209.200000
6899 18728 8647 1 109.50000 418.400000
6899 18728 8648 1 109.50000 418.400000
6899 18728 18729 1 109.50000 418.400000
8647 18728 8648 1 109.50000 418.400000
8647 18728 18729 1 109.50000 418.400000
8648 18728 18729 1 109.50000 418.400000
18728 18729 18730 1 115.00000 209.200000
3518 18731 8731 1 109.50000 418.400000
3518 18731 8732 1 109.50000 418.400000
3518 18731 18732 1 109.50000 418.400000
8731 18731 8732 1 109.50000 418.400000
8731 18731 18732 1 109.50000 418.400000
8732 18731 18732 1 109.50000 418.400000
18731 18732 18733 1 115.00000 209.200000
2009 18734 5572 1 109.50000 418.400000
2009 18734 6924 1 109.50000 418.400000
2009 18734 18735 1 109.50000 418.400000
5572 18734 6924 1 109.50000 418.400000
5572 18734 18735 1 109.50000 418.400000
6924 18734 18735 1 109.50000 418.400000
18734 18735 18736 1 115.00000 209.200000
6932 18737 8760 1 109.50000 418.400000
6932 18737 8761 1 109.50000 418.400000
6932 18737 18738 1 109.50000 418.400000
8760 18737 8761 1 109.50000 418.400000
8760 18737 18738 1 109.50000 418.400000
8761 18737 18738 1 109.50000 418.400000
18737 18738 18739 1 115.00000 209.200000
1772 18740 7302 1 109.50000 418.400000
1772 18740 11303 1 109.50000 418.400000
1772 18740 18741 1 109.50000 418.400000
7302 18740 11303 1 109.50000 418.400000
7302 18740 18741 1 109.50000 418.400000
11303 18740 18741 1 109.50000 418.400000
18740 18741 18742 1 115.00000 209.200000
7218 18743 8371 1 109.50000 418.400000
7218 18743 8813 1 109.50000 418.400000
7218 18743 18744 1 109.50000 418.400000
8371 18743 8813 1 109.50000 418.400000
8371 18743 18744 1 109.50000 418.400000
8813 18743 18744 1 109.50000 418.400000
18743 18744 18745 1 115.00000 209.200000
7286 18746 8822 1 109.50000 418.400000
7286 18746 11161 1 109.50000 418.400000
7286 18746 18747 1 109.50000 418.400000
8822 18746 11161 1 109.50000 418.400000
8822 18746 18747 1 109.50000 418.400000
11161 18746 18747 1 109.50000 418.400000
18746 18747 18748 1 115.00000 209.200000
4419 18749 4577 1 109.50000 418.400000
4419 18749 11313 1 109.50000 418.400000
4419 18749 18750 1 109.50000 418.400000
4577 18749 11313 1 109.50000 418.400000
4577 18749 18750 1 109.50000 418.400000
11313 18749 18750 1 109.50000 418.400000
18749 18750 18751 1 115.00000 209.200000
3922 18752 3923 1 109.50000 418.400000
3922 18752 8923 1 109.50000 418.400000
3922 18752 18753 1 109.50000 418.400000
3923 18752 8923 1 109.50000 418.400000
3923 18752 18753 1 109.50000 418.400000
8923 18752 18753 1 109.50000 418.400000
18752 18753 18754 1 115.00000 209.200000
5054 18755 8928 1 109.50000 418.400000
5054 18755 11219 1 109.50000 418.400000
5054 18755 18756 1 109.50000 418.400000
8928 18755 11219 1 109.50000 418.400000
8928 18755 18756 1 109.50000 418.400000
11219 18755 18756 1 109.50000 418.400000
18755 18756 18757 1 115.00000 209.200000
6310 18758 6568 1 109.50000 418.400000
6310 18758 8942 1 109.50000 418.400000
6310 18758 18759 1 109.50000 418.400000
6568 18758 8942 1 109.50000 418.400000
6568 18758 18759 1 109.50000 418.400000
8942 18758 18759 1 109.50000 418.400000
18758 18759 18760 1 115.00000 209.200000
3333 18761 3930 1 109.50000 418.400000
3333 18761 8975 1 109.50000 418.400000
3333 18761 18762 1 109.50000 418.400000
3930 18761 8975 1 109.50000 418.400000
3930 18761 18762 1 109.50000 418.400000
8975 18761 18762 1 109.50000 418.400000
18761 18762 18763 1 115.00000 209.200000
5133 18764 9067 1 109.50000 418.400000
5133 18764 11354 1 109.50000 418.400000
5133 18764 18765 1 109.50000 418.400000
9067 18764 11354 1 109.50000 418.400000
9067 18764 18765 1 109.50000 418.400000
11354 18764 18765 1 109.50000 418.400000
18764 18765 18766 1 115.00000 209.200000
74 18767 9103 1 109.50000 418.400000
74 18767 9104 1 109.50000 418.400000
74 18767 18768 1 109.50000 418.400000
9103 18767 9104 1 109.50000 418.400000
9103 18767 18768 1 109.50000 418.400000
9104 18767 18768 1 109.50000 418.400000
18767 18768 18769 1 115.00000 209.200000
3223 18770 9139 1 109.50000 418.400000
3223 18770 9140 1 109.50000 418.400000
3223 18770 18771 1 109.50000 418.400000
9139 18770 9140 1 109.50000 418.400000
9139 18770 18771 1 109.50000 418.400000
9140 18770 18771 1 109.50000 418.400000
18770 18771 18772 1 115.00000 209.200000
3880 18773 9143 1 109.50000 418.400000
3880 18773 9144 1 109.50000 418.400000
3880 18773 18774 1 109.50000 418.400000
9143 18773 9144 1 109.50000 418.400000
9143 18773 18774 1 109.50000 418.400000
9144 18773 18774 1 109.50000 418.400000
18773 18774 18775 1 115.00000 209.200000
4391 18776 4392 1 109.50000 418.400000
4391 18776 7180 1 109.50000 418.400000
4391 18776 18777 1 109.50000 418.400000
4392 18776 7180 1 109.50000 418.400000
4392 18776 18777 1 109.50000 418.400000
7180 18776 18777 1 109.50000 418.400000
18776 18777 18778 1 115.00000 209.200000
3540 18779 9193 1 109.50000 418.400000
3540 18779 11230 1 109.50000 418.400000
3540 18779 18780 1 109.50000 418.400000
9193 18779 11230 1 109.50000 418.400000
9193 18779 18780 1 109.50000 418.400000
11230 18779 18780 1 109.50000 418.400000
18779 18780 18781 1 115.00000 209.200000
4691 18782 5963 1 109.50000 418.400000
4691 18782 5965 1 109.50000 418.400000
4691 18782 18783 1 109.50000 418.400000
5963 18782 5965 1 109.50000 418.400000
5963 18782 18783 1 109.50000 418.400000
5965 18782 18783 1 109.50000 418.400000
18782 18783 18784 1 115.00000 209.200000
4515 18785 8601 1 109.50000 418.400000
4515 18785 9276 1 109.50000 418.400000
4515 18785 18786 1 109.50000 418.400000
8601 18785 9276 1 109.50000 418.400000
8601 18785 18786 1 109.50000 418.400000
9276 18785 18786 1 109.50000 418.400000
18785 18786 18787 1 115.00000 209.200000
3220 18788 8389 1 109.50000 418.400000
3220 18788 9286 1 109.50000 418.400000
3220 18788 18789 1 109.50000 418.400000
8389 18788 9286 1 109.50000 418.400000
8389 18788 18789 1 109.50000 418.400000
9286 18788 18789 1 109.50000 418.400000
18788 18789 18790 1 115.00000 209.200000
6737 18791 9405 1 109.50000 418.400000
6737 18791 11169 1 109.50000 418.400000
6737 18791 18792 1 109.50000 418.400000
9405 18791 11169 1 109.50000 418.400000
9405 18791 18792 1 109.50000 418.400000
11169 18791 18792 1 109.50000 418.400000
18791 18792 18793 1 115.00000 209.200000
4811 18794 9464 1 109.50000 418.400000
4811 18794 11235 1 109.50000 418.400000
4811 18794 18795 1 109.50000 418.400000
9464 18794 11235 1 109.50000 418.400000
9464 18794 18795 1 109.50000 418.400000
11235 18794 18795 1 109.50000 418.400000
18794 18795 18796 1 115.00000 209.200000
8658 18797 9601 1 109.50000 418.400000
8658 18797 9602 1 109.50000 418.400000
8658 18797 18798 1 109.50000 418.400000
9601 18797 9602 1 109.50000 418.400000
9601 18797 18798 1 109.50000 418.400000
9602 18797 18798 1 109.50000 418.400000
18797 18798 18799 1 115.00000 209.200000
8483 18800 9270 1 109.50000 418.400000
8483 18800 9271 1 109.50000 418.400000
8483 18800 18801 1 109.50000 418.400000
9270 18800 9271 1 109.50000 418.400000
9270 18800 18801 1 109.50000 418.400000
9271 18800 18801 1 109.50000 418.400000
18800 18801 18802 1 115.00000 209.200000
6533 18803 9458 1 109.50000 418.400000
6533 18803 9683 1 109.50000 418.400000
6533 18803 18804 1 109.50000 418.400000
9458 18803 9683 1 109.50000 418.400000
9458 18803 18804 1 109.50000 418.400000
9683 18803 18804 1 109.50000 418.400000
18803 18804 18805 1 115.00000 209.200000
314 18806 6889 1 109.50000 418.400000
314 18806 9690 1 109.50000 418.400000
314 18806 18807 1 109.50000 418.400000
6889 18806 9690 1 109.50000 418.400000
6889 18806 18807 1 109.50000 418.400000
9690 18806 18807 1 109.50000 418.400000
18806 18807 18808 1 115.00000 209.200000
1237 18809 4076 1 109.50000 418.400000
1237 18809 5414 1 109.50000 418.400000
1237 18809 18810 1 109.50000 418.400000
4076 18809 5414 1 109.50000 418.400000
4076 18809 18810 1 109.50000 418.400000
5414 18809 18810 1 109.50000 418.400000
18809 18810 18811 1 115.00000 209.200000
5173 18812 9032 1 109.50000 418.400000
5173 18812 11258 1 109.50000 418.400000
5173 18812 18813 1 109.50000 418.400000
9032 18812 11258 1 109.50000 418.400000
9032 18812 18813 1 109.50000 418.400000
11258 18812 18813 1 109.50000 418.400000
18812 18813 18814 1 115.00000 209.200000
783 18815 3119 1 109.50000 418.400000
783 18815 6172 1 109.50000 418.400000
783 18815 18816 1 109.50000 418.400000
3119 18815 6172 1 109.50000 418.400000
3119 18815 18816 1 109.50000 418.400000
6172 18815 18816 1 109.50000 418.400000
18815 18816 18817 1 115.00000 209.200000
1756 18818 4773 1 109.50000 418.400000
1756 18818 6307 1 109.50000 418.400000
1756 18818 18819 1 109.50000 418.400000
4773 18818 6307 1 109.50000 418.400000
4773 18818 18819 1 109.50000 418.400000
6307 18818 18819 1 109.50000 418.400000
18818 18819 18820 1 115.00000 209.200000
1926 18821 1927 1 109.50000 418.400000
1926 18821 9824 1 109.50000 418.400000
1926 18821 18822 1 109.50000 418.400000
1927 18821 9824 1 109.50000 418.400000
1927 18821 18822 1 109.50000 418.400000
9824 18821 18822 1 109.50000 418.400000
18821 18822 18823 1 115.00000 209.200000
2047 18824 5230 1 109.50000 418.400000
2047 18824 6643 1 109.50000 418.400000
2047 18824 18825 1 109.50000 418.400000
5230 18824 6643 1 109.50000 418.400000
5230 18824 18825 1 109.50000 418.400000
6643 18824 18825 1 109.50000 418.400000
18824 18825 18826 1 115.00000 209.200000
6314 18827 6615 1 109.50000 418.400000
6314 18827 8111 1 109.50000 418.400000
6314 18827 18828 1 109.50000 418.400000
6615 18827 8111 1 109.50000 418.400000
6615 18827 18828 1 109.50000 418.400000
8111 18827 18828 1 109.50000 418.400000
18827 18828 18829 1 115.00000 209.200000
9423 18830 9962 1 109.50000 418.400000
9423 18830 9963 1 109.50000 418.400000
9423 18830 18831 1 109.50000 418.400000
9962 18830 9963 1 109.50000 418.400000
9962 18830 18831 1 109.50000 418.400000
9963 18830 18831 1 109.50000 418.400000
18830 18831 18832 1 115.00000 209.200000
5437 18833 8438 1 109.50000 418.400000
5437 18833 11351 1 109.50000 418.400000
5437 18833 18834 1 109.50000 418.400000
8438 18833 11351 1 109.50000 418.400000
8438 18833 18834 1 109.50000 418.400000
11351 18833 18834 1 109.50000 418.400000
18833 18834 18835 1 115.00000 209.200000
7981 18836 9990 1 109.50000 418.400000
7981 18836 11315 1 109.50000 418.400000
7981 18836 18837 1 109.50000 418.400000
9990 18836 11315 1 109.50000 418.400000
9990 18836 18837 1 109.50000 418.400000
11315 18836 18837 1 109.50000 418.400000
18836 18837 18838 1 115.00000 209.200000
6746 18839 7114 1 109.50000 418.400000
6746 18839 10030 1 109.50000 418.400000
6746 18839 18840 1 109.50000 418.400000
7114 18839 10030 1 109.50000 418.400000
7114 18839 18840 1 109.50000 418.400000
10030 18839 18840 1 109.50000 418.400000
18839 18840 18841 1 115.00000 209.200000
7546 18842 9792 1 109.50000 418.400000
7546 18842 10051 1 109.50000 418.400000
7546 18842 18843 1 109.50000 418.400000
9792 18842 10051 1 109.50000 418.400000
9792 18842 18843 1 109.50000 418.400000
10051 18842 18843 1 109.50000 418.400000
18842 18843 18844 1 115.00000 209.200000
9284 18845 10085 1 109.50000 418.400000
9284 18845 10086 1 109.50000 418.400000
9284 18845 18846 1 109.50000 418.400000
10085 18845 10086 1 109.50000 418.400000
10085 18845 18846 1 109.50000 418.400000
10086 18845 18846 1 109.50000 418.400000
18845 18846 18847 1 115.00000 209.200000
3345 18848 4952 1 109.50000 418.400000
3345 18848 10104 1 109.50000 418.400000
3345 18848 18849 1 109.50000 418.400000
4952 18848 10104 1 109.50000 418.400000
4952 18848 18849 1 109.50000 418.400000
10104 18848 18849 1 109.50000 418.400000
18848 18849 18850 1 115.00000 209.200000
2700 18851 4994 1 109.50000 418.400000
2700 18851 10121 1 109.50000 418.400000
2700 18851 18852 1 109.50000 418.400000
4994 18851 10121 1 109.50000 418.400000
4994 18851 18852 1 109.50000 418.400000
10121 18851 18852 1 109.50000 418.400000
18851 18852 18853 1 115.00000 209.200000
6892 18854 8331 1 109.50000 418.400000
6892 18854 11226 1 109.50000 418.400000
6892 18854 18855 1 109.50000 418.400000
8331 18854 11226 1 109.50000 418.400000
8331 18854 18855 1 109.50000 418.400000
11226 18854 18855 1 109.50000 418.400000
18854 18855 18856 1 115.00000 209.200000
2099 18857 10012 1 109.50000 418.400000
2099 18857 10165 1 109.50000 418.400000
2099 18857 18858 1 109.50000 418.400000
10012 18857 10165 1 109.50000 418.400000
10012 18857 18858 1 109.50000 418.400000
10165 18857 18858 1 109.50000 418.400000
18857 18858 18859 1 115.00000 209.200000
7661 18860 7663 1 109.50000 418.400000
7661 18860 10213 1 109.50000 418.400000
7661 18860 18861 1 109.50000 418.400000
7663 18860 10213 1 109.50000 418.400000
7663 18860 18861 1 109.50000 418.400000
10213 18860 18861 1 109.50000 418.400000
18860 18861 18862 1 115.00000 209.200000
2667 18863 7851 1 109.50000 418.400000
2667 18863 10230 1 109.50000 418.400000
2667 18863 18864 1 109.50000 418.400000
7851 18863 10230 1 109.50000 418.400000
7851 18863 18864 1 109.50000 418.400000
10230 18863 18864 1 109.50000 418.400000
18863 18864 18865 1 115.00000 209.200000
8985 18866 10238 1 109.50000 418.400000
8985 18866 10239 1 109.50000 418.400000
8985 18866 18867 1 109.50000 418.400000
10238 18866 10239 1 109.50000 418.400000
10238 18866 18867 1 109.50000 418.400000
10239 18866 18867 1 109.50000 418.400000
18866 18867 18868 1 115.00000 209.200000
3995 18869 6071 1 109.50000 418.400000
3995 18869 10265 1 109.50000 418.400000
3995 18869 18870 1 109.50000 418.400000
6071 18869 10265 1 109.50000 418.400000
6071 18869 18870 1 109.50000 418.400000
10265 18869 18870 1 109.50000 418.400000
18869 18870 18871 1 115.00000 209.200000
1634 18872 6000 1 109.50000 418.400000
1634 18872 9904 1 109.50000 418.400000
1634 18872 18873 1 109.50000 418.400000
6000 18872 9904 1 109.50000 418.400000
6000 18872 18873 1 109.50000 418.400000
9904 18872 18873 1 109.50000 418.400000
18872 18873 18874 1 115.00000 209.200000
4623 18875 5297 1 109.50000 418.400000
4623 18875 8375 1 109.50000 418.400000
4623 18875 18876 1 109.50000 418.400000
5297 18875 8375 1 109.50000 418.400000
5297 18875 18876 1 109.50000 418.400000
8375 18875 18876 1 109.50000 418.400000
18875 18876 18877 1 115.00000 209.200000
3927 18878 4809 1 109.50000 418.400000
3927 18878 5287 1 109.50000 418.400000
3927 18878 18879 1 109.50000 418.400000
4809 18878 5287 1 109.50000 418.400000
4809 18878 18879 1 109.50000 418.400000
5287 18878 18879 1 109.50000 418.400000
18878 18879 18880 1 115.00000 209.200000
10086 18881 10159 1 109.50000 418.400000
10086 18881 10357 1 109.50000 418.400000
10086 18881 18882 1 109.50000 418.400000
10159 18881 10357 1 109.50000 418.400000
10159 18881 18882 1 109.50000 418.400000
10357 18881 18882 1 109.50000 418.400000
18881 18882 18883 1 115.00000 209.200000
9456 18884 10397 1 109.50000 418.400000
9456 18884 11153 1 109.50000 418.400000
9456 18884 18885 1 109.50000 418.400000
10397 18884 11153 1 109.50000 418.400000
10397 18884 18885 1 109.50000 418.400000
11153 18884 18885 1 109.50000 418.400000
18884 18885 18886 1 115.00000 209.200000
10435 18887 10436 1 109.50000 418.400000
10435 18887 10836 1 109.50000 418.400000
10435 18887 18888 1 109.50000 418.400000
10436 18887 10836 1 109.50000 418.400000
10436 18887 18888 1 109.50000 418.400000
10836 18887 18888 1 109.50000 418.400000
18887 18888 18889 1 115.00000 209.200000
4057 18890 10441 1 109.50000 418.400000
4057 18890 10442 1 109.50000 418.400000
4057 18890 18891 1 109.50000 418.400000
10441 18890 10442 1 109.50000 418.400000
10441 18890 18891 1 109.50000 418.400000
10442 18890 18891 1 109.50000 418.400000
18890 18891 18892 1 115.00000 209.200000
793 18893 10034 1 109.50000 418.400000
793 18893 10463 1 109.50000 418.400000
793 18893 18894 1 109.50000 418.400000
10034 18893 10463 1 109.50000 418.400000
10034 18893 18894 1 109.50000 418.400000
10463 18893 18894 1 109.50000 418.400000
18893 18894 18895 1 115.00000 209.200000
1715 18896 7141 1 109.50000 418.400000
1715 18896 8493 1 109.50000 418.400000
1715 18896 18897 1 109.50000 418.400000
7141 18896 8493 1 109.50000 418.400000
7141 18896 18897 1 109.50000 418.400000
8493 18896 18897 1 109.50000 418.400000
18896 18897 18898 1 115.00000 209.200000
1970 18899 3493 1 109.50000 418.400000
1970 18899 6263 1 109.50000 418.400000
1970 18899 18900 1 109.50000 418.400000
3493 18899 6263 1 109.50000 418.400000
3493 18899 18900 1 109.50000 418.400000
6263 18899 18900 1 109.50000 418.400000
18899 18900 18901 1 115.00000 209.200000
3740 18902 6089 1 109.50000 418.400000
3740 18902 10572 1 109.50000 418.400000
3740 18902 18903 1 109.50000 418.400000
6089 18902 10572 1 109.50000 418.400000
6089 18902 18903 1 109.50000 418.400000
10572 18902 18903 1 109.50000 418.400000
18902 18903 18904 1 115.00000 209.200000
1040 18905 7285 1 109.50000 418.400000
1040 18905 10587 1 109.50000 418.400000
1040 18905 18906 1 109.50000 418.400000
7285 18905 10587 1 109.50000 418.400000
7285 18905 18906 1 109.50000 418.400000
10587 18905 18906 1 109.50000 418.400000
18905 18906 18907 1 115.00000 209.200000
5991 18908 10515 1 109.50000 418.400000
5991 18908 10591 1 109.50000 418.400000
5991 18908 18909 1 109.50000 418.400000
10515 18908 10591 1 109.50000 418.400000
10515 18908 18909 1 109.50000 418.400000
10591 18908 18909 1 109.50000 418.400000
18908 18909 18910 1 115.00000 209.200000
4050 18911 10033 1 109.50000 418.400000
4050 18911 11359 1 109.50000 418.400000
4050 18911 18912 1 109.50000 418.400000
10033 18911 11359 1 109.50000 418.400000
10033 18911 18912 1 109.50000 418.400000
11359 18911 18912 1 109.50000 418.400000
18911 18912 18913 1 115.00000 209.200000
10409 18914 10694 1 109.50000 418.400000
10409 18914 11380 1 109.50000 418.400000
10409 18914 18915 1 109.50000 418.400000
10694 18914 11380 1 109.50000 418.400000
10694 18914 18915 1 109.50000 418.400000
11380 18914 18915 1 109.50000 418.400000
18914 18915 18916 1 115.00000 209.200000
8938 18917 9991 1 109.50000 418.400000
8938 18917 11331 1 109.50000 418.400000
8938 18917 18918 1 109.50000 418.400000
9991 18917 11331 1 109.50000 418.400000
9991 18917 18918 1 109.50000 418.400000
11331 18917 18918 1 109.50000 418.400000
18917 18918 18919 1 115.00000 209.200000
1382 18920 10701 1 109.50000 418.400000
1382 18920 11276 1 109.50000 418.400000
1382 18920 18921 1 109.50000 418.400000
10701 18920 11276 1 109.50000 418.400000
10701 18920 18921 1 109.50000 418.400000
11276 18920 18921 1 109.50000 418.400000
18920 18921 18922 1 115.00000 209.200000
6843 18923 8621 1 109.50000 418.400000
6843 18923 9766 1 109.50000 418.400000
6843 18923 18924 1 109.50000 418.400000
8621 18923 9766 1 109.50000 418.400000
8621 18923 18924 1 109.50000 418.400000
9766 18923 18924 1 109.50000 418.400000
18923 18924 18925 1 115.00000 209.200000
6452 18926 9581 1 109.50000 418.400000
6452 18926 10744 1 109.50000 418.400000
6452 18926 18927 1 109.50000 418.400000
9581 18926 10744 1 109.50000 418.400000
9581 18926 18927 1 109.50000 418.400000
10744 18926 18927 1 109.50000 418.400000
18926 18927 18928 1 115.00000 209.200000
792 18929 5442 1 109.50000 418.400000
792 18929 9504 1 109.50000 418.400000
792 18929 18930 1 109.50000 418.400000
5442 18929 9504 1 109.50000 418.400000
5442 18929 18930 1 109.50000 418.400000
9504 18929 18930 1 109.50000 418.400000
18929 18930 18931 1 115.00000 209.200000
1327 18932 10140 1 109.50000 418.400000
1327 18932 11233 1 109.50000 418.400000
1327 18932 18933 1 109.50000 418.400000
10140 18932 11233 1 109.50000 418.400000
10140 18932 18933 1 109.50000 418.400000
11233 18932 18933 1 109.50000 418.400000
18932 18933 18934 1 115.00000 209.200000
937 18935 6733 1 109.50000 418.400000
937 18935 9652 1 109.50000 418.400000
937 18935 18936 1 109.50000 418.400000
6733 18935 9652 1 109.50000 418.400000
6733 18935 18936 1 109.50000 418.400000
9652 18935 18936 1 109.50000 418.400000
18935 18936 18937 1 115.00000 209.200000
2569 18938 9993 1 109.50000 418.400000
2569 18938 10450 1 109.50000 418.400000
2569 18938 18939 1 109.50000 418.400000
9993 18938 10450 1 109.50000 418.400000
9993 18938 18939 1 109.50000 418.400000
10450 18938 18939 1 109.50000 418.400000
18938 18939 18940 1 115.00000 209.200000
357 18941 6595 1 109.50000 418.400000
357 18941 10790 1 109.50000 418.400000
357 18941 18942 1 109.50000 418.400000
6595 18941 10790 1 109.50000 418.400000
6595 18941 18942 1 109.50000 418.400000
10790 18941 18942 1 109.50000 418.400000
18941 18942 18943 1 115.00000 209.200000
1259 18944 10795 1 109.50000 418.400000
1259 18944 11151 1 109.50000 418.400000
1259 18944 18945 1 109.50000 418.400000
10795 18944 11151 1 109.50000 418.400000
10795 18944 18945 1 109.50000 418.400000
11151 18944 18945 1 109.50000 418.400000
18944 18945 18946 1 115.00000 209.200000
417 18947 9344 1 109.50000 418.400000
417 18947 10804 1 109.50000 418.400000
417 18947 18948 1 109.50000 418.400000
9344 18947 10804 1 109.50000 418.400000
9344 18947 18948 1 109.50000 418.400000
10804 18947 18948 1 109.50000 418.400000
18947 18948 18949 1 115.00000 209.200000
6517 18950 6519 1 109.50000 418.400000
6517 18950 7094 1 109.50000 418.400000
6517 18950 18951 1 109.50000 418.400000
6519 18950 7094 1 109.50000 418.400000
6519 18950 18951 1 109.50000 418.400000
7094 18950 18951 1 109.50000 418.400000
18950 18951 18952 1 115.00000 209.200000
9549 18953 10821 1 109.50000 418.400000
9549 18953 10822 1 109.50000 418.400000
9549 18953 18954 1 109.50000 418.400000
10821 18953 10822 1 109.50000 418.400000
10821 18953 18954 1 109.50000 418.400000
10822 18953 18954 1 109.50000 418.400000
18953 18954 18955 1 115.00000 209.200000
2493 18956 10813 1 109.50000 418.400000
2493 18956 10827 1 109.50000 418.400000
2493 18956 18957 1 109.50000 418.400000
10813 18956 10827 1 109.50000 418.400000
10813 18956 18957 1 109.50000 418.400000
10827 18956 18957 1 109.50000 418.400000
18956 18957 18958 1 115.00000 209.200000
1222 18959 10802 1 109.50000 418.400000
1222 18959 10828 1 109.50000 418.400000
1222 18959 18960 1 109.50000 418.400000
10802 18959 10828 1 109.50000 418.400000
10802 18959 18960 1 109.50000 418.400000
10828 18959 18960 1 109.50000 418.400000
18959 18960 18961 1 115.00000 209.200000
8497 18962 9348 1 109.50000 418.400000
8497 18962 11253 1 109.50000 418.400000
8497 18962 18963 1 109.50000 418.400000
9348 18962 11253 1 109.50000 418.400000
9348 18962 18963 1 109.50000 418.400000
11253 18962 18963 1 109.50000 418.400000
18962 18963 18964 1 115.00000 209.200000
4150 18965 8405 1 109.50000 418.400000
4150 18965 11254 1 109.50000 418.400000
4150 18965 18966 1 109.50000 418.400000
8405 18965 11254 1 109.50000 418.400000
8405 18965 18966 1 109.50000 418.400000
11254 18965 18966 1 109.50000 418.400000
18965 18966 18967 1 115.00000 209.200000
6997 18968 8822 1 109.50000 418.400000
6997 18968 10551 1 109.50000 418.400000
6997 18968 18969 1 109.50000 418.400000
8822 18968 10551 1 109.50000 418.400000
8822 18968 18969 1 109.50000 418.400000
10551 18968 18969 1 109.50000 418.400000
18968 18969 18970 1 115.00000 209.200000
4497 18971 5673 1 109.50000 418.400000
4497 18971 10858 1 109.50000 418.400000
4497 18971 18972 1 109.50000 418.400000
5673 18971 10858 1 109.50000 418.400000
5673 18971 18972 1 109.50000 418.400000
10858 18971 18972 1 109.50000 418.400000
18971 18972 18973 1 115.00000 209.200000
6913 18974 7711 1 109.50000 418.400000
6913 18974 7861 1 109.50000 418.400000
6913 18974 18975 1 109.50000 418.400000
7711 18974 7861 1 109.50000 418.400000
7711 18974 18975 1 109.50000 418.400000
7861 18974 18975 1 109.50000 418.400000
18974 18975 18976 1 115.00000 209.200000
4209 18977 5092 1 109.50000 418.400000
4209 18977 9927 1 109.50000 418.400000
4209 18977 18978 1 109.50000 418.400000
5092 18977 9927 1 109.50000 418.400000
5092 18977 18978 1 109.50000 418.400000
9927 18977 18978 1 109.50000 418.400000
18977 18978 18979 1 115.00000 209.200000
7127 18980 9505 1 109.50000 418.400000
7127 18980 9506 1 109.50000 418.400000
7127 18980 18981 1 109.50000 418.400000
9505 18980 9506 1 109.50000 418.400000
9505 18980 18981 1 109.50000 418.400000
9506 18980 18981 1 109.50000 418.400000
18980 18981 18982 1 115.00000 209.200000
262 18983 9690 1 109.50000 418.400000
262 18983 10891 1 109.50000 418.400000
262 18983 18984 1 109.50000 418.400000
9690 18983 10891 1 109.50000 418.400000
9690 18983 18984 1 109.50000 418.400000
10891 18983 18984 1 109.50000 418.400000
18983 18984 18985 1 115.00000 209.200000
7113 18986 9899 1 109.50000 418.400000
7113 18986 11326 1 109.50000 418.400000
7113 18986 18987 1 109.50000 418.400000
9899 18986 11326 1 109.50000 418.400000
9899 18986 18987 1 109.50000 418.400000
11326 18986 18987 1 109.50000 418.400000
18986 18987 18988 1 115.00000 209.200000
8799 18989 10705 1 109.50000 418.400000
8799 18989 10923 1 109.50000 418.400000
8799 18989 18990 1 109.50000 418.400000
10705 18989 10923 1 109.50000 418.400000
10705 18989 18990 1 109.50000 418.400000
10923 18989 18990 1 109.50000 418.400000
18989 18990 18991 1 115.00000 209.200000
5356 18992 9950 1 109.50000 418.400000
5356 18992 10911 1 109.50000 418.400000
5356 18992 18993 1 109.50000 418.400000
9950 18992 10911 1 109.50000 418.400000
9950 18992 18993 1 109.50000 418.400000
10911 18992 18993 1 109.50000 418.400000
18992 18993 18994 1 115.00000 209.200000
272 18995 6225 1 109.50000 418.400000
272 18995 9827 1 109.50000 418.400000
272 18995 18996 1 109.50000 418.400000
6225 18995 9827 1 109.50000 418.400000
6225 18995 18996 1 109.50000 418.400000
9827 18995 18996 1 109.50000 418.400000
18995 18996 18997 1 115.00000 209.200000
8815 18998 10457 1 109.50000 418.400000
8815 18998 10942 1 109.50000 418.400000
8815 18998 18999 1 109.50000 418.400000
10457 18998 10942 1 109.50000 418.400000
10457 18998 18999 1 109.50000 418.400000
10942 18998 18999 1 109.50000 418.400000
18998 18999 19000 1 115.00000 209.200000
4437 19001 4853 1 109.50000 418.400000
4437 19001 7741 1 109.50000 418.400000
4437 19001 19002 1 109.50000 418.400000
4853 19001 7741 1 109.50000 418.400000
4853 19001 19002 1 109.50000 418.400000
7741 19001 19002 1 109.50000 418.400000
19001 19002 19003 1 115.00000 209.200000
10049 19004 10949 1 109.50000 418.400000
10049 19004 10950 1 109.50000 418.400000
10049 19004 19005 1 109.50000 418.400000
10949 19004 10950 1 109.50000 418.400000
10949 19004 19005 1 109.50000 418.400000
10950 19004 19005 1 109.50000 418.400000
19004 19005 19006 1 115.00000 209.200000
1781 19007 6734 1 109.50000 418.400000
1781 19007 6735 1 109.50000 418.400000
1781 19007 19008 1 109.50000 418.400000
6734 19007 6735 1 109.50000 418.400000
6734 19007 19008 1 109.50000 418.400000
6735 19007 19008 1 109.50000 418.400000
19007 19008 19009 1 115.00000 209.200000
6425 19010 10611 1 109.50000 418.400000
6425 19010 11009 1 109.50000 418.400000
6425 19010 19011 1 109.50000 418.400000
10611 19010 11009 1 109.50000 418.400000
10611 19010 19011 1 109.50000 418.400000
11009 19010 19011 1 109.50000 418.400000
19010 19011 19012 1 115.00000 209.200000
3470 19013 10046 1 109.50000 418.400000
3470 19013 10995 1 109.50000 418.400000
3470 19013 19014 1 109.50000 418.400000
10046 19013 10995 1 109.50000 418.400000
10046 19013 19014 1 109.50000 418.400000
10995 19013 19014 1 109.50000 418.400000
19013 19014 19015 1 115.00000 209.200000
1623 19016 9645 1 109.50000 418.400000
1623 19016 11032 1 109.50000 418.400000
1623 19016 19017 1 109.50000 418.400000
9645 19016 11032 1 109.50000 418.400000
9645 19016 19017 1 109.50000 418.400000
11032 19016 19017 1 109.50000 418.400000
19016 19017 19018 1 115.00000 209.200000
6251 19019 10923 1 109.50000 418.400000
6251 19019 11383 1 109.50000 418.400000
6251 19019 19020 1 109.50000 418.400000
10923 19019 11383 1 109.50000 418.400000
10923 19019 19020 1 109.50000 418.400000
11383 19019 19020 1 109.50000 418.400000
19019 19020 19021 1 115.00000 209.200000
309 19022 938 1 109.50000 418.400000
309 19022 11003 1 109.50000 418.400000
309 19022 19023 1 109.50000 418.400000
938 19022 11003 1 109.50000 418.400000
938 19022 19023 1 109.50000 418.400000
11003 19022 19023 1 109.50000 418.400000
19022 19023 19024 1 115.00000 209.200000
2893 19025 11044 1 109.50000 418.400000
2893 19025 11229 1 109.50000 418.400000
2893 19025 19026 1 109.50000 418.400000
11044 19025 11229 1 109.50000 418.400000
11044 19025 19026 1 109.50000 418.400000
11229 19025 19026 1 109.50000 418.400000
19025 19026 19027 1 115.00000 209.200000
1644 19028 6386 1 109.50000 418.400000
1644 19028 10906 1 109.50000 418.400000
1644 19028 19029 1 109.50000 418.400000
6386 19028 10906 1 109.50000 418.400000
6386 19028 19029 1 109.50000 418.400000
10906 19028 19029 1 109.50000 418.400000
19028 19029 19030 1 115.00000 209.200000
9668 19031 10569 1 109.50000 418.400000
9668 19031 10902 1 109.50000 418.400000
9668 19031 19032 1 109.50000 418.400000
10569 19031 10902 1 109.50000 418.400000
10569 19031 19032 1 109.50000 418.400000
10902 19031 19032 1 109.50000 418.400000
19031 19032 19033 1 115.00000 209.200000
10124 19034 11062 1 109.50000 418.400000
10124 19034 11305 1 109.50000 418.400000
10124 19034 19035 1 109.50000 418.400000
11062 19034 11305 1 109.50000 418.400000
11062 19034 19035 1 109.50000 418.400000
11305 19034 19035 1 109.50000 418.400000
19034 19035 19036 1 115.00000 209.200000
721 19037 4292 1 109.50000 418.400000
721 19037 11075 1 109.50000 418.400000
721 19037 19038 1 109.50000 418.400000
4292 19037 11075 1 109.50000 418.400000
4292 19037 19038 1 109.50000 418.400000
11075 19037 19038 1 109.50000 418.400000
19037 19038 19039 1 115.00000 209.200000
6302 19040 11009 1 109.50000 418.400000
6302 19040 11052 1 109.50000 418.400000
6302 19040 19041 1 109.50000 418.400000
11009 19040 11052 1 109.50000 418.400000
11009 19040 19041 1 109.50000 418.400000
11052 19040 19041 1 109.50000 418.400000
19040 19041 19042 1 115.00000 209.200000
1751 19043 4604 1 109.50000 418.400000
1751 19043 10764 1 109.50000 418.400000
1751 19043 19044 1 109.50000 418.400000
4604 19043 10764 1 109.50000 418.400000
4604 19043 19044 1 109.50000 418.400000
10764 19043 19044 1 109.50000 418.400000
19043 19044 19045 1 115.00000 209.200000
245 19046 1120 1 109.50000 418.400000
245 19046 10790 1 109.50000 418.400000
245 19046 19047 1 109.50000 418.400000
1120 19046 10790 1 109.50000 418.400000
1120 19046 19047 1 109.50000 418.400000
10790 19046 19047 1 109.50000 418.400000
19046 19047 19048 1 115.00000 209.200000
1224 19049 4238 1 109.50000 418.400000
1224 19049 8760 1 109.50000 418.400000
1224 19049 19050 1 109.50000 418.400000
4238 19049 8760 1 109.50000 418.400000
4238 19049 19050 1 109.50000 418.400000
8760 19049 19050 1 109.50000 418.400000
19049 19050 19051 1 115.00000 209.200000
1231 19052 3418 1 109.50000 418.400000
1231 19052 11244 1 109.50000 418.400000
1231 19052 19053 1 109.50000 418.400000
3418 19052 11244 1 109.50000 418.400000
3418 19052 19053 1 109.50000 418.400000
11244 19052 19053 1 109.50000 418.400000
19052 19053 19054 1 115.00000 209.200000
2780 19055 4587 1 109.50000 418.400000
2780 19055 11291 1 109.50000 418.400000
2780 19055 19056 1 109.50000 418.400000
4587 19055 11291 1 109.50000 418.400000
4587 19055 19056 1 109.50000 418.400000
11291 19055 19056 1 109.50000 418.400000
19055 19056 19057 1 115.00000 209.200000
2036 19058 9578 1 109.50000 418.400000
2036 19058 10004 1 109.50000 418.400000
2036 19058 19059 1 109.50000 418.400000
9578 19058 10004 1 109.50000 418.400000
9578 19058 19059 1 109.50000 418.400000
10004 19058 19059 1 109.50000 418.400000
19058 19059 19060 1 115.00000 209.200000
1922 19061 5841 1 109.50000 418.400000
1922 19061 6262 1 109.50000 418.400000
1922 19061 19062 1 109.50000 418.400000
5841 19061 6262 1 109.50000 418.400000
5841 19061 19062 1 109.50000 418.400000
6262 19061 19062 1 109.50000 418.400000
19061 19062 19063 1 115.00000 209.200000
8511 19064 10784 1 109.50000 418.400000
8511 19064 11290 1 109.50000 418.400000
8511 19064 19065 1 109.50000 418.400000
10784 19064 11290 1 109.50000 418.400000
10784 19064 19065 1 109.50000 418.400000
11290 19064 19065 1 109.50000 418.400000
19064 19065 19066 1 115.00000 209.200000
7908 19067 10711 1 109.50000 418.400000
7908 19067 11044 1 109.50000 418.400000
7908 19067 19068 1 109.50000 418.400000
10711 19067 11044 1 109.50000 418.400000
10711 19067 19068 1 109.50000 418.400000
11044 19067 19068 1 109.50000 418.400000
19067 19068 19069 1 115.00000 209.200000
3569 19070 8097 1 109.50000 418.400000
3569 19070 11300 1 109.50000 418.400000
3569 19070 19071 1 109.50000 418.400000
8097 19070 11300 1 109.50000 418.400000
8097 19070 19071 1 109.50000 418.400000
11300 19070 19071 1 109.50000 418.400000
19070 19071 19072 1 115.00000 209.200000
3736 19073 7627 1 109.50000 418.400000
3736 19073 9844 1 109.50000 418.400000
3736 19073 19074 1 109.50000 418.400000
7627 19073 9844 1 109.50000 418.400000
7627 19073 19074 1 109.50000 418.400000
9844 19073 19074 1 109.50000 418.400000
19073 19074 19075 1 115.00000 209.200000
2652 19076 7037 1 109.50000 418.400000
2652 19076 10555 1 109.50000 418.400000
2652 19076 19077 1 109.50000 418.400000
7037 19076 10555 1 109.50000 418.400000
7037 19076 19077 1 109.50000 418.400000
10555 19076 19077 1 109.50000 418.400000
19076 19077 19078 1 115.00000 209.200000
5540 19079 8923 1 109.50000 418.400000
5540 19079 10632 1 109.50000 418.400000
5540 19079 19080 1 109.50000 418.400000
8923 19079 10632 1 109.50000 418.400000
8923 19079 19080 1 109.50000 418.400000
10632 19079 19080 1 109.50000 418.400000
19079 19080 19081 1 115.00000 209.200000
6151 19082 8081 1 109.50000 418.400000
6151 19082 10148 1 109.50000 418.400000
6151 19082 19083 1 109.50000 418.400000
8081 19082 10148 1 109.50000 418.400000
8081 19082 19083 1 109.50000 418.400000
10148 19082 19083 1 109.50000 418.400000
19082 19083 19084 1 115.00000 209.200000
1206 19085 1207 1 109.50000 418.400000
1206 19085 19086 1 109.50000 418.400000
1206 19085 19088 1 109.50000 418.400000
1207 19085 19086 1 109.50000 418.400000
1207 19085 19088 1 109.50000 418.400000
19086 19085 19088 1 109.50000 418.400000
19085 19086 19087 1 115.00000 209.200000
19085 19088 19089 1 115.00000 209.200000
1476 19090 1477 1 109.50000 418.400000
1476 19090 19091 1 109.50000 418.400000
1476 19090 19093 1 109.50000 418.400000
1477 19090 19091 1 109.50000 418.400000
1477 19090 19093 1 109.50000 418.400000
19091 19090 19093 1 109.50000 418.400000
19090 19091 19092 1 115.00000 209.200000
19090 19093 19094 1 115.00000 209.200000
1650 19095 1651 1 109.50000 418.400000
1650 19095 19096 1 109.50000 418.400000
1650 19095 19098 1 109.50000 418.400000
1651 19095 19096 1 109.50000 418.400000
1651 19095 19098 1 109.50000 418.400000
19096 19095 19098 1 109.50000 418.400000
19095 19096 19097 1 115.00000 209.200000
19095 19098 19099 1 115.00000 209.200000
2107 19100 2108 1 109.50000 418.400000
2107 19100 19101 1 109.50000 418.400000
2107 19100 19103 1 109.50000 418.400000
2108 19100 19101 1 109.50000 418.400000
2108 19100 19103 1 109.50000 418.400000
19101 19100 19103 1 109.50000 418.400000
19100 19101 19102 1 115.00000 209.200000
19100 19103 19104 1 115.00000 209.200000
147 19105 4539 1 109.50000 418.400000
147 19105 19106 1 109.50000 418.400000
147 19105 19108 1 109.50000 418.400000
4539 19105 19106 1 109.50000 418.400000
4539 19105 19108 1 109.50000 418.400000
19106 19105 19108 1 109.50000 418.400000
19105 19106 19107 1 115.00000 209.200000
19105 19108 19109 1 115.00000 209.200000
1414 19110 4971 1 109.50000 418.400000
1414 19110 19111 1 109.50000 418.400000
1414 19110 19113 1 109.50000 418.400000
4971 19110 19111 1 109.50000 418.400000
4971 19110 19113 1 109.50000 418.400000
19111 19110 19113 1 109.50000 418.400000
19110 19111 19112 1 115.00000 209.200000
19110 19113 19114 1 115.00000 209.200000
1450 19115 6725 1 109.50000 418.400000
1450 19115 19116 1 109.50000 418.400000
1450 19115 19118 1 109.50000 418.400000
6725 19115 19116 1 109.50000 418.400000
6725 19115 19118 1 109.50000 418.400000
19116 19115 19118 1 109.50000 418.400000
19115 19116 19117 1 115.00000 209.200000
19115 19118 19119 1 115.00000 209.200000
4207 19120 7945 1 109.50000 418.400000
4207 19120 19121 1 109.50000 418.400000
4207 19120 19123 1 109.50000 418.400000
7945 19120 19121 1 109.50000 418.400000
7945 19120 19123 1 109.50000 418.400000
19121 19120 19123 1 109.50000 418.400000
19120 19121 19122 1 115.00000 209.200000
19120 19123 19124 1 115.00000 209.200000
24 19125 8067 1 109.50000 418.400000
24 19125 19126 1 109.50000 418.400000
24 19125 19128 1 109.50000 418.400000
8067 19125 19126 1 109.50000 418.400000
8067 19125 19128 1 109.50000 418.400000
19126 19125 19128 1 109.50000 418.400000
19125 19126 19127 1 115.00000 209.200000
19125 19128 19129 1 115.00000 209.200000
2246 19130 7770 1 109.50000 418.400000
2246 19130 19131 1 109.50000 418.400000
2246 19130 19133 1 109.50000 418.400000
7770 19130 19131 1 109.50000 418.400000
7770 19130 19133 1 109.50000 418.400000
19131 19130 19133 1 109.50000 418.400000
19130 19131 19132 1 115.00000 209.200000
19130 19133 19134 1 115.00000 209.200000
8289 19135 9035 1 109.50000 418.400000
8289 19135 19136 1 109.50000 418.400000
8289 19135 19138 1 109.50000 418.400000
9035 19135 19136 1 109.50000 418.400000
9035 19135 19138 1 109.50000 418.400000
19136 19135 19138 1 109.50000 418.400000
19135 19136 19137 1 115.00000 209.200000
19135 19138 19139 1 115.00000 209.200000
1034 19140 4378 1 109.50000 418.400000
1034 19140 19141 1 109.50000 418.400000
1034 19140 19143 1 109.50000 418.400000
4378 19140 19141 1 109.50000 418.400000
4378 19140 19143 1 109.50000 418.400000
19141 19140 19143 1 109.50000 418.400000
19140 19141 19142 1 115.00000 209.200000
19140 19143 19144 1 115.00000 209.200000
1960 19145 9622 1 109.50000 418.400000
1960 19145 19146 1 109.50000 418.400000
1960 19145 19148 1 109.50000 418.400000
9622 19145 19146 1 109.50000 418.400000
9622 19145 19148 1 109.50000 418.400000
19146 19145 19148 1 109.50000 418.400000
19145 19146 19147 1 115.00000 209.200000
19145 19148 19149 1 115.00000 209.200000
9764 19150 9765 1 109.50000 418.400000
9764 19150 19151 1 109.50000 418.400000
9764 19150 19153 1 109.50000 418.400000
9765 19150 19151 1 109.50000 418.400000
9765 19150 19153 1 109.50000 418.400000
19151 19150 19153 1 109.50000 418.400000
19150 19151 19152 1 115.00000 209.200000
19150 19153 19154 1 115.00000 209.200000
2148 19155 8296 1 109.50000 418.400000
2148 19155 19156 1 109.50000 418.400000
2148 19155 19158 1 109.50000 418.400000
8296 19155 19156 1 109.50000 418.400000
8296 19155 19158 1 109.50000 418.400000
19156 19155 19158 1 109.50000 418.400000
19155 19156 19157 1 115.00000 209.200000
19155 19158 19159 1 115.00000 209.200000
8095 19160 10083 1 109.50000 418.400000
8095 19160 19161 1 109.50000 418.400000
8095 19160 19163 1 109.50000 418.400000
10083 19160 19161 1 109.50000 418.400000
10083 19160 19163 1 109.50000 418.400000
19161 19160 19163 1 109.50000 418.400000
19160 19161 19162 1 115.00000 209.200000
19160 19163 19164 1 115.00000 209.200000
3635 19165 7073 1 109.50000 418.400000
3635 19165 19166 1 109.50000 418.400000
3635 19165 19168 1 109.50000 418.400000
7073 19165 19166 1 109.50000 418.400000
7073 19165 19168 1 109.50000 418.400000
19166 19165 19168 1 109.50000 418.400000
19165 19166 19167 1 115.00000 209.200000
19165 19168 19169 1 115.00000 209.200000
5333 19170 8617 1 109.50000 418.400000
5333 19170 19171 1 109.50000 418.400000
5333 19170 19173 1 109.50000 418.400000
8617 19170 19171 1 109.50000 418.400000
8617 19170 19173 1 109.50000 418.400000
19171 19170 19173 1 109.50000 418.400000
19170 19171 19172 1 115.00000 209.200000
19170 19173 19174 1 115.00000 209.200000
8234 19175 9048 1 109.50000 418.400000
8234 19175 19176 1 109.50000 418.400000
8234 19175 19178 1 109.50000 418.400000
9048 19175 19176 1 109.50000 418.400000
9048 19175 19178 1 109.50000 418.400000
19176 19175 19178 1 109.50000 418.400000
19175 19176 19177 1 115.00000 209.200000
19175 19178 19179 1 115.00000 209.200000
2009 19180 10063 1 109.50000 418.400000
2009 19180 19181 1 109.50000 418.400000
2009 19180 19183 1 109.50000 418.400000
10063 19180 19181 1 109.50000 418.400000
10063 19180 19183 1 109.50000 418.400000
19181 19180 19183 1 109.50000 418.400000
19180 19181 19182 1 115.00000 209.200000
19180 19183 19184 1 115.00000 209.200000
9402 19185 11097 1 109.50000 418.400000
9402 19185 19186 1 109.50000 418.400000
9402 19185 19188 1 109.50000 418.400000
11097 19185 19186 1 109.50000 418.400000
11097 19185 19188 1 109.50000 418.400000
19186 19185 19188 1 109.50000 418.400000
19185 19186 19187 1 115.00000 209.200000
19185 19188 19189 1 115.00000 209.200000
4168 19190 9877 1 109.50000 418.400000
4168 19190 19191 1 109.50000 418.400000
4168 19190 19193 1 109.50000 418.400000
9877 19190 19191 1 109.50000 418.400000
9877 19190 19193 1 109.50000 418.400000
19191 19190 19193 1 109.50000 418.400000
19190 19191 19192 1 115.00000 209.200000
19190 19193 19194 1 115.00000 209.200000

[ dihedrals ]
; ai aj ak al funct params
17018 17019 17020 17021 1 180.0000771 15.1670000 2
17018 17019 17020 17022 1 180.0000771 15.1670000 2
17021 17019 17020 17022 4 180.0000771 4.6024000 2
17018 17019 17028 17020 4 180.0000771 4.6024000 2
17018 17019 17028 17026 1 180.0000771 15.1670000 2
17018 17019 17028 17029 1 180.0000771 15.1670000 2
17020 17019 17028 17026 1 180.0000771 15.1670000 2
17020 17019 17028 17029 1 180.0000771 15.1670000 2
17021 17020 17019 17028 1 180.0000771 15.1670000 2
17022 17020 17019 17028 1 180.0000771 15.1670000 2
17019 17020 17022 17023 1 180.0000771 15.1670000 2
17019 17020 17022 17024 1 180.0000771 15.1670000 2
17021 17020 17022 17023 1 180.0000771 15.1670000 2
17021 17020 17022 17024 1 180.0000771 15.1670000 2
17020 17022 17024 17025 1 180.0000771 15.1670000 2
17020 17022 17024 17026 1 180.0000771 15.1670000 2
17023 17022 17024 17025 1 180.0000771 15.1670000 2
17023 17022 17024 17026 1 180.0000771 15.1670000 2
17020 17024 17022 17023 4 180.0000771 4.6024000 2
17022 17024 17026 17027 1 180.0000771 15.1670000 2
17022 17024 17026 17028 1 180.0000771 15.1670000 2
17025 17024 17026 17027 1 180.0000771 15.1670000 2
17025 17024 17026 17028 1 180.0000771 15.1670000 2
17022 17026 17024 17025 4 180.0000771 4.6024000 2
17019 17026 17028 17029 4 180.0000771 4.6024000 2
17024 17026 17028 17029 1 180.0000771 15.1670000 2
17027 17026 17028 17029 1 180.0000771 15.1670000 2
17019 17028 17026 17024 1 180.0000771 15.1670000 2
17019 17028 17026 17027 1 180.0000771 15.1670000 2
17024 17028 17026 17027 4 180.0000771 4.6024000 2
17032 17033 17034 17035 1 180.0000771 15.1670000 2
17032 17033 17034 17036 1 180.0000771 15.1670000 2
17035 17033 17034 17036 4 180.0000771 4.6024000 2
17032 17033 17042 17034 4 180.0000771 4.6024000 2
17032 17033 17042 17040 1 180.0000771 15.1670000 2
17032 17033 17042 17043 1 180.0000771 15.1670000 2
17034 17033 17042 17040 1 180.0000771 15.1670000 2
17034 17033 17042 17043 1 180.0000771 15.1670000 2
17035 17034 17033 17042 1 180.0000771 15.1670000 2
17036 17034 17033 17042 1 180.0000771 15.1670000 2
17033 17034 17036 17037 1 180.0000771 15.1670000 2
17033 17034 17036 17038 1 180.0000771 15.1670000 2
17035 17034 17036 17037 1 180.0000771 15.1670000 2
17035 17034 17036 17038 1 180.0000771 15.1670000 2
17034 17036 17038 17039 1 180.0000771 15.1670000 2
17034 17036 17038 17040 1 180.0000771 15.1670000 2
17037 17036 17038 17039 1 180.0000771 15.1670000 2
17037 17036 17038 17040 1 180.0000771 15.1670000 2
17034 17038 17036 17037 4 180.0000771 4.6024000 2
17036 17038 17040 17041 1 180.0000771 15.1670000 2
17036 17038 17040 17042 1 180.0000771 15.1670000 2
17039 17038 17040 17041 1 180.0000771 15.1670000 2
17039 17038 17040 17042 1 180.0000771 15.1670000 2
17036 17040 17038 17039 4 180.0000771 4.6024000 2
17033 17040 17042 17043 4 180.0000771 4.6024000 2
17038 17040 17042 17043 1 180.0000771 15.1670000 2
17041 17040 17042 17043 1 180.0000771 15.1670000 2
17033 17042 17040 17038 1 180.0000771 15.1670000 2
17033 17042 17040 17041 1 180.0000771 15.1670000 2
17038 17042 17040 17041 4 180.0000771 4.6024000 2
17046 17047 17048 17049 1 180.0000771 15.1670000 2
17046 17047 17048 17050 1 180.0000771 15.1670000 2
17049 17047 17048 17050 4 180.0000771 4.6024000 2
17046 17047 17056 17048 4 180.0000771 4.6024000 2
17046 17047 17056 17054 1 180.0000771 15.1670000 2
17046 17047 17056 17057 1 180.0000771 15.1670000 2
17048 17047 17056 17054 1 180.0000771 15.1670000 2
17048 17047 17056 17057 1 180.0000771 15.1670000 2
17049 17048 17047 17056 1 180.0000771 15.1670000 2
17050 17048 17047 17056 1 180.0000771 15.1670000 2
17047 17048 17050 17051 1 180.0000771 15.1670000 2
17047 17048 17050 17052 1 180.0000771 15.1670000 2
17049 17048 17050 17051 1 180.0000771 15.1670000 2
17049 17048 17050 17052 1 180.0000771 15.1670000 2
17048 17050 17052 17053 1 180.0000771 15.1670000 2
17048 17050 17052 17054 1 180.0000771 15.1670000 2
17051 17050 17052 17053 1 180.0000771 15.1670000 2
17051 17050 17052 17054 1 180.0000771 15.1670000 2
17048 17052 17050 17051 4 180.0000771 4.6024000 2
17050 17052 17054 17055 1 180.0000771 15.1670000 2
17050 17052 17054 17056 1 180.0000771 15.1670000 2
17053 17052 17054 17055 1 180.0000771 15.1670000 2
17053 17052 17054 17056 1 180.0000771 15.1670000 2
17050 17054 17052 17053 4 180.0000771 4.6024000 2
17047 17054 17056 17057 4 180.0000771 4.6024000 2
17052 17054 17056 17057 1 180.0000771 15.1670000 2
17055 17054 17056 17057 1 180.0000771 15.1670000 2
17047 17056 17054 17052 1 180.0000771 15.1670000 2
17047 17056 17054 17055 1 180.0000771 15.1670000 2
17052 17056 17054 17055 4 180.0000771 4.6024000 2
17060 17061 17062 17063 1 180.0000771 15.1670000 2
17060 17061 17062 17064 1 180.0000771 15.1670000 2
17063 17061 17062 17064 4 180.0000771 4.6024000 2
17060 17061 17070 17062 4 180.0000771 4.6024000 2
17060 17061 17070 17068 1 180.0000771 15.1670000 2
17060 17061 17070 17071 1 180.0000771 15.1670000 2
17062 17061 17070 17068 1 180.0000771 15.1670000 2
17062 17061 17070 17071 1 180.0000771 15.1670000 2
17063 17062 17061 17070 1 180.0000771 15.1670000 2
17064 17062 17061 17070 1 180.0000771 15.1670000 2
17061 17062 17064 17065 1 180.0000771 15.1670000 2
17061 17062 17064 17066 1 180.0000771 15.1670000 2
17063 17062 17064 17065 1 180.0000771 15.1670000 2
17063 17062 17064 17066 1 180.0000771 15.1670000 2
17062 17064 17066 17067 1 180.0000771 15.1670000 2
17062 17064 17066 17068 1 180.0000771 15.1670000 2
17065 17064 17066 17067 1 180.0000771 15.1670000 2
17065 17064 17066 17068 1 180.0000771 15.1670000 2
17062 17066 17064 17065 4 180.0000771 4.6024000 2
17064 17066 17068 17069 1 180.0000771 15.1670000 2
17064 17066 17068 17070 1 180.0000771 15.1670000 2
17067 17066 17068 17069 1 180.0000771 15.1670000 2
17067 17066 17068 17070 1 180.0000771 15.1670000 2
17064 17068 17066 17067 4 180.0000771 4.6024000 2
17061 17068 17070 17071 4 180.0000771 4.6024000 2
17066 17068 17070 17071 1 180.0000771 15.1670000 2
17069 17068 17070 17071 1 180.0000771 15.1670000 2
17061 17070 17068 17066 1 180.0000771 15.1670000 2
17061 17070 17068 17069 1 180.0000771 15.1670000 2
17066 17070 17068 17069 4 180.0000771 4.6024000 2
17074 17075 17076 17077 1 180.0000771 15.1670000 2
17074 17075 17076 17078 1 180.0000771 15.1670000 2
17077 17075 17076 17078 4 180.0000771 4.6024000 2
17074 17075 17084 17076 4 180.0000771 4.6024000 2
17074 17075 17084 17082 1 180.0000771 15.1670000 2
17074 17075 17084 17085 1 180.0000771 15.1670000 2
17076 17075 17084 17082 1 180.0000771 15.1670000 2
17076 17075 17084 17085 1 180.0000771 15.1670000 2
17077 17076 17075 17084 1 180.0000771 15.1670000 2
17078 17076 17075 17084 1 180.0000771 15.1670000 2
17075 17076 17078 17079 1 180.0000771 15.1670000 2
17075 17076 17078 17080 1 180.0000771 15.1670000 2
17077 17076 17078 17079 1 180.0000771 15.1670000 2
17077 17076 17078 17080 1 180.0000771 15.1670000 2
17076 17078 17080 17081 1 180.0000771 15.1670000 2
17076 17078 17080 17082 1 180.0000771 15.1670000 2
17079 17078 17080 17081 1 180.0000771 15.1670000 2
17079 17078 17080 17082 1 180.0000771 15.1670000 2
17076 17080 17078 17079 4 180.0000771 4.6024000 2
17078 17080 17082 17083 1 180.0000771 15.1670000 2
17078 17080 17082 17084 1 180.0000771 15.1670000 2
17081 17080 17082 17083 1 180.0000771 15.1670000 2
17081 17080 17082 17084 1 180.0000771 15.1670000 2
17078 17082 17080 17081 4 180.0000771 4.6024000 2
17075 17082 17084 17085 4 180.0000771 4.6024000 2
17080 17082 17084 17085 1 180.0000771 15.1670000 2
17083 17082 17084 17085 1 180.0000771 15.1670000 2
17075 17084 17082 17080 1 180.0000771 15.1670000 2
17075 17084 17082 17083 1 180.0000771 15.1670000 2
17080 17084 17082 17083 4 180.0000771 4.6024000 2
17088 17089 17090 17091 1 180.0000771 15.1670000 2
17088 17089 17090 17092 1 180.0000771 15.1670000 2
17091 17089 17090 17092 4 180.0000771 4.6024000 2
17088 17089 17098 17090 4 180.0000771 4.6024000 2
17088 17089 17098 17096 1 180.0000771 15.1670000 2
17088 17089 17098 17099 1 180.0000771 15.1670000 2
17090 17089 17098 17096 1 180.0000771 15.1670000 2
17090 17089 17098 17099 1 180.0000771 15.1670000 2
17091 17090 17089 17098 1 180.0000771 15.1670000 2
17092 17090 17089 17098 1 180.0000771 15.1670000 2
17089 17090 17092 17093 1 180.0000771 15.1670000 2
17089 17090 17092 17094 1 180.0000771 15.1670000 2
17091 17090 17092 17093 1 180.0000771 15.1670000 2
17091 17090 17092 17094 1 180.0000771 15.1670000 2
17090 17092 17094 17095 1 180.0000771 15.1670000 2
17090 17092 17094 17096 1 180.0000771 15.1670000 2
17093 17092 17094 17095 1 180.0000771 15.1670000 2
17093 17092 17094 17096 1 180.0000771 15.1670000 2
17090 17094 17092 17093 4 180.0000771 4.6024000 2
17092 17094 17096 17097 1 180.0000771 15.1670000 2
17092 17094 17096 17098 1 180.0000771 15.1670000 2
17095 17094 17096 17097 1 180.0000771 15.1670000 2
17095 17094 17096 17098 1 180.0000771 15.1670000 2
17092 17096 17094 17095 4 180.0000771 4.6024000 2
17089 17096 17098 17099 4 180.0000771 4.6024000 2
17094 17096 17098 17099 1 180.0000771 15.1670000 2
17097 17096 17098 17099 1 180.0000771 15.1670000 2
17089 17098 17096 17094 1 180.0000771 15.1670000 2
17089 17098 17096 17097 1 180.0000771 15.1670000 2
17094 17098 17096 17097 4 180.0000771 4.6024000 2
17102 17103 17104 17105 1 180.0000771 15.1670000 2
17102 17103 17104 17106 1 180.0000771 15.1670000 2
17105 17103 17104 17106 4 180.0000771 4.6024000 2
17102 17103 17112 17104 4 180.0000771 4.6024000 2
17102 17103 17112 17110 1 180.0000771 15.1670000 2
17102 17103 17112 17113 1 180.0000771 15.1670000 2
17104 17103 17112 17110 1 180.0000771 15.1670000 2
17104 17103 17112 17113 1 180.0000771 15.1670000 2
17105 17104 17103 17112 1 180.0000771 15.1670000 2
17106 17104 17103 17112 1 180.0000771 15.1670000 2
17103 17104 17106 17107 1 180.0000771 15.1670000 2
17103 17104 17106 17108 1 180.0000771 15.1670000 2
17105 17104 17106 17107 1 180.0000771 15.1670000 2
17105 17104 17106 17108 1 180.0000771 15.1670000 2
17104 17106 17108 17109 1 180.0000771 15.1670000 2
17104 17106 17108 17110 1 180.0000771 15.1670000 2
17107 17106 17108 17109 1 180.0000771 15.1670000 2
17107 17106 17108 17110 1 180.0000771 15.1670000 2
17104 17108 17106 17107 4 180.0000771 4.6024000 2
17106 17108 17110 17111 1 180.0000771 15.1670000 2
17106 17108 17110 17112 1 180.0000771 15.1670000 2
17109 17108 17110 17111 1 180.0000771 15.1670000 2
17109 17108 17110 17112 1 180.0000771 15.1670000 2
17106 17110 17108 17109 4 180.0000771 4.6024000 2
17103 17110 17112 17113 4 180.0000771 4.6024000 2
17108 17110 17112 17113 1 180.0000771 15.1670000 2
17111 17110 17112 17113 1 180.0000771 15.1670000 2
17103 17112 17110 17108 1 180.0000771 15.1670000 2
17103 17112 17110 17111 1 180.0000771 15.1670000 2
17108 17112 17110 17111 4 180.0000771 4.6024000 2
17116 17117 17118 17119 1 180.0000771 15.1670000 2
17116 17117 17118 17120 1 180.0000771 15.1670000 2
17119 17117 17118 17120 4 180.0000771 4.6024000 2
17116 17117 17126 17118 4 180.0000771 4.6024000 2
17116 17117 17126 17124 1 180.0000771 15.1670000 2
17116 17117 17126 17127 1 180.0000771 15.1670000 2
17118 17117 17126 17124 1 180.0000771 15.1670000 2
17118 17117 17126 17127 1 180.0000771 15.1670000 2
17119 17118 17117 17126 1 180.0000771 15.1670000 2
17120 17118 17117 17126 1 180.0000771 15.1670000 2
17117 17118 17120 17121 1 180.0000771 15.1670000 2
17117 17118 17120 17122 1 180.0000771 15.1670000 2
17119 17118 17120 17121 1 180.0000771 15.1670000 2
17119 17118 17120 17122 1 180.0000771 15.1670000 2
17118 17120 17122 17123 1 180.0000771 15.1670000 2
17118 17120 17122 17124 1 180.0000771 15.1670000 2
17121 17120 17122 17123 1 180.0000771 15.1670000 2
17121 17120 17122 17124 1 180.0000771 15.1670000 2
17118 17122 17120 17121 4 180.0000771 4.6024000 2
17120 17122 17124 17125 1 180.0000771 15.1670000 2
17120 17122 17124 17126 1 180.0000771 15.1670000 2
17123 17122 17124 17125 1 180.0000771 15.1670000 2
17123 17122 17124 17126 1 180.0000771 15.1670000 2
17120 17124 17122 17123 4 180.0000771 4.6024000 2
17117 17124 17126 17127 4 180.0000771 4.6024000 2
17122 17124 17126 17127 1 180.0000771 15.1670000 2
17125 17124 17126 17127 1 180.0000771 15.1670000 2
17117 17126 17124 17122 1 180.0000771 15.1670000 2
17117 17126 17124 17125 1 180.0000771 15.1670000 2
17122 17126 17124 17125 4 180.0000771 4.6024000 2
17130 17131 17132 17133 1 180.0000771 15.1670000 2
17130 17131 17132 17134 1 180.0000771 15.1670000 2
17133 17131 17132 17134 4 180.0000771 4.6024000 2
17130 17131 17140 17132 4 180.0000771 4.6024000 2
17130 17131 17140 17138 1 180.0000771 15.1670000 2
17130 17131 17140 17141 1 180.0000771 15.1670000 2
17132 17131 17140 17138 1 180.0000771 15.1670000 2
17132 17131 17140 17141 1 180.0000771 15.1670000 2
17133 17132 17131 17140 1 180.0000771 15.1670000 2
17134 17132 17131 17140 1 180.0000771 15.1670000 2
17131 17132 17134 17135 1 180.0000771 15.1670000 2
17131 17132 17134 17136 1 180.0000771 15.1670000 2
17133 17132 17134 17135 1 180.0000771 15.1670000 2
17133 17132 17134 17136 1 180.0000771 15.1670000 2
17132 17134 17136 17137 1 180.0000771 15.1670000 2
17132 17134 17136 17138 1 180.0000771 15.1670000 2
17135 17134 17136 17137 1 180.0000771 15.1670000 2
17135 17134 17136 17138 1 180.0000771 15.1670000 2
17132 17136 17134 17135 4 180.0000771 4.6024000 2
17134 17136 17138 17139 1 180.0000771 15.1670000 2
17134 17136 17138 17140 1 180.0000771 15.1670000 2
17137 17136 17138 17139 1 180.0000771 15.1670000 2
17137 17136 17138 17140 1 180.0000771 15.1670000 2
17134 17138 17136 17137 4 180.0000771 4.6024000 2
17131 17138 17140 17141 4 180.0000771 4.6024000 2
17136 17138 17140 17141 1 180.0000771 15.1670000 2
17139 17138 17140 17141 1 180.0000771 15.1670000 2
17131 17140 17138 17136 1 180.0000771 15.1670000 2
17131 17140 17138 17139 1 180.0000771 15.1670000 2
17136 17140 17138 17139 4 180.0000771 4.6024000 2
17144 17145 17146 17147 1 180.0000771 15.1670000 2
17144 17145 17146 17148 1 180.0000771 15.1670000 2
17147 17145 17146 17148 4 180.0000771 4.6024000 2
17144 17145 17154 17146 4 180.0000771 4.6024000 2
17144 17145 17154 17152 1 180.0000771 15.1670000 2
17144 17145 17154 17155 1 180.0000771 15.1670000 2
17146 17145 17154 17152 1 180.0000771 15.1670000 2
17146 17145 17154 17155 1 180.0000771 15.1670000 2
17147 17146 17145 17154 1 180.0000771 15.1670000 2
17148 17146 17145 17154 1 180.0000771 15.1670000 2
17145 17146 17148 17149 1 180.0000771 15.1670000 2
17145 17146 17148 17150 1 180.0000771 15.1670000 2
17147 17146 17148 17149 1 180.0000771 15.1670000 2
17147 17146 17148 17150 1 180.0000771 15.1670000 2
17146 17148 17150 17151 1 180.0000771 15.1670000 2
17146 17148 17150 17152 1 180.0000771 15.1670000 2
17149 17148 17150 17151 1 180.0000771 15.1670000 2
17149 17148 17150 17152 1 180.0000771 15.1670000 2
17146 17150 17148 17149 4 180.0000771 4.6024000 2
17148 17150 17152 17153 1 180.0000771 15.1670000 2
17148 17150 17152 17154 1 180.0000771 15.1670000 2
17151 17150 17152 17153 1 180.0000771 15.1670000 2
17151 17150 17152 17154 1 180.0000771 15.1670000 2
17148 17152 17150 17151 4 180.0000771 4.6024000 2
17145 17152 17154 17155 4 180.0000771 4.6024000 2
17150 17152 17154 17155 1 180.0000771 15.1670000 2
17153 17152 17154 17155 1 180.0000771 15.1670000 2
17145 17154 17152 17150 1 180.0000771 15.1670000 2
17145 17154 17152 17153 1 180.0000771 15.1670000 2
17150 17154 17152 17153 4 180.0000771 4.6024000 2
17158 17159 17160 17161 1 180.0000771 15.1670000 2
17158 17159 17160 17162 1 180.0000771 15.1670000 2
17161 17159 17160 17162 4 180.0000771 4.6024000 2
17158 17159 17168 17160 4 180.0000771 4.6024000 2
17158 17159 17168 17166 1 180.0000771 15.1670000 2
17158 17159 17168 17169 1 180.0000771 15.1670000 2
17160 17159 17168 17166 1 180.0000771 15.1670000 2
17160 17159 17168 17169 1 180.0000771 15.1670000 2
17161 17160 17159 17168 1 180.0000771 15.1670000 2
17162 17160 17159 17168 1 180.0000771 15.1670000 2
17159 17160 17162 17163 1 180.0000771 15.1670000 2
17159 17160 17162 17164 1 180.0000771 15.1670000 2
17161 17160 17162 17163 1 180.0000771 15.1670000 2
17161 17160 17162 17164 1 180.0000771 15.1670000 2
17160 17162 17164 17165 1 180.0000771 15.1670000 2
17160 17162 17164 17166 1 180.0000771 15.1670000 2
17163 17162 17164 17165 1 180.0000771 15.1670000 2
17163 17162 17164 17166 1 180.0000771 15.1670000 2
17160 17164 17162 17163 4 180.0000771 4.6024000 2
17162 17164 17166 17167 1 180.0000771 15.1670000 2
17162 17164 17166 17168 1 180.0000771 15.1670000 2
17165 17164 17166 17167 1 180.0000771 15.1670000 2
17165 17164 17166 17168 1 180.0000771 15.1670000 2
17162 17166 17164 17165 4 180.0000771 4.6024000 2
17159 17166 17168 17169 4 180.0000771 4.6024000 2
17164 17166 17168 17169 1 180.0000771 15.1670000 2
17167 17166 17168 17169 1 180.0000771 15.1670000 2
17159 17168 17166 17164 1 180.0000771 15.1670000 2
17159 17168 17166 17167 1 180.0000771 15.1670000 2
17164 17168 17166 17167 4 180.0000771 4.6024000 2
17172 17173 17174 17175 1 180.0000771 15.1670000 2
17172 17173 17174 17176 1 180.0000771 15.1670000 2
17175 17173 17174 17176 4 180.0000771 4.6024000 2
17172 17173 17182 17174 4 180.0000771 4.6024000 2
17172 17173 17182 17180 1 180.0000771 15.1670000 2
17172 17173 17182 17183 1 180.0000771 15.1670000 2
17174 17173 17182 17180 1 180.0000771 15.1670000 2
17174 17173 17182 17183 1 180.0000771 15.1670000 2
17175 17174 17173 17182 1 180.0000771 15.1670000 2
17176 17174 17173 17182 1 180.0000771 15.1670000 2
17173 17174 17176 17177 1 180.0000771 15.1670000 2
17173 17174 17176 17178 1 180.0000771 15.1670000 2
17175 17174 17176 17177 1 180.0000771 15.1670000 2
17175 17174 17176 17178 1 180.0000771 15.1670000 2
17174 17176 17178 17179 1 180.0000771 15.1670000 2
17174 17176 17178 17180 1 180.0000771 15.1670000 2
17177 17176 17178 17179 1 180.0000771 15.1670000 2
17177 17176 17178 17180 1 180.0000771 15.1670000 2
17174 17178 17176 17177 4 180.0000771 4.6024000 2
17176 17178 17180 17181 1 180.0000771 15.1670000 2
17176 17178 17180 17182 1 180.0000771 15.1670000 2
17179 17178 17180 17181 1 180.0000771 15.1670000 2
17179 17178 17180 17182 1 180.0000771 15.1670000 2
17176 17180 17178 17179 4 180.0000771 4.6024000 2
17173 17180 17182 17183 4 180.0000771 4.6024000 2
17178 17180 17182 17183 1 180.0000771 15.1670000 2
17181 17180 17182 17183 1 180.0000771 15.1670000 2
17173 17182 17180 17178 1 180.0000771 15.1670000 2
17173 17182 17180 17181 1 180.0000771 15.1670000 2
17178 17182 17180 17181 4 180.0000771 4.6024000 2
17186 17187 17188 17189 1 180.0000771 15.1670000 2
17186 17187 17188 17190 1 180.0000771 15.1670000 2
17189 17187 17188 17190 4 180.0000771 4.6024000 2
17186 17187 17196 17188 4 180.0000771 4.6024000 2
17186 17187 17196 17194 1 180.0000771 15.1670000 2
17186 17187 17196 17197 1 180.0000771 15.1670000 2
17188 17187 17196 17194 1 180.0000771 15.1670000 2
17188 17187 17196 17197 1 180.0000771 15.1670000 2
17189 17188 17187 17196 1 180.0000771 15.1670000 2
17190 17188 17187 17196 1 180.0000771 15.1670000 2
17187 17188 17190 17191 1 180.0000771 15.1670000 2
17187 17188 17190 17192 1 180.0000771 15.1670000 2
17189 17188 17190 17191 1 180.0000771 15.1670000 2
17189 17188 17190 17192 1 180.0000771 15.1670000 2
17188 17190 17192 17193 1 180.0000771 15.1670000 2
17188 17190 17192 17194 1 180.0000771 15.1670000 2
17191 17190 17192 17193 1 180.0000771 15.1670000 2
17191 17190 17192 17194 1 180.0000771 15.1670000 2
17188 17192 17190 17191 4 180.0000771 4.6024000 2
17190 17192 17194 17195 1 180.0000771 15.1670000 2
17190 17192 17194 17196 1 180.0000771 15.1670000 2
17193 17192 17194 17195 1 180.0000771 15.1670000 2
17193 17192 17194 17196 1 180.0000771 15.1670000 2
17190 17194 17192 17193 4 180.0000771 4.6024000 2
17187 17194 17196 17197 4 180.0000771 4.6024000 2
17192 17194 17196 17197 1 180.0000771 15.1670000 2
17195 17194 17196 17197 1 180.0000771 15.1670000 2
17187 17196 17194 17192 1 180.0000771 15.1670000 2
17187 17196 17194 17195 1 180.0000771 15.1670000 2
17192 17196 17194 17195 4 180.0000771 4.6024000 2
17200 17201 17202 17203 1 180.0000771 15.1670000 2
17200 17201 17202 17204 1 180.0000771 15.1670000 2
17203 17201 17202 17204 4 180.0000771 4.6024000 2
17200 17201 17210 17202 4 180.0000771 4.6024000 2
17200 17201 17210 17208 1 180.0000771 15.1670000 2
17200 17201 17210 17211 1 180.0000771 15.1670000 2
17202 17201 17210 17208 1 180.0000771 15.1670000 2
17202 17201 17210 17211 1 180.0000771 15.1670000 2
17203 17202 17201 17210 1 180.0000771 15.1670000 2
17204 17202 17201 17210 1 180.0000771 15.1670000 2
17201 17202 17204 17205 1 180.0000771 15.1670000 2
17201 17202 17204 17206 1 180.0000771 15.1670000 2
17203 17202 17204 17205 1 180.0000771 15.1670000 2
17203 17202 17204 17206 1 180.0000771 15.1670000 2
17202 17204 17206 17207 1 180.0000771 15.1670000 2
17202 17204 17206 17208 1 180.0000771 15.1670000 2
17205 17204 17206 17207 1 180.0000771 15.1670000 2
17205 17204 17206 17208 1 180.0000771 15.1670000 2
17202 17206 17204 17205 4 180.0000771 4.6024000 2
17204 17206 17208 17209 1 180.0000771 15.1670000 2
17204 17206 17208 17210 1 180.0000771 15.1670000 2
17207 17206 17208 17209 1 180.0000771 15.1670000 2
17207 17206 17208 17210 1 180.0000771 15.1670000 2
17204 17208 17206 17207 4 180.0000771 4.6024000 2
17201 17208 17210 17211 4 180.0000771 4.6024000 2
17206 17208 17210 17211 1 180.0000771 15.1670000 2
17209 17208 17210 17211 1 180.0000771 15.1670000 2
17201 17210 17208 17206 1 180.0000771 15.1670000 2
17201 17210 17208 17209 1 180.0000771 15.1670000 2
17206 17210 17208 17209 4 180.0000771 4.6024000 2
17214 17215 17216 17217 1 180.0000771 15.1670000 2
17214 17215 17216 17218 1 180.0000771 15.1670000 2
17217 17215 17216 17218 4 180.0000771 4.6024000 2
17214 17215 17224 17216 4 180.0000771 4.6024000 2
17214 17215 17224 17222 1 180.0000771 15.1670000 2
17214 17215 17224 17225 1 180.0000771 15.1670000 2
17216 17215 17224 17222 1 180.0000771 15.1670000 2
17216 17215 17224 17225 1 180.0000771 15.1670000 2
17217 17216 17215 17224 1 180.0000771 15.1670000 2
17218 17216 17215 17224 1 180.0000771 15.1670000 2
17215 17216 17218 17219 1 180.0000771 15.1670000 2
17215 17216 17218 17220 1 180.0000771 15.1670000 2
17217 17216 17218 17219 1 180.0000771 15.1670000 2
17217 17216 17218 17220 1 180.0000771 15.1670000 2
17216 17218 17220 17221 1 180.0000771 15.1670000 2
17216 17218 17220 17222 1 180.0000771 15.1670000 2
17219 17218 17220 17221 1 180.0000771 15.1670000 2
17219 17218 17220 17222 1 180.0000771 15.1670000 2
17216 17220 17218 17219 4 180.0000771 4.6024000 2
17218 17220 17222 17223 1 180.0000771 15.1670000 2
17218 17220 17222 17224 1 180.0000771 15.1670000 2
17221 17220 17222 17223 1 180.0000771 15.1670000 2
17221 17220 17222 17224 1 180.0000771 15.1670000 2
17218 17222 17220 17221 4 180.0000771 4.6024000 2
17215 17222 17224 17225 4 180.0000771 4.6024000 2
17220 17222 17224 17225 1 180.0000771 15.1670000 2
17223 17222 17224 17225 1 180.0000771 15.1670000 2
17215 17224 17222 17220 1 180.0000771 15.1670000 2
17215 17224 17222 17223 1 180.0000771 15.1670000 2
17220 17224 17222 17223 4 180.0000771 4.6024000 2
17228 17229 17230 17231 1 180.0000771 15.1670000 2
17228 17229 17230 17232 1 180.0000771 15.1670000 2
17231 17229 17230 17232 4 180.0000771 4.6024000 2
17228 17229 17238 17230 4 180.0000771 4.6024000 2
17228 17229 17238 17236 1 180.0000771 15.1670000 2
17228 17229 17238 17239 1 180.0000771 15.1670000 2
17230 17229 17238 17236 1 180.0000771 15.1670000 2
17230 17229 17238 17239 1 180.0000771 15.1670000 2
17231 17230 17229 17238 1 180.0000771 15.1670000 2
17232 17230 17229 17238 1 180.0000771 15.1670000 2
17229 17230 17232 17233 1 180.0000771 15.1670000 2
17229 17230 17232 17234 1 180.0000771 15.1670000 2
17231 17230 17232 17233 1 180.0000771 15.1670000 2
17231 17230 17232 17234 1 180.0000771 15.1670000 2
17230 17232 17234 17235 1 180.0000771 15.1670000 2
17230 17232 17234 17236 1 180.0000771 15.1670000 2
17233 17232 17234 17235 1 180.0000771 15.1670000 2
17233 17232 17234 17236 1 180.0000771 15.1670000 2
17230 17234 17232 17233 4 180.0000771 4.6024000 2
17232 17234 17236 17237 1 180.0000771 15.1670000 2
17232 17234 17236 17238 1 180.0000771 15.1670000 2
17235 17234 17236 17237 1 180.0000771 15.1670000 2
17235 17234 17236 17238 1 180.0000771 15.1670000 2
17232 17236 17234 17235 4 180.0000771 4.6024000 2
17229 17236 17238 17239 4 180.0000771 4.6024000 2
17234 17236 17238 17239 1 180.0000771 15.1670000 2
17237 17236 17238 17239 1 180.0000771 15.1670000 2
17229 17238 17236 17234 1 180.0000771 15.1670000 2
17229 17238 17236 17237 1 180.0000771 15.1670000 2
17234 17238 17236 17237 4 180.0000771 4.6024000 2
17242 17243 17244 17245 1 180.0000771 15.1670000 2
17242 17243 17244 17246 1 180.0000771 15.1670000 2
17245 17243 17244 17246 4 180.0000771 4.6024000 2
17242 17243 17252 17244 4 180.0000771 4.6024000 2
17242 17243 17252 17250 1 180.0000771 15.1670000 2
17242 17243 17252 17253 1 180.0000771 15.1670000 2
17244 17243 17252 17250 1 180.0000771 15.1670000 2
17244 17243 17252 17253 1 180.0000771 15.1670000 2
17245 17244 17243 17252 1 180.0000771 15.1670000 2
17246 17244 17243 17252 1 180.0000771 15.1670000 2
17243 17244 17246 17247 1 180.0000771 15.1670000 2
17243 17244 17246 17248 1 180.0000771 15.1670000 2
17245 17244 17246 17247 1 180.0000771 15.1670000 2
17245 17244 17246 17248 1 180.0000771 15.1670000 2
17244 17246 17248 17249 1 180.0000771 15.1670000 2
17244 17246 17248 17250 1 180.0000771 15.1670000 2
17247 17246 17248 17249 1 180.0000771 15.1670000 2
17247 17246 17248 17250 1 180.0000771 15.1670000 2
17244 17248 17246 17247 4 180.0000771 4.6024000 2
17246 17248 17250 17251 1 180.0000771 15.1670000 2
17246 17248 17250 17252 1 180.0000771 15.1670000 2
17249 17248 17250 17251 1 180.0000771 15.1670000 2
17249 17248 17250 17252 1 180.0000771 15.1670000 2
17246 17250 17248 17249 4 180.0000771 4.6024000 2
17243 17250 17252 17253 4 180.0000771 4.6024000 2
17248 17250 17252 17253 1 180.0000771 15.1670000 2
17251 17250 17252 17253 1 180.0000771 15.1670000 2
17243 17252 17250 17248 1 180.0000771 15.1670000 2
17243 17252 17250 17251 1 180.0000771 15.1670000 2
17248 17252 17250 17251 4 180.0000771 4.6024000 2
17256 17257 17258 17259 1 180.0000771 15.1670000 2
17256 17257 17258 17260 1 180.0000771 15.1670000 2
17259 17257 17258 17260 4 180.0000771 4.6024000 2
17256 17257 17266 17258 4 180.0000771 4.6024000 2
17256 17257 17266 17264 1 180.0000771 15.1670000 2
17256 17257 17266 17267 1 180.0000771 15.1670000 2
17258 17257 17266 17264 1 180.0000771 15.1670000 2
17258 17257 17266 17267 1 180.0000771 15.1670000 2
17259 17258 17257 17266 1 180.0000771 15.1670000 2
17260 17258 17257 17266 1 180.0000771 15.1670000 2
17257 17258 17260 17261 1 180.0000771 15.1670000 2
17257 17258 17260 17262 1 180.0000771 15.1670000 2
17259 17258 17260 17261 1 180.0000771 15.1670000 2
17259 17258 17260 17262 1 180.0000771 15.1670000 2
17258 17260 17262 17263 1 180.0000771 15.1670000 2
17258 17260 17262 17264 1 180.0000771 15.1670000 2
17261 17260 17262 17263 1 180.0000771 15.1670000 2
17261 17260 17262 17264 1 180.0000771 15.1670000 2
17258 17262 17260 17261 4 180.0000771 4.6024000 2
17260 17262 17264 17265 1 180.0000771 15.1670000 2
17260 17262 17264 17266 1 180.0000771 15.1670000 2
17263 17262 17264 17265 1 180.0000771 15.1670000 2
17263 17262 17264 17266 1 180.0000771 15.1670000 2
17260 17264 17262 17263 4 180.0000771 4.6024000 2
17257 17264 17266 17267 4 180.0000771 4.6024000 2
17262 17264 17266 17267 1 180.0000771 15.1670000 2
17265 17264 17266 17267 1 180.0000771 15.1670000 2
17257 17266 17264 17262 1 180.0000771 15.1670000 2
17257 17266 17264 17265 1 180.0000771 15.1670000 2
17262 17266 17264 17265 4 180.0000771 4.6024000 2
17270 17271 17272 17273 1 180.0000771 15.1670000 2
17270 17271 17272 17274 1 180.0000771 15.1670000 2
17273 17271 17272 17274 4 180.0000771 4.6024000 2
17270 17271 17280 17272 4 180.0000771 4.6024000 2
17270 17271 17280 17278 1 180.0000771 15.1670000 2
17270 17271 17280 17281 1 180.0000771 15.1670000 2
17272 17271 17280 17278 1 180.0000771 15.1670000 2
17272 17271 17280 17281 1 180.0000771 15.1670000 2
17273 17272 17271 17280 1 180.0000771 15.1670000 2
17274 17272 17271 17280 1 180.0000771 15.1670000 2
17271 17272 17274 17275 1 180.0000771 15.1670000 2
17271 17272 17274 17276 1 180.0000771 15.1670000 2
17273 17272 17274 17275 1 180.0000771 15.1670000 2
17273 17272 17274 17276 1 180.0000771 15.1670000 2
17272 17274 17276 17277 1 180.0000771 15.1670000 2
17272 17274 17276 17278 1 180.0000771 15.1670000 2
17275 17274 17276 17277 1 180.0000771 15.1670000 2
17275 17274 17276 17278 1 180.0000771 15.1670000 2
17272 17276 17274 17275 4 180.0000771 4.6024000 2
17274 17276 17278 17279 1 180.0000771 15.1670000 2
17274 17276 17278 17280 1 180.0000771 15.1670000 2
17277 17276 17278 17279 1 180.0000771 15.1670000 2
17277 17276 17278 17280 1 180.0000771 15.1670000 2
17274 17278 17276 17277 4 180.0000771 4.6024000 2
17271 17278 17280 17281 4 180.0000771 4.6024000 2
17276 17278 17280 17281 1 180.0000771 15.1670000 2
17279 17278 17280 17281 1 180.0000771 15.1670000 2
17271 17280 17278 17276 1 180.0000771 15.1670000 2
17271 17280 17278 17279 1 180.0000771 15.1670000 2
17276 17280 17278 17279 4 180.0000771 4.6024000 2
17284 17285 17286 17287 1 180.0000771 15.1670000 2
17284 17285 17286 17288 1 180.0000771 15.1670000 2
17287 17285 17286 17288 4 180.0000771 4.6024000 2
17284 17285 17294 17286 4 180.0000771 4.6024000 2
17284 17285 17294 17292 1 180.0000771 15.1670000 2
17284 17285 17294 17295 1 180.0000771 15.1670000 2
17286 17285 17294 17292 1 180.0000771 15.1670000 2
17286 17285 17294 17295 1 180.0000771 15.1670000 2
17287 17286 17285 17294 1 180.0000771 15.1670000 2
17288 17286 17285 17294 1 180.0000771 15.1670000 2
17285 17286 17288 17289 1 180.0000771 15.1670000 2
17285 17286 17288 17290 1 180.0000771 15.1670000 2
17287 17286 17288 17289 1 180.0000771 15.1670000 2
17287 17286 17288 17290 1 180.0000771 15.1670000 2
17286 17288 17290 17291 1 180.0000771 15.1670000 2
17286 17288 17290 17292 1 180.0000771 15.1670000 2
17289 17288 17290 17291 1 180.0000771 15.1670000 2
17289 17288 17290 17292 1 180.0000771 15.1670000 2
17286 17290 17288 17289 4 180.0000771 4.6024000 2
17288 17290 17292 17293 1 180.0000771 15.1670000 2
17288 17290 17292 17294 1 180.0000771 15.1670000 2
17291 17290 17292 17293 1 180.0000771 15.1670000 2
17291 17290 17292 17294 1 180.0000771 15.1670000 2
17288 17292 17290 17291 4 180.0000771 4.6024000 2
17285 17292 17294 17295 4 180.0000771 4.6024000 2
17290 17292 17294 17295 1 180.0000771 15.1670000 2
17293 17292 17294 17295 1 180.0000771 15.1670000 2
17285 17294 17292 17290 1 180.0000771 15.1670000 2
17285 17294 17292 17293 1 180.0000771 15.1670000 2
17290 17294 17292 17293 4 180.0000771 4.6024000 2
17298 17299 17300 17301 1 180.0000771 15.1670000 2
17298 17299 17300 17302 1 180.0000771 15.1670000 2
17301 17299 17300 17302 4 180.0000771 4.6024000 2
17298 17299 17308 17300 4 180.0000771 4.6024000 2
17298 17299 17308 17306 1 180.0000771 15.1670000 2
17298 17299 17308 17309 1 180.0000771 15.1670000 2
17300 17299 17308 17306 1 180.0000771 15.1670000 2
17300 17299 17308 17309 1 180.0000771 15.1670000 2
17301 17300 17299 17308 1 180.0000771 15.1670000 2
17302 17300 17299 17308 1 180.0000771 15.1670000 2
17299 17300 17302 17303 1 180.0000771 15.1670000 2
17299 17300 17302 17304 1 180.0000771 15.1670000 2
17301 17300 17302 17303 1 180.0000771 15.1670000 2
17301 17300 17302 17304 1 180.0000771 15.1670000 2
17300 17302 17304 17305 1 180.0000771 15.1670000 2
17300 17302 17304 17306 1 180.0000771 15.1670000 2
17303 17302 17304 17305 1 180.0000771 15.1670000 2
17303 17302 17304 17306 1 180.0000771 15.1670000 2
17300 17304 17302 17303 4 180.0000771 4.6024000 2
17302 17304 17306 17307 1 180.0000771 15.1670000 2
17302 17304 17306 17308 1 180.0000771 15.1670000 2
17305 17304 17306 17307 1 180.0000771 15.1670000 2
17305 17304 17306 17308 1 180.0000771 15.1670000 2
17302 17306 17304 17305 4 180.0000771 4.6024000 2
17299 17306 17308 17309 4 180.0000771 4.6024000 2
17304 17306 17308 17309 1 180.0000771 15.1670000 2
17307 17306 17308 17309 1 180.0000771 15.1670000 2
17299 17308 17306 17304 1 180.0000771 15.1670000 2
17299 17308 17306 17307 1 180.0000771 15.1670000 2
17304 17308 17306 17307 4 180.0000771 4.6024000 2
17312 17313 17314 17315 1 180.0000771 15.1670000 2
17312 17313 17314 17316 1 180.0000771 15.1670000 2
17315 17313 17314 17316 4 180.0000771 4.6024000 2
17312 17313 17322 17314 4 180.0000771 4.6024000 2
17312 17313 17322 17320 1 180.0000771 15.1670000 2
17312 17313 17322 17323 1 180.0000771 15.1670000 2
17314 17313 17322 17320 1 180.0000771 15.1670000 2
17314 17313 17322 17323 1 180.0000771 15.1670000 2
17315 17314 17313 17322 1 180.0000771 15.1670000 2
17316 17314 17313 17322 1 180.0000771 15.1670000 2
17313 17314 17316 17317 1 180.0000771 15.1670000 2
17313 17314 17316 17318 1 180.0000771 15.1670000 2
17315 17314 17316 17317 1 180.0000771 15.1670000 2
17315 17314 17316 17318 1 180.0000771 15.1670000 2
17314 17316 17318 17319 1 180.0000771 15.1670000 2
17314 17316 17318 17320 1 180.0000771 15.1670000 2
17317 17316 17318 17319 1 180.0000771 15.1670000 2
17317 17316 17318 17320 1 180.0000771 15.1670000 2
17314 17318 17316 17317 4 180.0000771 4.6024000 2
17316 17318 17320 17321 1 180.0000771 15.1670000 2
17316 17318 17320 17322 1 180.0000771 15.1670000 2
17319 17318 17320 17321 1 180.0000771 15.1670000 2
17319 17318 17320 17322 1 180.0000771 15.1670000 2
17316 17320 17318 17319 4 180.0000771 4.6024000 2
17313 17320 17322 17323 4 180.0000771 4.6024000 2
17318 17320 17322 17323 1 180.0000771 15.1670000 2
17321 17320 17322 17323 1 180.0000771 15.1670000 2
17313 17322 17320 17318 1 180.0000771 15.1670000 2
17313 17322 17320 17321 1 180.0000771 15.1670000 2
17318 17322 17320 17321 4 180.0000771 4.6024000 2
17326 17327 17328 17329 1 180.0000771 15.1670000 2
17326 17327 17328 17330 1 180.0000771 15.1670000 2
17329 17327 17328 17330 4 180.0000771 4.6024000 2
17326 17327 17336 17328 4 180.0000771 4.6024000 2
17326 17327 17336 17334 1 180.0000771 15.1670000 2
17326 17327 17336 17337 1 180.0000771 15.1670000 2
17328 17327 17336 17334 1 180.0000771 15.1670000 2
17328 17327 17336 17337 1 180.0000771 15.1670000 2
17329 17328 17327 17336 1 180.0000771 15.1670000 2
17330 17328 17327 17336 1 180.0000771 15.1670000 2
17327 17328 17330 17331 1 180.0000771 15.1670000 2
17327 17328 17330 17332 1 180.0000771 15.1670000 2
17329 17328 17330 17331 1 180.0000771 15.1670000 2
17329 17328 17330 17332 1 180.0000771 15.1670000 2
17328 17330 17332 17333 1 180.0000771 15.1670000 2
17328 17330 17332 17334 1 180.0000771 15.1670000 2
17331 17330 17332 17333 1 180.0000771 15.1670000 2
17331 17330 17332 17334 1 180.0000771 15.1670000 2
17328 17332 17330 17331 4 180.0000771 4.6024000 2
17330 17332 17334 17335 1 180.0000771 15.1670000 2
17330 17332 17334 17336 1 180.0000771 15.1670000 2
17333 17332 17334 17335 1 180.0000771 15.1670000 2
17333 17332 17334 17336 1 180.0000771 15.1670000 2
17330 17334 17332 17333 4 180.0000771 4.6024000 2
17327 17334 17336 17337 4 180.0000771 4.6024000 2
17332 17334 17336 17337 1 180.0000771 15.1670000 2
17335 17334 17336 17337 1 180.0000771 15.1670000 2
17327 17336 17334 17332 1 180.0000771 15.1670000 2
17327 17336 17334 17335 1 180.0000771 15.1670000 2
17332 17336 17334 17335 4 180.0000771 4.6024000 2
17340 17341 17342 17343 1 180.0000771 15.1670000 2
17340 17341 17342 17344 1 180.0000771 15.1670000 2
17343 17341 17342 17344 4 180.0000771 4.6024000 2
17340 17341 17350 17342 4 180.0000771 4.6024000 2
17340 17341 17350 17348 1 180.0000771 15.1670000 2
17340 17341 17350 17351 1 180.0000771 15.1670000 2
17342 17341 17350 17348 1 180.0000771 15.1670000 2
17342 17341 17350 17351 1 180.0000771 15.1670000 2
17343 17342 17341 17350 1 180.0000771 15.1670000 2
17344 17342 17341 17350 1 180.0000771 15.1670000 2
17341 17342 17344 17345 1 180.0000771 15.1670000 2
17341 17342 17344 17346 1 180.0000771 15.1670000 2
17343 17342 17344 17345 1 180.0000771 15.1670000 2
17343 17342 17344 17346 1 180.0000771 15.1670000 2
17342 17344 17346 17347 1 180.0000771 15.1670000 2
17342 17344 17346 17348 1 180.0000771 15.1670000 2
17345 17344 17346 17347 1 180.0000771 15.1670000 2
17345 17344 17346 17348 1 180.0000771 15.1670000 2
17342 17346 17344 17345 4 180.0000771 4.6024000 2
17344 17346 17348 17349 1 180.0000771 15.1670000 2
17344 17346 17348 17350 1 180.0000771 15.1670000 2
17347 17346 17348 17349 1 180.0000771 15.1670000 2
17347 17346 17348 17350 1 180.0000771 15.1670000 2
17344 17348 17346 17347 4 180.0000771 4.6024000 2
17341 17348 17350 17351 4 180.0000771 4.6024000 2
17346 17348 17350 17351 1 180.0000771 15.1670000 2
17349 17348 17350 17351 1 180.0000771 15.1670000 2
17341 17350 17348 17346 1 180.0000771 15.1670000 2
17341 17350 17348 17349 1 180.0000771 15.1670000 2
17346 17350 17348 17349 4 180.0000771 4.6024000 2
17354 17355 17356 17357 1 180.0000771 15.1670000 2
17354 17355 17356 17358 1 180.0000771 15.1670000 2
17357 17355 17356 17358 4 180.0000771 4.6024000 2
17354 17355 17364 17356 4 180.0000771 4.6024000 2
17354 17355 17364 17362 1 180.0000771 15.1670000 2
17354 17355 17364 17365 1 180.0000771 15.1670000 2
17356 17355 17364 17362 1 180.0000771 15.1670000 2
17356 17355 17364 17365 1 180.0000771 15.1670000 2
17357 17356 17355 17364 1 180.0000771 15.1670000 2
17358 17356 17355 17364 1 180.0000771 15.1670000 2
17355 17356 17358 17359 1 180.0000771 15.1670000 2
17355 17356 17358 17360 1 180.0000771 15.1670000 2
17357 17356 17358 17359 1 180.0000771 15.1670000 2
17357 17356 17358 17360 1 180.0000771 15.1670000 2
17356 17358 17360 17361 1 180.0000771 15.1670000 2
17356 17358 17360 17362 1 180.0000771 15.1670000 2
17359 17358 17360 17361 1 180.0000771 15.1670000 2
17359 17358 17360 17362 1 180.0000771 15.1670000 2
17356 17360 17358 17359 4 180.0000771 4.6024000 2
17358 17360 17362 17363 1 180.0000771 15.1670000 2
17358 17360 17362 17364 1 180.0000771 15.1670000 2
17361 17360 17362 17363 1 180.0000771 15.1670000 2
17361 17360 17362 17364 1 180.0000771 15.1670000 2
17358 17362 17360 17361 4 180.0000771 4.6024000 2
17355 17362 17364 17365 4 180.0000771 4.6024000 2
17360 17362 17364 17365 1 180.0000771 15.1670000 2
17363 17362 17364 17365 1 180.0000771 15.1670000 2
17355 17364 17362 17360 1 180.0000771 15.1670000 2
17355 17364 17362 17363 1 180.0000771 15.1670000 2
17360 17364 17362 17363 4 180.0000771 4.6024000 2
17368 17369 17370 17371 1 180.0000771 15.1670000 2
17368 17369 17370 17372 1 180.0000771 15.1670000 2
17371 17369 17370 17372 4 180.0000771 4.6024000 2
17368 17369 17378 17370 4 180.0000771 4.6024000 2
17368 17369 17378 17376 1 180.0000771 15.1670000 2
17368 17369 17378 17379 1 180.0000771 15.1670000 2
17370 17369 17378 17376 1 180.0000771 15.1670000 2
17370 17369 17378 17379 1 180.0000771 15.1670000 2
17371 17370 17369 17378 1 180.0000771 15.1670000 2
17372 17370 17369 17378 1 180.0000771 15.1670000 2
17369 17370 17372 17373 1 180.0000771 15.1670000 2
17369 17370 17372 17374 1 180.0000771 15.1670000 2
17371 17370 17372 17373 1 180.0000771 15.1670000 2
17371 17370 17372 17374 1 180.0000771 15.1670000 2
17370 17372 17374 17375 1 180.0000771 15.1670000 2
17370 17372 17374 17376 1 180.0000771 15.1670000 2
17373 17372 17374 17375 1 180.0000771 15.1670000 2
17373 17372 17374 17376 1 180.0000771 15.1670000 2
17370 17374 17372 17373 4 180.0000771 4.6024000 2
17372 17374 17376 17377 1 180.0000771 15.1670000 2
17372 17374 17376 17378 1 180.0000771 15.1670000 2
17375 17374 17376 17377 1 180.0000771 15.1670000 2
17375 17374 17376 17378 1 180.0000771 15.1670000 2
17372 17376 17374 17375 4 180.0000771 4.6024000 2
17369 17376 17378 17379 4 180.0000771 4.6024000 2
17374 17376 17378 17379 1 180.0000771 15.1670000 2
17377 17376 17378 17379 1 180.0000771 15.1670000 2
17369 17378 17376 17374 1 180.0000771 15.1670000 2
17369 17378 17376 17377 1 180.0000771 15.1670000 2
17374 17378 17376 17377 4 180.0000771 4.6024000 2
17382 17383 17384 17385 1 180.0000771 15.1670000 2
17382 17383 17384 17386 1 180.0000771 15.1670000 2
17385 17383 17384 17386 4 180.0000771 4.6024000 2
17382 17383 17392 17384 4 180.0000771 4.6024000 2
17382 17383 17392 17390 1 180.0000771 15.1670000 2
17382 17383 17392 17393 1 180.0000771 15.1670000 2
17384 17383 17392 17390 1 180.0000771 15.1670000 2
17384 17383 17392 17393 1 180.0000771 15.1670000 2
17385 17384 17383 17392 1 180.0000771 15.1670000 2
17386 17384 17383 17392 1 180.0000771 15.1670000 2
17383 17384 17386 17387 1 180.0000771 15.1670000 2
17383 17384 17386 17388 1 180.0000771 15.1670000 2
17385 17384 17386 17387 1 180.0000771 15.1670000 2
17385 17384 17386 17388 1 180.0000771 15.1670000 2
17384 17386 17388 17389 1 180.0000771 15.1670000 2
17384 17386 17388 17390 1 180.0000771 15.1670000 2
17387 17386 17388 17389 1 180.0000771 15.1670000 2
17387 17386 17388 17390 1 180.0000771 15.1670000 2
17384 17388 17386 17387 4 180.0000771 4.6024000 2
17386 17388 17390 17391 1 180.0000771 15.1670000 2
17386 17388 17390 17392 1 180.0000771 15.1670000 2
17389 17388 17390 17391 1 180.0000771 15.1670000 2
17389 17388 17390 17392 1 180.0000771 15.1670000 2
17386 17390 17388 17389 4 180.0000771 4.6024000 2
17383 17390 17392 17393 4 180.0000771 4.6024000 2
17388 17390 17392 17393 1 180.0000771 15.1670000 2
17391 17390 17392 17393 1 180.0000771 15.1670000 2
17383 17392 17390 17388 1 180.0000771 15.1670000 2
17383 17392 17390 17391 1 180.0000771 15.1670000 2
17388 17392 17390 17391 4 180.0000771 4.6024000 2
17396 17397 17398 17399 1 180.0000771 15.1670000 2
17396 17397 17398 17400 1 180.0000771 15.1670000 2
17399 17397 17398 17400 4 180.0000771 4.6024000 2
17396 17397 17406 17398 4 180.0000771 4.6024000 2
17396 17397 17406 17404 1 180.0000771 15.1670000 2
17396 17397 17406 17407 1 180.0000771 15.1670000 2
17398 17397 17406 17404 1 180.0000771 15.1670000 2
17398 17397 17406 17407 1 180.0000771 15.1670000 2
17399 17398 17397 17406 1 180.0000771 15.1670000 2
17400 17398 17397 17406 1 180.0000771 15.1670000 2
17397 17398 17400 17401 1 180.0000771 15.1670000 2
17397 17398 17400 17402 1 180.0000771 15.1670000 2
17399 17398 17400 17401 1 180.0000771 15.1670000 2
17399 17398 17400 17402 1 180.0000771 15.1670000 2
17398 17400 17402 17403 1 180.0000771 15.1670000 2
17398 17400 17402 17404 1 180.0000771 15.1670000 2
17401 17400 17402 17403 1 180.0000771 15.1670000 2
17401 17400 17402 17404 1 180.0000771 15.1670000 2
17398 17402 17400 17401 4 180.0000771 4.6024000 2
17400 17402 17404 17405 1 180.0000771 15.1670000 2
17400 17402 17404 17406 1 180.0000771 15.1670000 2
17403 17402 17404 17405 1 180.0000771 15.1670000 2
17403 17402 17404 17406 1 180.0000771 15.1670000 2
17400 17404 17402 17403 4 180.0000771 4.6024000 2
17397 17404 17406 17407 4 180.0000771 4.6024000 2
17402 17404 17406 17407 1 180.0000771 15.1670000 2
17405 17404 17406 17407 1 180.0000771 15.1670000 2
17397 17406 17404 17402 1 180.0000771 15.1670000 2
17397 17406 17404 17405 1 180.0000771 15.1670000 2
17402 17406 17404 17405 4 180.0000771 4.6024000 2
17410 17411 17412 17413 1 180.0000771 15.1670000 2
17410 17411 17412 17414 1 180.0000771 15.1670000 2
17413 17411 17412 17414 4 180.0000771 4.6024000 2
17410 17411 17420 17412 4 180.0000771 4.6024000 2
17410 17411 17420 17418 1 180.0000771 15.1670000 2
17410 17411 17420 17421 1 180.0000771 15.1670000 2
17412 17411 17420 17418 1 180.0000771 15.1670000 2
17412 17411 17420 17421 1 180.0000771 15.1670000 2
17413 17412 17411 17420 1 180.0000771 15.1670000 2
17414 17412 17411 17420 1 180.0000771 15.1670000 2
17411 17412 17414 17415 1 180.0000771 15.1670000 2
17411 17412 17414 17416 1 180.0000771 15.1670000 2
17413 17412 17414 17415 1 180.0000771 15.1670000 2
17413 17412 17414 17416 1 180.0000771 15.1670000 2
17412 17414 17416 17417 1 180.0000771 15.1670000 2
17412 17414 17416 17418 1 180.0000771 15.1670000 2
17415 17414 17416 17417 1 180.0000771 15.1670000 2
17415 17414 17416 17418 1 180.0000771 15.1670000 2
17412 17416 17414 17415 4 180.0000771 4.6024000 2
17414 17416 17418 17419 1 180.0000771 15.1670000 2
17414 17416 17418 17420 1 180.0000771 15.1670000 2
17417 17416 17418 17419 1 180.0000771 15.1670000 2
17417 17416 17418 17420 1 180.0000771 15.1670000 2
17414 17418 17416 17417 4 180.0000771 4.6024000 2
17411 17418 17420 17421 4 180.0000771 4.6024000 2
17416 17418 17420 17421 1 180.0000771 15.1670000 2
17419 17418 17420 17421 1 180.0000771 15.1670000 2
17411 17420 17418 17416 1 180.0000771 15.1670000 2
17411 17420 17418 17419 1 180.0000771 15.1670000 2
17416 17420 17418 17419 4 180.0000771 4.6024000 2
17424 17425 17426 17427 1 180.0000771 15.1670000 2
17424 17425 17426 17428 1 180.0000771 15.1670000 2
17427 17425 17426 17428 4 180.0000771 4.6024000 2
17424 17425 17434 17426 4 180.0000771 4.6024000 2
17424 17425 17434 17432 1 180.0000771 15.1670000 2
17424 17425 17434 17435 1 180.0000771 15.1670000 2
17426 17425 17434 17432 1 180.0000771 15.1670000 2
17426 17425 17434 17435 1 180.0000771 15.1670000 2
17427 17426 17425 17434 1 180.0000771 15.1670000 2
17428 17426 17425 17434 1 180.0000771 15.1670000 2
17425 17426 17428 17429 1 180.0000771 15.1670000 2
17425 17426 17428 17430 1 180.0000771 15.1670000 2
17427 17426 17428 17429 1 180.0000771 15.1670000 2
17427 17426 17428 17430 1 180.0000771 15.1670000 2
17426 17428 17430 17431 1 180.0000771 15.1670000 2
17426 17428 17430 17432 1 180.0000771 15.1670000 2
17429 17428 17430 17431 1 180.0000771 15.1670000 2
17429 17428 17430 17432 1 180.0000771 15.1670000 2
17426 17430 17428 17429 4 180.0000771 4.6024000 2
17428 17430 17432 17433 1 180.0000771 15.1670000 2
17428 17430 17432 17434 1 180.0000771 15.1670000 2
17431 17430 17432 17433 1 180.0000771 15.1670000 2
17431 17430 17432 17434 1 180.0000771 15.1670000 2
17428 17432 17430 17431 4 180.0000771 4.6024000 2
17425 17432 17434 17435 4 180.0000771 4.6024000 2
17430 17432 17434 17435 1 180.0000771 15.1670000 2
17433 17432 17434 17435 1 180.0000771 15.1670000 2
17425 17434 17432 17430 1 180.0000771 15.1670000 2
17425 17434 17432 17433 1 180.0000771 15.1670000 2
17430 17434 17432 17433 4 180.0000771 4.6024000 2
17438 17439 17440 17441 1 180.0000771 15.1670000 2
17438 17439 17440 17442 1 180.0000771 15.1670000 2
17441 17439 17440 17442 4 180.0000771 4.6024000 2
17438 17439 17448 17440 4 180.0000771 4.6024000 2
17438 17439 17448 17446 1 180.0000771 15.1670000 2
17438 17439 17448 17449 1 180.0000771 15.1670000 2
17440 17439 17448 17446 1 180.0000771 15.1670000 2
17440 17439 17448 17449 1 180.0000771 15.1670000 2
17441 17440 17439 17448 1 180.0000771 15.1670000 2
17442 17440 17439 17448 1 180.0000771 15.1670000 2
17439 17440 17442 17443 1 180.0000771 15.1670000 2
17439 17440 17442 17444 1 180.0000771 15.1670000 2
17441 17440 17442 17443 1 180.0000771 15.1670000 2
17441 17440 17442 17444 1 180.0000771 15.1670000 2
17440 17442 17444 17445 1 180.0000771 15.1670000 2
17440 17442 17444 17446 1 180.0000771 15.1670000 2
17443 17442 17444 17445 1 180.0000771 15.1670000 2
17443 17442 17444 17446 1 180.0000771 15.1670000 2
17440 17444 17442 17443 4 180.0000771 4.6024000 2
17442 17444 17446 17447 1 180.0000771 15.1670000 2
17442 17444 17446 17448 1 180.0000771 15.1670000 2
17445 17444 17446 17447 1 180.0000771 15.1670000 2
17445 17444 17446 17448 1 180.0000771 15.1670000 2
17442 17446 17444 17445 4 180.0000771 4.6024000 2
17439 17446 17448 17449 4 180.0000771 4.6024000 2
17444 17446 17448 17449 1 180.0000771 15.1670000 2
17447 17446 17448 17449 1 180.0000771 15.1670000 2
17439 17448 17446 17444 1 180.0000771 15.1670000 2
17439 17448 17446 17447 1 180.0000771 15.1670000 2
17444 17448 17446 17447 4 180.0000771 4.6024000 2
17452 17453 17454 17455 1 180.0000771 15.1670000 2
17452 17453 17454 17456 1 180.0000771 15.1670000 2
17455 17453 17454 17456 4 180.0000771 4.6024000 2
17452 17453 17462 17454 4 180.0000771 4.6024000 2
17452 17453 17462 17460 1 180.0000771 15.1670000 2
17452 17453 17462 17463 1 180.0000771 15.1670000 2
17454 17453 17462 17460 1 180.0000771 15.1670000 2
17454 17453 17462 17463 1 180.0000771 15.1670000 2
17455 17454 17453 17462 1 180.0000771 15.1670000 2
17456 17454 17453 17462 1 180.0000771 15.1670000 2
17453 17454 17456 17457 1 180.0000771 15.1670000 2
17453 17454 17456 17458 1 180.0000771 15.1670000 2
17455 17454 17456 17457 1 180.0000771 15.1670000 2
17455 17454 17456 17458 1 180.0000771 15.1670000 2
17454 17456 17458 17459 1 180.0000771 15.1670000 2
17454 17456 17458 17460 1 180.0000771 15.1670000 2
17457 17456 17458 17459 1 180.0000771 15.1670000 2
17457 17456 17458 17460 1 180.0000771 15.1670000 2
17454 17458 17456 17457 4 180.0000771 4.6024000 2
17456 17458 17460 17461 1 180.0000771 15.1670000 2
17456 17458 17460 17462 1 180.0000771 15.1670000 2
17459 17458 17460 17461 1 180.0000771 15.1670000 2
17459 17458 17460 17462 1 180.0000771 15.1670000 2
17456 17460 17458 17459 4 180.0000771 4.6024000 2
17453 17460 17462 17463 4 180.0000771 4.6024000 2
17458 17460 17462 17463 1 180.0000771 15.1670000 2
17461 17460 17462 17463 1 180.0000771 15.1670000 2
17453 17462 17460 17458 1 180.0000771 15.1670000 2
17453 17462 17460 17461 1 180.0000771 15.1670000 2
17458 17462 17460 17461 4 180.0000771 4.6024000 2
17466 17467 17468 17469 1 180.0000771 15.1670000 2
17466 17467 17468 17470 1 180.0000771 15.1670000 2
17469 17467 17468 17470 4 180.0000771 4.6024000 2
17466 17467 17476 17468 4 180.0000771 4.6024000 2
17466 17467 17476 17474 1 180.0000771 15.1670000 2
17466 17467 17476 17477 1 180.0000771 15.1670000 2
17468 17467 17476 17474 1 180.0000771 15.1670000 2
17468 17467 17476 17477 1 180.0000771 15.1670000 2
17469 17468 17467 17476 1 180.0000771 15.1670000 2
17470 17468 17467 17476 1 180.0000771 15.1670000 2
17467 17468 17470 17471 1 180.0000771 15.1670000 2
17467 17468 17470 17472 1 180.0000771 15.1670000 2
17469 17468 17470 17471 1 180.0000771 15.1670000 2
17469 17468 17470 17472 1 180.0000771 15.1670000 2
17468 17470 17472 17473 1 180.0000771 15.1670000 2
17468 17470 17472 17474 1 180.0000771 15.1670000 2
17471 17470 17472 17473 1 180.0000771 15.1670000 2
17471 17470 17472 17474 1 180.0000771 15.1670000 2
17468 17472 17470 17471 4 180.0000771 4.6024000 2
17470 17472 17474 17475 1 180.0000771 15.1670000 2
17470 17472 17474 17476 1 180.0000771 15.1670000 2
17473 17472 17474 17475 1 180.0000771 15.1670000 2
17473 17472 17474 17476 1 180.0000771 15.1670000 2
17470 17474 17472 17473 4 180.0000771 4.6024000 2
17467 17474 17476 17477 4 180.0000771 4.6024000 2
17472 17474 17476 17477 1 180.0000771 15.1670000 2
17475 17474 17476 17477 1 180.0000771 15.1670000 2
17467 17476 17474 17472 1 180.0000771 15.1670000 2
17467 17476 17474 17475 1 180.0000771 15.1670000 2
17472 17476 17474 17475 4 180.0000771 4.6024000 2
17480 17481 17482 17483 1 180.0000771 15.1670000 2
17480 17481 17482 17484 1 180.0000771 15.1670000 2
17483 17481 17482 17484 4 180.0000771 4.6024000 2
17480 17481 17490 17482 4 180.0000771 4.6024000 2
17480 17481 17490 17488 1 180.0000771 15.1670000 2
17480 17481 17490 17491 1 180.0000771 15.1670000 2
17482 17481 17490 17488 1 180.0000771 15.1670000 2
17482 17481 17490 17491 1 180.0000771 15.1670000 2
17483 17482 17481 17490 1 180.0000771 15.1670000 2
17484 17482 17481 17490 1 180.0000771 15.1670000 2
17481 17482 17484 17485 1 180.0000771 15.1670000 2
17481 17482 17484 17486 1 180.0000771 15.1670000 2
17483 17482 17484 17485 1 180.0000771 15.1670000 2
17483 17482 17484 17486 1 180.0000771 15.1670000 2
17482 17484 17486 17487 1 180.0000771 15.1670000 2
17482 17484 17486 17488 1 180.0000771 15.1670000 2
17485 17484 17486 17487 1 180.0000771 15.1670000 2
17485 17484 17486 17488 1 180.0000771 15.1670000 2
17482 17486 17484 17485 4 180.0000771 4.6024000 2
17484 17486 17488 17489 1 180.0000771 15.1670000 2
17484 17486 17488 17490 1 180.0000771 15.1670000 2
17487 17486 17488 17489 1 180.0000771 15.1670000 2
17487 17486 17488 17490 1 180.0000771 15.1670000 2
17484 17488 17486 17487 4 180.0000771 4.6024000 2
17481 17488 17490 17491 4 180.0000771 4.6024000 2
17486 17488 17490 17491 1 180.0000771 15.1670000 2
17489 17488 17490 17491 1 180.0000771 15.1670000 2
17481 17490 17488 17486 1 180.0000771 15.1670000 2
17481 17490 17488 17489 1 180.0000771 15.1670000 2
17486 17490 17488 17489 4 180.0000771 4.6024000 2
17492 17493 17494 17495 1 180.0000771 15.1670000 2
17492 17493 17494 17496 1 180.0000771 15.1670000 2
17495 17493 17494 17496 4 180.0000771 4.6024000 2
17492 17493 17502 17494 4 180.0000771 4.6024000 2
17492 17493 17502 17500 1 180.0000771 15.1670000 2
17492 17493 17502 17503 1 180.0000771 15.1670000 2
17494 17493 17502 17500 1 180.0000771 15.1670000 2
17494 17493 17502 17503 1 180.0000771 15.1670000 2
17495 17494 17493 17502 1 180.0000771 15.1670000 2
17496 17494 17493 17502 1 180.0000771 15.1670000 2
17493 17494 17496 17497 1 180.0000771 15.1670000 2
17493 17494 17496 17498 1 180.0000771 15.1670000 2
17495 17494 17496 17497 1 180.0000771 15.1670000 2
17495 17494 17496 17498 1 180.0000771 15.1670000 2
17494 17496 17498 17499 1 180.0000771 15.1670000 2
17494 17496 17498 17500 1 180.0000771 15.1670000 2
17497 17496 17498 17499 1 180.0000771 15.1670000 2
17497 17496 17498 17500 1 180.0000771 15.1670000 2
17494 17498 17496 17497 4 180.0000771 4.6024000 2
17496 17498 17500 17501 1 180.0000771 15.1670000 2
17496 17498 17500 17502 1 180.0000771 15.1670000 2
17499 17498 17500 17501 1 180.0000771 15.1670000 2
17499 17498 17500 17502 1 180.0000771 15.1670000 2
17496 17500 17498 17499 4 180.0000771 4.6024000 2
17493 17500 17502 17503 4 180.0000771 4.6024000 2
17498 17500 17502 17503 1 180.0000771 15.1670000 2
17501 17500 17502 17503 1 180.0000771 15.1670000 2
17493 17502 17500 17498 1 180.0000771 15.1670000 2
17493 17502 17500 17501 1 180.0000771 15.1670000 2
17498 17502 17500 17501 4 180.0000771 4.6024000 2
17504 17505 17506 17507 1 180.0000771 15.1670000 2
17504 17505 17506 17508 1 180.0000771 15.1670000 2
17507 17505 17506 17508 4 180.0000771 4.6024000 2
17504 17505 17514 17506 4 180.0000771 4.6024000 2
17504 17505 17514 17512 1 180.0000771 15.1670000 2
17504 17505 17514 17515 1 180.0000771 15.1670000 2
17506 17505 17514 17512 1 180.0000771 15.1670000 2
17506 17505 17514 17515 1 180.0000771 15.1670000 2
17507 17506 17505 17514 1 180.0000771 15.1670000 2
17508 17506 17505 17514 1 180.0000771 15.1670000 2
17505 17506 17508 17509 1 180.0000771 15.1670000 2
17505 17506 17508 17510 1 180.0000771 15.1670000 2
17507 17506 17508 17509 1 180.0000771 15.1670000 2
17507 17506 17508 17510 1 180.0000771 15.1670000 2
17506 17508 17510 17511 1 180.0000771 15.1670000 2
17506 17508 17510 17512 1 180.0000771 15.1670000 2
17509 17508 17510 17511 1 180.0000771 15.1670000 2
17509 17508 17510 17512 1 180.0000771 15.1670000 2
17506 17510 17508 17509 4 180.0000771 4.6024000 2
17508 17510 17512 17513 1 180.0000771 15.1670000 2
17508 17510 17512 17514 1 180.0000771 15.1670000 2
17511 17510 17512 17513 1 180.0000771 15.1670000 2
17511 17510 17512 17514 1 180.0000771 15.1670000 2
17508 17512 17510 17511 4 180.0000771 4.6024000 2
17505 17512 17514 17515 4 180.0000771 4.6024000 2
17510 17512 17514 17515 1 180.0000771 15.1670000 2
17513 17512 17514 17515 1 180.0000771 15.1670000 2
17505 17514 17512 17510 1 180.0000771 15.1670000 2
17505 17514 17512 17513 1 180.0000771 15.1670000 2
17510 17514 17512 17513 4 180.0000771 4.6024000 2
17516 17517 17518 17519 1 180.0000771 15.1670000 2
17516 17517 17518 17520 1 180.0000771 15.1670000 2
17519 17517 17518 17520 4 180.0000771 4.6024000 2
17516 17517 17526 17518 4 180.0000771 4.6024000 2
17516 17517 17526 17524 1 180.0000771 15.1670000 2
17516 17517 17526 17527 1 180.0000771 15.1670000 2
17518 17517 17526 17524 1 180.0000771 15.1670000 2
17518 17517 17526 17527 1 180.0000771 15.1670000 2
17519 17518 17517 17526 1 180.0000771 15.1670000 2
17520 17518 17517 17526 1 180.0000771 15.1670000 2
17517 17518 17520 17521 1 180.0000771 15.1670000 2
17517 17518 17520 17522 1 180.0000771 15.1670000 2
17519 17518 17520 17521 1 180.0000771 15.1670000 2
17519 17518 17520 17522 1 180.0000771 15.1670000 2
17518 17520 17522 17523 1 180.0000771 15.1670000 2
17518 17520 17522 17524 1 180.0000771 15.1670000 2
17521 17520 17522 17523 1 180.0000771 15.1670000 2
17521 17520 17522 17524 1 180.0000771 15.1670000 2
17518 17522 17520 17521 4 180.0000771 4.6024000 2
17520 17522 17524 17525 1 180.0000771 15.1670000 2
17520 17522 17524 17526 1 180.0000771 15.1670000 2
17523 17522 17524 17525 1 180.0000771 15.1670000 2
17523 17522 17524 17526 1 180.0000771 15.1670000 2
17520 17524 17522 17523 4 180.0000771 4.6024000 2
17517 17524 17526 17527 4 180.0000771 4.6024000 2
17522 17524 17526 17527 1 180.0000771 15.1670000 2
17525 17524 17526 17527 1 180.0000771 15.1670000 2
17517 17526 17524 17522 1 180.0000771 15.1670000 2
17517 17526 17524 17525 1 180.0000771 15.1670000 2
17522 17526 17524 17525 4 180.0000771 4.6024000 2
17528 17529 17530 17531 1 180.0000771 15.1670000 2
17528 17529 17530 17532 1 180.0000771 15.1670000 2
17531 17529 17530 17532 4 180.0000771 4.6024000 2
17528 17529 17538 17530 4 180.0000771 4.6024000 2
17528 17529 17538 17536 1 180.0000771 15.1670000 2
17528 17529 17538 17539 1 180.0000771 15.1670000 2
17530 17529 17538 17536 1 180.0000771 15.1670000 2
17530 17529 17538 17539 1 180.0000771 15.1670000 2
17531 17530 17529 17538 1 180.0000771 15.1670000 2
17532 17530 17529 17538 1 180.0000771 15.1670000 2
17529 17530 17532 17533 1 180.0000771 15.1670000 2
17529 17530 17532 17534 1 180.0000771 15.1670000 2
17531 17530 17532 17533 1 180.0000771 15.1670000 2
17531 17530 17532 17534 1 180.0000771 15.1670000 2
17530 17532 17534 17535 1 180.0000771 15.1670000 2
17530 17532 17534 17536 1 180.0000771 15.1670000 2
17533 17532 17534 17535 1 180.0000771 15.1670000 2
17533 17532 17534 17536 1 180.0000771 15.1670000 2
17530 17534 17532 17533 4 180.0000771 4.6024000 2
17532 17534 17536 17537 1 180.0000771 15.1670000 2
17532 17534 17536 17538 1 180.0000771 15.1670000 2
17535 17534 17536 17537 1 180.0000771 15.1670000 2
17535 17534 17536 17538 1 180.0000771 15.1670000 2
17532 17536 17534 17535 4 180.0000771 4.6024000 2
17529 17536 17538 17539 4 180.0000771 4.6024000 2
17534 17536 17538 17539 1 180.0000771 15.1670000 2
17537 17536 17538 17539 1 180.0000771 15.1670000 2
17529 17538 17536 17534 1 180.0000771 15.1670000 2
17529 17538 17536 17537 1 180.0000771 15.1670000 2
17534 17538 17536 17537 4 180.0000771 4.6024000 2
17540 17541 17542 17543 1 180.0000771 15.1670000 2
17540 17541 17542 17544 1 180.0000771 15.1670000 2
17543 17541 17542 17544 4 180.0000771 4.6024000 2
17540 17541 17550 17542 4 180.0000771 4.6024000 2
17540 17541 17550 17548 1 180.0000771 15.1670000 2
17540 17541 17550 17551 1 180.0000771 15.1670000 2
17542 17541 17550 17548 1 180.0000771 15.1670000 2
17542 17541 17550 17551 1 180.0000771 15.1670000 2
17543 17542 17541 17550 1 180.0000771 15.1670000 2
17544 17542 17541 17550 1 180.0000771 15.1670000 2
17541 17542 17544 17545 1 180.0000771 15.1670000 2
17541 17542 17544 17546 1 180.0000771 15.1670000 2
17543 17542 17544 17545 1 180.0000771 15.1670000 2
17543 17542 17544 17546 1 180.0000771 15.1670000 2
17542 17544 17546 17547 1 180.0000771 15.1670000 2
17542 17544 17546 17548 1 180.0000771 15.1670000 2
17545 17544 17546 17547 1 180.0000771 15.1670000 2
17545 17544 17546 17548 1 180.0000771 15.1670000 2
17542 17546 17544 17545 4 180.0000771 4.6024000 2
17544 17546 17548 17549 1 180.0000771 15.1670000 2
17544 17546 17548 17550 1 180.0000771 15.1670000 2
17547 17546 17548 17549 1 180.0000771 15.1670000 2
17547 17546 17548 17550 1 180.0000771 15.1670000 2
17544 17548 17546 17547 4 180.0000771 4.6024000 2
17541 17548 17550 17551 4 180.0000771 4.6024000 2
17546 17548 17550 17551 1 180.0000771 15.1670000 2
17549 17548 17550 17551 1 180.0000771 15.1670000 2
17541 17550 17548 17546 1 180.0000771 15.1670000 2
17541 17550 17548 17549 1 180.0000771 15.1670000 2
17546 17550 17548 17549 4 180.0000771 4.6024000 2
17552 17553 17554 17555 1 180.0000771 15.1670000 2
17552 17553 17554 17556 1 180.0000771 15.1670000 2
17555 17553 17554 17556 4 180.0000771 4.6024000 2
17552 17553 17562 17554 4 180.0000771 4.6024000 2
17552 17553 17562 17560 1 180.0000771 15.1670000 2
17552 17553 17562 17563 1 180.0000771 15.1670000 2
17554 17553 17562 17560 1 180.0000771 15.1670000 2
17554 17553 17562 17563 1 180.0000771 15.1670000 2
17555 17554 17553 17562 1 180.0000771 15.1670000 2
17556 17554 17553 17562 1 180.0000771 15.1670000 2
17553 17554 17556 17557 1 180.0000771 15.1670000 2
17553 17554 17556 17558 1 180.0000771 15.1670000 2
17555 17554 17556 17557 1 180.0000771 15.1670000 2
17555 17554 17556 17558 1 180.0000771 15.1670000 2
17554 17556 17558 17559 1 180.0000771 15.1670000 2
17554 17556 17558 17560 1 180.0000771 15.1670000 2
17557 17556 17558 17559 1 180.0000771 15.1670000 2
17557 17556 17558 17560 1 180.0000771 15.1670000 2
17554 17558 17556 17557 4 180.0000771 4.6024000 2
17556 17558 17560 17561 1 180.0000771 15.1670000 2
17556 17558 17560 17562 1 180.0000771 15.1670000 2
17559 17558 17560 17561 1 180.0000771 15.1670000 2
17559 17558 17560 17562 1 180.0000771 15.1670000 2
17556 17560 17558 17559 4 180.0000771 4.6024000 2
17553 17560 17562 17563 4 180.0000771 4.6024000 2
17558 17560 17562 17563 1 180.0000771 15.1670000 2
17561 17560 17562 17563 1 180.0000771 15.1670000 2
17553 17562 17560 17558 1 180.0000771 15.1670000 2
17553 17562 17560 17561 1 180.0000771 15.1670000 2
17558 17562 17560 17561 4 180.0000771 4.6024000 2
17564 17565 17566 17567 1 180.0000771 15.1670000 2
17564 17565 17566 17568 1 180.0000771 15.1670000 2
17567 17565 17566 17568 4 180.0000771 4.6024000 2
17564 17565 17574 17566 4 180.0000771 4.6024000 2
17564 17565 17574 17572 1 180.0000771 15.1670000 2
17564 17565 17574 17575 1 180.0000771 15.1670000 2
17566 17565 17574 17572 1 180.0000771 15.1670000 2
17566 17565 17574 17575 1 180.0000771 15.1670000 2
17567 17566 17565 17574 1 180.0000771 15.1670000 2
17568 17566 17565 17574 1 180.0000771 15.1670000 2
17565 17566 17568 17569 1 180.0000771 15.1670000 2
17565 17566 17568 17570 1 180.0000771 15.1670000 2
17567 17566 17568 17569 1 180.0000771 15.1670000 2
17567 17566 17568 17570 1 180.0000771 15.1670000 2
17566 17568 17570 17571 1 180.0000771 15.1670000 2
17566 17568 17570 17572 1 180.0000771 15.1670000 2
17569 17568 17570 17571 1 180.0000771 15.1670000 2
17569 17568 17570 17572 1 180.0000771 15.1670000 2
17566 17570 17568 17569 4 180.0000771 4.6024000 2
17568 17570 17572 17573 1 180.0000771 15.1670000 2
17568 17570 17572 17574 1 180.0000771 15.1670000 2
17571 17570 17572 17573 1 180.0000771 15.1670000 2
17571 17570 17572 17574 1 180.0000771 15.1670000 2
17568 17572 17570 17571 4 180.0000771 4.6024000 2
17565 17572 17574 17575 4 180.0000771 4.6024000 2
17570 17572 17574 17575 1 180.0000771 15.1670000 2
17573 17572 17574 17575 1 180.0000771 15.1670000 2
17565 17574 17572 17570 1 180.0000771 15.1670000 2
17565 17574 17572 17573 1 180.0000771 15.1670000 2
17570 17574 17572 17573 4 180.0000771 4.6024000 2
17576 17577 17578 17579 1 180.0000771 15.1670000 2
17576 17577 17578 17580 1 180.0000771 15.1670000 2
17579 17577 17578 17580 4 180.0000771 4.6024000 2
17576 17577 17586 17578 4 180.0000771 4.6024000 2
17576 17577 17586 17584 1 180.0000771 15.1670000 2
17576 17577 17586 17587 1 180.0000771 15.1670000 2
17578 17577 17586 17584 1 180.0000771 15.1670000 2
17578 17577 17586 17587 1 180.0000771 15.1670000 2
17579 17578 17577 17586 1 180.0000771 15.1670000 2
17580 17578 17577 17586 1 180.0000771 15.1670000 2
17577 17578 17580 17581 1 180.0000771 15.1670000 2
17577 17578 17580 17582 1 180.0000771 15.1670000 2
17579 17578 17580 17581 1 180.0000771 15.1670000 2
17579 17578 17580 17582 1 180.0000771 15.1670000 2
17578 17580 17582 17583 1 180.0000771 15.1670000 2
17578 17580 17582 17584 1 180.0000771 15.1670000 2
17581 17580 17582 17583 1 180.0000771 15.1670000 2
17581 17580 17582 17584 1 180.0000771 15.1670000 2
17578 17582 17580 17581 4 180.0000771 4.6024000 2
17580 17582 17584 17585 1 180.0000771 15.1670000 2
17580 17582 17584 17586 1 180.0000771 15.1670000 2
17583 17582 17584 17585 1 180.0000771 15.1670000 2
17583 17582 17584 17586 1 180.0000771 15.1670000 2
17580 17584 17582 17583 4 180.0000771 4.6024000 2
17577 17584 17586 17587 4 180.0000771 4.6024000 2
17582 17584 17586 17587 1 180.0000771 15.1670000 2
17585 17584 17586 17587 1 180.0000771 15.1670000 2
17577 17586 17584 17582 1 180.0000771 15.1670000 2
17577 17586 17584 17585 1 180.0000771 15.1670000 2
17582 17586 17584 17585 4 180.0000771 4.6024000 2
17588 17589 17590 17591 1 180.0000771 15.1670000 2
17588 17589 17590 17592 1 180.0000771 15.1670000 2
17591 17589 17590 17592 4 180.0000771 4.6024000 2
17588 17589 17598 17590 4 180.0000771 4.6024000 2
17588 17589 17598 17596 1 180.0000771 15.1670000 2
17588 17589 17598 17599 1 180.0000771 15.1670000 2
17590 17589 17598 17596 1 180.0000771 15.1670000 2
17590 17589 17598 17599 1 180.0000771 15.1670000 2
17591 17590 17589 17598 1 180.0000771 15.1670000 2
17592 17590 17589 17598 1 180.0000771 15.1670000 2
17589 17590 17592 17593 1 180.0000771 15.1670000 2
17589 17590 17592 17594 1 180.0000771 15.1670000 2
17591 17590 17592 17593 1 180.0000771 15.1670000 2
17591 17590 17592 17594 1 180.0000771 15.1670000 2
17590 17592 17594 17595 1 180.0000771 15.1670000 2
17590 17592 17594 17596 1 180.0000771 15.1670000 2
17593 17592 17594 17595 1 180.0000771 15.1670000 2
17593 17592 17594 17596 1 180.0000771 15.1670000 2
17590 17594 17592 17593 4 180.0000771 4.6024000 2
17592 17594 17596 17597 1 180.0000771 15.1670000 2
17592 17594 17596 17598 1 180.0000771 15.1670000 2
17595 17594 17596 17597 1 180.0000771 15.1670000 2
17595 17594 17596 17598 1 180.0000771 15.1670000 2
17592 17596 17594 17595 4 180.0000771 4.6024000 2
17589 17596 17598 17599 4 180.0000771 4.6024000 2
17594 17596 17598 17599 1 180.0000771 15.1670000 2
17597 17596 17598 17599 1 180.0000771 15.1670000 2
17589 17598 17596 17594 1 180.0000771 15.1670000 2
17589 17598 17596 17597 1 180.0000771 15.1670000 2
17594 17598 17596 17597 4 180.0000771 4.6024000 2
17600 17601 17602 17603 1 180.0000771 15.1670000 2
17600 17601 17602 17604 1 180.0000771 15.1670000 2
17603 17601 17602 17604 4 180.0000771 4.6024000 2
17600 17601 17610 17602 4 180.0000771 4.6024000 2
17600 17601 17610 17608 1 180.0000771 15.1670000 2
17600 17601 17610 17611 1 180.0000771 15.1670000 2
17602 17601 17610 17608 1 180.0000771 15.1670000 2
17602 17601 17610 17611 1 180.0000771 15.1670000 2
17603 17602 17601 17610 1 180.0000771 15.1670000 2
17604 17602 17601 17610 1 180.0000771 15.1670000 2
17601 17602 17604 17605 1 180.0000771 15.1670000 2
17601 17602 17604 17606 1 180.0000771 15.1670000 2
17603 17602 17604 17605 1 180.0000771 15.1670000 2
17603 17602 17604 17606 1 180.0000771 15.1670000 2
17602 17604 17606 17607 1 180.0000771 15.1670000 2
17602 17604 17606 17608 1 180.0000771 15.1670000 2
17605 17604 17606 17607 1 180.0000771 15.1670000 2
17605 17604 17606 17608 1 180.0000771 15.1670000 2
17602 17606 17604 17605 4 180.0000771 4.6024000 2
17604 17606 17608 17609 1 180.0000771 15.1670000 2
17604 17606 17608 17610 1 180.0000771 15.1670000 2
17607 17606 17608 17609 1 180.0000771 15.1670000 2
17607 17606 17608 17610 1 180.0000771 15.1670000 2
17604 17608 17606 17607 4 180.0000771 4.6024000 2
17601 17608 17610 17611 4 180.0000771 4.6024000 2
17606 17608 17610 17611 1 180.0000771 15.1670000 2
17609 17608 17610 17611 1 180.0000771 15.1670000 2
17601 17610 17608 17606 1 180.0000771 15.1670000 2
17601 17610 17608 17609 1 180.0000771 15.1670000 2
17606 17610 17608 17609 4 180.0000771 4.6024000 2
17612 17613 17614 17615 1 180.0000771 15.1670000 2
17612 17613 17614 17616 1 180.0000771 15.1670000 2
17615 17613 17614 17616 4 180.0000771 4.6024000 2
17612 17613 17622 17614 4 180.0000771 4.6024000 2
17612 17613 17622 17620 1 180.0000771 15.1670000 2
17612 17613 17622 17623 1 180.0000771 15.1670000 2
17614 17613 17622 17620 1 180.0000771 15.1670000 2
17614 17613 17622 17623 1 180.0000771 15.1670000 2
17615 17614 17613 17622 1 180.0000771 15.1670000 2
17616 17614 17613 17622 1 180.0000771 15.1670000 2
17613 17614 17616 17617 1 180.0000771 15.1670000 2
17613 17614 17616 17618 1 180.0000771 15.1670000 2
17615 17614 17616 17617 1 180.0000771 15.1670000 2
17615 17614 17616 17618 1 180.0000771 15.1670000 2
17614 17616 17618 17619 1 180.0000771 15.1670000 2
17614 17616 17618 17620 1 180.0000771 15.1670000 2
17617 17616 17618 17619 1 180.0000771 15.1670000 2
17617 17616 17618 17620 1 180.0000771 15.1670000 2
17614 17618 17616 17617 4 180.0000771 4.6024000 2
17616 17618 17620 17621 1 180.0000771 15.1670000 2
17616 17618 17620 17622 1 180.0000771 15.1670000 2
17619 17618 17620 17621 1 180.0000771 15.1670000 2
17619 17618 17620 17622 1 180.0000771 15.1670000 2
17616 17620 17618 17619 4 180.0000771 4.6024000 2
17613 17620 17622 17623 4 180.0000771 4.6024000 2
17618 17620 17622 17623 1 180.0000771 15.1670000 2
17621 17620 17622 17623 1 180.0000771 15.1670000 2
17613 17622 17620 17618 1 180.0000771 15.1670000 2
17613 17622 17620 17621 1 180.0000771 15.1670000 2
17618 17622 17620 17621 4 180.0000771 4.6024000 2
17624 17625 17626 17627 1 180.0000771 15.1670000 2
17624 17625 17626 17628 1 180.0000771 15.1670000 2
17627 17625 17626 17628 4 180.0000771 4.6024000 2
17624 17625 17634 17626 4 180.0000771 4.6024000 2
17624 17625 17634 17632 1 180.0000771 15.1670000 2
17624 17625 17634 17635 1 180.0000771 15.1670000 2
17626 17625 17634 17632 1 180.0000771 15.1670000 2
17626 17625 17634 17635 1 180.0000771 15.1670000 2
17627 17626 17625 17634 1 180.0000771 15.1670000 2
17628 17626 17625 17634 1 180.0000771 15.1670000 2
17625 17626 17628 17629 1 180.0000771 15.1670000 2
17625 17626 17628 17630 1 180.0000771 15.1670000 2
17627 17626 17628 17629 1 180.0000771 15.1670000 2
17627 17626 17628 17630 1 180.0000771 15.1670000 2
17626 17628 17630 17631 1 180.0000771 15.1670000 2
17626 17628 17630 17632 1 180.0000771 15.1670000 2
17629 17628 17630 17631 1 180.0000771 15.1670000 2
17629 17628 17630 17632 1 180.0000771 15.1670000 2
17626 17630 17628 17629 4 180.0000771 4.6024000 2
17628 17630 17632 17633 1 180.0000771 15.1670000 2
17628 17630 17632 17634 1 180.0000771 15.1670000 2
17631 17630 17632 17633 1 180.0000771 15.1670000 2
17631 17630 17632 17634 1 180.0000771 15.1670000 2
17628 17632 17630 17631 4 180.0000771 4.6024000 2
17625 17632 17634 17635 4 180.0000771 4.6024000 2
17630 17632 17634 17635 1 180.0000771 15.1670000 2
17633 17632 17634 17635 1 180.0000771 15.1670000 2
17625 17634 17632 17630 1 180.0000771 15.1670000 2
17625 17634 17632 17633 1 180.0000771 15.1670000 2
17630 17634 17632 17633 4 180.0000771 4.6024000 2
17636 17637 17638 17639 1 180.0000771 15.1670000 2
17636 17637 17638 17640 1 180.0000771 15.1670000 2
17639 17637 17638 17640 4 180.0000771 4.6024000 2
17636 17637 17646 17638 4 180.0000771 4.6024000 2
17636 17637 17646 17644 1 180.0000771 15.1670000 2
17636 17637 17646 17647 1 180.0000771 15.1670000 2
17638 17637 17646 17644 1 180.0000771 15.1670000 2
17638 17637 17646 17647 1 180.0000771 15.1670000 2
17639 17638 17637 17646 1 180.0000771 15.1670000 2
17640 17638 17637 17646 1 180.0000771 15.1670000 2
17637 17638 17640 17641 1 180.0000771 15.1670000 2
17637 17638 17640 17642 1 180.0000771 15.1670000 2
17639 17638 17640 17641 1 180.0000771 15.1670000 2
17639 17638 17640 17642 1 180.0000771 15.1670000 2
17638 17640 17642 17643 1 180.0000771 15.1670000 2
17638 17640 17642 17644 1 180.0000771 15.1670000 2
17641 17640 17642 17643 1 180.0000771 15.1670000 2
17641 17640 17642 17644 1 180.0000771 15.1670000 2
17638 17642 17640 17641 4 180.0000771 4.6024000 2
17640 17642 17644 17645 1 180.0000771 15.1670000 2
17640 17642 17644 17646 1 180.0000771 15.1670000 2
17643 17642 17644 17645 1 180.0000771 15.1670000 2
17643 17642 17644 17646 1 180.0000771 15.1670000 2
17640 17644 17642 17643 4 180.0000771 4.6024000 2
17637 17644 17646 17647 4 180.0000771 4.6024000 2
17642 17644 17646 17647 1 180.0000771 15.1670000 2
17645 17644 17646 17647 1 180.0000771 15.1670000 2
17637 17646 17644 17642 1 180.0000771 15.1670000 2
17637 17646 17644 17645 1 180.0000771 15.1670000 2
17642 17646 17644 17645 4 180.0000771 4.6024000 2
17648 17649 17650 17651 1 180.0000771 15.1670000 2
17648 17649 17650 17652 1 180.0000771 15.1670000 2
17651 17649 17650 17652 4 180.0000771 4.6024000 2
17648 17649 17658 17650 4 180.0000771 4.6024000 2
17648 17649 17658 17656 1 180.0000771 15.1670000 2
17648 17649 17658 17659 1 180.0000771 15.1670000 2
17650 17649 17658 17656 1 180.0000771 15.1670000 2
17650 17649 17658 17659 1 180.0000771 15.1670000 2
17651 17650 17649 17658 1 180.0000771 15.1670000 2
17652 17650 17649 17658 1 180.0000771 15.1670000 2
17649 17650 17652 17653 1 180.0000771 15.1670000 2
17649 17650 17652 17654 1 180.0000771 15.1670000 2
17651 17650 17652 17653 1 180.0000771 15.1670000 2
17651 17650 17652 17654 1 180.0000771 15.1670000 2
17650 17652 17654 17655 1 180.0000771 15.1670000 2
17650 17652 17654 17656 1 180.0000771 15.1670000 2
17653 17652 17654 17655 1 180.0000771 15.1670000 2
17653 17652 17654 17656 1 180.0000771 15.1670000 2
17650 17654 17652 17653 4 180.0000771 4.6024000 2
17652 17654 17656 17657 1 180.0000771 15.1670000 2
17652 17654 17656 17658 1 180.0000771 15.1670000 2
17655 17654 17656 17657 1 180.0000771 15.1670000 2
17655 17654 17656 17658 1 180.0000771 15.1670000 2
17652 17656 17654 17655 4 180.0000771 4.6024000 2
17649 17656 17658 17659 4 180.0000771 4.6024000 2
17654 17656 17658 17659 1 180.0000771 15.1670000 2
17657 17656 17658 17659 1 180.0000771 15.1670000 2
17649 17658 17656 17654 1 180.0000771 15.1670000 2
17649 17658 17656 17657 1 180.0000771 15.1670000 2
17654 17658 17656 17657 4 180.0000771 4.6024000 2
17660 17661 17662 17663 1 180.0000771 15.1670000 2
17660 17661 17662 17664 1 180.0000771 15.1670000 2
17663 17661 17662 17664 4 180.0000771 4.6024000 2
17660 17661 17670 17662 4 180.0000771 4.6024000 2
17660 17661 17670 17668 1 180.0000771 15.1670000 2
17660 17661 17670 17671 1 180.0000771 15.1670000 2
17662 17661 17670 17668 1 180.0000771 15.1670000 2
17662 17661 17670 17671 1 180.0000771 15.1670000 2
17663 17662 17661 17670 1 180.0000771 15.1670000 2
17664 17662 17661 17670 1 180.0000771 15.1670000 2
17661 17662 17664 17665 1 180.0000771 15.1670000 2
17661 17662 17664 17666 1 180.0000771 15.1670000 2
17663 17662 17664 17665 1 180.0000771 15.1670000 2
17663 17662 17664 17666 1 180.0000771 15.1670000 2
17662 17664 17666 17667 1 180.0000771 15.1670000 2
17662 17664 17666 17668 1 180.0000771 15.1670000 2
17665 17664 17666 17667 1 180.0000771 15.1670000 2
17665 17664 17666 17668 1 180.0000771 15.1670000 2
17662 17666 17664 17665 4 180.0000771 4.6024000 2
17664 17666 17668 17669 1 180.0000771 15.1670000 2
17664 17666 17668 17670 1 180.0000771 15.1670000 2
17667 17666 17668 17669 1 180.0000771 15.1670000 2
17667 17666 17668 17670 1 180.0000771 15.1670000 2
17664 17668 17666 17667 4 180.0000771 4.6024000 2
17661 17668 17670 17671 4 180.0000771 4.6024000 2
17666 17668 17670 17671 1 180.0000771 15.1670000 2
17669 17668 17670 17671 1 180.0000771 15.1670000 2
17661 17670 17668 17666 1 180.0000771 15.1670000 2
17661 17670 17668 17669 1 180.0000771 15.1670000 2
17666 17670 17668 17669 4 180.0000771 4.6024000 2
17672 17673 17674 17675 1 180.0000771 15.1670000 2
17672 17673 17674 17676 1 180.0000771 15.1670000 2
17675 17673 17674 17676 4 180.0000771 4.6024000 2
17672 17673 17682 17674 4 180.0000771 4.6024000 2
17672 17673 17682 17680 1 180.0000771 15.1670000 2
17672 17673 17682 17683 1 180.0000771 15.1670000 2
17674 17673 17682 17680 1 180.0000771 15.1670000 2
17674 17673 17682 17683 1 180.0000771 15.1670000 2
17675 17674 17673 17682 1 180.0000771 15.1670000 2
17676 17674 17673 17682 1 180.0000771 15.1670000 2
17673 17674 17676 17677 1 180.0000771 15.1670000 2
17673 17674 17676 17678 1 180.0000771 15.1670000 2
17675 17674 17676 17677 1 180.0000771 15.1670000 2
17675 17674 17676 17678 1 180.0000771 15.1670000 2
17674 17676 17678 17679 1 180.0000771 15.1670000 2
17674 17676 17678 17680 1 180.0000771 15.1670000 2
17677 17676 17678 17679 1 180.0000771 15.1670000 2
17677 17676 17678 17680 1 180.0000771 15.1670000 2
17674 17678 17676 17677 4 180.0000771 4.6024000 2
17676 17678 17680 17681 1 180.0000771 15.1670000 2
17676 17678 17680 17682 1 180.0000771 15.1670000 2
17679 17678 17680 17681 1 180.0000771 15.1670000 2
17679 17678 17680 17682 1 180.0000771 15.1670000 2
17676 17680 17678 17679 4 180.0000771 4.6024000 2
17673 17680 17682 17683 4 180.0000771 4.6024000 2
17678 17680 17682 17683 1 180.0000771 15.1670000 2
17681 17680 17682 17683 1 180.0000771 15.1670000 2
17673 17682 17680 17678 1 180.0000771 15.1670000 2
17673 17682 17680 17681 1 180.0000771 15.1670000 2
17678 17682 17680 17681 4 180.0000771 4.6024000 2
17684 17685 17686 17687 1 180.0000771 15.1670000 2
17684 17685 17686 17688 1 180.0000771 15.1670000 2
17687 17685 17686 17688 4 180.0000771 4.6024000 2
17684 17685 17694 17686 4 180.0000771 4.6024000 2
17684 17685 17694 17692 1 180.0000771 15.1670000 2
17684 17685 17694 17695 1 180.0000771 15.1670000 2
17686 17685 17694 17692 1 180.0000771 15.1670000 2
17686 17685 17694 17695 1 180.0000771 15.1670000 2
17687 17686 17685 17694 1 180.0000771 15.1670000 2
17688 17686 17685 17694 1 180.0000771 15.1670000 2
17685 17686 17688 17689 1 180.0000771 15.1670000 2
17685 17686 17688 17690 1 180.0000771 15.1670000 2
17687 17686 17688 17689 1 180.0000771 15.1670000 2
17687 17686 17688 17690 1 180.0000771 15.1670000 2
17686 17688 17690 17691 1 180.0000771 15.1670000 2
17686 17688 17690 17692 1 180.0000771 15.1670000 2
17689 17688 17690 17691 1 180.0000771 15.1670000 2
17689 17688 17690 17692 1 180.0000771 15.1670000 2
17686 17690 17688 17689 4 180.0000771 4.6024000 2
17688 17690 17692 17693 1 180.0000771 15.1670000 2
17688 17690 17692 17694 1 180.0000771 15.1670000 2
17691 17690 17692 17693 1 180.0000771 15.1670000 2
17691 17690 17692 17694 1 180.0000771 15.1670000 2
17688 17692 17690 17691 4 180.0000771 4.6024000 2
17685 17692 17694 17695 4 180.0000771 4.6024000 2
17690 17692 17694 17695 1 180.0000771 15.1670000 2
17693 17692 17694 17695 1 180.0000771 15.1670000 2
17685 17694 17692 17690 1 180.0000771 15.1670000 2
17685 17694 17692 17693 1 180.0000771 15.1670000 2
17690 17694 17692 17693 4 180.0000771 4.6024000 2
17696 17697 17698 17699 1 180.0000771 15.1670000 2
17696 17697 17698 17700 1 180.0000771 15.1670000 2
17699 17697 17698 17700 4 180.0000771 4.6024000 2
17696 17697 17706 17698 4 180.0000771 4.6024000 2
17696 17697 17706 17704 1 180.0000771 15.1670000 2
17696 17697 17706 17707 1 180.0000771 15.1670000 2
17698 17697 17706 17704 1 180.0000771 15.1670000 2
17698 17697 17706 17707 1 180.0000771 15.1670000 2
17699 17698 17697 17706 1 180.0000771 15.1670000 2
17700 17698 17697 17706 1 180.0000771 15.1670000 2
17697 17698 17700 17701 1 180.0000771 15.1670000 2
17697 17698 17700 17702 1 180.0000771 15.1670000 2
17699 17698 17700 17701 1 180.0000771 15.1670000 2
17699 17698 17700 17702 1 180.0000771 15.1670000 2
17698 17700 17702 17703 1 180.0000771 15.1670000 2
17698 17700 17702 17704 1 180.0000771 15.1670000 2
17701 17700 17702 17703 1 180.0000771 15.1670000 2
17701 17700 17702 17704 1 180.0000771 15.1670000 2
17698 17702 17700 17701 4 180.0000771 4.6024000 2
17700 17702 17704 17705 1 180.0000771 15.1670000 2
17700 17702 17704 17706 1 180.0000771 15.1670000 2
17703 17702 17704 17705 1 180.0000771 15.1670000 2
17703 17702 17704 17706 1 180.0000771 15.1670000 2
17700 17704 17702 17703 4 180.0000771 4.6024000 2
17697 17704 17706 17707 4 180.0000771 4.6024000 2
17702 17704 17706 17707 1 180.0000771 15.1670000 2
17705 17704 17706 17707 1 180.0000771 15.1670000 2
17697 17706 17704 17702 1 180.0000771 15.1670000 2
17697 17706 17704 17705 1 180.0000771 15.1670000 2
17702 17706 17704 17705 4 180.0000771 4.6024000 2
17708 17709 17710 17711 1 180.0000771 15.1670000 2
17708 17709 17710 17712 1 180.0000771 15.1670000 2
17711 17709 17710 17712 4 180.0000771 4.6024000 2
17708 17709 17718 17710 4 180.0000771 4.6024000 2
17708 17709 17718 17716 1 180.0000771 15.1670000 2
17708 17709 17718 17719 1 180.0000771 15.1670000 2
17710 17709 17718 17716 1 180.0000771 15.1670000 2
17710 17709 17718 17719 1 180.0000771 15.1670000 2
17711 17710 17709 17718 1 180.0000771 15.1670000 2
17712 17710 17709 17718 1 180.0000771 15.1670000 2
17709 17710 17712 17713 1 180.0000771 15.1670000 2
17709 17710 17712 17714 1 180.0000771 15.1670000 2
17711 17710 17712 17713 1 180.0000771 15.1670000 2
17711 17710 17712 17714 1 180.0000771 15.1670000 2
17710 17712 17714 17715 1 180.0000771 15.1670000 2
17710 17712 17714 17716 1 180.0000771 15.1670000 2
17713 17712 17714 17715 1 180.0000771 15.1670000 2
17713 17712 17714 17716 1 180.0000771 15.1670000 2
17710 17714 17712 17713 4 180.0000771 4.6024000 2
17712 17714 17716 17717 1 180.0000771 15.1670000 2
17712 17714 17716 17718 1 180.0000771 15.1670000 2
17715 17714 17716 17717 1 180.0000771 15.1670000 2
17715 17714 17716 17718 1 180.0000771 15.1670000 2
17712 17716 17714 17715 4 180.0000771 4.6024000 2
17709 17716 17718 17719 4 180.0000771 4.6024000 2
17714 17716 17718 17719 1 180.0000771 15.1670000 2
17717 17716 17718 17719 1 180.0000771 15.1670000 2
17709 17718 17716 17714 1 180.0000771 15.1670000 2
17709 17718 17716 17717 1 180.0000771 15.1670000 2
17714 17718 17716 17717 4 180.0000771 4.6024000 2
17720 17721 17722 17723 1 180.0000771 15.1670000 2
17720 17721 17722 17724 1 180.0000771 15.1670000 2
17723 17721 17722 17724 4 180.0000771 4.6024000 2
17720 17721 17730 17722 4 180.0000771 4.6024000 2
17720 17721 17730 17728 1 180.0000771 15.1670000 2
17720 17721 17730 17731 1 180.0000771 15.1670000 2
17722 17721 17730 17728 1 180.0000771 15.1670000 2
17722 17721 17730 17731 1 180.0000771 15.1670000 2
17723 17722 17721 17730 1 180.0000771 15.1670000 2
17724 17722 17721 17730 1 180.0000771 15.1670000 2
17721 17722 17724 17725 1 180.0000771 15.1670000 2
17721 17722 17724 17726 1 180.0000771 15.1670000 2
17723 17722 17724 17725 1 180.0000771 15.1670000 2
17723 17722 17724 17726 1 180.0000771 15.1670000 2
17722 17724 17726 17727 1 180.0000771 15.1670000 2
17722 17724 17726 17728 1 180.0000771 15.1670000 2
17725 17724 17726 17727 1 180.0000771 15.1670000 2
17725 17724 17726 17728 1 180.0000771 15.1670000 2
17722 17726 17724 17725 4 180.0000771 4.6024000 2
17724 17726 17728 17729 1 180.0000771 15.1670000 2
17724 17726 17728 17730 1 180.0000771 15.1670000 2
17727 17726 17728 17729 1 180.0000771 15.1670000 2
17727 17726 17728 17730 1 180.0000771 15.1670000 2
17724 17728 17726 17727 4 180.0000771 4.6024000 2
17721 17728 17730 17731 4 180.0000771 4.6024000 2
17726 17728 17730 17731 1 180.0000771 15.1670000 2
17729 17728 17730 17731 1 180.0000771 15.1670000 2
17721 17730 17728 17726 1 180.0000771 15.1670000 2
17721 17730 17728 17729 1 180.0000771 15.1670000 2
17726 17730 17728 17729 4 180.0000771 4.6024000 2
17732 17733 17734 17735 1 180.0000771 15.1670000 2
17732 17733 17734 17736 1 180.0000771 15.1670000 2
17735 17733 17734 17736 4 180.0000771 4.6024000 2
17732 17733 17742 17734 4 180.0000771 4.6024000 2
17732 17733 17742 17740 1 180.0000771 15.1670000 2
17732 17733 17742 17743 1 180.0000771 15.1670000 2
17734 17733 17742 17740 1 180.0000771 15.1670000 2
17734 17733 17742 17743 1 180.0000771 15.1670000 2
17735 17734 17733 17742 1 180.0000771 15.1670000 2
17736 17734 17733 17742 1 180.0000771 15.1670000 2
17733 17734 17736 17737 1 180.0000771 15.1670000 2
17733 17734 17736 17738 1 180.0000771 15.1670000 2
17735 17734 17736 17737 1 180.0000771 15.1670000 2
17735 17734 17736 17738 1 180.0000771 15.1670000 2
17734 17736 17738 17739 1 180.0000771 15.1670000 2
17734 17736 17738 17740 1 180.0000771 15.1670000 2
17737 17736 17738 17739 1 180.0000771 15.1670000 2
17737 17736 17738 17740 1 180.0000771 15.1670000 2
17734 17738 17736 17737 4 180.0000771 4.6024000 2
17736 17738 17740 17741 1 180.0000771 15.1670000 2
17736 17738 17740 17742 1 180.0000771 15.1670000 2
17739 17738 17740 17741 1 180.0000771 15.1670000 2
17739 17738 17740 17742 1 180.0000771 15.1670000 2
17736 17740 17738 17739 4 180.0000771 4.6024000 2
17733 17740 17742 17743 4 180.0000771 4.6024000 2
17738 17740 17742 17743 1 180.0000771 15.1670000 2
17741 17740 17742 17743 1 180.0000771 15.1670000 2
17733 17742 17740 17738 1 180.0000771 15.1670000 2
17733 17742 17740 17741 1 180.0000771 15.1670000 2
17738 17742 17740 17741 4 180.0000771 4.6024000 2
17744 17745 17746 17747 1 180.0000771 15.1670000 2
17744 17745 17746 17748 1 180.0000771 15.1670000 2
17747 17745 17746 17748 4 180.0000771 4.6024000 2
17744 17745 17754 17746 4 180.0000771 4.6024000 2
17744 17745 17754 17752 1 180.0000771 15.1670000 2
17744 17745 17754 17755 1 180.0000771 15.1670000 2
17746 17745 17754 17752 1 180.0000771 15.1670000 2
17746 17745 17754 17755 1 180.0000771 15.1670000 2
17747 17746 17745 17754 1 180.0000771 15.1670000 2
17748 17746 17745 17754 1 180.0000771 15.1670000 2
17745 17746 17748 17749 1 180.0000771 15.1670000 2
17745 17746 17748 17750 1 180.0000771 15.1670000 2
17747 17746 17748 17749 1 180.0000771 15.1670000 2
17747 17746 17748 17750 1 180.0000771 15.1670000 2
17746 17748 17750 17751 1 180.0000771 15.1670000 2
17746 17748 17750 17752 1 180.0000771 15.1670000 2
17749 17748 17750 17751 1 180.0000771 15.1670000 2
17749 17748 17750 17752 1 180.0000771 15.1670000 2
17746 17750 17748 17749 4 180.0000771 4.6024000 2
17748 17750 17752 17753 1 180.0000771 15.1670000 2
17748 17750 17752 17754 1 180.0000771 15.1670000 2
17751 17750 17752 17753 1 180.0000771 15.1670000 2
17751 17750 17752 17754 1 180.0000771 15.1670000 2
17748 17752 17750 17751 4 180.0000771 4.6024000 2
17745 17752 17754 17755 4 180.0000771 4.6024000 2
17750 17752 17754 17755 1 180.0000771 15.1670000 2
17753 17752 17754 17755 1 180.0000771 15.1670000 2
17745 17754 17752 17750 1 180.0000771 15.1670000 2
17745 17754 17752 17753 1 180.0000771 15.1670000 2
17750 17754 17752 17753 4 180.0000771 4.6024000 2
17756 17757 17758 17759 1 180.0000771 15.1670000 2
17756 17757 17758 17760 1 180.0000771 15.1670000 2
17759 17757 17758 17760 4 180.0000771 4.6024000 2
17756 17757 17766 17758 4 180.0000771 4.6024000 2
17756 17757 17766 17764 1 180.0000771 15.1670000 2
17756 17757 17766 17767 1 180.0000771 15.1670000 2
17758 17757 17766 17764 1 180.0000771 15.1670000 2
17758 17757 17766 17767 1 180.0000771 15.1670000 2
17759 17758 17757 17766 1 180.0000771 15.1670000 2
17760 17758 17757 17766 1 180.0000771 15.1670000 2
17757 17758 17760 17761 1 180.0000771 15.1670000 2
17757 17758 17760 17762 1 180.0000771 15.1670000 2
17759 17758 17760 17761 1 180.0000771 15.1670000 2
17759 17758 17760 17762 1 180.0000771 15.1670000 2
17758 17760 17762 17763 1 180.0000771 15.1670000 2
17758 17760 17762 17764 1 180.0000771 15.1670000 2
17761 17760 17762 17763 1 180.0000771 15.1670000 2
17761 17760 17762 17764 1 180.0000771 15.1670000 2
17758 17762 17760 17761 4 180.0000771 4.6024000 2
17760 17762 17764 17765 1 180.0000771 15.1670000 2
17760 17762 17764 17766 1 180.0000771 15.1670000 2
17763 17762 17764 17765 1 180.0000771 15.1670000 2
17763 17762 17764 17766 1 180.0000771 15.1670000 2
17760 17764 17762 17763 4 180.0000771 4.6024000 2
17757 17764 17766 17767 4 180.0000771 4.6024000 2
17762 17764 17766 17767 1 180.0000771 15.1670000 2
17765 17764 17766 17767 1 180.0000771 15.1670000 2
17757 17766 17764 17762 1 180.0000771 15.1670000 2
17757 17766 17764 17765 1 180.0000771 15.1670000 2
17762 17766 17764 17765 4 180.0000771 4.6024000 2
17768 17769 17770 17771 1 180.0000771 15.1670000 2
17768 17769 17770 17772 1 180.0000771 15.1670000 2
17771 17769 17770 17772 4 180.0000771 4.6024000 2
17768 17769 17778 17770 4 180.0000771 4.6024000 2
17768 17769 17778 17776 1 180.0000771 15.1670000 2
17768 17769 17778 17779 1 180.0000771 15.1670000 2
17770 17769 17778 17776 1 180.0000771 15.1670000 2
17770 17769 17778 17779 1 180.0000771 15.1670000 2
17771 17770 17769 17778 1 180.0000771 15.1670000 2
17772 17770 17769 17778 1 180.0000771 15.1670000 2
17769 17770 17772 17773 1 180.0000771 15.1670000 2
17769 17770 17772 17774 1 180.0000771 15.1670000 2
17771 17770 17772 17773 1 180.0000771 15.1670000 2
17771 17770 17772 17774 1 180.0000771 15.1670000 2
17770 17772 17774 17775 1 180.0000771 15.1670000 2
17770 17772 17774 17776 1 180.0000771 15.1670000 2
17773 17772 17774 17775 1 180.0000771 15.1670000 2
17773 17772 17774 17776 1 180.0000771 15.1670000 2
17770 17774 17772 17773 4 180.0000771 4.6024000 2
17772 17774 17776 17777 1 180.0000771 15.1670000 2
17772 17774 17776 17778 1 180.0000771 15.1670000 2
17775 17774 17776 17777 1 180.0000771 15.1670000 2
17775 17774 17776 17778 1 180.0000771 15.1670000 2
17772 17776 17774 17775 4 180.0000771 4.6024000 2
17769 17776 17778 17779 4 180.0000771 4.6024000 2
17774 17776 17778 17779 1 180.0000771 15.1670000 2
17777 17776 17778 17779 1 180.0000771 15.1670000 2
17769 17778 17776 17774 1 180.0000771 15.1670000 2
17769 17778 17776 17777 1 180.0000771 15.1670000 2
17774 17778 17776 17777 4 180.0000771 4.6024000 2
17780 17781 17782 17783 1 180.0000771 15.1670000 2
17780 17781 17782 17784 1 180.0000771 15.1670000 2
17783 17781 17782 17784 4 180.0000771 4.6024000 2
17780 17781 17790 17782 4 180.0000771 4.6024000 2
17780 17781 17790 17788 1 180.0000771 15.1670000 2
17780 17781 17790 17791 1 180.0000771 15.1670000 2
17782 17781 17790 17788 1 180.0000771 15.1670000 2
17782 17781 17790 17791 1 180.0000771 15.1670000 2
17783 17782 17781 17790 1 180.0000771 15.1670000 2
17784 17782 17781 17790 1 180.0000771 15.1670000 2
17781 17782 17784 17785 1 180.0000771 15.1670000 2
17781 17782 17784 17786 1 180.0000771 15.1670000 2
17783 17782 17784 17785 1 180.0000771 15.1670000 2
17783 17782 17784 17786 1 180.0000771 15.1670000 2
17782 17784 17786 17787 1 180.0000771 15.1670000 2
17782 17784 17786 17788 1 180.0000771 15.1670000 2
17785 17784 17786 17787 1 180.0000771 15.1670000 2
17785 17784 17786 17788 1 180.0000771 15.1670000 2
17782 17786 17784 17785 4 180.0000771 4.6024000 2
17784 17786 17788 17789 1 180.0000771 15.1670000 2
17784 17786 17788 17790 1 180.0000771 15.1670000 2
17787 17786 17788 17789 1 180.0000771 15.1670000 2
17787 17786 17788 17790 1 180.0000771 15.1670000 2
17784 17788 17786 17787 4 180.0000771 4.6024000 2
17781 17788 17790 17791 4 180.0000771 4.6024000 2
17786 17788 17790 17791 1 180.0000771 15.1670000 2
17789 17788 17790 17791 1 180.0000771 15.1670000 2
17781 17790 17788 17786 1 180.0000771 15.1670000 2
17781 17790 17788 17789 1 180.0000771 15.1670000 2
17786 17790 17788 17789 4 180.0000771 4.6024000 2
17792 17793 17794 17795 1 180.0000771 15.1670000 2
17792 17793 17794 17796 1 180.0000771 15.1670000 2
17795 17793 17794 17796 4 180.0000771 4.6024000 2
17792 17793 17802 17794 4 180.0000771 4.6024000 2
17792 17793 17802 17800 1 180.0000771 15.1670000 2
17792 17793 17802 17803 1 180.0000771 15.1670000 2
17794 17793 17802 17800 1 180.0000771 15.1670000 2
17794 17793 17802 17803 1 180.0000771 15.1670000 2
17795 17794 17793 17802 1 180.0000771 15.1670000 2
17796 17794 17793 17802 1 180.0000771 15.1670000 2
17793 17794 17796 17797 1 180.0000771 15.1670000 2
17793 17794 17796 17798 1 180.0000771 15.1670000 2
17795 17794 17796 17797 1 180.0000771 15.1670000 2
17795 17794 17796 17798 1 180.0000771 15.1670000 2
17794 17796 17798 17799 1 180.0000771 15.1670000 2
17794 17796 17798 17800 1 180.0000771 15.1670000 2
17797 17796 17798 17799 1 180.0000771 15.1670000 2
17797 17796 17798 17800 1 180.0000771 15.1670000 2
17794 17798 17796 17797 4 180.0000771 4.6024000 2
17796 17798 17800 17801 1 180.0000771 15.1670000 2
17796 17798 17800 17802 1 180.0000771 15.1670000 2
17799 17798 17800 17801 1 180.0000771 15.1670000 2
17799 17798 17800 17802 1 180.0000771 15.1670000 2
17796 17800 17798 17799 4 180.0000771 4.6024000 2
17793 17800 17802 17803 4 180.0000771 4.6024000 2
17798 17800 17802 17803 1 180.0000771 15.1670000 2
17801 17800 17802 17803 1 180.0000771 15.1670000 2
17793 17802 17800 17798 1 180.0000771 15.1670000 2
17793 17802 17800 17801 1 180.0000771 15.1670000 2
17798 17802 17800 17801 4 180.0000771 4.6024000 2
17804 17805 17806 17807 1 180.0000771 15.1670000 2
17804 17805 17806 17808 1 180.0000771 15.1670000 2
17807 17805 17806 17808 4 180.0000771 4.6024000 2
17804 17805 17814 17806 4 180.0000771 4.6024000 2
17804 17805 17814 17812 1 180.0000771 15.1670000 2
17804 17805 17814 17815 1 180.0000771 15.1670000 2
17806 17805 17814 17812 1 180.0000771 15.1670000 2
17806 17805 17814 17815 1 180.0000771 15.1670000 2
17807 17806 17805 17814 1 180.0000771 15.1670000 2
17808 17806 17805 17814 1 180.0000771 15.1670000 2
17805 17806 17808 17809 1 180.0000771 15.1670000 2
17805 17806 17808 17810 1 180.0000771 15.1670000 2
17807 17806 17808 17809 1 180.0000771 15.1670000 2
17807 17806 17808 17810 1 180.0000771 15.1670000 2
17806 17808 17810 17811 1 180.0000771 15.1670000 2
17806 17808 17810 17812 1 180.0000771 15.1670000 2
17809 17808 17810 17811 1 180.0000771 15.1670000 2
17809 17808 17810 17812 1 180.0000771 15.1670000 2
17806 17810 17808 17809 4 180.0000771 4.6024000 2
17808 17810 17812 17813 1 180.0000771 15.1670000 2
17808 17810 17812 17814 1 180.0000771 15.1670000 2
17811 17810 17812 17813 1 180.0000771 15.1670000 2
17811 17810 17812 17814 1 180.0000771 15.1670000 2
17808 17812 17810 17811 4 180.0000771 4.6024000 2
17805 17812 17814 17815 4 180.0000771 4.6024000 2
17810 17812 17814 17815 1 180.0000771 15.1670000 2
17813 17812 17814 17815 1 180.0000771 15.1670000 2
17805 17814 17812 17810 1 180.0000771 15.1670000 2
17805 17814 17812 17813 1 180.0000771 15.1670000 2
17810 17814 17812 17813 4 180.0000771 4.6024000 2
17816 17817 17818 17819 1 180.0000771 15.1670000 2
17816 17817 17818 17820 1 180.0000771 15.1670000 2
17819 17817 17818 17820 4 180.0000771 4.6024000 2
17816 17817 17826 17818 4 180.0000771 4.6024000 2
17816 17817 17826 17824 1 180.0000771 15.1670000 2
17816 17817 17826 17827 1 180.0000771 15.1670000 2
17818 17817 17826 17824 1 180.0000771 15.1670000 2
17818 17817 17826 17827 1 180.0000771 15.1670000 2
17819 17818 17817 17826 1 180.0000771 15.1670000 2
17820 17818 17817 17826 1 180.0000771 15.1670000 2
17817 17818 17820 17821 1 180.0000771 15.1670000 2
17817 17818 17820 17822 1 180.0000771 15.1670000 2
17819 17818 17820 17821 1 180.0000771 15.1670000 2
17819 17818 17820 17822 1 180.0000771 15.1670000 2
17818 17820 17822 17823 1 180.0000771 15.1670000 2
17818 17820 17822 17824 1 180.0000771 15.1670000 2
17821 17820 17822 17823 1 180.0000771 15.1670000 2
17821 17820 17822 17824 1 180.0000771 15.1670000 2
17818 17822 17820 17821 4 180.0000771 4.6024000 2
17820 17822 17824 17825 1 180.0000771 15.1670000 2
17820 17822 17824 17826 1 180.0000771 15.1670000 2
17823 17822 17824 17825 1 180.0000771 15.1670000 2
17823 17822 17824 17826 1 180.0000771 15.1670000 2
17820 17824 17822 17823 4 180.0000771 4.6024000 2
17817 17824 17826 17827 4 180.0000771 4.6024000 2
17822 17824 17826 17827 1 180.0000771 15.1670000 2
17825 17824 17826 17827 1 180.0000771 15.1670000 2
17817 17826 17824 17822 1 180.0000771 15.1670000 2
17817 17826 17824 17825 1 180.0000771 15.1670000 2
17822 17826 17824 17825 4 180.0000771 4.6024000 2
17828 17829 17830 17831 1 180.0000771 15.1670000 2
17828 17829 17830 17832 1 180.0000771 15.1670000 2
17831 17829 17830 17832 4 180.0000771 4.6024000 2
17828 17829 17838 17830 4 180.0000771 4.6024000 2
17828 17829 17838 17836 1 180.0000771 15.1670000 2
17828 17829 17838 17839 1 180.0000771 15.1670000 2
17830 17829 17838 17836 1 180.0000771 15.1670000 2
17830 17829 17838 17839 1 180.0000771 15.1670000 2
17831 17830 17829 17838 1 180.0000771 15.1670000 2
17832 17830 17829 17838 1 180.0000771 15.1670000 2
17829 17830 17832 17833 1 180.0000771 15.1670000 2
17829 17830 17832 17834 1 180.0000771 15.1670000 2
17831 17830 17832 17833 1 180.0000771 15.1670000 2
17831 17830 17832 17834 1 180.0000771 15.1670000 2
17830 17832 17834 17835 1 180.0000771 15.1670000 2
17830 17832 17834 17836 1 180.0000771 15.1670000 2
17833 17832 17834 17835 1 180.0000771 15.1670000 2
17833 17832 17834 17836 1 180.0000771 15.1670000 2
17830 17834 17832 17833 4 180.0000771 4.6024000 2
17832 17834 17836 17837 1 180.0000771 15.1670000 2
17832 17834 17836 17838 1 180.0000771 15.1670000 2
17835 17834 17836 17837 1 180.0000771 15.1670000 2
17835 17834 17836 17838 1 180.0000771 15.1670000 2
17832 17836 17834 17835 4 180.0000771 4.6024000 2
17829 17836 17838 17839 4 180.0000771 4.6024000 2
17834 17836 17838 17839 1 180.0000771 15.1670000 2
17837 17836 17838 17839 1 180.0000771 15.1670000 2
17829 17838 17836 17834 1 180.0000771 15.1670000 2
17829 17838 17836 17837 1 180.0000771 15.1670000 2
17834 17838 17836 17837 4 180.0000771 4.6024000 2
17840 17841 17842 17843 1 180.0000771 15.1670000 2
17840 17841 17842 17844 1 180.0000771 15.1670000 2
17843 17841 17842 17844 4 180.0000771 4.6024000 2
17840 17841 17850 17842 4 180.0000771 4.6024000 2
17840 17841 17850 17848 1 180.0000771 15.1670000 2
17840 17841 17850 17851 1 180.0000771 15.1670000 2
17842 17841 17850 17848 1 180.0000771 15.1670000 2
17842 17841 17850 17851 1 180.0000771 15.1670000 2
17843 17842 17841 17850 1 180.0000771 15.1670000 2
17844 17842 17841 17850 1 180.0000771 15.1670000 2
17841 17842 17844 17845 1 180.0000771 15.1670000 2
17841 17842 17844 17846 1 180.0000771 15.1670000 2
17843 17842 17844 17845 1 180.0000771 15.1670000 2
17843 17842 17844 17846 1 180.0000771 15.1670000 2
17842 17844 17846 17847 1 180.0000771 15.1670000 2
17842 17844 17846 17848 1 180.0000771 15.1670000 2
17845 17844 17846 17847 1 180.0000771 15.1670000 2
17845 17844 17846 17848 1 180.0000771 15.1670000 2
17842 17846 17844 17845 4 180.0000771 4.6024000 2
17844 17846 17848 17849 1 180.0000771 15.1670000 2
17844 17846 17848 17850 1 180.0000771 15.1670000 2
17847 17846 17848 17849 1 180.0000771 15.1670000 2
17847 17846 17848 17850 1 180.0000771 15.1670000 2
17844 17848 17846 17847 4 180.0000771 4.6024000 2
17841 17848 17850 17851 4 180.0000771 4.6024000 2
17846 17848 17850 17851 1 180.0000771 15.1670000 2
17849 17848 17850 17851 1 180.0000771 15.1670000 2
17841 17850 17848 17846 1 180.0000771 15.1670000 2
17841 17850 17848 17849 1 180.0000771 15.1670000 2
17846 17850 17848 17849 4 180.0000771 4.6024000 2
17852 17853 17854 17855 1 180.0000771 15.1670000 2
17852 17853 17854 17856 1 180.0000771 15.1670000 2
17855 17853 17854 17856 4 180.0000771 4.6024000 2
17852 17853 17862 17854 4 180.0000771 4.6024000 2
17852 17853 17862 17860 1 180.0000771 15.1670000 2
17852 17853 17862 17863 1 180.0000771 15.1670000 2
17854 17853 17862 17860 1 180.0000771 15.1670000 2
17854 17853 17862 17863 1 180.0000771 15.1670000 2
17855 17854 17853 17862 1 180.0000771 15.1670000 2
17856 17854 17853 17862 1 180.0000771 15.1670000 2
17853 17854 17856 17857 1 180.0000771 15.1670000 2
17853 17854 17856 17858 1 180.0000771 15.1670000 2
17855 17854 17856 17857 1 180.0000771 15.1670000 2
17855 17854 17856 17858 1 180.0000771 15.1670000 2
17854 17856 17858 17859 1 180.0000771 15.1670000 2
17854 17856 17858 17860 1 180.0000771 15.1670000 2
17857 17856 17858 17859 1 180.0000771 15.1670000 2
17857 17856 17858 17860 1 180.0000771 15.1670000 2
17854 17858 17856 17857 4 180.0000771 4.6024000 2
17856 17858 17860 17861 1 180.0000771 15.1670000 2
17856 17858 17860 17862 1 180.0000771 15.1670000 2
17859 17858 17860 17861 1 180.0000771 15.1670000 2
17859 17858 17860 17862 1 180.0000771 15.1670000 2
17856 17860 17858 17859 4 180.0000771 4.6024000 2
17853 17860 17862 17863 4 180.0000771 4.6024000 2
17858 17860 17862 17863 1 180.0000771 15.1670000 2
17861 17860 17862 17863 1 180.0000771 15.1670000 2
17853 17862 17860 17858 1 180.0000771 15.1670000 2
17853 17862 17860 17861 1 180.0000771 15.1670000 2
17858 17862 17860 17861 4 180.0000771 4.6024000 2
17864 17865 17866 17867 1 180.0000771 15.1670000 2
17864 17865 17866 17868 1 180.0000771 15.1670000 2
17867 17865 17866 17868 4 180.0000771 4.6024000 2
17864 17865 17874 17866 4 180.0000771 4.6024000 2
17864 17865 17874 17872 1 180.0000771 15.1670000 2
17864 17865 17874 17875 1 180.0000771 15.1670000 2
17866 17865 17874 17872 1 180.0000771 15.1670000 2
17866 17865 17874 17875 1 180.0000771 15.1670000 2
17867 17866 17865 17874 1 180.0000771 15.1670000 2
17868 17866 17865 17874 1 180.0000771 15.1670000 2
17865 17866 17868 17869 1 180.0000771 15.1670000 2
17865 17866 17868 17870 1 180.0000771 15.1670000 2
17867 17866 17868 17869 1 180.0000771 15.1670000 2
17867 17866 17868 17870 1 180.0000771 15.1670000 2
17866 17868 17870 17871 1 180.0000771 15.1670000 2
17866 17868 17870 17872 1 180.0000771 15.1670000 2
17869 17868 17870 17871 1 180.0000771 15.1670000 2
17869 17868 17870 17872 1 180.0000771 15.1670000 2
17866 17870 17868 17869 4 180.0000771 4.6024000 2
17868 17870 17872 17873 1 180.0000771 15.1670000 2
17868 17870 17872 17874 1 180.0000771 15.1670000 2
17871 17870 17872 17873 1 180.0000771 15.1670000 2
17871 17870 17872 17874 1 180.0000771 15.1670000 2
17868 17872 17870 17871 4 180.0000771 4.6024000 2
17865 17872 17874 17875 4 180.0000771 4.6024000 2
17870 17872 17874 17875 1 180.0000771 15.1670000 2
17873 17872 17874 17875 1 180.0000771 15.1670000 2
17865 17874 17872 17870 1 180.0000771 15.1670000 2
17865 17874 17872 17873 1 180.0000771 15.1670000 2
17870 17874 17872 17873 4 180.0000771 4.6024000 2
17876 17877 17878 17879 1 180.0000771 15.1670000 2
17876 17877 17878 17880 1 180.0000771 15.1670000 2
17879 17877 17878 17880 4 180.0000771 4.6024000 2
17876 17877 17886 17878 4 180.0000771 4.6024000 2
17876 17877 17886 17884 1 180.0000771 15.1670000 2
17876 17877 17886 17887 1 180.0000771 15.1670000 2
17878 17877 17886 17884 1 180.0000771 15.1670000 2
17878 17877 17886 17887 1 180.0000771 15.1670000 2
17879 17878 17877 17886 1 180.0000771 15.1670000 2
17880 17878 17877 17886 1 180.0000771 15.1670000 2
17877 17878 17880 17881 1 180.0000771 15.1670000 2
17877 17878 17880 17882 1 180.0000771 15.1670000 2
17879 17878 17880 17881 1 180.0000771 15.1670000 2
17879 17878 17880 17882 1 180.0000771 15.1670000 2
17878 17880 17882 17883 1 180.0000771 15.1670000 2
17878 17880 17882 17884 1 180.0000771 15.1670000 2
17881 17880 17882 17883 1 180.0000771 15.1670000 2
17881 17880 17882 17884 1 180.0000771 15.1670000 2
17878 17882 17880 17881 4 180.0000771 4.6024000 2
17880 17882 17884 17885 1 180.0000771 15.1670000 2
17880 17882 17884 17886 1 180.0000771 15.1670000 2
17883 17882 17884 17885 1 180.0000771 15.1670000 2
17883 17882 17884 17886 1 180.0000771 15.1670000 2
17880 17884 17882 17883 4 180.0000771 4.6024000 2
17877 17884 17886 17887 4 180.0000771 4.6024000 2
17882 17884 17886 17887 1 180.0000771 15.1670000 2
17885 17884 17886 17887 1 180.0000771 15.1670000 2
17877 17886 17884 17882 1 180.0000771 15.1670000 2
17877 17886 17884 17885 1 180.0000771 15.1670000 2
17882 17886 17884 17885 4 180.0000771 4.6024000 2
17888 17889 17890 17891 1 180.0000771 15.1670000 2
17888 17889 17890 17892 1 180.0000771 15.1670000 2
17891 17889 17890 17892 4 180.0000771 4.6024000 2
17888 17889 17898 17890 4 180.0000771 4.6024000 2
17888 17889 17898 17896 1 180.0000771 15.1670000 2
17888 17889 17898 17899 1 180.0000771 15.1670000 2
17890 17889 17898 17896 1 180.0000771 15.1670000 2
17890 17889 17898 17899 1 180.0000771 15.1670000 2
17891 17890 17889 17898 1 180.0000771 15.1670000 2
17892 17890 17889 17898 1 180.0000771 15.1670000 2
17889 17890 17892 17893 1 180.0000771 15.1670000 2
17889 17890 17892 17894 1 180.0000771 15.1670000 2
17891 17890 17892 17893 1 180.0000771 15.1670000 2
17891 17890 17892 17894 1 180.0000771 15.1670000 2
17890 17892 17894 17895 1 180.0000771 15.1670000 2
17890 17892 17894 17896 1 180.0000771 15.1670000 2
17893 17892 17894 17895 1 180.0000771 15.1670000 2
17893 17892 17894 17896 1 180.0000771 15.1670000 2
17890 17894 17892 17893 4 180.0000771 4.6024000 2
17892 17894 17896 17897 1 180.0000771 15.1670000 2
17892 17894 17896 17898 1 180.0000771 15.1670000 2
17895 17894 17896 17897 1 180.0000771 15.1670000 2
17895 17894 17896 17898 1 180.0000771 15.1670000 2
17892 17896 17894 17895 4 180.0000771 4.6024000 2
17889 17896 17898 17899 4 180.0000771 4.6024000 2
17894 17896 17898 17899 1 180.0000771 15.1670000 2
17897 17896 17898 17899 1 180.0000771 15.1670000 2
17889 17898 17896 17894 1 180.0000771 15.1670000 2
17889 17898 17896 17897 1 180.0000771 15.1670000 2
17894 17898 17896 17897 4 180.0000771 4.6024000 2
17900 17901 17902 17903 1 180.0000771 15.1670000 2
17900 17901 17902 17904 1 180.0000771 15.1670000 2
17903 17901 17902 17904 4 180.0000771 4.6024000 2
17900 17901 17910 17902 4 180.0000771 4.6024000 2
17900 17901 17910 17908 1 180.0000771 15.1670000 2
17900 17901 17910 17911 1 180.0000771 15.1670000 2
17902 17901 17910 17908 1 180.0000771 15.1670000 2
17902 17901 17910 17911 1 180.0000771 15.1670000 2
17903 17902 17901 17910 1 180.0000771 15.1670000 2
17904 17902 17901 17910 1 180.0000771 15.1670000 2
17901 17902 17904 17905 1 180.0000771 15.1670000 2
17901 17902 17904 17906 1 180.0000771 15.1670000 2
17903 17902 17904 17905 1 180.0000771 15.1670000 2
17903 17902 17904 17906 1 180.0000771 15.1670000 2
17902 17904 17906 17907 1 180.0000771 15.1670000 2
17902 17904 17906 17908 1 180.0000771 15.1670000 2
17905 17904 17906 17907 1 180.0000771 15.1670000 2
17905 17904 17906 17908 1 180.0000771 15.1670000 2
17902 17906 17904 17905 4 180.0000771 4.6024000 2
17904 17906 17908 17909 1 180.0000771 15.1670000 2
17904 17906 17908 17910 1 180.0000771 15.1670000 2
17907 17906 17908 17909 1 180.0000771 15.1670000 2
17907 17906 17908 17910 1 180.0000771 15.1670000 2
17904 17908 17906 17907 4 180.0000771 4.6024000 2
17901 17908 17910 17911 4 180.0000771 4.6024000 2
17906 17908 17910 17911 1 180.0000771 15.1670000 2
17909 17908 17910 17911 1 180.0000771 15.1670000 2
17901 17910 17908 17906 1 180.0000771 15.1670000 2
17901 17910 17908 17909 1 180.0000771 15.1670000 2
17906 17910 17908 17909 4 180.0000771 4.6024000 2
17912 17913 17914 17915 1 180.0000771 15.1670000 2
17912 17913 17914 17916 1 180.0000771 15.1670000 2
17915 17913 17914 17916 4 180.0000771 4.6024000 2
17912 17913 17922 17914 4 180.0000771 4.6024000 2
17912 17913 17922 17920 1 180.0000771 15.1670000 2
17912 17913 17922 17923 1 180.0000771 15.1670000 2
17914 17913 17922 17920 1 180.0000771 15.1670000 2
17914 17913 17922 17923 1 180.0000771 15.1670000 2
17915 17914 17913 17922 1 180.0000771 15.1670000 2
17916 17914 17913 17922 1 180.0000771 15.1670000 2
17913 17914 17916 17917 1 180.0000771 15.1670000 2
17913 17914 17916 17918 1 180.0000771 15.1670000 2
17915 17914 17916 17917 1 180.0000771 15.1670000 2
17915 17914 17916 17918 1 180.0000771 15.1670000 2
17914 17916 17918 17919 1 180.0000771 15.1670000 2
17914 17916 17918 17920 1 180.0000771 15.1670000 2
17917 17916 17918 17919 1 180.0000771 15.1670000 2
17917 17916 17918 17920 1 180.0000771 15.1670000 2
17914 17918 17916 17917 4 180.0000771 4.6024000 2
17916 17918 17920 17921 1 180.0000771 15.1670000 2
17916 17918 17920 17922 1 180.0000771 15.1670000 2
17919 17918 17920 17921 1 180.0000771 15.1670000 2
17919 17918 17920 17922 1 180.0000771 15.1670000 2
17916 17920 17918 17919 4 180.0000771 4.6024000 2
17913 17920 17922 17923 4 180.0000771 4.6024000 2
17918 17920 17922 17923 1 180.0000771 15.1670000 2
17921 17920 17922 17923 1 180.0000771 15.1670000 2
17913 17922 17920 17918 1 180.0000771 15.1670000 2
17913 17922 17920 17921 1 180.0000771 15.1670000 2
17918 17922 17920 17921 4 180.0000771 4.6024000 2
17924 17925 17926 17927 1 180.0000771 15.1670000 2
17924 17925 17926 17928 1 180.0000771 15.1670000 2
17927 17925 17926 17928 4 180.0000771 4.6024000 2
17924 17925 17934 17926 4 180.0000771 4.6024000 2
17924 17925 17934 17932 1 180.0000771 15.1670000 2
17924 17925 17934 17935 1 180.0000771 15.1670000 2
17926 17925 17934 17932 1 180.0000771 15.1670000 2
17926 17925 17934 17935 1 180.0000771 15.1670000 2
17927 17926 17925 17934 1 180.0000771 15.1670000 2
17928 17926 17925 17934 1 180.0000771 15.1670000 2
17925 17926 17928 17929 1 180.0000771 15.1670000 2
17925 17926 17928 17930 1 180.0000771 15.1670000 2
17927 17926 17928 17929 1 180.0000771 15.1670000 2
17927 17926 17928 17930 1 180.0000771 15.1670000 2
17926 17928 17930 17931 1 180.0000771 15.1670000 2
17926 17928 17930 17932 1 180.0000771 15.1670000 2
17929 17928 17930 17931 1 180.0000771 15.1670000 2
17929 17928 17930 17932 1 180.0000771 15.1670000 2
17926 17930 17928 17929 4 180.0000771 4.6024000 2
17928 17930 17932 17933 1 180.0000771 15.1670000 2
17928 17930 17932 17934 1 180.0000771 15.1670000 2
17931 17930 17932 17933 1 180.0000771 15.1670000 2
17931 17930 17932 17934 1 180.0000771 15.1670000 2
17928 17932 17930 17931 4 180.0000771 4.6024000 2
17925 17932 17934 17935 4 180.0000771 4.6024000 2
17930 17932 17934 17935 1 180.0000771 15.1670000 2
17933 17932 17934 17935 1 180.0000771 15.1670000 2
17925 17934 17932 17930 1 180.0000771 15.1670000 2
17925 17934 17932 17933 1 180.0000771 15.1670000 2
17930 17934 17932 17933 4 180.0000771 4.6024000 2
17936 17937 17938 17939 1 180.0000771 15.1670000 2
17936 17937 17938 17940 1 180.0000771 15.1670000 2
17939 17937 17938 17940 4 180.0000771 4.6024000 2
17936 17937 17946 17938 4 180.0000771 4.6024000 2
17936 17937 17946 17944 1 180.0000771 15.1670000 2
17936 17937 17946 17947 1 180.0000771 15.1670000 2
17938 17937 17946 17944 1 180.0000771 15.1670000 2
17938 17937 17946 17947 1 180.0000771 15.1670000 2
17939 17938 17937 17946 1 180.0000771 15.1670000 2
17940 17938 17937 17946 1 180.0000771 15.1670000 2
17937 17938 17940 17941 1 180.0000771 15.1670000 2
17937 17938 17940 17942 1 180.0000771 15.1670000 2
17939 17938 17940 17941 1 180.0000771 15.1670000 2
17939 17938 17940 17942 1 180.0000771 15.1670000 2
17938 17940 17942 17943 1 180.0000771 15.1670000 2
17938 17940 17942 17944 1 180.0000771 15.1670000 2
17941 17940 17942 17943 1 180.0000771 15.1670000 2
17941 17940 17942 17944 1 180.0000771 15.1670000 2
17938 17942 17940 17941 4 180.0000771 4.6024000 2
17940 17942 17944 17945 1 180.0000771 15.1670000 2
17940 17942 17944 17946 1 180.0000771 15.1670000 2
17943 17942 17944 17945 1 180.0000771 15.1670000 2
17943 17942 17944 17946 1 180.0000771 15.1670000 2
17940 17944 17942 17943 4 180.0000771 4.6024000 2
17937 17944 17946 17947 4 180.0000771 4.6024000 2
17942 17944 17946 17947 1 180.0000771 15.1670000 2
17945 17944 17946 17947 1 180.0000771 15.1670000 2
17937 17946 17944 17942 1 180.0000771 15.1670000 2
17937 17946 17944 17945 1 180.0000771 15.1670000 2
17942 17946 17944 17945 4 180.0000771 4.6024000 2
17948 17949 17950 17951 1 180.0000771 15.1670000 2
17948 17949 17950 17952 1 180.0000771 15.1670000 2
17951 17949 17950 17952 4 180.0000771 4.6024000 2
17948 17949 17958 17950 4 180.0000771 4.6024000 2
17948 17949 17958 17956 1 180.0000771 15.1670000 2
17948 17949 17958 17959 1 180.0000771 15.1670000 2
17950 17949 17958 17956 1 180.0000771 15.1670000 2
17950 17949 17958 17959 1 180.0000771 15.1670000 2
17951 17950 17949 17958 1 180.0000771 15.1670000 2
17952 17950 17949 17958 1 180.0000771 15.1670000 2
17949 17950 17952 17953 1 180.0000771 15.1670000 2
17949 17950 17952 17954 1 180.0000771 15.1670000 2
17951 17950 17952 17953 1 180.0000771 15.1670000 2
17951 17950 17952 17954 1 180.0000771 15.1670000 2
17950 17952 17954 17955 1 180.0000771 15.1670000 2
17950 17952 17954 17956 1 180.0000771 15.1670000 2
17953 17952 17954 17955 1 180.0000771 15.1670000 2
17953 17952 17954 17956 1 180.0000771 15.1670000 2
17950 17954 17952 17953 4 180.0000771 4.6024000 2
17952 17954 17956 17957 1 180.0000771 15.1670000 2
17952 17954 17956 17958 1 180.0000771 15.1670000 2
17955 17954 17956 17957 1 180.0000771 15.1670000 2
17955 17954 17956 17958 1 180.0000771 15.1670000 2
17952 17956 17954 17955 4 180.0000771 4.6024000 2
17949 17956 17958 17959 4 180.0000771 4.6024000 2
17954 17956 17958 17959 1 180.0000771 15.1670000 2
17957 17956 17958 17959 1 180.0000771 15.1670000 2
17949 17958 17956 17954 1 180.0000771 15.1670000 2
17949 17958 17956 17957 1 180.0000771 15.1670000 2
17954 17958 17956 17957 4 180.0000771 4.6024000 2
17960 17961 17962 17963 1 180.0000771 15.1670000 2
17960 17961 17962 17964 1 180.0000771 15.1670000 2
17963 17961 17962 17964 4 180.0000771 4.6024000 2
17960 17961 17970 17962 4 180.0000771 4.6024000 2
17960 17961 17970 17968 1 180.0000771 15.1670000 2
17960 17961 17970 17971 1 180.0000771 15.1670000 2
17962 17961 17970 17968 1 180.0000771 15.1670000 2
17962 17961 17970 17971 1 180.0000771 15.1670000 2
17963 17962 17961 17970 1 180.0000771 15.1670000 2
17964 17962 17961 17970 1 180.0000771 15.1670000 2
17961 17962 17964 17965 1 180.0000771 15.1670000 2
17961 17962 17964 17966 1 180.0000771 15.1670000 2
17963 17962 17964 17965 1 180.0000771 15.1670000 2
17963 17962 17964 17966 1 180.0000771 15.1670000 2
17962 17964 17966 17967 1 180.0000771 15.1670000 2
17962 17964 17966 17968 1 180.0000771 15.1670000 2
17965 17964 17966 17967 1 180.0000771 15.1670000 2
17965 17964 17966 17968 1 180.0000771 15.1670000 2
17962 17966 17964 17965 4 180.0000771 4.6024000 2
17964 17966 17968 17969 1 180.0000771 15.1670000 2
17964 17966 17968 17970 1 180.0000771 15.1670000 2
17967 17966 17968 17969 1 180.0000771 15.1670000 2
17967 17966 17968 17970 1 180.0000771 15.1670000 2
17964 17968 17966 17967 4 180.0000771 4.6024000 2
17961 17968 17970 17971 4 180.0000771 4.6024000 2
17966 17968 17970 17971 1 180.0000771 15.1670000 2
17969 17968 17970 17971 1 180.0000771 15.1670000 2
17961 17970 17968 17966 1 180.0000771 15.1670000 2
17961 17970 17968 17969 1 180.0000771 15.1670000 2
17966 17970 17968 17969 4 180.0000771 4.6024000 2
17972 17973 17974 17975 1 180.0000771 15.1670000 2
17972 17973 17974 17976 1 180.0000771 15.1670000 2
17975 17973 17974 17976 4 180.0000771 4.6024000 2
17972 17973 17982 17974 4 180.0000771 4.6024000 2
17972 17973 17982 17980 1 180.0000771 15.1670000 2
17972 17973 17982 17983 1 180.0000771 15.1670000 2
17974 17973 17982 17980 1 180.0000771 15.1670000 2
17974 17973 17982 17983 1 180.0000771 15.1670000 2
17975 17974 17973 17982 1 180.0000771 15.1670000 2
17976 17974 17973 17982 1 180.0000771 15.1670000 2
17973 17974 17976 17977 1 180.0000771 15.1670000 2
17973 17974 17976 17978 1 180.0000771 15.1670000 2
17975 17974 17976 17977 1 180.0000771 15.1670000 2
17975 17974 17976 17978 1 180.0000771 15.1670000 2
17974 17976 17978 17979 1 180.0000771 15.1670000 2
17974 17976 17978 17980 1 180.0000771 15.1670000 2
17977 17976 17978 17979 1 180.0000771 15.1670000 2
17977 17976 17978 17980 1 180.0000771 15.1670000 2
17974 17978 17976 17977 4 180.0000771 4.6024000 2
17976 17978 17980 17981 1 180.0000771 15.1670000 2
17976 17978 17980 17982 1 180.0000771 15.1670000 2
17979 17978 17980 17981 1 180.0000771 15.1670000 2
17979 17978 17980 17982 1 180.0000771 15.1670000 2
17976 17980 17978 17979 4 180.0000771 4.6024000 2
17973 17980 17982 17983 4 180.0000771 4.6024000 2
17978 17980 17982 17983 1 180.0000771 15.1670000 2
17981 17980 17982 17983 1 180.0000771 15.1670000 2
17973 17982 17980 17978 1 180.0000771 15.1670000 2
17973 17982 17980 17981 1 180.0000771 15.1670000 2
17978 17982 17980 17981 4 180.0000771 4.6024000 2
17984 17985 17986 17987 1 180.0000771 15.1670000 2
17984 17985 17986 17988 1 180.0000771 15.1670000 2
17987 17985 17986 17988 4 180.0000771 4.6024000 2
17984 17985 17994 17986 4 180.0000771 4.6024000 2
17984 17985 17994 17992 1 180.0000771 15.1670000 2
17984 17985 17994 17995 1 180.0000771 15.1670000 2
17986 17985 17994 17992 1 180.0000771 15.1670000 2
17986 17985 17994 17995 1 180.0000771 15.1670000 2
17987 17986 17985 17994 1 180.0000771 15.1670000 2
17988 17986 17985 17994 1 180.0000771 15.1670000 2
17985 17986 17988 17989 1 180.0000771 15.1670000 2
17985 17986 17988 17990 1 180.0000771 15.1670000 2
17987 17986 17988 17989 1 180.0000771 15.1670000 2
17987 17986 17988 17990 1 180.0000771 15.1670000 2
17986 17988 17990 17991 1 180.0000771 15.1670000 2
17986 17988 17990 17992 1 180.0000771 15.1670000 2
17989 17988 17990 17991 1 180.0000771 15.1670000 2
17989 17988 17990 17992 1 180.0000771 15.1670000 2
17986 17990 17988 17989 4 180.0000771 4.6024000 2
17988 17990 17992 17993 1 180.0000771 15.1670000 2
17988 17990 17992 17994 1 180.0000771 15.1670000 2
17991 17990 17992 17993 1 180.0000771 15.1670000 2
17991 17990 17992 17994 1 180.0000771 15.1670000 2
17988 17992 17990 17991 4 180.0000771 4.6024000 2
17985 17992 17994 17995 4 180.0000771 4.6024000 2
17990 17992 17994 17995 1 180.0000771 15.1670000 2
17993 17992 17994 17995 1 180.0000771 15.1670000 2
17985 17994 17992 17990 1 180.0000771 15.1670000 2
17985 17994 17992 17993 1 180.0000771 15.1670000 2
17990 17994 17992 17993 4 180.0000771 4.6024000 2
17996 17997 17998 17999 1 180.0000771 15.1670000 2
17996 17997 17998 18000 1 180.0000771 15.1670000 2
17999 17997 17998 18000 4 180.0000771 4.6024000 2
17996 17997 18006 17998 4 180.0000771 4.6024000 2
17996 17997 18006 18004 1 180.0000771 15.1670000 2
17996 17997 18006 18007 1 180.0000771 15.1670000 2
17998 17997 18006 18004 1 180.0000771 15.1670000 2
17998 17997 18006 18007 1 180.0000771 15.1670000 2
17999 17998 17997 18006 1 180.0000771 15.1670000 2
18000 17998 17997 18006 1 180.0000771 15.1670000 2
17997 17998 18000 18001 1 180.0000771 15.1670000 2
17997 17998 18000 18002 1 180.0000771 15.1670000 2
17999 17998 18000 18001 1 180.0000771 15.1670000 2
17999 17998 18000 18002 1 180.0000771 15.1670000 2
17998 18000 18002 18003 1 180.0000771 15.1670000 2
17998 18000 18002 18004 1 180.0000771 15.1670000 2
18001 18000 18002 18003 1 180.0000771 15.1670000 2
18001 18000 18002 18004 1 180.0000771 15.1670000 2
17998 18002 18000 18001 4 180.0000771 4.6024000 2
18000 18002 18004 18005 1 180.0000771 15.1670000 2
18000 18002 18004 18006 1 180.0000771 15.1670000 2
18003 18002 18004 18005 1 180.0000771 15.1670000 2
18003 18002 18004 18006 1 180.0000771 15.1670000 2
18000 18004 18002 18003 4 180.0000771 4.6024000 2
17997 18004 18006 18007 4 180.0000771 4.6024000 2
18002 18004 18006 18007 1 180.0000771 15.1670000 2
18005 18004 18006 18007 1 180.0000771 15.1670000 2
17997 18006 18004 18002 1 180.0000771 15.1670000 2
17997 18006 18004 18005 1 180.0000771 15.1670000 2
18002 18006 18004 18005 4 180.0000771 4.6024000 2
18008 18009 18010 18011 1 180.0000771 15.1670000 2
18008 18009 18010 18012 1 180.0000771 15.1670000 2
18011 18009 18010 18012 4 180.0000771 4.6024000 2
18008 18009 18018 18010 4 180.0000771 4.6024000 2
18008 18009 18018 18016 1 180.0000771 15.1670000 2
18008 18009 18018 18019 1 180.0000771 15.1670000 2
18010 18009 18018 18016 1 180.0000771 15.1670000 2
18010 18009 18018 18019 1 180.0000771 15.1670000 2
18011 18010 18009 18018 1 180.0000771 15.1670000 2
18012 18010 18009 18018 1 180.0000771 15.1670000 2
18009 18010 18012 18013 1 180.0000771 15.1670000 2
18009 18010 18012 18014 1 180.0000771 15.1670000 2
18011 18010 18012 18013 1 180.0000771 15.1670000 2
18011 18010 18012 18014 1 180.0000771 15.1670000 2
18010 18012 18014 18015 1 180.0000771 15.1670000 2
18010 18012 18014 18016 1 180.0000771 15.1670000 2
18013 18012 18014 18015 1 180.0000771 15.1670000 2
18013 18012 18014 18016 1 180.0000771 15.1670000 2
18010 18014 18012 18013 4 180.0000771 4.6024000 2
18012 18014 18016 18017 1 180.0000771 15.1670000 2
18012 18014 18016 18018 1 180.0000771 15.1670000 2
18015 18014 18016 18017 1 180.0000771 15.1670000 2
18015 18014 18016 18018 1 180.0000771 15.1670000 2
18012 18016 18014 18015 4 180.0000771 4.6024000 2
18009 18016 18018 18019 4 180.0000771 4.6024000 2
18014 18016 18018 18019 1 180.0000771 15.1670000 2
18017 18016 18018 18019 1 180.0000771 15.1670000 2
18009 18018 18016 18014 1 180.0000771 15.1670000 2
18009 18018 18016 18017 1 180.0000771 15.1670000 2
18014 18018 18016 18017 4 180.0000771 4.6024000 2
18020 18021 18022 18023 1 180.0000771 15.1670000 2
18020 18021 18022 18024 1 180.0000771 15.1670000 2
18023 18021 18022 18024 4 180.0000771 4.6024000 2
18020 18021 18030 18022 4 180.0000771 4.6024000 2
18020 18021 18030 18028 1 180.0000771 15.1670000 2
18020 18021 18030 18031 1 180.0000771 15.1670000 2
18022 18021 18030 18028 1 180.0000771 15.1670000 2
18022 18021 18030 18031 1 180.0000771 15.1670000 2
18023 18022 18021 18030 1 180.0000771 15.1670000 2
18024 18022 18021 18030 1 180.0000771 15.1670000 2
18021 18022 18024 18025 1 180.0000771 15.1670000 2
18021 18022 18024 18026 1 180.0000771 15.1670000 2
18023 18022 18024 18025 1 180.0000771 15.1670000 2
18023 18022 18024 18026 1 180.0000771 15.1670000 2
18022 18024 18026 18027 1 180.0000771 15.1670000 2
18022 18024 18026 18028 1 180.0000771 15.1670000 2
18025 18024 18026 18027 1 180.0000771 15.1670000 2
18025 18024 18026 18028 1 180.0000771 15.1670000 2
18022 18026 18024 18025 4 180.0000771 4.6024000 2
18024 18026 18028 18029 1 180.0000771 15.1670000 2
18024 18026 18028 18030 1 180.0000771 15.1670000 2
18027 18026 18028 18029 1 180.0000771 15.1670000 2
18027 18026 18028 18030 1 180.0000771 15.1670000 2
18024 18028 18026 18027 4 180.0000771 4.6024000 2
18021 18028 18030 18031 4 180.0000771 4.6024000 2
18026 18028 18030 18031 1 180.0000771 15.1670000 2
18029 18028 18030 18031 1 180.0000771 15.1670000 2
18021 18030 18028 18026 1 180.0000771 15.1670000 2
18021 18030 18028 18029 1 180.0000771 15.1670000 2
18026 18030 18028 18029 4 180.0000771 4.6024000 2
18032 18033 18034 18035 1 180.0000771 15.1670000 2
18032 18033 18034 18036 1 180.0000771 15.1670000 2
18035 18033 18034 18036 4 180.0000771 4.6024000 2
18032 18033 18042 18034 4 180.0000771 4.6024000 2
18032 18033 18042 18040 1 180.0000771 15.1670000 2
18032 18033 18042 18043 1 180.0000771 15.1670000 2
18034 18033 18042 18040 1 180.0000771 15.1670000 2
18034 18033 18042 18043 1 180.0000771 15.1670000 2
18035 18034 18033 18042 1 180.0000771 15.1670000 2
18036 18034 18033 18042 1 180.0000771 15.1670000 2
18033 18034 18036 18037 1 180.0000771 15.1670000 2
18033 18034 18036 18038 1 180.0000771 15.1670000 2
18035 18034 18036 18037 1 180.0000771 15.1670000 2
18035 18034 18036 18038 1 180.0000771 15.1670000 2
18034 18036 18038 18039 1 180.0000771 15.1670000 2
18034 18036 18038 18040 1 180.0000771 15.1670000 2
18037 18036 18038 18039 1 180.0000771 15.1670000 2
18037 18036 18038 18040 1 180.0000771 15.1670000 2
18034 18038 18036 18037 4 180.0000771 4.6024000 2
18036 18038 18040 18041 1 180.0000771 15.1670000 2
18036 18038 18040 18042 1 180.0000771 15.1670000 2
18039 18038 18040 18041 1 180.0000771 15.1670000 2
18039 18038 18040 18042 1 180.0000771 15.1670000 2
18036 18040 18038 18039 4 180.0000771 4.6024000 2
18033 18040 18042 18043 4 180.0000771 4.6024000 2
18038 18040 18042 18043 1 180.0000771 15.1670000 2
18041 18040 18042 18043 1 180.0000771 15.1670000 2
18033 18042 18040 18038 1 180.0000771 15.1670000 2
18033 18042 18040 18041 1 180.0000771 15.1670000 2
18038 18042 18040 18041 4 180.0000771 4.6024000 2
18044 18045 18046 18047 1 180.0000771 15.1670000 2
18044 18045 18046 18048 1 180.0000771 15.1670000 2
18047 18045 18046 18048 4 180.0000771 4.6024000 2
18044 18045 18054 18046 4 180.0000771 4.6024000 2
18044 18045 18054 18052 1 180.0000771 15.1670000 2
18044 18045 18054 18055 1 180.0000771 15.1670000 2
18046 18045 18054 18052 1 180.0000771 15.1670000 2
18046 18045 18054 18055 1 180.0000771 15.1670000 2
18047 18046 18045 18054 1 180.0000771 15.1670000 2
18048 18046 18045 18054 1 180.0000771 15.1670000 2
18045 18046 18048 18049 1 180.0000771 15.1670000 2
18045 18046 18048 18050 1 180.0000771 15.1670000 2
18047 18046 18048 18049 1 180.0000771 15.1670000 2
18047 18046 18048 18050 1 180.0000771 15.1670000 2
18046 18048 18050 18051 1 180.0000771 15.1670000 2
18046 18048 18050 18052 1 180.0000771 15.1670000 2
18049 18048 18050 18051 1 180.0000771 15.1670000 2
18049 18048 18050 18052 1 180.0000771 15.1670000 2
18046 18050 18048 18049 4 180.0000771 4.6024000 2
18048 18050 18052 18053 1 180.0000771 15.1670000 2
18048 18050 18052 18054 1 180.0000771 15.1670000 2
18051 18050 18052 18053 1 180.0000771 15.1670000 2
18051 18050 18052 18054 1 180.0000771 15.1670000 2
18048 18052 18050 18051 4 180.0000771 4.6024000 2
18045 18052 18054 18055 4 180.0000771 4.6024000 2
18050 18052 18054 18055 1 180.0000771 15.1670000 2
18053 18052 18054 18055 1 180.0000771 15.1670000 2
18045 18054 18052 18050 1 180.0000771 15.1670000 2
18045 18054 18052 18053 1 180.0000771 15.1670000 2
18050 18054 18052 18053 4 180.0000771 4.6024000 2
18056 18057 18058 18059 1 180.0000771 15.1670000 2
18056 18057 18058 18060 1 180.0000771 15.1670000 2
18059 18057 18058 18060 4 180.0000771 4.6024000 2
18056 18057 18066 18058 4 180.0000771 4.6024000 2
18056 18057 18066 18064 1 180.0000771 15.1670000 2
18056 18057 18066 18067 1 180.0000771 15.1670000 2
18058 18057 18066 18064 1 180.0000771 15.1670000 2
18058 18057 18066 18067 1 180.0000771 15.1670000 2
18059 18058 18057 18066 1 180.0000771 15.1670000 2
18060 18058 18057 18066 1 180.0000771 15.1670000 2
18057 18058 18060 18061 1 180.0000771 15.1670000 2
18057 18058 18060 18062 1 180.0000771 15.1670000 2
18059 18058 18060 18061 1 180.0000771 15.1670000 2
18059 18058 18060 18062 1 180.0000771 15.1670000 2
18058 18060 18062 18063 1 180.0000771 15.1670000 2
18058 18060 18062 18064 1 180.0000771 15.1670000 2
18061 18060 18062 18063 1 180.0000771 15.1670000 2
18061 18060 18062 18064 1 180.0000771 15.1670000 2
18058 18062 18060 18061 4 180.0000771 4.6024000 2
18060 18062 18064 18065 1 180.0000771 15.1670000 2
18060 18062 18064 18066 1 180.0000771 15.1670000 2
18063 18062 18064 18065 1 180.0000771 15.1670000 2
18063 18062 18064 18066 1 180.0000771 15.1670000 2
18060 18064 18062 18063 4 180.0000771 4.6024000 2
18057 18064 18066 18067 4 180.0000771 4.6024000 2
18062 18064 18066 18067 1 180.0000771 15.1670000 2
18065 18064 18066 18067 1 180.0000771 15.1670000 2
18057 18066 18064 18062 1 180.0000771 15.1670000 2
18057 18066 18064 18065 1 180.0000771 15.1670000 2
18062 18066 18064 18065 4 180.0000771 4.6024000 2
18068 18069 18070 18071 1 180.0000771 15.1670000 2
18068 18069 18070 18072 1 180.0000771 15.1670000 2
18071 18069 18070 18072 4 180.0000771 4.6024000 2
18068 18069 18078 18070 4 180.0000771 4.6024000 2
18068 18069 18078 18076 1 180.0000771 15.1670000 2
18068 18069 18078 18079 1 180.0000771 15.1670000 2
18070 18069 18078 18076 1 180.0000771 15.1670000 2
18070 18069 18078 18079 1 180.0000771 15.1670000 2
18071 18070 18069 18078 1 180.0000771 15.1670000 2
18072 18070 18069 18078 1 180.0000771 15.1670000 2
18069 18070 18072 18073 1 180.0000771 15.1670000 2
18069 18070 18072 18074 1 180.0000771 15.1670000 2
18071 18070 18072 18073 1 180.0000771 15.1670000 2
18071 18070 18072 18074 1 180.0000771 15.1670000 2
18070 18072 18074 18075 1 180.0000771 15.1670000 2
18070 18072 18074 18076 1 180.0000771 15.1670000 2
18073 18072 18074 18075 1 180.0000771 15.1670000 2
18073 18072 18074 18076 1 180.0000771 15.1670000 2
18070 18074 18072 18073 4 180.0000771 4.6024000 2
18072 18074 18076 18077 1 180.0000771 15.1670000 2
18072 18074 18076 18078 1 180.0000771 15.1670000 2
18075 18074 18076 18077 1 180.0000771 15.1670000 2
18075 18074 18076 18078 1 180.0000771 15.1670000 2
18072 18076 18074 18075 4 180.0000771 4.6024000 2
18069 18076 18078 18079 4 180.0000771 4.6024000 2
18074 18076 18078 18079 1 180.0000771 15.1670000 2
18077 18076 18078 18079 1 180.0000771 15.1670000 2
18069 18078 18076 18074 1 180.0000771 15.1670000 2
18069 18078 18076 18077 1 180.0000771 15.1670000 2
18074 18078 18076 18077 4 180.0000771 4.6024000 2
18080 18081 18082 18083 1 180.0000771 15.1670000 2
18080 18081 18082 18084 1 180.0000771 15.1670000 2
18083 18081 18082 18084 4 180.0000771 4.6024000 2
18080 18081 18090 18082 4 180.0000771 4.6024000 2
18080 18081 18090 18088 1 180.0000771 15.1670000 2
18080 18081 18090 18091 1 180.0000771 15.1670000 2
18082 18081 18090 18088 1 180.0000771 15.1670000 2
18082 18081 18090 18091 1 180.0000771 15.1670000 2
18083 18082 18081 18090 1 180.0000771 15.1670000 2
18084 18082 18081 18090 1 180.0000771 15.1670000 2
18081 18082 18084 18085 1 180.0000771 15.1670000 2
18081 18082 18084 18086 1 180.0000771 15.1670000 2
18083 18082 18084 18085 1 180.0000771 15.1670000 2
18083 18082 18084 18086 1 180.0000771 15.1670000 2
18082 18084 18086 18087 1 180.0000771 15.1670000 2
18082 18084 18086 18088 1 180.0000771 15.1670000 2
18085 18084 18086 18087 1 180.0000771 15.1670000 2
18085 18084 18086 18088 1 180.0000771 15.1670000 2
18082 18086 18084 18085 4 180.0000771 4.6024000 2
18084 18086 18088 18089 1 180.0000771 15.1670000 2
18084 18086 18088 18090 1 180.0000771 15.1670000 2
18087 18086 18088 18089 1 180.0000771 15.1670000 2
18087 18086 18088 18090 1 180.0000771 15.1670000 2
18084 18088 18086 18087 4 180.0000771 4.6024000 2
18081 18088 18090 18091 4 180.0000771 4.6024000 2
18086 18088 18090 18091 1 180.0000771 15.1670000 2
18089 18088 18090 18091 1 180.0000771 15.1670000 2
18081 18090 18088 18086 1 180.0000771 15.1670000 2
18081 18090 18088 18089 1 180.0000771 15.1670000 2
18086 18090 18088 18089 4 180.0000771 4.6024000 2
18092 18093 18094 18095 1 180.0000771 15.1670000 2
18092 18093 18094 18096 1 180.0000771 15.1670000 2
18095 18093 18094 18096 4 180.0000771 4.6024000 2
18092 18093 18102 18094 4 180.0000771 4.6024000 2
18092 18093 18102 18100 1 180.0000771 15.1670000 2
18092 18093 18102 18103 1 180.0000771 15.1670000 2
18094 18093 18102 18100 1 180.0000771 15.1670000 2
18094 18093 18102 18103 1 180.0000771 15.1670000 2
18095 18094 18093 18102 1 180.0000771 15.1670000 2
18096 18094 18093 18102 1 180.0000771 15.1670000 2
18093 18094 18096 18097 1 180.0000771 15.1670000 2
18093 18094 18096 18098 1 180.0000771 15.1670000 2
18095 18094 18096 18097 1 180.0000771 15.1670000 2
18095 18094 18096 18098 1 180.0000771 15.1670000 2
18094 18096 18098 18099 1 180.0000771 15.1670000 2
18094 18096 18098 18100 1 180.0000771 15.1670000 2
18097 18096 18098 18099 1 180.0000771 15.1670000 2
18097 18096 18098 18100 1 180.0000771 15.1670000 2
18094 18098 18096 18097 4 180.0000771 4.6024000 2
18096 18098 18100 18101 1 180.0000771 15.1670000 2
18096 18098 18100 18102 1 180.0000771 15.1670000 2
18099 18098 18100 18101 1 180.0000771 15.1670000 2
18099 18098 18100 18102 1 180.0000771 15.1670000 2
18096 18100 18098 18099 4 180.0000771 4.6024000 2
18093 18100 18102 18103 4 180.0000771 4.6024000 2
18098 18100 18102 18103 1 180.0000771 15.1670000 2
18101 18100 18102 18103 1 180.0000771 15.1670000 2
18093 18102 18100 18098 1 180.0000771 15.1670000 2
18093 18102 18100 18101 1 180.0000771 15.1670000 2
18098 18102 18100 18101 4 180.0000771 4.6024000 2
18104 18105 18106 18107 1 180.0000771 15.1670000 2
18104 18105 18106 18108 1 180.0000771 15.1670000 2
18107 18105 18106 18108 4 180.0000771 4.6024000 2
18104 18105 18114 18106 4 180.0000771 4.6024000 2
18104 18105 18114 18112 1 180.0000771 15.1670000 2
18104 18105 18114 18115 1 180.0000771 15.1670000 2
18106 18105 18114 18112 1 180.0000771 15.1670000 2
18106 18105 18114 18115 1 180.0000771 15.1670000 2
18107 18106 18105 18114 1 180.0000771 15.1670000 2
18108 18106 18105 18114 1 180.0000771 15.1670000 2
18105 18106 18108 18109 1 180.0000771 15.1670000 2
18105 18106 18108 18110 1 180.0000771 15.1670000 2
18107 18106 18108 18109 1 180.0000771 15.1670000 2
18107 18106 18108 18110 1 180.0000771 15.1670000 2
18106 18108 18110 18111 1 180.0000771 15.1670000 2
18106 18108 18110 18112 1 180.0000771 15.1670000 2
18109 18108 18110 18111 1 180.0000771 15.1670000 2
18109 18108 18110 18112 1 180.0000771 15.1670000 2
18106 18110 18108 18109 4 180.0000771 4.6024000 2
18108 18110 18112 18113 1 180.0000771 15.1670000 2
18108 18110 18112 18114 1 180.0000771 15.1670000 2
18111 18110 18112 18113 1 180.0000771 15.1670000 2
18111 18110 18112 18114 1 180.0000771 15.1670000 2
18108 18112 18110 18111 4 180.0000771 4.6024000 2
18105 18112 18114 18115 4 180.0000771 4.6024000 2
18110 18112 18114 18115 1 180.0000771 15.1670000 2
18113 18112 18114 18115 1 180.0000771 15.1670000 2
18105 18114 18112 18110 1 180.0000771 15.1670000 2
18105 18114 18112 18113 1 180.0000771 15.1670000 2
18110 18114 18112 18113 4 180.0000771 4.6024000 2
18116 18117 18118 18119 1 180.0000771 15.1670000 2
18116 18117 18118 18120 1 180.0000771 15.1670000 2
18119 18117 18118 18120 4 180.0000771 4.6024000 2
18116 18117 18126 18118 4 180.0000771 4.6024000 2
18116 18117 18126 18124 1 180.0000771 15.1670000 2
18116 18117 18126 18127 1 180.0000771 15.1670000 2
18118 18117 18126 18124 1 180.0000771 15.1670000 2
18118 18117 18126 18127 1 180.0000771 15.1670000 2
18119 18118 18117 18126 1 180.0000771 15.1670000 2
18120 18118 18117 18126 1 180.0000771 15.1670000 2
18117 18118 18120 18121 1 180.0000771 15.1670000 2
18117 18118 18120 18122 1 180.0000771 15.1670000 2
18119 18118 18120 18121 1 180.0000771 15.1670000 2
18119 18118 18120 18122 1 180.0000771 15.1670000 2
18118 18120 18122 18123 1 180.0000771 15.1670000 2
18118 18120 18122 18124 1 180.0000771 15.1670000 2
18121 18120 18122 18123 1 180.0000771 15.1670000 2
18121 18120 18122 18124 1 180.0000771 15.1670000 2
18118 18122 18120 18121 4 180.0000771 4.6024000 2
18120 18122 18124 18125 1 180.0000771 15.1670000 2
18120 18122 18124 18126 1 180.0000771 15.1670000 2
18123 18122 18124 18125 1 180.0000771 15.1670000 2
18123 18122 18124 18126 1 180.0000771 15.1670000 2
18120 18124 18122 18123 4 180.0000771 4.6024000 2
18117 18124 18126 18127 4 180.0000771 4.6024000 2
18122 18124 18126 18127 1 180.0000771 15.1670000 2
18125 18124 18126 18127 1 180.0000771 15.1670000 2
18117 18126 18124 18122 1 180.0000771 15.1670000 2
18117 18126 18124 18125 1 180.0000771 15.1670000 2
18122 18126 18124 18125 4 180.0000771 4.6024000 2
18128 18129 18130 18131 1 180.0000771 15.1670000 2
18128 18129 18130 18132 1 180.0000771 15.1670000 2
18131 18129 18130 18132 4 180.0000771 4.6024000 2
18128 18129 18138 18130 4 180.0000771 4.6024000 2
18128 18129 18138 18136 1 180.0000771 15.1670000 2
18128 18129 18138 18139 1 180.0000771 15.1670000 2
18130 18129 18138 18136 1 180.0000771 15.1670000 2
18130 18129 18138 18139 1 180.0000771 15.1670000 2
18131 18130 18129 18138 1 180.0000771 15.1670000 2
18132 18130 18129 18138 1 180.0000771 15.1670000 2
18129 18130 18132 18133 1 180.0000771 15.1670000 2
18129 18130 18132 18134 1 180.0000771 15.1670000 2
18131 18130 18132 18133 1 180.0000771 15.1670000 2
18131 18130 18132 18134 1 180.0000771 15.1670000 2
18130 18132 18134 18135 1 180.0000771 15.1670000 2
18130 18132 18134 18136 1 180.0000771 15.1670000 2
18133 18132 18134 18135 1 180.0000771 15.1670000 2
18133 18132 18134 18136 1 180.0000771 15.1670000 2
18130 18134 18132 18133 4 180.0000771 4.6024000 2
18132 18134 18136 18137 1 180.0000771 15.1670000 2
18132 18134 18136 18138 1 180.0000771 15.1670000 2
18135 18134 18136 18137 1 180.0000771 15.1670000 2
18135 18134 18136 18138 1 180.0000771 15.1670000 2
18132 18136 18134 18135 4 180.0000771 4.6024000 2
18129 18136 18138 18139 4 180.0000771 4.6024000 2
18134 18136 18138 18139 1 180.0000771 15.1670000 2
18137 18136 18138 18139 1 180.0000771 15.1670000 2
18129 18138 18136 18134 1 180.0000771 15.1670000 2
18129 18138 18136 18137 1 180.0000771 15.1670000 2
18134 18138 18136 18137 4 180.0000771 4.6024000 2
18140 18141 18142 18143 1 180.0000771 15.1670000 2
18140 18141 18142 18144 1 180.0000771 15.1670000 2
18143 18141 18142 18144 4 180.0000771 4.6024000 2
18140 18141 18150 18142 4 180.0000771 4.6024000 2
18140 18141 18150 18148 1 180.0000771 15.1670000 2
18140 18141 18150 18151 1 180.0000771 15.1670000 2
18142 18141 18150 18148 1 180.0000771 15.1670000 2
18142 18141 18150 18151 1 180.0000771 15.1670000 2
18143 18142 18141 18150 1 180.0000771 15.1670000 2
18144 18142 18141 18150 1 180.0000771 15.1670000 2
18141 18142 18144 18145 1 180.0000771 15.1670000 2
18141 18142 18144 18146 1 180.0000771 15.1670000 2
18143 18142 18144 18145 1 180.0000771 15.1670000 2
18143 18142 18144 18146 1 180.0000771 15.1670000 2
18142 18144 18146 18147 1 180.0000771 15.1670000 2
18142 18144 18146 18148 1 180.0000771 15.1670000 2
18145 18144 18146 18147 1 180.0000771 15.1670000 2
18145 18144 18146 18148 1 180.0000771 15.1670000 2
18142 18146 18144 18145 4 180.0000771 4.6024000 2
18144 18146 18148 18149 1 180.0000771 15.1670000 2
18144 18146 18148 18150 1 180.0000771 15.1670000 2
18147 18146 18148 18149 1 180.0000771 15.1670000 2
18147 18146 18148 18150 1 180.0000771 15.1670000 2
18144 18148 18146 18147 4 180.0000771 4.6024000 2
18141 18148 18150 18151 4 180.0000771 4.6024000 2
18146 18148 18150 18151 1 180.0000771 15.1670000 2
18149 18148 18150 18151 1 180.0000771 15.1670000 2
18141 18150 18148 18146 1 180.0000771 15.1670000 2
18141 18150 18148 18149 1 180.0000771 15.1670000 2
18146 18150 18148 18149 4 180.0000771 4.6024000 2
18152 18153 18154 18155 1 180.0000771 15.1670000 2
18152 18153 18154 18156 1 180.0000771 15.1670000 2
18155 18153 18154 18156 4 180.0000771 4.6024000 2
18152 18153 18162 18154 4 180.0000771 4.6024000 2
18152 18153 18162 18160 1 180.0000771 15.1670000 2
18152 18153 18162 18163 1 180.0000771 15.1670000 2
18154 18153 18162 18160 1 180.0000771 15.1670000 2
18154 18153 18162 18163 1 180.0000771 15.1670000 2
18155 18154 18153 18162 1 180.0000771 15.1670000 2
18156 18154 18153 18162 1 180.0000771 15.1670000 2
18153 18154 18156 18157 1 180.0000771 15.1670000 2
18153 18154 18156 18158 1 180.0000771 15.1670000 2
18155 18154 18156 18157 1 180.0000771 15.1670000 2
18155 18154 18156 18158 1 180.0000771 15.1670000 2
18154 18156 18158 18159 1 180.0000771 15.1670000 2
18154 18156 18158 18160 1 180.0000771 15.1670000 2
18157 18156 18158 18159 1 180.0000771 15.1670000 2
18157 18156 18158 18160 1 180.0000771 15.1670000 2
18154 18158 18156 18157 4 180.0000771 4.6024000 2
18156 18158 18160 18161 1 180.0000771 15.1670000 2
18156 18158 18160 18162 1 180.0000771 15.1670000 2
18159 18158 18160 18161 1 180.0000771 15.1670000 2
18159 18158 18160 18162 1 180.0000771 15.1670000 2
18156 18160 18158 18159 4 180.0000771 4.6024000 2
18153 18160 18162 18163 4 180.0000771 4.6024000 2
18158 18160 18162 18163 1 180.0000771 15.1670000 2
18161 18160 18162 18163 1 180.0000771 15.1670000 2
18153 18162 18160 18158 1 180.0000771 15.1670000 2
18153 18162 18160 18161 1 180.0000771 15.1670000 2
18158 18162 18160 18161 4 180.0000771 4.6024000 2
18164 18165 18166 18167 1 180.0000771 15.1670000 2
18164 18165 18166 18168 1 180.0000771 15.1670000 2
18167 18165 18166 18168 4 180.0000771 4.6024000 2
18164 18165 18174 18166 4 180.0000771 4.6024000 2
18164 18165 18174 18172 1 180.0000771 15.1670000 2
18164 18165 18174 18175 1 180.0000771 15.1670000 2
18166 18165 18174 18172 1 180.0000771 15.1670000 2
18166 18165 18174 18175 1 180.0000771 15.1670000 2
18167 18166 18165 18174 1 180.0000771 15.1670000 2
18168 18166 18165 18174 1 180.0000771 15.1670000 2
18165 18166 18168 18169 1 180.0000771 15.1670000 2
18165 18166 18168 18170 1 180.0000771 15.1670000 2
18167 18166 18168 18169 1 180.0000771 15.1670000 2
18167 18166 18168 18170 1 180.0000771 15.1670000 2
18166 18168 18170 18171 1 180.0000771 15.1670000 2
18166 18168 18170 18172 1 180.0000771 15.1670000 2
18169 18168 18170 18171 1 180.0000771 15.1670000 2
18169 18168 18170 18172 1 180.0000771 15.1670000 2
18166 18170 18168 18169 4 180.0000771 4.6024000 2
18168 18170 18172 18173 1 180.0000771 15.1670000 2
18168 18170 18172 18174 1 180.0000771 15.1670000 2
18171 18170 18172 18173 1 180.0000771 15.1670000 2
18171 18170 18172 18174 1 180.0000771 15.1670000 2
18168 18172 18170 18171 4 180.0000771 4.6024000 2
18165 18172 18174 18175 4 180.0000771 4.6024000 2
18170 18172 18174 18175 1 180.0000771 15.1670000 2
18173 18172 18174 18175 1 180.0000771 15.1670000 2
18165 18174 18172 18170 1 180.0000771 15.1670000 2
18165 18174 18172 18173 1 180.0000771 15.1670000 2
18170 18174 18172 18173 4 180.0000771 4.6024000 2
18176 18177 18178 18179 1 180.0000771 15.1670000 2
18176 18177 18178 18180 1 180.0000771 15.1670000 2
18179 18177 18178 18180 4 180.0000771 4.6024000 2
18176 18177 18186 18178 4 180.0000771 4.6024000 2
18176 18177 18186 18184 1 180.0000771 15.1670000 2
18176 18177 18186 18187 1 180.0000771 15.1670000 2
18178 18177 18186 18184 1 180.0000771 15.1670000 2
18178 18177 18186 18187 1 180.0000771 15.1670000 2
18179 18178 18177 18186 1 180.0000771 15.1670000 2
18180 18178 18177 18186 1 180.0000771 15.1670000 2
18177 18178 18180 18181 1 180.0000771 15.1670000 2
18177 18178 18180 18182 1 180.0000771 15.1670000 2
18179 18178 18180 18181 1 180.0000771 15.1670000 2
18179 18178 18180 18182 1 180.0000771 15.1670000 2
18178 18180 18182 18183 1 180.0000771 15.1670000 2
18178 18180 18182 18184 1 180.0000771 15.1670000 2
18181 18180 18182 18183 1 180.0000771 15.1670000 2
18181 18180 18182 18184 1 180.0000771 15.1670000 2
18178 18182 18180 18181 4 180.0000771 4.6024000 2
18180 18182 18184 18185 1 180.0000771 15.1670000 2
18180 18182 18184 18186 1 180.0000771 15.1670000 2
18183 18182 18184 18185 1 180.0000771 15.1670000 2
18183 18182 18184 18186 1 180.0000771 15.1670000 2
18180 18184 18182 18183 4 180.0000771 4.6024000 2
18177 18184 18186 18187 4 180.0000771 4.6024000 2
18182 18184 18186 18187 1 180.0000771 15.1670000 2
18185 18184 18186 18187 1 180.0000771 15.1670000 2
18177 18186 18184 18182 1 180.0000771 15.1670000 2
18177 18186 18184 18185 1 180.0000771 15.1670000 2
18182 18186 18184 18185 4 180.0000771 4.6024000 2
18188 18189 18190 18191 1 180.0000771 15.1670000 2
18188 18189 18190 18192 1 180.0000771 15.1670000 2
18191 18189 18190 18192 4 180.0000771 4.6024000 2
18188 18189 18198 18190 4 180.0000771 4.6024000 2
18188 18189 18198 18196 1 180.0000771 15.1670000 2
18188 18189 18198 18199 1 180.0000771 15.1670000 2
18190 18189 18198 18196 1 180.0000771 15.1670000 2
18190 18189 18198 18199 1 180.0000771 15.1670000 2
18191 18190 18189 18198 1 180.0000771 15.1670000 2
18192 18190 18189 18198 1 180.0000771 15.1670000 2
18189 18190 18192 18193 1 180.0000771 15.1670000 2
18189 18190 18192 18194 1 180.0000771 15.1670000 2
18191 18190 18192 18193 1 180.0000771 15.1670000 2
18191 18190 18192 18194 1 180.0000771 15.1670000 2
18190 18192 18194 18195 1 180.0000771 15.1670000 2
18190 18192 18194 18196 1 180.0000771 15.1670000 2
18193 18192 18194 18195 1 180.0000771 15.1670000 2
18193 18192 18194 18196 1 180.0000771 15.1670000 2
18190 18194 18192 18193 4 180.0000771 4.6024000 2
18192 18194 18196 18197 1 180.0000771 15.1670000 2
18192 18194 18196 18198 1 180.0000771 15.1670000 2
18195 18194 18196 18197 1 180.0000771 15.1670000 2
18195 18194 18196 18198 1 180.0000771 15.1670000 2
18192 18196 18194 18195 4 180.0000771 4.6024000 2
18189 18196 18198 18199 4 180.0000771 4.6024000 2
18194 18196 18198 18199 1 180.0000771 15.1670000 2
18197 18196 18198 18199 1 180.0000771 15.1670000 2
18189 18198 18196 18194 1 180.0000771 15.1670000 2
18189 18198 18196 18197 1 180.0000771 15.1670000 2
18194 18198 18196 18197 4 180.0000771 4.6024000 2
18200 18201 18202 18203 1 180.0000771 15.1670000 2
18200 18201 18202 18204 1 180.0000771 15.1670000 2
18203 18201 18202 18204 4 180.0000771 4.6024000 2
18200 18201 18210 18202 4 180.0000771 4.6024000 2
18200 18201 18210 18208 1 180.0000771 15.1670000 2
18200 18201 18210 18211 1 180.0000771 15.1670000 2
18202 18201 18210 18208 1 180.0000771 15.1670000 2
18202 18201 18210 18211 1 180.0000771 15.1670000 2
18203 18202 18201 18210 1 180.0000771 15.1670000 2
18204 18202 18201 18210 1 180.0000771 15.1670000 2
18201 18202 18204 18205 1 180.0000771 15.1670000 2
18201 18202 18204 18206 1 180.0000771 15.1670000 2
18203 18202 18204 18205 1 180.0000771 15.1670000 2
18203 18202 18204 18206 1 180.0000771 15.1670000 2
18202 18204 18206 18207 1 180.0000771 15.1670000 2
18202 18204 18206 18208 1 180.0000771 15.1670000 2
18205 18204 18206 18207 1 180.0000771 15.1670000 2
18205 18204 18206 18208 1 180.0000771 15.1670000 2
18202 18206 18204 18205 4 180.0000771 4.6024000 2
18204 18206 18208 18209 1 180.0000771 15.1670000 2
18204 18206 18208 18210 1 180.0000771 15.1670000 2
18207 18206 18208 18209 1 180.0000771 15.1670000 2
18207 18206 18208 18210 1 180.0000771 15.1670000 2
18204 18208 18206 18207 4 180.0000771 4.6024000 2
18201 18208 18210 18211 4 180.0000771 4.6024000 2
18206 18208 18210 18211 1 180.0000771 15.1670000 2
18209 18208 18210 18211 1 180.0000771 15.1670000 2
18201 18210 18208 18206 1 180.0000771 15.1670000 2
18201 18210 18208 18209 1 180.0000771 15.1670000 2
18206 18210 18208 18209 4 180.0000771 4.6024000 2
