Merged slit + ring-check filtered guest
67194
    1OM     OM1    1   3.802   2.983   0.273  0.0000  0.0000  0.0000
    2OM     OM1    2   3.885   2.800   0.429  0.0000  0.0000  0.0000
    3OM     OM1    3   3.694   2.956   0.513  0.0000  0.0000  0.0000
    4OM     OM1    4   3.932   3.054   0.492  0.0000  0.0000  0.0000
    5OM     OM1    5   3.604   6.494   1.241  0.0000  0.0000  0.0000
    6OM     OM1    6   3.832   6.426   1.330  0.0000  0.0000  0.0000
    7OM     OM1    7   5.982   5.574   8.850  0.0000  0.0000  0.0000
    8OM     OM1    8   6.188   5.415   8.854  0.0000  0.0000  0.0000
    9OM     OM1    9   6.213   5.678   8.872  0.0000  0.0000  0.0000
   10OM     OM1   10   6.104   5.556   9.071  0.0000  0.0000  0.0000
   11OM     OM1   11   5.061   3.626   1.221  0.0000  0.0000  0.0000
   12OM     OM1   12   4.864   3.595   1.054  0.0000  0.0000  0.0000
   13OM     OM1   13   4.915   3.832   1.153  0.0000  0.0000  0.0000
   14OM     OM1   14   8.973   4.194   9.431  0.0000  0.0000  0.0000
   15OM     OM1   15   8.921   3.940   9.354  0.0000  0.0000  0.0000
   16OM     OM1   16   8.731   4.104   9.402  0.0000  0.0000  0.0000
   17OM     OM1   17   8.879   4.148   9.197  0.0000  0.0000  0.0000
   18OM     OM1   18   5.240   9.191   1.209  0.0000  0.0000  0.0000
   19OM     OM1   19   0.775   5.026   1.423  0.0000  0.0000  0.0000
   20OM     OM1   20   0.623   4.880   1.272  0.0000  0.0000  0.0000
   21OM     OM1   21   0.800   4.763   1.408  0.0000  0.0000  0.0000
   22OM     OM1   22   5.851   6.763   1.103  0.0000  0.0000  0.0000
   23OM     OM1   23   5.642   6.899   1.136  0.0000  0.0000  0.0000
   24OM     OM1   24   5.807   6.891   1.325  0.0000  0.0000  0.0000
   25OM     OM1   25   5.860   7.028   1.094  0.0000  0.0000  0.0000
   26OM     OM1   26   1.676   0.657   0.783  0.0000  0.0000  0.0000
   27OM     OM1   27   1.736   0.820   0.585  0.0000  0.0000  0.0000
   28OM     OM1   28   1.540   0.882   0.746  0.0000  0.0000  0.0000
   29OM     OM1   29   1.780   0.879   0.845  0.0000  0.0000  0.0000
   30OM     OM1   30   7.849   5.850   8.421  0.0000  0.0000  0.0000
   31OM     OM1   31   7.985   6.014   8.263  0.0000  0.0000  0.0000
   32OM     OM1   32   8.098   5.912   8.471  0.0000  0.0000  0.0000
   33OM     OM1   33   8.628   6.176   0.217  0.0000  0.0000  0.0000
   34OM     OM1   34   8.779   6.098   0.411  0.0000  0.0000  0.0000
   35OM     OM1   35   8.879   6.157   0.168  0.0000  0.0000  0.0000
   36OM     OM1   36   8.789   6.343   0.336  0.0000  0.0000  0.0000
   37OM     OM1   37   3.322   6.641   9.495  0.0000  0.0000  0.0000
   38OM     OM1   38   3.547   6.744   9.443  0.0000  0.0000  0.0000
   39OM     OM1   39   3.343   6.889   9.543  0.0000  0.0000  0.0000
   40OM     OM1   40   3.363   6.841   9.296  0.0000  0.0000  0.0000
   41OM     OM1   41   1.367   3.048   9.419  0.0000  0.0000  0.0000
   42OM     OM1   42   1.338   2.942   0.050  0.0000  0.0000  0.0000
   43OM     OM1   43   1.158   3.115   9.552  0.0000  0.0000  0.0000
   44OM     OM1   44   1.394   3.195   0.029  0.0000  0.0000  0.0000
   45OM     OM1   45   8.070   0.953   8.354  0.0000  0.0000  0.0000
   46OM     OM1   46   7.824   0.977   8.403  0.0000  0.0000  0.0000
   47OM     OM1   47   7.945   1.199   8.390  0.0000  0.0000  0.0000
   48OM     OM1   48   8.003   1.037   8.588  0.0000  0.0000  0.0000
   49OM     OM1   49   1.547   8.029   9.196  0.0000  0.0000  0.0000
   50OM     OM1   50   1.334   8.153   9.246  0.0000  0.0000  0.0000
   51OM     OM1   51   1.366   8.058   9.004  0.0000  0.0000  0.0000
   52OM     OM1   52   1.521   8.256   9.074  0.0000  0.0000  0.0000
   53OM     OM1   53   7.057   6.501   8.859  0.0000  0.0000  0.0000
   54OM     OM1   54   6.858   6.394   8.726  0.0000  0.0000  0.0000
   55OM     OM1   55   7.019   6.571   8.608  0.0000  0.0000  0.0000
   56OM     OM1   56   6.844   6.643   8.788  0.0000  0.0000  0.0000
   57OM     OM1   57   3.872   1.024   0.005  0.0000  0.0000  0.0000
   58OM     OM1   58   3.860   1.011   0.266  0.0000  0.0000  0.0000
   59OM     OM1   59   3.972   1.210   0.139  0.0000  0.0000  0.0000
   60OM     OM1   60   3.714   1.197   0.148  0.0000  0.0000  0.0000
   61OM     OM1   61   1.819   1.420   8.277  0.0000  0.0000  0.0000
   62OM     OM1   62   1.904   1.546   8.489  0.0000  0.0000  0.0000
   63OM     OM1   63   1.774   1.339   8.524  0.0000  0.0000  0.0000
   64OM     OM1   64   1.641   1.538   8.424  0.0000  0.0000  0.0000
   65OM     OM1   65   1.223   3.136   8.350  0.0000  0.0000  0.0000
   66OM     OM1   66   1.481   3.129   8.265  0.0000  0.0000  0.0000
   67OM     OM1   67   1.416   3.199   8.505  0.0000  0.0000  0.0000
   68OM     OM1   68   0.971   2.326   1.307  0.0000  0.0000  0.0000
   69OM     OM1   69   0.716   2.352   1.363  0.0000  0.0000  0.0000
   70OM     OM1   70   4.139   4.598   0.306  0.0000  0.0000  0.0000
   71OM     OM1   71   4.191   4.691   0.052  0.0000  0.0000  0.0000
   72OM     OM1   72   3.991   4.544   0.084  0.0000  0.0000  0.0000
   73OM     OM1   73   4.234   4.449   0.122  0.0000  0.0000  0.0000
   74OM     OM1   74   4.776   0.132   1.192  0.0000  0.0000  0.0000
   75OM     OM1   75   4.949   9.547   1.238  0.0000  0.0000  0.0000
   76OM     OM1   76   4.835   9.573   0.998  0.0000  0.0000  0.0000
   77OM     OM1   77   4.702   9.489   1.216  0.0000  0.0000  0.0000
   78OM     OM1   78   3.653   3.941   8.624  0.0000  0.0000  0.0000
   79OM     OM1   79   3.551   4.179   8.622  0.0000  0.0000  0.0000
   80OM     OM1   80   3.785   4.156   8.699  0.0000  0.0000  0.0000
   81OM     OM1   81   3.608   4.054   8.858  0.0000  0.0000  0.0000
   82OM     OM1   82   3.015   0.836   0.738  0.0000  0.0000  0.0000
   83OM     OM1   83   2.765   0.901   0.710  0.0000  0.0000  0.0000
   84OM     OM1   84   2.904   1.014   0.903  0.0000  0.0000  0.0000
   85OM     OM1   85   2.942   1.075   0.656  0.0000  0.0000  0.0000
   86OM     OM1   86   5.584   1.997   0.276  0.0000  0.0000  0.0000
   87OM     OM1   87   5.938   1.806   0.549  0.0000  0.0000  0.0000
   88OM     OM1   88   5.810   1.991   0.406  0.0000  0.0000  0.0000
   89OM     OM1   89   6.031   1.875   0.314  0.0000  0.0000  0.0000
   90OM     OM1   90   8.893   3.879   1.299  0.0000  0.0000  0.0000
   91OM     OM1   91   8.870   4.125   1.214  0.0000  0.0000  0.0000
   92OM     OM1   92   8.667   4.015   1.336  0.0000  0.0000  0.0000
   93OM     OM1   93   0.226   1.506   9.077  0.0000  0.0000  0.0000
   94OM     OM1   94   0.354   1.605   9.290  0.0000  0.0000  0.0000
   95OM     OM1   95   0.462   1.420   9.150  0.0000  0.0000  0.0000
   96OM     OM1   96   0.250   1.361   9.280  0.0000  0.0000  0.0000
   97OM     OM1   97   5.872   1.390   9.564  0.0000  0.0000  0.0000
   98OM     OM1   98   5.679   1.502   9.419  0.0000  0.0000  0.0000
   99OM     OM1   99   5.830   1.332   9.303  0.0000  0.0000  0.0000
  100OM     OM1  100   5.661   1.256   9.491  0.0000  0.0000  0.0000
  101OM     OM1  101   0.572   3.154   0.300  0.0000  0.0000  0.0000
  102OM     OM1  102   0.338   3.258   0.305  0.0000  0.0000  0.0000
  103OM     OM1  103   0.403   3.094   0.112  0.0000  0.0000  0.0000
  104OM     OM1  104   0.373   2.995   0.358  0.0000  0.0000  0.0000
  105OM     OM1  105   0.400   2.090   0.499  0.0000  0.0000  0.0000
  106OM     OM1  106   0.563   2.271   0.399  0.0000  0.0000  0.0000
  107OM     OM1  107   0.590   2.193   0.647  0.0000  0.0000  0.0000
  108OM     OM1  108   0.646   2.025   0.452  0.0000  0.0000  0.0000
  109OM     OM1  109   7.637   5.051   0.471  0.0000  0.0000  0.0000
  110OM     OM1  110   7.650   5.169   0.244  0.0000  0.0000  0.0000
  111OM     OM1  111   7.488   5.263   0.420  0.0000  0.0000  0.0000
  112OM     OM1  112   7.429   5.034   0.309  0.0000  0.0000  0.0000
  113OM     OM1  113   9.540   0.195   9.184  0.0000  0.0000  0.0000
  114OM     OM1  114   9.300   0.234   9.254  0.0000  0.0000  0.0000
  115OM     OM1  115   9.455   0.150   9.441  0.0000  0.0000  0.0000
  116OM     OM1  116   9.400   9.594   9.246  0.0000  0.0000  0.0000
  117OM     OM1  117   4.084   2.263   9.557  0.0000  0.0000  0.0000
  118OM     OM1  118   3.867   2.369   9.432  0.0000  0.0000  0.0000
  119OM     OM1  119   4.106   2.462   9.419  0.0000  0.0000  0.0000
  120OM     OM1  120   3.968   2.477   0.045  0.0000  0.0000  0.0000
  121OM     OM1  121   1.115   2.547   1.307  0.0000  0.0000  0.0000
  122OM     OM1  122   1.181   2.799   1.336  0.0000  0.0000  0.0000
  123OM     OM1  123   0.591   6.835   8.355  0.0000  0.0000  0.0000
  124OM     OM1  124   0.524   7.077   8.419  0.0000  0.0000  0.0000
  125OM     OM1  125   0.355   6.951   8.286  0.0000  0.0000  0.0000
  126OM     OM1  126   5.383   5.213   8.952  0.0000  0.0000  0.0000
  127OM     OM1  127   5.584   5.105   9.076  0.0000  0.0000  0.0000
  128OM     OM1  128   5.379   5.207   9.211  0.0000  0.0000  0.0000
  129OM     OM1  129   5.349   4.987   9.069  0.0000  0.0000  0.0000
  130OM     OM1  130   6.070   8.666   9.246  0.0000  0.0000  0.0000
  131OM     OM1  131   5.954   8.843   9.091  0.0000  0.0000  0.0000
  132OM     OM1  132   6.145   8.700   8.991  0.0000  0.0000  0.0000
  133OM     OM1  133   5.913   8.589   9.054  0.0000  0.0000  0.0000
  134OM     OM1  134   5.833   5.151   9.161  0.0000  0.0000  0.0000
  135OM     OM1  135   5.779   4.919   9.074  0.0000  0.0000  0.0000
  136OM     OM1  136   5.664   5.001   9.292  0.0000  0.0000  0.0000
  137OM     OM1  137   1.291   5.071   1.262  0.0000  0.0000  0.0000
  138OM     OM1  138   1.526   5.031   1.183  0.0000  0.0000  0.0000
  139OM     OM1  139   1.430   5.275   1.167  0.0000  0.0000  0.0000
  140OM     OM1  140   0.504   3.714   8.704  0.0000  0.0000  0.0000
  141OM     OM1  141   0.580   3.962   8.751  0.0000  0.0000  0.0000
  142OM     OM1  142   0.546   3.897   8.511  0.0000  0.0000  0.0000
  143OM     OM1  143   0.745   3.786   8.641  0.0000  0.0000  0.0000
  144OM     OM1  144   6.183   2.314   8.600  0.0000  0.0000  0.0000
  145OM     OM1  145   6.079   2.282   8.362  0.0000  0.0000  0.0000
  146OM     OM1  146   6.272   2.121   8.455  0.0000  0.0000  0.0000
  147OM     OM1  147   6.314   2.367   8.368  0.0000  0.0000  0.0000
  148OM     OM1  148   2.487   3.401   0.628  0.0000  0.0000  0.0000
  149OM     OM1  149   2.182   3.435   0.300  0.0000  0.0000  0.0000
  150OM     OM1  150   2.437   3.449   0.365  0.0000  0.0000  0.0000
  151OM     OM1  151   2.363   3.449   0.112  0.0000  0.0000  0.0000
  152OM     OM1  152   7.793   1.409   0.247  0.0000  0.0000  0.0000
  153OM     OM1  153   7.579   1.487   0.155  0.0000  0.0000  0.0000
  154OM     OM1  154   7.721   1.677   0.262  0.0000  0.0000  0.0000
  155OM     OM1  155   7.624   1.504   0.421  0.0000  0.0000  0.0000
  156OM     OM1  156   9.081   4.290   0.029  0.0000  0.0000  0.0000
  157OM     OM1  157   8.916   4.442   9.516  0.0000  0.0000  0.0000
  158OM     OM1  158   9.133   4.383   9.373  0.0000  0.0000  0.0000
  159OM     OM1  159   4.999   2.474   9.019  0.0000  0.0000  0.0000
  160OM     OM1  160   5.001   2.950   8.799  0.0000  0.0000  0.0000
  161OM     OM1  161   5.065   2.696   8.732  0.0000  0.0000  0.0000
  162OM     OM1  162   5.088   2.775   8.977  0.0000  0.0000  0.0000
  163OM     OM1  163   8.202   7.601   0.579  0.0000  0.0000  0.0000
  164OM     OM1  164   8.168   7.350   0.675  0.0000  0.0000  0.0000
  165OM     OM1  165   8.288   7.537   0.813  0.0000  0.0000  0.0000
  166OM     OM1  166   8.029   7.547   0.768  0.0000  0.0000  0.0000
  167OM     OM1  167   1.535   1.299   8.604  0.0000  0.0000  0.0000
  168OM     OM1  168   1.692   1.115   8.472  0.0000  0.0000  0.0000
  169OM     OM1  169   1.727   1.164   8.724  0.0000  0.0000  0.0000
  170OM     OM1  170   0.812   1.844   0.542  0.0000  0.0000  0.0000
  171OM     OM1  171   0.784   1.928   0.786  0.0000  0.0000  0.0000
  172OM     OM1  172   0.803   1.677   0.745  0.0000  0.0000  0.0000
  173OM     OM1  173   1.018   1.841   0.708  0.0000  0.0000  0.0000
  174OM     OM1  174   5.931   0.035   1.027  0.0000  0.0000  0.0000
  175OM     OM1  175   5.814   0.254   1.055  0.0000  0.0000  0.0000
  176OM     OM1  176   5.943   0.196   0.826  0.0000  0.0000  0.0000
  177OM     OM1  177   5.715   0.094   0.876  0.0000  0.0000  0.0000
  178OM     OM1  178   4.793   7.092   1.352  0.0000  0.0000  0.0000
  179OM     OM1  179   4.697   7.267   1.188  0.0000  0.0000  0.0000
  180OM     OM1  180   5.520   6.370   1.090  0.0000  0.0000  0.0000
  181OM     OM1  181   5.299   6.238   1.040  0.0000  0.0000  0.0000
  182OM     OM1  182   5.532   6.199   0.903  0.0000  0.0000  0.0000
  183OM     OM1  183   5.383   6.406   0.867  0.0000  0.0000  0.0000
  184OM     OM1  184   5.559   3.438   0.585  0.0000  0.0000  0.0000
  185OM     OM1  185   5.398   3.320   0.410  0.0000  0.0000  0.0000
  186OM     OM1  186   5.655   3.329   0.377  0.0000  0.0000  0.0000
  187OM     OM1  187   5.540   3.178   0.566  0.0000  0.0000  0.0000
  188OM     OM1  188   7.310   6.443   0.301  0.0000  0.0000  0.0000
  189OM     OM1  189   7.319   6.705   0.283  0.0000  0.0000  0.0000
  190OM     OM1  190   7.362   6.556   0.076  0.0000  0.0000  0.0000
  191OM     OM1  191   7.119   6.571   0.177  0.0000  0.0000  0.0000
  192OM     OM1  192   6.363   2.511   1.248  0.0000  0.0000  0.0000
  193OM     OM1  193   8.654   0.792   0.467  0.0000  0.0000  0.0000
  194OM     OM1  194   8.924   0.776   0.521  0.0000  0.0000  0.0000
  195OM     OM1  195   8.759   0.929   0.648  0.0000  0.0000  0.0000
  196OM     OM1  196   8.761   0.664   0.677  0.0000  0.0000  0.0000
  197OM     OM1  197   7.182   3.343   9.016  0.0000  0.0000  0.0000
  198OM     OM1  198   7.149   3.388   9.272  0.0000  0.0000  0.0000
  199OM     OM1  199   7.361   3.476   9.150  0.0000  0.0000  0.0000
  200OM     OM1  200   7.122   3.583   9.112  0.0000  0.0000  0.0000
  201OM     OM1  201   3.453   3.847   0.779  0.0000  0.0000  0.0000
  202OM     OM1  202   3.345   3.705   0.973  0.0000  0.0000  0.0000
  203OM     OM1  203   3.502   3.602   0.803  0.0000  0.0000  0.0000
  204OM     OM1  204   3.484   3.585   1.156  0.0000  0.0000  0.0000
  205OM     OM1  205   2.434   2.307   1.305  0.0000  0.0000  0.0000
  206OM     OM1  206   2.383   2.604   0.889  0.0000  0.0000  0.0000
  207OM     OM1  207   2.369   2.480   1.117  0.0000  0.0000  0.0000
  208OM     OM1  208   2.573   2.642   1.061  0.0000  0.0000  0.0000
  209OM     OM1  209   3.466   8.084   0.332  0.0000  0.0000  0.0000
  210OM     OM1  210   3.399   7.844   0.242  0.0000  0.0000  0.0000
  211OM     OM1  211   3.243   7.974   0.415  0.0000  0.0000  0.0000
  212OM     OM1  212   3.475   7.861   0.478  0.0000  0.0000  0.0000
  213OM     OM1  213   7.074   5.181   9.401  0.0000  0.0000  0.0000
  214OM     OM1  214   7.293   5.119   9.531  0.0000  0.0000  0.0000
  215OM     OM1  215   7.447   5.070   9.326  0.0000  0.0000  0.0000
  216OM     OM1  216   7.391   4.877   9.492  0.0000  0.0000  0.0000
  217OM     OM1  217   7.914   1.375   8.574  0.0000  0.0000  0.0000
  218OM     OM1  218   8.078   1.571   8.549  0.0000  0.0000  0.0000
  219OM     OM1  219   8.139   1.384   8.711  0.0000  0.0000  0.0000
  220OM     OM1  220   7.936   1.545   8.771  0.0000  0.0000  0.0000
  221OM     OM1  221   8.608   8.977   8.261  0.0000  0.0000  0.0000
  222OM     OM1  222   8.515   9.220   8.363  0.0000  0.0000  0.0000
  223OM     OM1  223   8.483   8.987   8.482  0.0000  0.0000  0.0000
  224OM     OM1  224   6.421   3.457   0.066  0.0000  0.0000  0.0000
  225OM     OM1  225   6.335   3.241   9.548  0.0000  0.0000  0.0000
  226OM     OM1  226   6.219   3.324   0.153  0.0000  0.0000  0.0000
  227OM     OM1  227   6.188   3.452   9.537  0.0000  0.0000  0.0000
  228OM     OM1  228   7.103   0.391   0.759  0.0000  0.0000  0.0000
  229OM     OM1  229   6.987   0.530   0.950  0.0000  0.0000  0.0000
  230OM     OM1  230   7.119   0.648   0.757  0.0000  0.0000  0.0000
  231OM     OM1  231   6.886   0.540   0.715  0.0000  0.0000  0.0000
  232OM     OM1  232   7.489   5.682   1.217  0.0000  0.0000  0.0000
  233OM     OM1  233   7.334   5.473   1.246  0.0000  0.0000  0.0000
  234OM     OM1  234   7.230   5.710   1.184  0.0000  0.0000  0.0000
  235OM     OM1  235   6.350   0.966   0.439  0.0000  0.0000  0.0000
  236OM     OM1  236   6.448   0.804   0.618  0.0000  0.0000  0.0000
  237OM     OM1  237   6.218   0.764   0.506  0.0000  0.0000  0.0000
  238OM     OM1  238   6.239   0.954   0.685  0.0000  0.0000  0.0000
  239OM     OM1  239   3.460   1.191   8.257  0.0000  0.0000  0.0000
  240OM     OM1  240   3.515   1.357   8.454  0.0000  0.0000  0.0000
  241OM     OM1  241   3.699   1.255   8.305  0.0000  0.0000  0.0000
  242OM     OM1  242   2.805   1.571   8.416  0.0000  0.0000  0.0000
  243OM     OM1  243   2.576   1.454   8.447  0.0000  0.0000  0.0000
  244OM     OM1  244   2.795   1.312   8.454  0.0000  0.0000  0.0000
  245OM     OM1  245   9.522   1.010   1.457  0.0000  0.0000  0.0000
  246OM     OM1  246   8.748   5.838   9.171  0.0000  0.0000  0.0000
  247OM     OM1  247   8.506   5.953   9.138  0.0000  0.0000  0.0000
  248OM     OM1  248   8.673   5.953   8.947  0.0000  0.0000  0.0000
  249OM     OM1  249   8.727   6.096   9.156  0.0000  0.0000  0.0000
  250OM     OM1  250   8.103   4.849   0.978  0.0000  0.0000  0.0000
  251OM     OM1  251   8.139   5.174   1.023  0.0000  0.0000  0.0000
  252OM     OM1  252   8.034   5.183   0.784  0.0000  0.0000  0.0000
  253OM     OM1  253   8.241   5.035   0.844  0.0000  0.0000  0.0000
  254OM     OM1  254   8.497   1.884   1.180  0.0000  0.0000  0.0000
  255OM     OM1  255   8.442   1.632   1.226  0.0000  0.0000  0.0000
  256OM     OM1  256   6.318   1.387   8.936  0.0000  0.0000  0.0000
  257OM     OM1  257   6.251   1.549   9.131  0.0000  0.0000  0.0000
  258OM     OM1  258   6.487   1.569   9.019  0.0000  0.0000  0.0000
  259OM     OM1  259   6.265   1.627   8.882  0.0000  0.0000  0.0000
  260OM     OM1  260   9.027   6.910   8.352  0.0000  0.0000  0.0000
  261OM     OM1  261   9.212   6.856   8.545  0.0000  0.0000  0.0000
  262OM     OM1  262   9.197   6.711   8.331  0.0000  0.0000  0.0000
  263OM     OM1  263   9.274   6.966   8.319  0.0000  0.0000  0.0000
  264OM     OM1  264   7.966   2.439   9.251  0.0000  0.0000  0.0000
  265OM     OM1  265   8.083   2.641   9.147  0.0000  0.0000  0.0000
  266OM     OM1  266   8.068   2.629   9.405  0.0000  0.0000  0.0000
  267OM     OM1  267   7.854   2.681   9.260  0.0000  0.0000  0.0000
  268OM     OM1  268   9.315   5.962   9.321  0.0000  0.0000  0.0000
  269OM     OM1  269   9.338   6.186   9.194  0.0000  0.0000  0.0000
  270OM     OM1  270   9.196   6.001   9.087  0.0000  0.0000  0.0000
  271OM     OM1  271   9.113   6.131   9.308  0.0000  0.0000  0.0000
  272OM     OM1  272   8.542   2.762   8.373  0.0000  0.0000  0.0000
  273OM     OM1  273   8.608   2.559   8.538  0.0000  0.0000  0.0000
  274OM     OM1  274   8.795   2.697   8.399  0.0000  0.0000  0.0000
  275OM     OM1  275   5.282   3.521   0.706  0.0000  0.0000  0.0000
  276OM     OM1  276   5.337   3.631   0.941  0.0000  0.0000  0.0000
  277OM     OM1  277   5.302   3.781   0.729  0.0000  0.0000  0.0000
  278OM     OM1  278   5.516   3.628   0.753  0.0000  0.0000  0.0000
  279OM     OM1  279   7.720   1.105   9.196  0.0000  0.0000  0.0000
  280OM     OM1  280   7.510   1.240   9.157  0.0000  0.0000  0.0000
  281OM     OM1  281   7.661   1.165   8.941  0.0000  0.0000  0.0000
  282OM     OM1  282   7.742   1.344   9.105  0.0000  0.0000  0.0000
  283OM     OM1  283   6.948   3.590   1.229  0.0000  0.0000  0.0000
  284OM     OM1  284   7.036   3.361   1.134  0.0000  0.0000  0.0000
  285OM     OM1  285   7.193   3.533   1.255  0.0000  0.0000  0.0000
  286OM     OM1  286   6.850   5.966   0.512  0.0000  0.0000  0.0000
  287OM     OM1  287   6.841   6.152   0.679  0.0000  0.0000  0.0000
  288OM     OM1  288   7.072   6.103   0.569  0.0000  0.0000  0.0000
  289OM     OM1  289   6.895   6.204   0.413  0.0000  0.0000  0.0000
  290OM     OM1  290   8.891   7.514   9.452  0.0000  0.0000  0.0000
  291OM     OM1  291   8.816   7.476   9.199  0.0000  0.0000  0.0000
  292OM     OM1  292   8.666   7.599   9.378  0.0000  0.0000  0.0000
  293OM     OM1  293   8.842   7.344   0.046  0.0000  0.0000  0.0000
  294OM     OM1  294   3.010   1.617   9.529  0.0000  0.0000  0.0000
  295OM     OM1  295   3.034   1.546   0.181  0.0000  0.0000  0.0000
  296OM     OM1  296   3.102   1.390   9.585  0.0000  0.0000  0.0000
  297OM     OM1  297   3.156   1.285   9.355  0.0000  0.0000  0.0000
  298OM     OM1  298   1.457   4.417   0.196  0.0000  0.0000  0.0000
  299OM     OM1  299   1.677   4.320   0.304  0.0000  0.0000  0.0000
  300OM     OM1  300   1.630   4.280   0.051  0.0000  0.0000  0.0000
  301OM     OM1  301   1.501   4.152   0.227  0.0000  0.0000  0.0000
  302OM     OM1  302   2.396   4.040   0.187  0.0000  0.0000  0.0000
  303OM     OM1  303   2.217   3.891   0.287  0.0000  0.0000  0.0000
  304OM     OM1  304   2.144   4.126   0.215  0.0000  0.0000  0.0000
  305OM     OM1  305   2.312   4.118   0.409  0.0000  0.0000  0.0000
  306OM     OM1  306   3.314   1.915   1.263  0.0000  0.0000  0.0000
  307OM     OM1  307   3.355   1.737   1.057  0.0000  0.0000  0.0000
  308OM     OM1  308   3.122   1.830   1.129  0.0000  0.0000  0.0000
  309OM     OM1  309   3.253   1.661   1.282  0.0000  0.0000  0.0000
  310OM     OM1  310   5.579   0.015   9.194  0.0000  0.0000  0.0000
  311OM     OM1  311   5.637   0.035   9.443  0.0000  0.0000  0.0000
  312OM     OM1  312   5.457   0.192   9.328  0.0000  0.0000  0.0000
  313OM     OM1  313   5.718   0.221   9.288  0.0000  0.0000  0.0000
  314OM     OM1  314   9.450   6.834   8.208  0.0000  0.0000  0.0000
  315OM     OM1  315   9.508   6.981   8.423  0.0000  0.0000  0.0000
  316OM     OM1  316   1.151   1.212   0.877  0.0000  0.0000  0.0000
  317OM     OM1  317   1.169   1.410   0.716  0.0000  0.0000  0.0000
  318OM     OM1  318   0.970   1.241   0.699  0.0000  0.0000  0.0000
  319OM     OM1  319   0.976   1.402   0.906  0.0000  0.0000  0.0000
  320OM     OM1  320   0.805   8.696   1.249  0.0000  0.0000  0.0000
  321OM     OM1  321   6.755   6.188   0.198  0.0000  0.0000  0.0000
  322OM     OM1  322   6.939   6.380   0.217  0.0000  0.0000  0.0000
  323OM     OM1  323   7.014   6.129   0.206  0.0000  0.0000  0.0000
  324OM     OM1  324   6.038   5.656   9.596  0.0000  0.0000  0.0000
  325OM     OM1  325   5.942   5.461   9.467  0.0000  0.0000  0.0000
  326OM     OM1  326   6.090   5.411   0.078  0.0000  0.0000  0.0000
  327OM     OM1  327   5.838   5.500   0.088  0.0000  0.0000  0.0000
  328OM     OM1  328   4.270   7.350   8.861  0.0000  0.0000  0.0000
  329OM     OM1  329   4.196   7.276   9.102  0.0000  0.0000  0.0000
  330OM     OM1  330   4.026   7.402   8.925  0.0000  0.0000  0.0000
  331OM     OM1  331   4.114   7.159   8.887  0.0000  0.0000  0.0000
  332OM     OM1  332   4.050   8.987   0.071  0.0000  0.0000  0.0000
  333OM     OM1  333   4.081   8.835   0.283  0.0000  0.0000  0.0000
  334OM     OM1  334   4.201   8.782   0.047  0.0000  0.0000  0.0000
  335OM     OM1  335   4.277   8.985   0.194  0.0000  0.0000  0.0000
  336OM     OM1  336   0.183   4.704   9.372  0.0000  0.0000  0.0000
  337OM     OM1  337   0.029   4.798   9.554  0.0000  0.0000  0.0000
  338OM     OM1  338   0.024   4.782   9.044  0.0000  0.0000  0.0000
  339OM     OM1  339   0.080   4.950   9.346  0.0000  0.0000  0.0000
  340OM     OM1  340   8.753   2.714   9.384  0.0000  0.0000  0.0000
  341OM     OM1  341   8.912   2.897   9.280  0.0000  0.0000  0.0000
  342OM     OM1  342   9.011   2.685   9.382  0.0000  0.0000  0.0000
  343OM     OM1  343   8.883   2.651   9.162  0.0000  0.0000  0.0000
  344OM     OM1  344   0.052   7.166   9.156  0.0000  0.0000  0.0000
  345OM     OM1  345   0.072   7.054   8.919  0.0000  0.0000  0.0000
  346OM     OM1  346   9.529   7.263   8.951  0.0000  0.0000  0.0000
  347OM     OM1  347   0.189   7.281   8.960  0.0000  0.0000  0.0000
  348OM     OM1  348   4.227   2.120   8.336  0.0000  0.0000  0.0000
  349OM     OM1  349   4.280   1.944   8.519  0.0000  0.0000  0.0000
  350OM     OM1  350   4.426   1.959   8.313  0.0000  0.0000  0.0000
  351OM     OM1  351   4.664   1.967   8.424  0.0000  0.0000  0.0000
  352OM     OM1  352   7.338   3.139   0.703  0.0000  0.0000  0.0000
  353OM     OM1  353   7.206   3.336   0.582  0.0000  0.0000  0.0000
  354OM     OM1  354   7.408   3.394   0.728  0.0000  0.0000  0.0000
  355OM     OM1  355   7.449   3.255   0.506  0.0000  0.0000  0.0000
  356OM     OM1  356   9.117   0.694   1.174  0.0000  0.0000  0.0000
  357OM     OM1  357   9.370   0.648   1.265  0.0000  0.0000  0.0000
  358OM     OM1  358   9.328   0.618   1.019  0.0000  0.0000  0.0000
  359OM     OM1  359   9.202   0.462   1.183  0.0000  0.0000  0.0000
  360OM     OM1  360   4.166   5.054   0.260  0.0000  0.0000  0.0000
  361OM     OM1  361   4.417   5.143   0.271  0.0000  0.0000  0.0000
  362OM     OM1  362   4.346   4.980   0.082  0.0000  0.0000  0.0000
  363OM     OM1  363   4.259   5.229   0.091  0.0000  0.0000  0.0000
  364OM     OM1  364   8.231   8.459   0.799  0.0000  0.0000  0.0000
  365OM     OM1  365   8.412   8.582   0.934  0.0000  0.0000  0.0000
  366OM     OM1  366   8.255   8.728   0.780  0.0000  0.0000  0.0000
  367OM     OM1  367   8.421   8.578   0.668  0.0000  0.0000  0.0000
  368OM     OM1  368   5.497   4.634   8.592  0.0000  0.0000  0.0000
  369OM     OM1  369   5.572   4.408   8.492  0.0000  0.0000  0.0000
  370OM     OM1  370   5.312   4.465   8.513  0.0000  0.0000  0.0000
  371OM     OM1  371   8.915   7.695   8.571  0.0000  0.0000  0.0000
  372OM     OM1  372   9.087   7.514   8.509  0.0000  0.0000  0.0000
  373OM     OM1  373   9.154   7.685   8.685  0.0000  0.0000  0.0000
  374OM     OM1  374   9.324   7.490   8.397  0.0000  0.0000  0.0000
  375OM     OM1  375   4.600   8.953   8.755  0.0000  0.0000  0.0000
  376OM     OM1  376   4.695   8.708   8.692  0.0000  0.0000  0.0000
  377OM     OM1  377   4.318   8.889   8.518  0.0000  0.0000  0.0000
  378OM     OM1  378   4.448   8.748   8.695  0.0000  0.0000  0.0000
  379OM     OM1  379   1.308   6.287   0.119  0.0000  0.0000  0.0000
  380OM     OM1  380   1.368   6.538   0.062  0.0000  0.0000  0.0000
  381OM     OM1  381   1.297   6.441   0.312  0.0000  0.0000  0.0000
  382OM     OM1  382   1.527   6.394   0.206  0.0000  0.0000  0.0000
  383OM     OM1  383   9.034   2.996   1.146  0.0000  0.0000  0.0000
  384OM     OM1  384   9.124   2.810   0.980  0.0000  0.0000  0.0000
  385OM     OM1  385   9.020   3.024   0.885  0.0000  0.0000  0.0000
  386OM     OM1  386   9.252   3.037   0.998  0.0000  0.0000  0.0000
  387OM     OM1  387   8.043   7.722   0.105  0.0000  0.0000  0.0000
  388OM     OM1  388   8.280   7.816   0.057  0.0000  0.0000  0.0000
  389OM     OM1  389   8.086   7.987   0.055  0.0000  0.0000  0.0000
  390OM     OM1  390   8.107   7.809   9.469  0.0000  0.0000  0.0000
  391OM     OM1  391   0.539   9.503   9.428  0.0000  0.0000  0.0000
  392OM     OM1  392   0.573   9.504   9.162  0.0000  0.0000  0.0000
  393OM     OM1  393   0.337   9.439   9.269  0.0000  0.0000  0.0000
  394OM     OM1  394   0.532   9.282   9.294  0.0000  0.0000  0.0000
  395OM     OM1  395   7.506   2.344   1.253  0.0000  0.0000  0.0000
  396OM     OM1  396   7.585   2.573   1.154  0.0000  0.0000  0.0000
  397OM     OM1  397   3.855   8.862   9.019  0.0000  0.0000  0.0000
  398OM     OM1  398   3.979   8.984   9.290  0.0000  0.0000  0.0000
  399OM     OM1  399   4.102   8.829   8.997  0.0000  0.0000  0.0000
  400OM     OM1  400   3.958   8.743   9.215  0.0000  0.0000  0.0000
  401OM     OM1  401   8.653   0.894   0.112  0.0000  0.0000  0.0000
  402OM     OM1  402   8.699   1.120   0.233  0.0000  0.0000  0.0000
  403OM     OM1  403   8.894   0.946   0.249  0.0000  0.0000  0.0000
  404OM     OM1  404   8.844   1.026   0.020  0.0000  0.0000  0.0000
  405OM     OM1  405   9.594   4.316   0.142  0.0000  0.0000  0.0000
  406OM     OM1  406   9.485   4.079   0.111  0.0000  0.0000  0.0000
  407OM     OM1  407   0.377   4.066   0.192  0.0000  0.0000  0.0000
  408OM     OM1  408   0.121   4.116   0.223  0.0000  0.0000  0.0000
  409OM     OM1  409   6.371   9.075   0.065  0.0000  0.0000  0.0000
  410OM     OM1  410   6.348   9.324   0.145  0.0000  0.0000  0.0000
  411OM     OM1  411   6.253   9.246   9.522  0.0000  0.0000  0.0000
  412OM     OM1  412   6.144   9.173   0.155  0.0000  0.0000  0.0000
  413OM     OM1  413   6.672   4.479   8.636  0.0000  0.0000  0.0000
  414OM     OM1  414   6.683   4.215   8.619  0.0000  0.0000  0.0000
  415OM     OM1  415   6.899   4.348   8.586  0.0000  0.0000  0.0000
  416OM     OM1  416   6.732   4.367   8.403  0.0000  0.0000  0.0000
  417OM     OM1  417   0.241   0.114   1.188  0.0000  0.0000  0.0000
  418OM     OM1  418   0.218   0.379   1.242  0.0000  0.0000  0.0000
  419OM     OM1  419   0.449   0.254   1.185  0.0000  0.0000  0.0000
  420OM     OM1  420   5.111   9.124   0.351  0.0000  0.0000  0.0000
  421OM     OM1  421   5.196   9.290   0.177  0.0000  0.0000  0.0000
  422OM     OM1  422   4.939   9.271   0.210  0.0000  0.0000  0.0000
  423OM     OM1  423   5.059   9.067   0.101  0.0000  0.0000  0.0000
  424OM     OM1  424   9.064   6.344   9.466  0.0000  0.0000  0.0000
  425OM     OM1  425   8.984   6.108   9.536  0.0000  0.0000  0.0000
  426OM     OM1  426   8.871   6.226   9.333  0.0000  0.0000  0.0000
  427OM     OM1  427   2.040   0.158   9.300  0.0000  0.0000  0.0000
  428OM     OM1  428   1.881   0.246   9.488  0.0000  0.0000  0.0000
  429OM     OM1  429   1.859   0.003   9.404  0.0000  0.0000  0.0000
  430OM     OM1  430   1.797   0.205   9.240  0.0000  0.0000  0.0000
  431OM     OM1  431   5.093   4.113   8.931  0.0000  0.0000  0.0000
  432OM     OM1  432   5.170   4.068   9.172  0.0000  0.0000  0.0000
  433OM     OM1  433   5.134   4.310   9.101  0.0000  0.0000  0.0000
  434OM     OM1  434   4.927   4.150   9.126  0.0000  0.0000  0.0000
  435OM     OM1  435   8.476   7.817   8.577  0.0000  0.0000  0.0000
  436OM     OM1  436   8.571   7.709   8.791  0.0000  0.0000  0.0000
  437OM     OM1  437   8.745   7.524   8.853  0.0000  0.0000  0.0000
  438OM     OM1  438   8.813   7.770   8.882  0.0000  0.0000  0.0000
  439OM     OM1  439   5.272   8.416   1.231  0.0000  0.0000  0.0000
  440OM     OM1  440   5.024   8.414   1.320  0.0000  0.0000  0.0000
  441OM     OM1  441   1.530   6.691   8.265  0.0000  0.0000  0.0000
  442OM     OM1  442   1.781   6.686   8.327  0.0000  0.0000  0.0000
  443OM     OM1  443   1.595   6.579   8.497  0.0000  0.0000  0.0000
  444OM     OM1  444   1.611   6.834   8.457  0.0000  0.0000  0.0000
  445OM     OM1  445   9.038   1.891   9.374  0.0000  0.0000  0.0000
  446OM     OM1  446   9.247   2.050   9.373  0.0000  0.0000  0.0000
  447OM     OM1  447   9.273   1.789   9.428  0.0000  0.0000  0.0000
  448OM     OM1  448   9.155   1.952   9.596  0.0000  0.0000  0.0000
  449OM     OM1  449   8.203   2.455   8.307  0.0000  0.0000  0.0000
  450OM     OM1  450   8.088   2.212   8.280  0.0000  0.0000  0.0000
  451OM     OM1  451   7.243   5.350   0.422  0.0000  0.0000  0.0000
  452OM     OM1  452   7.043   5.226   0.306  0.0000  0.0000  0.0000
  453OM     OM1  453   6.991   5.439   0.435  0.0000  0.0000  0.0000
  454OM     OM1  454   7.128   5.447   0.208  0.0000  0.0000  0.0000
  455OM     OM1  455   2.227   8.066   0.938  0.0000  0.0000  0.0000
  456OM     OM1  456   2.021   8.184   0.849  0.0000  0.0000  0.0000
  457OM     OM1  457   2.211   8.332   0.945  0.0000  0.0000  0.0000
  458OM     OM1  458   2.068   8.203   1.105  0.0000  0.0000  0.0000
  459OM     OM1  459   8.117   4.362   1.282  0.0000  0.0000  0.0000
  460OM     OM1  460   8.268   4.565   1.380  0.0000  0.0000  0.0000
  461OM     OM1  461   4.856   3.289   9.202  0.0000  0.0000  0.0000
  462OM     OM1  462   4.601   3.291   9.255  0.0000  0.0000  0.0000
  463OM     OM1  463   4.725   3.071   9.188  0.0000  0.0000  0.0000
  464OM     OM1  464   4.673   3.270   9.013  0.0000  0.0000  0.0000
  465OM     OM1  465   5.763   5.910   0.386  0.0000  0.0000  0.0000
  466OM     OM1  466   5.727   6.092   0.191  0.0000  0.0000  0.0000
  467OM     OM1  467   5.686   6.132   0.454  0.0000  0.0000  0.0000
  468OM     OM1  468   5.928   6.113   0.348  0.0000  0.0000  0.0000
  469OM     OM1  469   8.911   6.664   8.493  0.0000  0.0000  0.0000
  470OM     OM1  470   9.025   6.786   8.693  0.0000  0.0000  0.0000
  471OM     OM1  471   8.803   6.890   8.578  0.0000  0.0000  0.0000
  472OM     OM1  472   8.797   6.674   8.726  0.0000  0.0000  0.0000
  473OM     OM1  473   2.313   3.862   8.383  0.0000  0.0000  0.0000
  474OM     OM1  474   2.242   3.621   8.417  0.0000  0.0000  0.0000
  475OM     OM1  475   0.525   3.438   9.516  0.0000  0.0000  0.0000
  476OM     OM1  476   0.740   3.457   0.053  0.0000  0.0000  0.0000
  477OM     OM1  477   0.663   3.224   9.575  0.0000  0.0000  0.0000
  478OM     OM1  478   0.752   3.397   9.399  0.0000  0.0000  0.0000
  479OM     OM1  479   7.765   1.383   1.007  0.0000  0.0000  0.0000
  480OM     OM1  480   7.419   1.421   1.105  0.0000  0.0000  0.0000
  481OM     OM1  481   7.639   0.999   1.038  0.0000  0.0000  0.0000
  482OM     OM1  482   7.754   1.188   1.173  0.0000  0.0000  0.0000
  483OM     OM1  483   2.015   5.361   0.090  0.0000  0.0000  0.0000
  484OM     OM1  484   2.005   5.131   0.214  0.0000  0.0000  0.0000
  485OM     OM1  485   1.795   5.209   0.089  0.0000  0.0000  0.0000
  486OM     OM1  486   1.868   5.337   0.311  0.0000  0.0000  0.0000
  487OM     OM1  487   5.137   7.479   9.190  0.0000  0.0000  0.0000
  488OM     OM1  488   5.028   7.715   9.215  0.0000  0.0000  0.0000
  489OM     OM1  489   5.289   7.688   9.244  0.0000  0.0000  0.0000
  490OM     OM1  490   5.179   7.675   9.013  0.0000  0.0000  0.0000
  491OM     OM1  491   6.658   3.791   8.311  0.0000  0.0000  0.0000
  492OM     OM1  492   6.626   3.699   8.547  0.0000  0.0000  0.0000
  493OM     OM1  493   6.666   3.966   8.513  0.0000  0.0000  0.0000
  494OM     OM1  494   6.854   3.787   8.502  0.0000  0.0000  0.0000
  495OM     OM1  495   0.458   1.220   8.979  0.0000  0.0000  0.0000
  496OM     OM1  496   0.150   0.942   9.011  0.0000  0.0000  0.0000
  497OM     OM1  497   0.408   0.968   8.965  0.0000  0.0000  0.0000
  498OM     OM1  498   0.309   0.733   9.026  0.0000  0.0000  0.0000
  499OM     OM1  499   8.129   1.214   1.136  0.0000  0.0000  0.0000
  500OM     OM1  500   3.494   9.447   8.971  0.0000  0.0000  0.0000
  501OM     OM1  501   3.533   9.514   9.222  0.0000  0.0000  0.0000
  502OM     OM1  502   3.630   9.297   9.124  0.0000  0.0000  0.0000
  503OM     OM1  503   3.726   9.543   9.054  0.0000  0.0000  0.0000
  504OM     OM1  504   6.442   5.606   9.366  0.0000  0.0000  0.0000
  505OM     OM1  505   6.394   5.622   9.114  0.0000  0.0000  0.0000
  506OM     OM1  506   6.371   5.392   9.233  0.0000  0.0000  0.0000
  507OM     OM1  507   6.207   5.607   9.287  0.0000  0.0000  0.0000
  508OM     OM1  508   9.536   3.042   0.123  0.0000  0.0000  0.0000
  509OM     OM1  509   9.466   2.864   0.306  0.0000  0.0000  0.0000
  510OM     OM1  510   9.343   3.103   0.287  0.0000  0.0000  0.0000
  511OM     OM1  511   9.311   2.924   0.102  0.0000  0.0000  0.0000
  512OM     OM1  512   0.830   6.803   8.265  0.0000  0.0000  0.0000
  513OM     OM1  513   0.776   6.816   8.533  0.0000  0.0000  0.0000
  514OM     OM1  514   0.730   6.610   8.395  0.0000  0.0000  0.0000
  515OM     OM1  515   3.148   5.116   1.081  0.0000  0.0000  0.0000
  516OM     OM1  516   2.955   5.291   1.102  0.0000  0.0000  0.0000
  517OM     OM1  517   2.915   5.029   1.140  0.0000  0.0000  0.0000
  518OM     OM1  518   5.587   5.133   1.195  0.0000  0.0000  0.0000
  519OM     OM1  519   5.731   5.009   1.369  0.0000  0.0000  0.0000
  520OM     OM1  520   5.561   4.871   1.215  0.0000  0.0000  0.0000
  521OM     OM1  521   6.458   7.678   1.233  0.0000  0.0000  0.0000
  522OM     OM1  522   6.328   7.667   1.010  0.0000  0.0000  0.0000
  523OM     OM1  523   6.611   7.865   1.308  0.0000  0.0000  0.0000
  524OM     OM1  524   6.204   7.753   1.210  0.0000  0.0000  0.0000
  525OM     OM1  525   7.460   8.519   0.554  0.0000  0.0000  0.0000
  526OM     OM1  526   7.513   8.284   0.638  0.0000  0.0000  0.0000
  527OM     OM1  527   7.571   8.341   0.388  0.0000  0.0000  0.0000
  528OM     OM1  528   7.720   8.435   0.570  0.0000  0.0000  0.0000
  529OM     OM1  529   1.184   4.233   9.305  0.0000  0.0000  0.0000
  530OM     OM1  530   1.159   3.982   9.256  0.0000  0.0000  0.0000
  531OM     OM1  531   0.968   4.102   9.401  0.0000  0.0000  0.0000
  532OM     OM1  532   0.998   4.153   9.150  0.0000  0.0000  0.0000
  533OM     OM1  533   3.933   9.577   9.201  0.0000  0.0000  0.0000
  534OM     OM1  534   3.955   9.506   8.952  0.0000  0.0000  0.0000
  535OM     OM1  535   3.906   0.141   8.989  0.0000  0.0000  0.0000
  536OM     OM1  536   3.474   6.351   1.059  0.0000  0.0000  0.0000
  537OM     OM1  537   3.505   6.612   1.030  0.0000  0.0000  0.0000
  538OM     OM1  538   3.712   6.459   1.017  0.0000  0.0000  0.0000
  539OM     OM1  539   1.575   8.690   8.858  0.0000  0.0000  0.0000
  540OM     OM1  540   1.330   8.606   8.881  0.0000  0.0000  0.0000
  541OM     OM1  541   1.459   8.707   9.086  0.0000  0.0000  0.0000
  542OM     OM1  542   1.383   8.864   8.884  0.0000  0.0000  0.0000
  543OM     OM1  543   5.557   3.463   0.180  0.0000  0.0000  0.0000
  544OM     OM1  544   5.746   3.281   0.144  0.0000  0.0000  0.0000
  545OM     OM1  545   5.804   3.510   0.246  0.0000  0.0000  0.0000
  546OM     OM1  546   8.809   6.342   9.112  0.0000  0.0000  0.0000
  547OM     OM1  547   8.619   6.289   9.286  0.0000  0.0000  0.0000
  548OM     OM1  548   7.974   3.984   0.575  0.0000  0.0000  0.0000
  549OM     OM1  549   7.945   4.206   0.712  0.0000  0.0000  0.0000
  550OM     OM1  550   7.822   3.998   0.797  0.0000  0.0000  0.0000
  551OM     OM1  551   7.747   4.126   0.585  0.0000  0.0000  0.0000
  552OM     OM1  552   5.103   6.192   9.553  0.0000  0.0000  0.0000
  553OM     OM1  553   4.944   6.402   9.572  0.0000  0.0000  0.0000
  554OM     OM1  554   5.091   6.378   9.360  0.0000  0.0000  0.0000
  555OM     OM1  555   4.868   6.561   0.176  0.0000  0.0000  0.0000
  556OM     OM1  556   8.482   8.423   1.138  0.0000  0.0000  0.0000
  557OM     OM1  557   8.440   8.169   1.143  0.0000  0.0000  0.0000
  558OM     OM1  558   8.674   8.269   1.213  0.0000  0.0000  0.0000
  559OM     OM1  559   6.797   1.297   8.484  0.0000  0.0000  0.0000
  560OM     OM1  560   6.760   1.037   8.423  0.0000  0.0000  0.0000
  561OM     OM1  561   6.968   1.122   8.563  0.0000  0.0000  0.0000
  562OM     OM1  562   2.863   2.494   8.888  0.0000  0.0000  0.0000
  563OM     OM1  563   2.696   2.409   8.722  0.0000  0.0000  0.0000
  564OM     OM1  564   2.863   2.235   8.827  0.0000  0.0000  0.0000
  565OM     OM1  565   2.675   2.333   8.977  0.0000  0.0000  0.0000
  566OM     OM1  566   6.211   6.817   8.532  0.0000  0.0000  0.0000
  567OM     OM1  567   6.343   6.953   8.711  0.0000  0.0000  0.0000
  568OM     OM1  568   6.335   7.049   8.471  0.0000  0.0000  0.0000
  569OM     OM1  569   6.467   6.829   8.513  0.0000  0.0000  0.0000
  570OM     OM1  570   9.144   7.905   0.573  0.0000  0.0000  0.0000
  571OM     OM1  571   9.391   7.996   0.568  0.0000  0.0000  0.0000
  572OM     OM1  572   9.183   8.142   0.657  0.0000  0.0000  0.0000
  573OM     OM1  573   9.226   8.082   0.400  0.0000  0.0000  0.0000
  574OM     OM1  574   7.133   3.974   0.245  0.0000  0.0000  0.0000
  575OM     OM1  575   7.367   4.061   0.181  0.0000  0.0000  0.0000
  576OM     OM1  576   7.330   3.796   0.218  0.0000  0.0000  0.0000
  577OM     OM1  577   7.342   3.949   0.415  0.0000  0.0000  0.0000
  578OM     OM1  578   1.100   4.973   1.098  0.0000  0.0000  0.0000
  579OM     OM1  579   1.087   5.202   1.213  0.0000  0.0000  0.0000
  580OM     OM1  580   0.384   7.382   8.775  0.0000  0.0000  0.0000
  581OM     OM1  581   0.159   7.311   8.711  0.0000  0.0000  0.0000
  582OM     OM1  582   0.199   7.524   8.882  0.0000  0.0000  0.0000
  583OM     OM1  583   6.072   9.107   8.363  0.0000  0.0000  0.0000
  584OM     OM1  584   5.882   9.270   8.442  0.0000  0.0000  0.0000
  585OM     OM1  585   8.055   5.841   9.222  0.0000  0.0000  0.0000
  586OM     OM1  586   8.185   5.647   9.128  0.0000  0.0000  0.0000
  587OM     OM1  587   8.257   5.892   9.064  0.0000  0.0000  0.0000
  588OM     OM1  588   8.052   5.778   8.953  0.0000  0.0000  0.0000
  589OM     OM1  589   1.715   9.357   0.006  0.0000  0.0000  0.0000
  590OM     OM1  590   1.495   9.237   0.037  0.0000  0.0000  0.0000
  591OM     OM1  591   1.552   9.463   0.173  0.0000  0.0000  0.0000
  592OM     OM1  592   1.485   9.475   9.530  0.0000  0.0000  0.0000
  593OM     OM1  593   2.275   5.611   9.167  0.0000  0.0000  0.0000
  594OM     OM1  594   2.519   5.628   9.246  0.0000  0.0000  0.0000
  595OM     OM1  595   2.432   5.797   9.065  0.0000  0.0000  0.0000
  596OM     OM1  596   2.357   5.822   9.304  0.0000  0.0000  0.0000
  597OM     OM1  597   9.042   5.126   1.049  0.0000  0.0000  0.0000
  598OM     OM1  598   9.093   5.056   1.293  0.0000  0.0000  0.0000
  599OM     OM1  599   9.228   4.950   1.098  0.0000  0.0000  0.0000
  600OM     OM1  600   8.983   4.873   1.135  0.0000  0.0000  0.0000
  601OM     OM1  601   3.508   0.286   1.343  0.0000  0.0000  0.0000
  602OM     OM1  602   3.681   0.260   1.150  0.0000  0.0000  0.0000
  603OM     OM1  603   3.738   0.388   1.366  0.0000  0.0000  0.0000
  604OM     OM1  604   7.614   0.006   9.054  0.0000  0.0000  0.0000
  605OM     OM1  605   7.639   0.270   9.115  0.0000  0.0000  0.0000
  606OM     OM1  606   7.831   0.115   9.153  0.0000  0.0000  0.0000
  607OM     OM1  607   7.609   0.080   9.298  0.0000  0.0000  0.0000
  608OM     OM1  608   7.926   0.118   8.909  0.0000  0.0000  0.0000
  609OM     OM1  609   8.077   0.051   9.115  0.0000  0.0000  0.0000
  610OM     OM1  610   8.015   0.293   9.081  0.0000  0.0000  0.0000
  611OM     OM1  611   6.188   3.234   0.789  0.0000  0.0000  0.0000
  612OM     OM1  612   6.048   3.247   1.014  0.0000  0.0000  0.0000
  613OM     OM1  613   5.966   3.391   0.815  0.0000  0.0000  0.0000
  614OM     OM1  614   5.958   3.123   0.802  0.0000  0.0000  0.0000
  615OM     OM1  615   1.646   2.426   9.311  0.0000  0.0000  0.0000
  616OM     OM1  616   1.678   2.310   9.556  0.0000  0.0000  0.0000
  617OM     OM1  617   1.511   2.509   9.522  0.0000  0.0000  0.0000
  618OM     OM1  618   1.773   2.542   9.502  0.0000  0.0000  0.0000
  619OM     OM1  619   6.797   1.334   1.260  0.0000  0.0000  0.0000
  620OM     OM1  620   6.604   1.495   1.322  0.0000  0.0000  0.0000
  621OM     OM1  621   6.775   1.564   1.131  0.0000  0.0000  0.0000
  622OM     OM1  622   0.138   7.047   0.307  0.0000  0.0000  0.0000
  623OM     OM1  623   9.522   6.975   0.170  0.0000  0.0000  0.0000
  624OM     OM1  624   9.572   6.869   0.401  0.0000  0.0000  0.0000
  625OM     OM1  625   0.117   6.815   0.189  0.0000  0.0000  0.0000
  626OM     OM1  626   4.524   9.196   8.854  0.0000  0.0000  0.0000
  627OM     OM1  627   4.654   9.029   8.989  0.0000  0.0000  0.0000
  628OM     OM1  628   4.789   9.124   8.790  0.0000  0.0000  0.0000
  629OM     OM1  629   8.476   7.716   9.523  0.0000  0.0000  0.0000
  630OM     OM1  630   8.498   7.737   9.254  0.0000  0.0000  0.0000
  631OM     OM1  631   8.406   7.529   9.363  0.0000  0.0000  0.0000
  632OM     OM1  632   4.801   0.008   9.081  0.0000  0.0000  0.0000
  633OM     OM1  633   4.855   0.274   9.074  0.0000  0.0000  0.0000
  634OM     OM1  634   4.998   0.111   9.208  0.0000  0.0000  0.0000
  635OM     OM1  635   4.756   0.157   9.289  0.0000  0.0000  0.0000
  636OM     OM1  636   8.710   6.556   0.057  0.0000  0.0000  0.0000
  637OM     OM1  637   8.890   6.745   0.086  0.0000  0.0000  0.0000
  638OM     OM1  638   8.962   6.493   0.056  0.0000  0.0000  0.0000
  639OM     OM1  639   8.849   6.578   0.280  0.0000  0.0000  0.0000
  640OM     OM1  640   0.406   0.713   0.172  0.0000  0.0000  0.0000
  641OM     OM1  641   0.512   0.477   0.192  0.0000  0.0000  0.0000
  642OM     OM1  642   0.328   0.507   0.016  0.0000  0.0000  0.0000
  643OM     OM1  643   0.561   0.625   9.584  0.0000  0.0000  0.0000
  644OM     OM1  644   8.863   2.071   9.433  0.0000  0.0000  0.0000
  645OM     OM1  645   8.883   1.989   9.190  0.0000  0.0000  0.0000
  646OM     OM1  646   8.776   1.832   9.372  0.0000  0.0000  0.0000
  647OM     OM1  647   7.809   7.710   0.402  0.0000  0.0000  0.0000
  648OM     OM1  648   7.639   7.814   0.232  0.0000  0.0000  0.0000
  649OM     OM1  649   7.578   7.673   0.456  0.0000  0.0000  0.0000
  650OM     OM1  650   7.664   7.558   0.235  0.0000  0.0000  0.0000
  651OM     OM1  651   9.454   0.749   8.514  0.0000  0.0000  0.0000
  652OM     OM1  652   0.057   0.706   8.371  0.0000  0.0000  0.0000
  653OM     OM1  653   0.081   0.838   8.596  0.0000  0.0000  0.0000
  654OM     OM1  654   9.556   0.945   8.395  0.0000  0.0000  0.0000
  655OM     OM1  655   8.437   7.631   0.159  0.0000  0.0000  0.0000
  656OM     OM1  656   8.540   7.864   0.120  0.0000  0.0000  0.0000
  657OM     OM1  657   8.519   1.612   0.138  0.0000  0.0000  0.0000
  658OM     OM1  658   8.265   1.639   0.201  0.0000  0.0000  0.0000
  659OM     OM1  659   8.346   1.442   0.050  0.0000  0.0000  0.0000
  660OM     OM1  660   8.070   1.558   0.361  0.0000  0.0000  0.0000
  661OM     OM1  661   0.312   8.846   0.740  0.0000  0.0000  0.0000
  662OM     OM1  662   0.090   8.918   0.638  0.0000  0.0000  0.0000
  663OM     OM1  663   0.081   9.164   0.570  0.0000  0.0000  0.0000
  664OM     OM1  664   0.266   8.798   0.483  0.0000  0.0000  0.0000
  665OM     OM1  665   9.581   1.253   0.351  0.0000  0.0000  0.0000
  666OM     OM1  666   9.487   1.069   0.513  0.0000  0.0000  0.0000
  667OM     OM1  667   0.126   1.429   0.478  0.0000  0.0000  0.0000
  668OM     OM1  668   0.212   1.335   0.255  0.0000  0.0000  0.0000
  669OM     OM1  669   0.424   5.300   8.488  0.0000  0.0000  0.0000
  670OM     OM1  670   0.638   5.147   8.474  0.0000  0.0000  0.0000
  671OM     OM1  671   5.621   4.250   9.153  0.0000  0.0000  0.0000
  672OM     OM1  672   5.662   4.022   9.041  0.0000  0.0000  0.0000
  673OM     OM1  673   5.828   4.234   9.321  0.0000  0.0000  0.0000
  674OM     OM1  674   5.423   4.090   9.101  0.0000  0.0000  0.0000
  675OM     OM1  675   0.515   4.238   1.287  0.0000  0.0000  0.0000
  676OM     OM1  676   0.735   4.168   1.418  0.0000  0.0000  0.0000
  677OM     OM1  677   0.570   3.994   1.315  0.0000  0.0000  0.0000
  678OM     OM1  678   3.410   3.698   0.069  0.0000  0.0000  0.0000
  679OM     OM1  679   3.318   3.461   0.015  0.0000  0.0000  0.0000
  680OM     OM1  680   3.306   3.632   9.431  0.0000  0.0000  0.0000
  681OM     OM1  681   3.383   3.938   0.146  0.0000  0.0000  0.0000
  682OM     OM1  682   8.945   5.656   9.150  0.0000  0.0000  0.0000
  683OM     OM1  683   9.138   5.841   8.882  0.0000  0.0000  0.0000
  684OM     OM1  684   9.162   5.498   9.152  0.0000  0.0000  0.0000
  685OM     OM1  685   9.063   5.595   8.930  0.0000  0.0000  0.0000
  686OM     OM1  686   7.510   2.220   8.573  0.0000  0.0000  0.0000
  687OM     OM1  687   7.351   2.015   8.592  0.0000  0.0000  0.0000
  688OM     OM1  688   7.329   2.201   8.760  0.0000  0.0000  0.0000
  689OM     OM1  689   7.550   2.060   8.771  0.0000  0.0000  0.0000
  690OM     OM1  690   8.540   0.726   9.540  0.0000  0.0000  0.0000
  691OM     OM1  691   8.422   0.836   0.327  0.0000  0.0000  0.0000
  692OM     OM1  692   8.396   0.886   0.076  0.0000  0.0000  0.0000
  693OM     OM1  693   0.443   4.189   8.777  0.0000  0.0000  0.0000
  694OM     OM1  694   0.632   4.343   8.688  0.0000  0.0000  0.0000
  695OM     OM1  695   0.383   4.382   8.603  0.0000  0.0000  0.0000
  696OM     OM1  696   0.517   4.163   8.538  0.0000  0.0000  0.0000
  697OM     OM1  697   2.827   6.880   8.694  0.0000  0.0000  0.0000
  698OM     OM1  698   2.596   6.951   8.620  0.0000  0.0000  0.0000
  699OM     OM1  699   2.722   7.072   8.822  0.0000  0.0000  0.0000
  700OM     OM1  700   2.614   6.832   8.850  0.0000  0.0000  0.0000
  701OM     OM1  701   5.881   0.412   0.705  0.0000  0.0000  0.0000
  702OM     OM1  702   6.112   0.392   0.809  0.0000  0.0000  0.0000
  703OM     OM1  703   6.051   0.248   0.591  0.0000  0.0000  0.0000
  704OM     OM1  704   3.341   4.532   0.115  0.0000  0.0000  0.0000
  705OM     OM1  705   3.408   4.530   0.377  0.0000  0.0000  0.0000
  706OM     OM1  706   3.527   4.377   0.197  0.0000  0.0000  0.0000
  707OM     OM1  707   3.281   4.336   0.282  0.0000  0.0000  0.0000
  708OM     OM1  708   8.140   8.958   1.189  0.0000  0.0000  0.0000
  709OM     OM1  709   8.211   8.927   0.936  0.0000  0.0000  0.0000
  710OM     OM1  710   8.210   9.157   1.047  0.0000  0.0000  0.0000
  711OM     OM1  711   7.984   9.037   0.993  0.0000  0.0000  0.0000
  712OM     OM1  712   9.007   3.405   0.479  0.0000  0.0000  0.0000
  713OM     OM1  713   8.979   3.365   0.222  0.0000  0.0000  0.0000
  714OM     OM1  714   9.051   3.172   0.382  0.0000  0.0000  0.0000
  715OM     OM1  715   8.824   3.086   0.442  0.0000  0.0000  0.0000
  716OM     OM1  716   3.537   0.346   0.952  0.0000  0.0000  0.0000
  717OM     OM1  717   3.706   0.503   1.048  0.0000  0.0000  0.0000
  718OM     OM1  718   3.602   0.744   1.055  0.0000  0.0000  0.0000
  719OM     OM1  719   3.662   0.669   8.498  0.0000  0.0000  0.0000
  720OM     OM1  720   3.460   0.552   8.373  0.0000  0.0000  0.0000
  721OM     OM1  721   3.707   0.475   8.332  0.0000  0.0000  0.0000
  722OM     OM1  722   0.197   8.078   1.242  0.0000  0.0000  0.0000
  723OM     OM1  723   9.556   8.479   1.076  0.0000  0.0000  0.0000
  724OM     OM1  724   0.053   8.258   1.145  0.0000  0.0000  0.0000
  725OM     OM1  725   3.345   6.708   0.746  0.0000  0.0000  0.0000
  726OM     OM1  726   3.540   6.856   0.690  0.0000  0.0000  0.0000
  727OM     OM1  727   3.455   6.852   0.938  0.0000  0.0000  0.0000
  728OM     OM1  728   3.293   6.955   0.762  0.0000  0.0000  0.0000
  729OM     OM1  729   2.681   3.603   8.633  0.0000  0.0000  0.0000
  730OM     OM1  730   2.557   3.390   8.735  0.0000  0.0000  0.0000
  731OM     OM1  731   2.527   3.630   8.832  0.0000  0.0000  0.0000
  732OM     OM1  732   2.743   3.505   8.881  0.0000  0.0000  0.0000
  733OM     OM1  733   2.155   5.967   8.920  0.0000  0.0000  0.0000
  734OM     OM1  734   1.938   5.975   9.063  0.0000  0.0000  0.0000
  735OM     OM1  735   2.039   5.747   8.976  0.0000  0.0000  0.0000
  736OM     OM1  736   2.147   5.884   9.177  0.0000  0.0000  0.0000
  737OM     OM1  737   4.058   3.643   9.502  0.0000  0.0000  0.0000
  738OM     OM1  738   4.273   3.502   9.525  0.0000  0.0000  0.0000
  739OM     OM1  739   4.294   3.758   9.555  0.0000  0.0000  0.0000
  740OM     OM1  740   4.172   3.607   0.129  0.0000  0.0000  0.0000
  741OM     OM1  741   9.274   8.884   8.474  0.0000  0.0000  0.0000
  742OM     OM1  742   9.306   9.145   8.465  0.0000  0.0000  0.0000
  743OM     OM1  743   9.444   9.005   8.639  0.0000  0.0000  0.0000
  744OM     OM1  744   9.499   9.003   8.385  0.0000  0.0000  0.0000
  745OM     OM1  745   5.153   1.032   0.473  0.0000  0.0000  0.0000
  746OM     OM1  746   5.375   0.975   0.615  0.0000  0.0000  0.0000
  747OM     OM1  747   5.212   0.788   0.527  0.0000  0.0000  0.0000
  748OM     OM1  748   5.137   0.938   0.722  0.0000  0.0000  0.0000
  749OM     OM1  749   3.285   9.297   0.617  0.0000  0.0000  0.0000
  750OM     OM1  750   3.534   9.211   0.608  0.0000  0.0000  0.0000
  751OM     OM1  751   3.488   9.394   0.782  0.0000  0.0000  0.0000
  752OM     OM1  752   3.372   9.166   0.816  0.0000  0.0000  0.0000
  753OM     OM1  753   7.113   8.039   9.348  0.0000  0.0000  0.0000
  754OM     OM1  754   6.866   8.071   9.429  0.0000  0.0000  0.0000
  755OM     OM1  755   7.061   8.103   9.589  0.0000  0.0000  0.0000
  756OM     OM1  756   7.016   8.286   9.390  0.0000  0.0000  0.0000
  757OM     OM1  757   8.978   5.168   9.131  0.0000  0.0000  0.0000
  758OM     OM1  758   8.957   5.224   8.882  0.0000  0.0000  0.0000
  759OM     OM1  759   8.746   5.226   9.021  0.0000  0.0000  0.0000
  760OM     OM1  760   8.932   5.413   9.063  0.0000  0.0000  0.0000
  761OM     OM1  761   3.460   5.500   9.380  0.0000  0.0000  0.0000
  762OM     OM1  762   3.274   5.336   9.440  0.0000  0.0000  0.0000
  763OM     OM1  763   3.444   5.283   9.243  0.0000  0.0000  0.0000
  764OM     OM1  764   3.535   5.275   9.485  0.0000  0.0000  0.0000
  765OM     OM1  765   1.706   7.766   9.603  0.0000  0.0000  0.0000
  766OM     OM1  766   1.598   7.842   9.373  0.0000  0.0000  0.0000
  767OM     OM1  767   1.467   7.701   9.552  0.0000  0.0000  0.0000
  768OM     OM1  768   1.505   7.950   9.590  0.0000  0.0000  0.0000
  769OM     OM1  769   0.147   4.452   8.688  0.0000  0.0000  0.0000
  770OM     OM1  770   0.122   4.570   8.916  0.0000  0.0000  0.0000
  771OM     OM1  771   9.517   4.484   8.814  0.0000  0.0000  0.0000
  772OM     OM1  772   0.080   4.296   8.879  0.0000  0.0000  0.0000
  773OM     OM1  773   1.079   3.158   8.573  0.0000  0.0000  0.0000
  774OM     OM1  774   1.105   2.933   8.444  0.0000  0.0000  0.0000
  775OM     OM1  775   0.958   3.121   8.344  0.0000  0.0000  0.0000
  776OM     OM1  776   4.509   5.015   9.493  0.0000  0.0000  0.0000
  777OM     OM1  777   4.339   4.812   9.483  0.0000  0.0000  0.0000
  778OM     OM1  778   4.086   4.788   9.432  0.0000  0.0000  0.0000
  779OM     OM1  779   1.760   1.211   1.254  0.0000  0.0000  0.0000
  780OM     OM1  780   1.635   1.250   1.033  0.0000  0.0000  0.0000
  781OM     OM1  781   1.889   1.279   1.042  0.0000  0.0000  0.0000
  782OM     OM1  782   1.790   1.035   1.057  0.0000  0.0000  0.0000
  783OM     OM1  783   3.609   9.426   8.375  0.0000  0.0000  0.0000
  784OM     OM1  784   3.432   9.571   8.496  0.0000  0.0000  0.0000
  785OM     OM1  785   3.382   9.310   8.442  0.0000  0.0000  0.0000
  786OM     OM1  786   8.430   8.241   0.061  0.0000  0.0000  0.0000
  787OM     OM1  787   8.224   8.363   9.573  0.0000  0.0000  0.0000
  788OM     OM1  788   8.452   8.377   9.451  0.0000  0.0000  0.0000
  789OM     OM1  789   8.320   8.152   9.441  0.0000  0.0000  0.0000
  790OM     OM1  790   9.430   4.850   8.538  0.0000  0.0000  0.0000
  791OM     OM1  791   9.415   4.605   8.478  0.0000  0.0000  0.0000
  792OM     OM1  792   9.226   4.765   8.392  0.0000  0.0000  0.0000
  793OM     OM1  793   6.554   3.861   1.222  0.0000  0.0000  0.0000
  794OM     OM1  794   9.373   5.122   0.973  0.0000  0.0000  0.0000
  795OM     OM1  795   9.429   4.871   0.943  0.0000  0.0000  0.0000
  796OM     OM1  796   9.467   4.991   1.180  0.0000  0.0000  0.0000
  797OM     OM1  797   6.412   5.113   1.071  0.0000  0.0000  0.0000
  798OM     OM1  798   6.190   5.010   1.171  0.0000  0.0000  0.0000
  799OM     OM1  799   6.424   4.911   1.230  0.0000  0.0000  0.0000
  800OM     OM1  800   3.304   5.721   1.220  0.0000  0.0000  0.0000
  801OM     OM1  801   3.087   5.703   1.363  0.0000  0.0000  0.0000
  802OM     OM1  802   4.358   2.745   0.628  0.0000  0.0000  0.0000
  803OM     OM1  803   4.149   2.746   0.780  0.0000  0.0000  0.0000
  804OM     OM1  804   4.378   2.842   0.872  0.0000  0.0000  0.0000
  805OM     OM1  805   4.248   2.975   0.705  0.0000  0.0000  0.0000
  806OM     OM1  806   1.102   3.513   0.184  0.0000  0.0000  0.0000
  807OM     OM1  807   1.294   3.420   0.057  0.0000  0.0000  0.0000
  808OM     OM1  808   1.136   3.594   9.545  0.0000  0.0000  0.0000
  809OM     OM1  809   1.275   3.710   0.200  0.0000  0.0000  0.0000
  810OM     OM1  810   6.938   0.796   9.426  0.0000  0.0000  0.0000
  811OM     OM1  811   6.746   0.609   9.414  0.0000  0.0000  0.0000
  812OM     OM1  812   6.948   0.565   9.568  0.0000  0.0000  0.0000
  813OM     OM1  813   6.792   0.746   0.025  0.0000  0.0000  0.0000
  814OM     OM1  814   8.440   4.017   1.190  0.0000  0.0000  0.0000
  815OM     OM1  815   8.510   4.252   1.167  0.0000  0.0000  0.0000
  816OM     OM1  816   8.427   4.124   0.950  0.0000  0.0000  0.0000
  817OM     OM1  817   8.254   4.199   1.132  0.0000  0.0000  0.0000
  818OM     OM1  818   4.484   0.881   0.373  0.0000  0.0000  0.0000
  819OM     OM1  819   4.562   0.798   0.612  0.0000  0.0000  0.0000
  820OM     OM1  820   4.348   0.684   0.518  0.0000  0.0000  0.0000
  821OM     OM1  821   4.578   0.644   0.406  0.0000  0.0000  0.0000
  822OM     OM1  822   8.852   1.018   9.363  0.0000  0.0000  0.0000
  823OM     OM1  823   9.031   1.158   9.524  0.0000  0.0000  0.0000
  824OM     OM1  824   9.042   0.901   9.483  0.0000  0.0000  0.0000
  825OM     OM1  825   9.440   1.915   0.831  0.0000  0.0000  0.0000
  826OM     OM1  826   0.094   1.850   0.808  0.0000  0.0000  0.0000
  827OM     OM1  827   9.290   1.977   1.033  0.0000  0.0000  0.0000
  828OM     OM1  828   9.366   1.738   0.998  0.0000  0.0000  0.0000
  829OM     OM1  829   7.114   1.940   0.064  0.0000  0.0000  0.0000
  830OM     OM1  830   6.993   1.832   9.451  0.0000  0.0000  0.0000
  831OM     OM1  831   7.179   1.712   9.567  0.0000  0.0000  0.0000
  832OM     OM1  832   6.939   1.741   0.079  0.0000  0.0000  0.0000
  833OM     OM1  833   0.960   8.333   8.763  0.0000  0.0000  0.0000
  834OM     OM1  834   1.044   8.160   8.935  0.0000  0.0000  0.0000
  835OM     OM1  835   1.185   8.381   8.885  0.0000  0.0000  0.0000
  836OM     OM1  836   0.951   8.384   9.018  0.0000  0.0000  0.0000
  837OM     OM1  837   1.097   1.499   1.280  0.0000  0.0000  0.0000
  838OM     OM1  838   1.042   1.744   1.242  0.0000  0.0000  0.0000
  839OM     OM1  839   0.904   1.552   1.108  0.0000  0.0000  0.0000
  840OM     OM1  840   3.158   9.262   1.394  0.0000  0.0000  0.0000
  841OM     OM1  841   6.310   0.610   0.045  0.0000  0.0000  0.0000
  842OM     OM1  842   6.362   0.807   0.225  0.0000  0.0000  0.0000
  843OM     OM1  843   6.550   0.701   0.102  0.0000  0.0000  0.0000
  844OM     OM1  844   6.412   0.555   0.278  0.0000  0.0000  0.0000
  845OM     OM1  845   2.488   8.534   8.261  0.0000  0.0000  0.0000
  846OM     OM1  846   1.895   0.401   9.095  0.0000  0.0000  0.0000
  847OM     OM1  847   1.737   0.232   8.976  0.0000  0.0000  0.0000
  848OM     OM1  848   1.643   0.398   9.148  0.0000  0.0000  0.0000
  849OM     OM1  849   3.588   3.791   0.246  0.0000  0.0000  0.0000
  850OM     OM1  850   3.540   3.558   9.506  0.0000  0.0000  0.0000
  851OM     OM1  851   3.581   3.874   9.599  0.0000  0.0000  0.0000
  852OM     OM1  852   7.212   4.606   8.628  0.0000  0.0000  0.0000
  853OM     OM1  853   7.290   4.434   8.450  0.0000  0.0000  0.0000
  854OM     OM1  854   7.447   4.640   8.538  0.0000  0.0000  0.0000
  855OM     OM1  855   7.413   4.436   8.681  0.0000  0.0000  0.0000
  856OM     OM1  856   6.934   8.927   0.805  0.0000  0.0000  0.0000
  857OM     OM1  857   6.967   9.043   1.044  0.0000  0.0000  0.0000
  858OM     OM1  858   7.158   9.036   0.874  0.0000  0.0000  0.0000
  859OM     OM1  859   6.948   9.184   0.826  0.0000  0.0000  0.0000
  860OM     OM1  860   6.139   6.658   0.031  0.0000  0.0000  0.0000
  861OM     OM1  861   5.886   6.665   0.056  0.0000  0.0000  0.0000
  862OM     OM1  862   6.006   6.868   9.562  0.0000  0.0000  0.0000
  863OM     OM1  863   5.988   6.638   9.423  0.0000  0.0000  0.0000
  864OM     OM1  864   1.233   3.253   1.180  0.0000  0.0000  0.0000
  865OM     OM1  865   1.111   3.087   1.022  0.0000  0.0000  0.0000
  866OM     OM1  866   1.318   3.069   0.868  0.0000  0.0000  0.0000
  867OM     OM1  867   1.275   3.011   1.209  0.0000  0.0000  0.0000
  868OM     OM1  868   9.597   8.726   1.154  0.0000  0.0000  0.0000
  869OM     OM1  869   0.177   8.554   1.172  0.0000  0.0000  0.0000
  870OM     OM1  870   0.103   8.630   0.931  0.0000  0.0000  0.0000
  871OM     OM1  871   7.273   9.247   0.772  0.0000  0.0000  0.0000
  872OM     OM1  872   7.182   9.505   0.785  0.0000  0.0000  0.0000
  873OM     OM1  873   7.436   9.445   0.743  0.0000  0.0000  0.0000
  874OM     OM1  874   7.243   9.397   0.569  0.0000  0.0000  0.0000
  875OM     OM1  875   4.853   8.540   0.236  0.0000  0.0000  0.0000
  876OM     OM1  876   4.655   8.687   0.146  0.0000  0.0000  0.0000
  877OM     OM1  877   4.602   8.461   0.257  0.0000  0.0000  0.0000
  878OM     OM1  878   4.705   8.644   0.410  0.0000  0.0000  0.0000
  879OM     OM1  879   2.378   0.905   0.140  0.0000  0.0000  0.0000
  880OM     OM1  880   2.184   0.891   0.323  0.0000  0.0000  0.0000
  881OM     OM1  881   2.415   0.794   0.379  0.0000  0.0000  0.0000
  882OM     OM1  882   2.264   0.681   0.190  0.0000  0.0000  0.0000
  883OM     OM1  883   2.137   8.702   8.837  0.0000  0.0000  0.0000
  884OM     OM1  884   2.024   8.929   8.914  0.0000  0.0000  0.0000
  885OM     OM1  885   2.165   8.896   8.688  0.0000  0.0000  0.0000
  886OM     OM1  886   2.277   8.908   8.937  0.0000  0.0000  0.0000
  887OM     OM1  887   7.054   8.030   1.211  0.0000  0.0000  0.0000
  888OM     OM1  888   6.938   7.840   1.075  0.0000  0.0000  0.0000
  889OM     OM1  889   6.812   8.004   1.261  0.0000  0.0000  0.0000
  890OM     OM1  890   5.991   2.802   0.154  0.0000  0.0000  0.0000
  891OM     OM1  891   6.039   2.689   9.529  0.0000  0.0000  0.0000
  892OM     OM1  892   6.205   2.646   0.111  0.0000  0.0000  0.0000
  893OM     OM1  893   5.975   2.540   0.137  0.0000  0.0000  0.0000
  894OM     OM1  894   5.466   5.718   8.663  0.0000  0.0000  0.0000
  895OM     OM1  895   5.308   5.503   8.400  0.0000  0.0000  0.0000
  896OM     OM1  896   5.597   5.926   8.588  0.0000  0.0000  0.0000
  897OM     OM1  897   5.508   5.354   8.498  0.0000  0.0000  0.0000
  898OM     OM1  898   2.601   8.231   9.201  0.0000  0.0000  0.0000
  899OM     OM1  899   2.427   8.179   8.996  0.0000  0.0000  0.0000
  900OM     OM1  900   2.592   8.000   9.073  0.0000  0.0000  0.0000
  901OM     OM1  901   2.394   8.080   9.226  0.0000  0.0000  0.0000
  902OM     OM1  902   0.068   8.769   8.836  0.0000  0.0000  0.0000
  903OM     OM1  903   0.175   8.739   8.611  0.0000  0.0000  0.0000
  904OM     OM1  904   0.325   8.813   8.811  0.0000  0.0000  0.0000
  905OM     OM1  905   0.238   8.572   8.823  0.0000  0.0000  0.0000
  906OM     OM1  906   0.373   7.606   8.636  0.0000  0.0000  0.0000
  907OM     OM1  907   0.661   7.906   8.909  0.0000  0.0000  0.0000
  908OM     OM1  908   0.773   7.839   8.689  0.0000  0.0000  0.0000
  909OM     OM1  909   0.519   7.804   8.690  0.0000  0.0000  0.0000
  910OM     OM1  910   6.602   6.587   0.553  0.0000  0.0000  0.0000
  911OM     OM1  911   6.728   6.801   0.608  0.0000  0.0000  0.0000
  912OM     OM1  912   6.663   6.762   0.368  0.0000  0.0000  0.0000
  913OM     OM1  913   6.470   6.808   0.562  0.0000  0.0000  0.0000
  914OM     OM1  914   7.436   3.376   8.632  0.0000  0.0000  0.0000
  915OM     OM1  915   7.491   3.471   8.871  0.0000  0.0000  0.0000
  916OM     OM1  916   7.554   3.595   8.665  0.0000  0.0000  0.0000
  917OM     OM1  917   7.284   3.560   8.718  0.0000  0.0000  0.0000
  918OM     OM1  918   4.804   7.775   9.095  0.0000  0.0000  0.0000
  919OM     OM1  919   4.910   7.965   9.229  0.0000  0.0000  0.0000
  920OM     OM1  920   4.827   7.762   9.365  0.0000  0.0000  0.0000
  921OM     OM1  921   2.696   0.114   9.374  0.0000  0.0000  0.0000
  922OM     OM1  922   2.778   0.254   9.185  0.0000  0.0000  0.0000
  923OM     OM1  923   2.848   9.595   9.193  0.0000  0.0000  0.0000
  924OM     OM1  924   2.612   0.065   9.130  0.0000  0.0000  0.0000
  925OM     OM1  925   2.342   5.785   0.497  0.0000  0.0000  0.0000
  926OM     OM1  926   2.391   5.878   0.743  0.0000  0.0000  0.0000
  927OM     OM1  927   2.553   5.941   0.545  0.0000  0.0000  0.0000
  928OM     OM1  928   2.302   6.031   0.559  0.0000  0.0000  0.0000
  929OM     OM1  929   6.182   1.761   0.136  0.0000  0.0000  0.0000
  930OM     OM1  930   6.313   1.563   0.021  0.0000  0.0000  0.0000
  931OM     OM1  931   6.255   1.540   0.263  0.0000  0.0000  0.0000
  932OM     OM1  932   6.054   1.536   0.091  0.0000  0.0000  0.0000
  933OM     OM1  933   2.263   7.977   8.982  0.0000  0.0000  0.0000
  934OM     OM1  934   2.018   7.925   9.034  0.0000  0.0000  0.0000
  935OM     OM1  935   2.136   7.822   8.815  0.0000  0.0000  0.0000
  936OM     OM1  936   2.192   7.731   9.055  0.0000  0.0000  0.0000
  937OM     OM1  937   3.218   1.159   1.158  0.0000  0.0000  0.0000
  938OM     OM1  938   3.252   1.419   1.191  0.0000  0.0000  0.0000
  939OM     OM1  939   3.421   1.294   1.041  0.0000  0.0000  0.0000
  940OM     OM1  940   3.409   1.256   1.302  0.0000  0.0000  0.0000
  941OM     OM1  941   6.171   6.344   8.664  0.0000  0.0000  0.0000
  942OM     OM1  942   6.183   6.103   8.723  0.0000  0.0000  0.0000
  943OM     OM1  943   6.187   6.178   8.462  0.0000  0.0000  0.0000
  944OM     OM1  944   6.398   6.193   8.618  0.0000  0.0000  0.0000
  945OM     OM1  945   0.264   6.276   0.654  0.0000  0.0000  0.0000
  946OM     OM1  946   0.153   6.253   0.408  0.0000  0.0000  0.0000
  947OM     OM1  947   0.087   6.441   0.578  0.0000  0.0000  0.0000
  948OM     OM1  948   0.020   6.201   0.634  0.0000  0.0000  0.0000
  949OM     OM1  949   4.779   6.897   8.563  0.0000  0.0000  0.0000
  950OM     OM1  950   4.973   6.664   8.895  0.0000  0.0000  0.0000
  951OM     OM1  951   4.953   6.899   8.763  0.0000  0.0000  0.0000
  952OM     OM1  952   5.032   6.693   8.642  0.0000  0.0000  0.0000
  953OM     OM1  953   8.020   3.565   8.523  0.0000  0.0000  0.0000
  954OM     OM1  954   8.073   3.687   8.753  0.0000  0.0000  0.0000
  955OM     OM1  955   7.943   3.458   8.740  0.0000  0.0000  0.0000
  956OM     OM1  956   7.819   3.666   8.667  0.0000  0.0000  0.0000
  957OM     OM1  957   7.507   5.876   9.027  0.0000  0.0000  0.0000
  958OM     OM1  958   7.473   5.886   9.281  0.0000  0.0000  0.0000
  959OM     OM1  959   7.705   5.769   8.897  0.0000  0.0000  0.0000
  960OM     OM1  960   7.727   5.922   9.230  0.0000  0.0000  0.0000
  961OM     OM1  961   2.332   5.654   0.263  0.0000  0.0000  0.0000
  962OM     OM1  962   2.110   5.728   0.382  0.0000  0.0000  0.0000
  963OM     OM1  963   2.268   5.539   0.483  0.0000  0.0000  0.0000
  964OM     OM1  964   6.584   5.445   1.290  0.0000  0.0000  0.0000
  965OM     OM1  965   6.402   5.619   1.268  0.0000  0.0000  0.0000
  966OM     OM1  966   7.360   9.000   0.725  0.0000  0.0000  0.0000
  967OM     OM1  967   7.567   8.845   0.752  0.0000  0.0000  0.0000
  968OM     OM1  968   7.497   8.934   0.521  0.0000  0.0000  0.0000
  969OM     OM1  969   7.360   8.744   0.644  0.0000  0.0000  0.0000
  970OM     OM1  970   9.140   7.089   9.164  0.0000  0.0000  0.0000
  971OM     OM1  971   9.115   7.187   9.394  0.0000  0.0000  0.0000
  972OM     OM1  972   8.950   7.260   9.208  0.0000  0.0000  0.0000
  973OM     OM1  973   8.931   7.017   9.296  0.0000  0.0000  0.0000
  974OM     OM1  974   1.669   2.761   0.808  0.0000  0.0000  0.0000
  975OM     OM1  975   1.844   2.703   1.018  0.0000  0.0000  0.0000
  976OM     OM1  976   1.584   2.684   1.041  0.0000  0.0000  0.0000
  977OM     OM1  977   1.704   2.917   1.013  0.0000  0.0000  0.0000
  978OM     OM1  978   0.131   5.388   1.236  0.0000  0.0000  0.0000
  979OM     OM1  979   0.040   5.562   1.072  0.0000  0.0000  0.0000
  980OM     OM1  980   0.122   5.652   1.298  0.0000  0.0000  0.0000
  981OM     OM1  981   2.359   7.720   0.270  0.0000  0.0000  0.0000
  982OM     OM1  982   2.527   7.752   0.464  0.0000  0.0000  0.0000
  983OM     OM1  983   2.407   7.490   0.148  0.0000  0.0000  0.0000
  984OM     OM1  984   2.415   7.707   0.016  0.0000  0.0000  0.0000
  985OM     OM1  985   1.876   2.187   8.383  0.0000  0.0000  0.0000
  986OM     OM1  986   1.032   3.065   1.262  0.0000  0.0000  0.0000
  987OM     OM1  987   1.099   2.967   0.785  0.0000  0.0000  0.0000
  988OM     OM1  988   1.227   2.854   0.972  0.0000  0.0000  0.0000
  989OM     OM1  989   8.631   5.360   8.739  0.0000  0.0000  0.0000
  990OM     OM1  990   8.577   5.183   8.560  0.0000  0.0000  0.0000
  991OM     OM1  991   8.794   5.331   8.530  0.0000  0.0000  0.0000
  992OM     OM1  992   8.789   5.148   8.703  0.0000  0.0000  0.0000
  993OM     OM1  993   4.156   6.959   8.724  0.0000  0.0000  0.0000
  994OM     OM1  994   3.973   7.153   8.672  0.0000  0.0000  0.0000
  995OM     OM1  995   4.223   7.204   8.663  0.0000  0.0000  0.0000
  996OM     OM1  996   3.851   7.593   8.920  0.0000  0.0000  0.0000
  997OM     OM1  997   3.696   7.697   9.108  0.0000  0.0000  0.0000
  998OM     OM1  998   3.923   7.583   9.158  0.0000  0.0000  0.0000
  999OM     OM1  999   3.718   7.434   9.095  0.0000  0.0000  0.0000
 1000OM     OM1 1000   7.167   6.323   9.350  0.0000  0.0000  0.0000
 1001OM     OM1 1001   7.413   6.229   9.353  0.0000  0.0000  0.0000
 1002OM     OM1 1002   7.291   6.236   9.578  0.0000  0.0000  0.0000
 1003OM     OM1 1003   7.364   6.457   9.449  0.0000  0.0000  0.0000
 1004OM     OM1 1004   5.359   8.414   0.203  0.0000  0.0000  0.0000
 1005OM     OM1 1005   5.125   8.513   0.276  0.0000  0.0000  0.0000
 1006OM     OM1 1006   5.348   8.508   0.433  0.0000  0.0000  0.0000
 1007OM     OM1 1007   5.327   8.670   0.224  0.0000  0.0000  0.0000
 1008OM     OM1 1008   3.501   1.900   0.391  0.0000  0.0000  0.0000
 1009OM     OM1 1009   3.248   1.873   0.500  0.0000  0.0000  0.0000
 1010OM     OM1 1010   3.447   2.259   0.398  0.0000  0.0000  0.0000
 1011OM     OM1 1011   3.303   2.051   0.325  0.0000  0.0000  0.0000
 1012OM     OM1 1012   1.883   5.821   0.485  0.0000  0.0000  0.0000
 1013OM     OM1 1013   1.803   6.076   0.444  0.0000  0.0000  0.0000
 1014OM     OM1 1014   2.043   6.015   0.513  0.0000  0.0000  0.0000
 1015OM     OM1 1015   1.847   5.990   0.686  0.0000  0.0000  0.0000
 1016OM     OM1 1016   1.073   4.305   0.856  0.0000  0.0000  0.0000
 1017OM     OM1 1017   1.044   4.382   1.105  0.0000  0.0000  0.0000
 1018OM     OM1 1018   1.284   4.380   1.005  0.0000  0.0000  0.0000
 1019OM     OM1 1019   1.097   4.550   0.916  0.0000  0.0000  0.0000
 1020OM     OM1 1020   7.901   3.579   8.301  0.0000  0.0000  0.0000
 1021OM     OM1 1021   8.008   3.345   8.364  0.0000  0.0000  0.0000
 1022OM     OM1 1022   8.165   3.531   8.302  0.0000  0.0000  0.0000
 1023OM     OM1 1023   5.942   8.854   0.091  0.0000  0.0000  0.0000
 1024OM     OM1 1024   6.153   8.829   0.256  0.0000  0.0000  0.0000
 1025OM     OM1 1025   5.905   8.781   0.343  0.0000  0.0000  0.0000
 1026OM     OM1 1026   5.987   9.016   0.287  0.0000  0.0000  0.0000
 1027OM     OM1 1027   6.550   6.540   1.227  0.0000  0.0000  0.0000
 1028OM     OM1 1028   6.674   6.743   1.102  0.0000  0.0000  0.0000
 1029OM     OM1 1029   6.411   6.682   1.072  0.0000  0.0000  0.0000
 1030OM     OM1 1030   0.574   8.858   8.890  0.0000  0.0000  0.0000
 1031OM     OM1 1031   0.782   8.802   9.035  0.0000  0.0000  0.0000
 1032OM     OM1 1032   0.768   8.697   8.795  0.0000  0.0000  0.0000
 1033OM     OM1 1033   0.807   8.947   8.816  0.0000  0.0000  0.0000
 1034OM     OM1 1034   0.228   4.592   1.379  0.0000  0.0000  0.0000
 1035OM     OM1 1035   0.413   4.737   1.270  0.0000  0.0000  0.0000
 1036OM     OM1 1036   4.548   6.405   1.195  0.0000  0.0000  0.0000
 1037OM     OM1 1037   4.799   6.404   1.141  0.0000  0.0000  0.0000
 1038OM     OM1 1038   4.687   6.636   1.150  0.0000  0.0000  0.0000
 1039OM     OM1 1039   4.637   6.467   0.955  0.0000  0.0000  0.0000
 1040OM     OM1 1040   0.355   8.724   1.260  0.0000  0.0000  0.0000
 1041OM     OM1 1041   0.416   8.562   1.075  0.0000  0.0000  0.0000
 1042OM     OM1 1042   0.394   8.478   1.321  0.0000  0.0000  0.0000
 1043OM     OM1 1043   0.615   8.351   1.281  0.0000  0.0000  0.0000
 1044OM     OM1 1044   0.618   8.599   1.379  0.0000  0.0000  0.0000
 1045OM     OM1 1045   3.328   4.235   9.367  0.0000  0.0000  0.0000
 1046OM     OM1 1046   3.281   4.013   9.520  0.0000  0.0000  0.0000
 1047OM     OM1 1047   3.320   4.000   9.259  0.0000  0.0000  0.0000
 1048OM     OM1 1048   3.512   4.054   9.426  0.0000  0.0000  0.0000
 1049OM     OM1 1049   4.235   8.970   9.249  0.0000  0.0000  0.0000
 1050OM     OM1 1050   4.128   9.103   9.450  0.0000  0.0000  0.0000
 1051OM     OM1 1051   4.138   9.195   9.199  0.0000  0.0000  0.0000
 1052OM     OM1 1052   0.689   6.868   9.394  0.0000  0.0000  0.0000
 1053OM     OM1 1053   0.487   6.973   9.277  0.0000  0.0000  0.0000
 1054OM     OM1 1054   0.455   6.817   9.492  0.0000  0.0000  0.0000
 1055OM     OM1 1055   0.513   6.708   9.267  0.0000  0.0000  0.0000
 1056OM     OM1 1056   6.764   2.044   0.779  0.0000  0.0000  0.0000
 1057OM     OM1 1057   6.827   1.837   0.630  0.0000  0.0000  0.0000
 1058OM     OM1 1058   6.832   2.086   0.538  0.0000  0.0000  0.0000
 1059OM     OM1 1059   7.013   2.009   0.713  0.0000  0.0000  0.0000
 1060OM     OM1 1060   6.832   8.690   0.746  0.0000  0.0000  0.0000
 1061OM     OM1 1061   6.999   8.791   0.580  0.0000  0.0000  0.0000
 1062OM     OM1 1062   6.946   8.471   0.686  0.0000  0.0000  0.0000
 1063OM     OM1 1063   5.000   7.523   8.928  0.0000  0.0000  0.0000
 1064OM     OM1 1064   5.002   7.752   8.822  0.0000  0.0000  0.0000
 1065OM     OM1 1065   5.205   7.585   8.773  0.0000  0.0000  0.0000
 1066OM     OM1 1066   9.129   6.738   0.702  0.0000  0.0000  0.0000
 1067OM     OM1 1067   9.218   6.530   0.789  0.0000  0.0000  0.0000
 1068OM     OM1 1068   8.963   6.587   0.850  0.0000  0.0000  0.0000
 1069OM     OM1 1069   9.152   6.714   0.967  0.0000  0.0000  0.0000
 1070OM     OM1 1070   9.044   7.664   0.593  0.0000  0.0000  0.0000
 1071OM     OM1 1071   8.907   7.862   0.472  0.0000  0.0000  0.0000
 1072OM     OM1 1072   8.935   7.848   0.731  0.0000  0.0000  0.0000
 1073OM     OM1 1073   4.521   6.145   1.140  0.0000  0.0000  0.0000
 1074OM     OM1 1074   4.369   6.033   0.947  0.0000  0.0000  0.0000
 1075OM     OM1 1075   4.322   5.993   1.193  0.0000  0.0000  0.0000
 1076OM     OM1 1076   4.527   5.881   1.082  0.0000  0.0000  0.0000
 1077OM     OM1 1077   5.615   7.386   1.033  0.0000  0.0000  0.0000
 1078OM     OM1 1078   5.618   7.511   0.803  0.0000  0.0000  0.0000
 1079OM     OM1 1079   5.387   7.459   0.923  0.0000  0.0000  0.0000
 1080OM     OM1 1080   5.536   7.278   0.807  0.0000  0.0000  0.0000
 1081OM     OM1 1081   1.802   6.949   8.581  0.0000  0.0000  0.0000
 1082OM     OM1 1082   1.840   7.205   8.564  0.0000  0.0000  0.0000
 1083OM     OM1 1083   2.020   7.058   8.462  0.0000  0.0000  0.0000
 1084OM     OM1 1084   1.991   7.058   8.718  0.0000  0.0000  0.0000
 1085OM     OM1 1085   0.943   7.304   8.975  0.0000  0.0000  0.0000
 1086OM     OM1 1086   1.007   7.089   9.116  0.0000  0.0000  0.0000
 1087OM     OM1 1087   0.764   7.197   9.123  0.0000  0.0000  0.0000
 1088OM     OM1 1088   0.963   7.308   9.245  0.0000  0.0000  0.0000
 1089OM     OM1 1089   0.763   5.111   9.494  0.0000  0.0000  0.0000
 1090OM     OM1 1090   0.808   5.092   0.140  0.0000  0.0000  0.0000
 1091OM     OM1 1091   1.022   5.123   9.593  0.0000  0.0000  0.0000
 1092OM     OM1 1092   0.873   5.317   0.024  0.0000  0.0000  0.0000
 1093OM     OM1 1093   8.102   9.451   9.274  0.0000  0.0000  0.0000
 1094OM     OM1 1094   8.095   0.090   9.371  0.0000  0.0000  0.0000
 1095OM     OM1 1095   8.303   0.015   9.251  0.0000  0.0000  0.0000
 1096OM     OM1 1096   8.460   0.512   8.928  0.0000  0.0000  0.0000
 1097OM     OM1 1097   8.319   0.313   8.838  0.0000  0.0000  0.0000
 1098OM     OM1 1098   8.480   0.278   9.044  0.0000  0.0000  0.0000
 1099OM     OM1 1099   8.255   0.413   9.063  0.0000  0.0000  0.0000
 1100OM     OM1 1100   3.381   8.537   9.344  0.0000  0.0000  0.0000
 1101OM     OM1 1101   3.583   8.650   9.464  0.0000  0.0000  0.0000
 1102OM     OM1 1102   3.390   8.518   9.597  0.0000  0.0000  0.0000
 1103OM     OM1 1103   3.563   8.386   9.447  0.0000  0.0000  0.0000
 1104OM     OM1 1104   0.748   3.336   0.373  0.0000  0.0000  0.0000
 1105OM     OM1 1105   0.799   3.158   0.179  0.0000  0.0000  0.0000
 1106OM     OM1 1106   0.786   3.085   0.428  0.0000  0.0000  0.0000
 1107OM     OM1 1107   4.600   7.692   8.940  0.0000  0.0000  0.0000
 1108OM     OM1 1108   4.667   7.945   8.936  0.0000  0.0000  0.0000
 1109OM     OM1 1109   4.569   7.846   9.148  0.0000  0.0000  0.0000
 1110OM     OM1 1110   5.637   3.567   8.190  0.0000  0.0000  0.0000
 1111OM     OM1 1111   5.441   3.501   8.343  0.0000  0.0000  0.0000
 1112OM     OM1 1112   5.490   3.761   8.288  0.0000  0.0000  0.0000
 1113OM     OM1 1113   8.892   0.032   0.661  0.0000  0.0000  0.0000
 1114OM     OM1 1114   8.998   0.224   0.799  0.0000  0.0000  0.0000
 1115OM     OM1 1115   8.940   0.013   0.411  0.0000  0.0000  0.0000
 1116OM     OM1 1116   8.690   0.038   0.489  0.0000  0.0000  0.0000
 1117OM     OM1 1117   0.215   1.053   1.063  0.0000  0.0000  0.0000
 1118OM     OM1 1118   0.339   1.148   1.268  0.0000  0.0000  0.0000
 1119OM     OM1 1119   0.350   0.889   1.233  0.0000  0.0000  0.0000
 1120OM     OM1 1120   0.121   0.987   1.290  0.0000  0.0000  0.0000
 1121OM     OM1 1121   8.419   0.100   8.557  0.0000  0.0000  0.0000
 1122OM     OM1 1122   8.452   0.360   8.509  0.0000  0.0000  0.0000
 1123OM     OM1 1123   8.598   0.165   8.392  0.0000  0.0000  0.0000
 1124OM     OM1 1124   8.629   0.228   8.650  0.0000  0.0000  0.0000
 1125OM     OM1 1125   3.736   2.039   0.362  0.0000  0.0000  0.0000
 1126OM     OM1 1126   3.707   1.819   0.244  0.0000  0.0000  0.0000
 1127OM     OM1 1127   3.726   1.821   0.503  0.0000  0.0000  0.0000
 1128OM     OM1 1128   8.930   4.967   8.839  0.0000  0.0000  0.0000
 1129OM     OM1 1129   9.041   5.116   8.658  0.0000  0.0000  0.0000
 1130OM     OM1 1130   4.734   6.568   9.557  0.0000  0.0000  0.0000
 1131OM     OM1 1131   4.891   6.222   9.390  0.0000  0.0000  0.0000
 1132OM     OM1 1132   4.730   6.354   0.100  0.0000  0.0000  0.0000
 1133OM     OM1 1133   3.080   3.395   9.529  0.0000  0.0000  0.0000
 1134OM     OM1 1134   2.845   3.507   9.580  0.0000  0.0000  0.0000
 1135OM     OM1 1135   2.855   3.276   9.463  0.0000  0.0000  0.0000
 1136OM     OM1 1136   2.930   3.493   9.337  0.0000  0.0000  0.0000
 1137OM     OM1 1137   3.480   7.576   8.424  0.0000  0.0000  0.0000
 1138OM     OM1 1138   7.526   0.515   9.536  0.0000  0.0000  0.0000
 1139OM     OM1 1139   7.286   0.507   9.599  0.0000  0.0000  0.0000
 1140OM     OM1 1140   7.357   0.648   9.386  0.0000  0.0000  0.0000
 1141OM     OM1 1141   7.393   0.743   0.011  0.0000  0.0000  0.0000
 1142OM     OM1 1142   7.546   4.713   0.247  0.0000  0.0000  0.0000
 1143OM     OM1 1143   7.681   4.863   0.062  0.0000  0.0000  0.0000
 1144OM     OM1 1144   7.517   4.678   9.600  0.0000  0.0000  0.0000
 1145OM     OM1 1145   7.751   4.620   0.119  0.0000  0.0000  0.0000
 1146OM     OM1 1146   3.890   5.556   8.575  0.0000  0.0000  0.0000
 1147OM     OM1 1147   4.089   5.663   8.698  0.0000  0.0000  0.0000
 1148OM     OM1 1148   4.117   5.642   8.446  0.0000  0.0000  0.0000
 1149OM     OM1 1149   3.932   5.809   8.532  0.0000  0.0000  0.0000
 1150OM     OM1 1150   2.493   3.228   0.068  0.0000  0.0000  0.0000
 1151OM     OM1 1151   2.653   3.066   0.199  0.0000  0.0000  0.0000
 1152OM     OM1 1152   2.594   3.454   0.004  0.0000  0.0000  0.0000
 1153OM     OM1 1153   5.228   4.923   0.922  0.0000  0.0000  0.0000
 1154OM     OM1 1154   5.030   5.077   1.003  0.0000  0.0000  0.0000
 1155OM     OM1 1155   5.273   5.171   1.018  0.0000  0.0000  0.0000
 1156OM     OM1 1156   5.172   5.131   0.782  0.0000  0.0000  0.0000
 1157OM     OM1 1157   5.956   6.497   8.640  0.0000  0.0000  0.0000
 1158OM     OM1 1158   5.985   6.380   8.866  0.0000  0.0000  0.0000
 1159OM     OM1 1159   6.149   6.563   8.802  0.0000  0.0000  0.0000
 1160OM     OM1 1160   6.655   8.868   9.287  0.0000  0.0000  0.0000
 1161OM     OM1 1161   6.997   8.526   9.240  0.0000  0.0000  0.0000
 1162OM     OM1 1162   6.887   8.771   9.253  0.0000  0.0000  0.0000
 1163OM     OM1 1163   6.847   8.913   9.463  0.0000  0.0000  0.0000
 1164OM     OM1 1164   5.741   4.556   0.279  0.0000  0.0000  0.0000
 1165OM     OM1 1165   5.949   4.625   0.126  0.0000  0.0000  0.0000
 1166OM     OM1 1166   5.716   4.750   0.111  0.0000  0.0000  0.0000
 1167OM     OM1 1167   5.735   4.496   0.036  0.0000  0.0000  0.0000
 1168OM     OM1 1168   0.701   0.290   1.125  0.0000  0.0000  0.0000
 1169OM     OM1 1169   0.858   0.426   0.958  0.0000  0.0000  0.0000
 1170OM     OM1 1170   0.746   0.542   1.162  0.0000  0.0000  0.0000
 1171OM     OM1 1171   0.947   0.351   1.185  0.0000  0.0000  0.0000
 1172OM     OM1 1172   0.630   4.952   9.008  0.0000  0.0000  0.0000
 1173OM     OM1 1173   0.824   5.112   9.065  0.0000  0.0000  0.0000
 1174OM     OM1 1174   0.587   5.202   9.068  0.0000  0.0000  0.0000
 1175OM     OM1 1175   0.655   5.038   9.263  0.0000  0.0000  0.0000
 1176OM     OM1 1176   0.709   4.161   9.425  0.0000  0.0000  0.0000
 1177OM     OM1 1177   0.795   3.917   9.446  0.0000  0.0000  0.0000
 1178OM     OM1 1178   0.859   4.098   0.026  0.0000  0.0000  0.0000
 1179OM     OM1 1179   7.237   1.138   8.372  0.0000  0.0000  0.0000
 1180OM     OM1 1180   7.282   1.226   8.128  0.0000  0.0000  0.0000
 1181OM     OM1 1181   1.927   7.135   0.190  0.0000  0.0000  0.0000
 1182OM     OM1 1182   2.098   7.119   0.394  0.0000  0.0000  0.0000
 1183OM     OM1 1183   1.893   6.946   0.366  0.0000  0.0000  0.0000
 1184OM     OM1 1184   2.097   6.931   0.222  0.0000  0.0000  0.0000
 1185OM     OM1 1185   8.815   8.394   0.735  0.0000  0.0000  0.0000
 1186OM     OM1 1186   8.974   8.600   0.734  0.0000  0.0000  0.0000
 1187OM     OM1 1187   8.958   8.444   0.527  0.0000  0.0000  0.0000
 1188OM     OM1 1188   9.073   8.361   0.745  0.0000  0.0000  0.0000
 1189OM     OM1 1189   8.367   6.965   9.374  0.0000  0.0000  0.0000
 1190OM     OM1 1190   8.325   6.802   9.585  0.0000  0.0000  0.0000
 1191OM     OM1 1191   8.483   6.743   9.380  0.0000  0.0000  0.0000
 1192OM     OM1 1192   8.241   7.030   9.165  0.0000  0.0000  0.0000
 1193OM     OM1 1193   2.675   0.305   8.959  0.0000  0.0000  0.0000
 1194OM     OM1 1194   2.475   0.311   8.806  0.0000  0.0000  0.0000
 1195OM     OM1 1195   2.643   0.104   8.794  0.0000  0.0000  0.0000
 1196OM     OM1 1196   2.712   0.331   8.699  0.0000  0.0000  0.0000
 1197OM     OM1 1197   7.556   5.059   9.559  0.0000  0.0000  0.0000
 1198OM     OM1 1198   7.796   5.106   0.047  0.0000  0.0000  0.0000
 1199OM     OM1 1199   0.653   9.540   0.533  0.0000  0.0000  0.0000
 1200OM     OM1 1200   0.724   9.078   0.631  0.0000  0.0000  0.0000
 1201OM     OM1 1201   0.807   9.334   0.556  0.0000  0.0000  0.0000
 1202OM     OM1 1202   0.600   9.299   0.685  0.0000  0.0000  0.0000
 1203OM     OM1 1203   7.274   5.950   9.107  0.0000  0.0000  0.0000
 1204OM     OM1 1204   7.557   5.961   8.777  0.0000  0.0000  0.0000
 1205OM     OM1 1205   7.454   5.737   8.820  0.0000  0.0000  0.0000
 1206OM     OM1 1206   1.848   4.144   1.236  0.0000  0.0000  0.0000
 1207OM     OM1 1207   2.027   4.301   1.349  0.0000  0.0000  0.0000
 1208OM     OM1 1208   1.352   1.058   0.816  0.0000  0.0000  0.0000
 1209OM     OM1 1209   1.372   1.236   1.011  0.0000  0.0000  0.0000
 1210OM     OM1 1210   1.224   1.016   1.032  0.0000  0.0000  0.0000
 1211OM     OM1 1211   8.902   7.902   9.089  0.0000  0.0000  0.0000
 1212OM     OM1 1212   8.881   7.715   9.275  0.0000  0.0000  0.0000
 1213OM     OM1 1213   8.759   7.939   9.304  0.0000  0.0000  0.0000
 1214OM     OM1 1214   9.018   7.930   9.329  0.0000  0.0000  0.0000
 1215OM     OM1 1215   7.752   2.058   0.984  0.0000  0.0000  0.0000
 1216OM     OM1 1216   7.999   2.103   1.073  0.0000  0.0000  0.0000
 1217OM     OM1 1217   7.959   2.037   0.825  0.0000  0.0000  0.0000
 1218OM     OM1 1218   7.867   2.270   0.900  0.0000  0.0000  0.0000
 1219OM     OM1 1219   5.446   5.934   8.796  0.0000  0.0000  0.0000
 1220OM     OM1 1220   5.281   5.566   8.757  0.0000  0.0000  0.0000
 1221OM     OM1 1221   5.339   5.924   8.556  0.0000  0.0000  0.0000
 1222OM     OM1 1222   3.043   5.763   8.264  0.0000  0.0000  0.0000
 1223OM     OM1 1223   3.169   5.989   8.280  0.0000  0.0000  0.0000
 1224OM     OM1 1224   3.287   5.768   8.176  0.0000  0.0000  0.0000
 1225OM     OM1 1225   4.531   6.466   0.498  0.0000  0.0000  0.0000
 1226OM     OM1 1226   4.546   6.452   0.248  0.0000  0.0000  0.0000
 1227OM     OM1 1227   4.441   6.675   0.368  0.0000  0.0000  0.0000
 1228OM     OM1 1228   4.692   6.627   0.355  0.0000  0.0000  0.0000
 1229OM     OM1 1229   0.428   1.586   8.649  0.0000  0.0000  0.0000
 1230OM     OM1 1230   0.622   1.644   8.495  0.0000  0.0000  0.0000
 1231OM     OM1 1231   0.381   1.688   8.409  0.0000  0.0000  0.0000
 1232OM     OM1 1232   0.478   1.837   8.596  0.0000  0.0000  0.0000
 1233OM     OM1 1233   4.964   2.686   0.194  0.0000  0.0000  0.0000
 1234OM     OM1 1234   4.719   2.698   0.270  0.0000  0.0000  0.0000
 1235OM     OM1 1235   4.790   2.773   0.018  0.0000  0.0000  0.0000
 1236OM     OM1 1236   4.758   2.530   0.081  0.0000  0.0000  0.0000
 1237OM     OM1 1237   9.228   4.008   8.463  0.0000  0.0000  0.0000
 1238OM     OM1 1238   9.479   3.948   8.406  0.0000  0.0000  0.0000
 1239OM     OM1 1239   9.299   3.766   8.451  0.0000  0.0000  0.0000
 1240OM     OM1 1240   7.178   1.916   8.421  0.0000  0.0000  0.0000
 1241OM     OM1 1241   7.089   2.015   8.642  0.0000  0.0000  0.0000
 1242OM     OM1 1242   7.231   1.798   8.653  0.0000  0.0000  0.0000
 1243OM     OM1 1243   8.053   7.867   9.211  0.0000  0.0000  0.0000
 1244OM     OM1 1244   8.201   7.663   9.283  0.0000  0.0000  0.0000
 1245OM     OM1 1245   8.282   7.918   9.323  0.0000  0.0000  0.0000
 1246OM     OM1 1246   2.091   4.511   9.022  0.0000  0.0000  0.0000
 1247OM     OM1 1247   2.105   4.374   9.237  0.0000  0.0000  0.0000
 1248OM     OM1 1248   2.186   4.257   9.026  0.0000  0.0000  0.0000
 1249OM     OM1 1249   2.320   4.465   9.140  0.0000  0.0000  0.0000
 1250OM     OM1 1250   3.495   0.377   9.261  0.0000  0.0000  0.0000
 1251OM     OM1 1251   3.564   0.548   9.452  0.0000  0.0000  0.0000
 1252OM     OM1 1252   3.311   0.516   9.391  0.0000  0.0000  0.0000
 1253OM     OM1 1253   3.479   0.632   9.230  0.0000  0.0000  0.0000
 1254OM     OM1 1254   8.368   9.195   0.247  0.0000  0.0000  0.0000
 1255OM     OM1 1255   8.396   9.158   0.508  0.0000  0.0000  0.0000
 1256OM     OM1 1256   8.163   9.219   0.436  0.0000  0.0000  0.0000
 1257OM     OM1 1257   8.329   9.402   0.406  0.0000  0.0000  0.0000
 1258OM     OM1 1258   1.798   1.990   1.108  0.0000  0.0000  0.0000
 1259OM     OM1 1259   1.415   6.837   1.284  0.0000  0.0000  0.0000
 1260OM     OM1 1260   1.177   6.801   1.262  0.0000  0.0000  0.0000
 1261OM     OM1 1261   1.324   6.587   1.192  0.0000  0.0000  0.0000
 1262OM     OM1 1262   1.335   6.801   1.045  0.0000  0.0000  0.0000
 1263OM     OM1 1263   4.904   3.105   8.609  0.0000  0.0000  0.0000
 1264OM     OM1 1264   4.811   3.138   8.846  0.0000  0.0000  0.0000
 1265OM     OM1 1265   4.765   2.916   8.716  0.0000  0.0000  0.0000
 1266OM     OM1 1266   6.718   4.652   0.910  0.0000  0.0000  0.0000
 1267OM     OM1 1267   6.503   4.510   0.963  0.0000  0.0000  0.0000
 1268OM     OM1 1268   6.498   4.742   0.827  0.0000  0.0000  0.0000
 1269OM     OM1 1269   6.548   4.732   1.089  0.0000  0.0000  0.0000
 1270OM     OM1 1270   5.441   0.217   0.499  0.0000  0.0000  0.0000
 1271OM     OM1 1271   5.571   0.054   0.653  0.0000  0.0000  0.0000
 1272OM     OM1 1272   5.369   0.170   0.752  0.0000  0.0000  0.0000
 1273OM     OM1 1273   5.330   9.599   0.560  0.0000  0.0000  0.0000
 1274OM     OM1 1274   6.050   7.124   9.552  0.0000  0.0000  0.0000
 1275OM     OM1 1275   6.247   7.293   9.548  0.0000  0.0000  0.0000
 1276OM     OM1 1276   6.231   7.076   9.377  0.0000  0.0000  0.0000
 1277OM     OM1 1277   6.078   7.272   9.342  0.0000  0.0000  0.0000
 1278OM     OM1 1278   3.122   0.597   9.560  0.0000  0.0000  0.0000
 1279OM     OM1 1279   2.948   0.654   0.138  0.0000  0.0000  0.0000
 1280OM     OM1 1280   2.914   0.448   0.013  0.0000  0.0000  0.0000
 1281OM     OM1 1281   3.130   0.455   0.172  0.0000  0.0000  0.0000
 1282OM     OM1 1282   1.120   7.387   0.085  0.0000  0.0000  0.0000
 1283OM     OM1 1283   1.064   7.645   0.042  0.0000  0.0000  0.0000
 1284OM     OM1 1284   1.172   7.510   0.426  0.0000  0.0000  0.0000
 1285OM     OM1 1285   1.261   7.580   0.185  0.0000  0.0000  0.0000
 1286OM     OM1 1286   8.251   8.538   8.492  0.0000  0.0000  0.0000
 1287OM     OM1 1287   8.187   8.355   8.659  0.0000  0.0000  0.0000
 1288OM     OM1 1288   8.468   8.527   8.327  0.0000  0.0000  0.0000
 1289OM     OM1 1289   4.618   6.975   8.742  0.0000  0.0000  0.0000
 1290OM     OM1 1290   4.591   6.734   8.643  0.0000  0.0000  0.0000
 1291OM     OM1 1291   4.521   6.951   8.504  0.0000  0.0000  0.0000
 1292OM     OM1 1292   4.629   4.097   8.806  0.0000  0.0000  0.0000
 1293OM     OM1 1293   4.726   4.326   8.743  0.0000  0.0000  0.0000
 1294OM     OM1 1294   4.488   4.269   8.659  0.0000  0.0000  0.0000
 1295OM     OM1 1295   4.688   4.142   8.554  0.0000  0.0000  0.0000
 1296OM     OM1 1296   0.404   1.413   0.095  0.0000  0.0000  0.0000
 1297OM     OM1 1297   0.455   1.223   0.270  0.0000  0.0000  0.0000
 1298OM     OM1 1298   0.303   1.177   0.069  0.0000  0.0000  0.0000
 1299OM     OM1 1299   1.669   2.992   8.900  0.0000  0.0000  0.0000
 1300OM     OM1 1300   1.479   3.089   8.738  0.0000  0.0000  0.0000
 1301OM     OM1 1301   1.508   3.163   8.986  0.0000  0.0000  0.0000
 1302OM     OM1 1302   1.421   2.925   8.933  0.0000  0.0000  0.0000
 1303OM     OM1 1303   0.614   8.607   0.508  0.0000  0.0000  0.0000
 1304OM     OM1 1304   0.535   8.971   0.781  0.0000  0.0000  0.0000
 1305OM     OM1 1305   0.701   8.814   0.663  0.0000  0.0000  0.0000
 1306OM     OM1 1306   0.864   8.675   0.514  0.0000  0.0000  0.0000
 1307OM     OM1 1307   3.524   4.042   9.102  0.0000  0.0000  0.0000
 1308OM     OM1 1308   3.357   3.841   9.054  0.0000  0.0000  0.0000
 1309OM     OM1 1309   3.292   4.094   9.017  0.0000  0.0000  0.0000
 1310OM     OM1 1310   4.503   6.205   0.555  0.0000  0.0000  0.0000
 1311OM     OM1 1311   4.401   6.391   0.706  0.0000  0.0000  0.0000
 1312OM     OM1 1312   4.653   6.373   0.705  0.0000  0.0000  0.0000
 1313OM     OM1 1313   9.336   9.467   0.756  0.0000  0.0000  0.0000
 1314OM     OM1 1314   9.152   0.038   0.695  0.0000  0.0000  0.0000
 1315OM     OM1 1315   9.229   9.463   0.522  0.0000  0.0000  0.0000
 1316OM     OM1 1316   9.387   0.063   0.589  0.0000  0.0000  0.0000
 1317OM     OM1 1317   4.148   6.796   0.731  0.0000  0.0000  0.0000
 1318OM     OM1 1318   4.360   6.917   0.787  0.0000  0.0000  0.0000
 1319OM     OM1 1319   4.321   6.828   0.541  0.0000  0.0000  0.0000
 1320OM     OM1 1320   4.357   6.649   0.728  0.0000  0.0000  0.0000
 1321OM     OM1 1321   5.639   0.203   0.324  0.0000  0.0000  0.0000
 1322OM     OM1 1322   5.884   0.258   0.387  0.0000  0.0000  0.0000
 1323OM     OM1 1323   5.842   0.144   0.162  0.0000  0.0000  0.0000
 1324OM     OM1 1324   5.757   0.393   0.196  0.0000  0.0000  0.0000
 1325OM     OM1 1325   9.456   2.113   8.496  0.0000  0.0000  0.0000
 1326OM     OM1 1326   9.299   1.923   8.567  0.0000  0.0000  0.0000
 1327OM     OM1 1327   9.425   1.912   8.338  0.0000  0.0000  0.0000
 1328OM     OM1 1328   9.565   1.878   8.545  0.0000  0.0000  0.0000
 1329OM     OM1 1329   8.225   4.025   8.306  0.0000  0.0000  0.0000
 1330OM     OM1 1330   8.280   4.280   8.270  0.0000  0.0000  0.0000
 1331OM     OM1 1331   8.021   3.883   8.377  0.0000  0.0000  0.0000
 1332OM     OM1 1332   6.108   4.822   0.552  0.0000  0.0000  0.0000
 1333OM     OM1 1333   6.194   4.671   0.751  0.0000  0.0000  0.0000
 1334OM     OM1 1334   6.226   4.601   0.497  0.0000  0.0000  0.0000
 1335OM     OM1 1335   6.366   4.790   0.604  0.0000  0.0000  0.0000
 1336OM     OM1 1336   3.666   3.067   8.555  0.0000  0.0000  0.0000
 1337OM     OM1 1337   3.926   2.993   8.508  0.0000  0.0000  0.0000
 1338OM     OM1 1338   3.724   2.823   8.527  0.0000  0.0000  0.0000
 1339OM     OM1 1339   3.819   2.937   8.733  0.0000  0.0000  0.0000
 1340OM     OM1 1340   5.636   9.383   9.481  0.0000  0.0000  0.0000
 1341OM     OM1 1341   5.840   9.490   9.365  0.0000  0.0000  0.0000
 1342OM     OM1 1342   5.804   9.540   0.008  0.0000  0.0000  0.0000
 1343OM     OM1 1343   7.920   7.319   8.275  0.0000  0.0000  0.0000
 1344OM     OM1 1344   7.675   7.240   8.215  0.0000  0.0000  0.0000
 1345OM     OM1 1345   8.124   8.679   0.367  0.0000  0.0000  0.0000
 1346OM     OM1 1346   7.934   8.581   0.526  0.0000  0.0000  0.0000
 1347OM     OM1 1347   7.873   8.701   0.305  0.0000  0.0000  0.0000
 1348OM     OM1 1348   7.974   8.847   0.496  0.0000  0.0000  0.0000
 1349OM     OM1 1349   0.213   4.437   0.709  0.0000  0.0000  0.0000
 1350OM     OM1 1350   0.225   4.449   0.437  0.0000  0.0000  0.0000
 1351OM     OM1 1351   0.425   4.368   0.592  0.0000  0.0000  0.0000
 1352OM     OM1 1352   0.299   4.305   0.240  0.0000  0.0000  0.0000
 1353OM     OM1 1353   7.137   2.811   0.302  0.0000  0.0000  0.0000
 1354OM     OM1 1354   6.690   2.623   0.317  0.0000  0.0000  0.0000
 1355OM     OM1 1355   6.904   2.919   0.338  0.0000  0.0000  0.0000
 1356OM     OM1 1356   6.916   2.695   0.216  0.0000  0.0000  0.0000
 1357OM     OM1 1357   2.160   5.169   8.886  0.0000  0.0000  0.0000
 1358OM     OM1 1358   1.837   4.840   8.727  0.0000  0.0000  0.0000
 1359OM     OM1 1359   1.967   5.169   9.062  0.0000  0.0000  0.0000
 1360OM     OM1 1360   2.000   4.960   8.906  0.0000  0.0000  0.0000
 1361OM     OM1 1361   1.851   7.737   9.033  0.0000  0.0000  0.0000
 1362OM     OM1 1362   1.894   7.480   9.100  0.0000  0.0000  0.0000
 1363OM     OM1 1363   1.711   7.553   8.925  0.0000  0.0000  0.0000
 1364OM     OM1 1364   1.683   7.601   9.181  0.0000  0.0000  0.0000
 1365OM     OM1 1365   5.581   2.426   0.475  0.0000  0.0000  0.0000
 1366OM     OM1 1366   5.766   2.478   0.651  0.0000  0.0000  0.0000
 1367OM     OM1 1367   5.498   2.437   0.710  0.0000  0.0000  0.0000
 1368OM     OM1 1368   5.575   2.654   0.597  0.0000  0.0000  0.0000
 1369OM     OM1 1369   4.427   3.631   8.390  0.0000  0.0000  0.0000
 1370OM     OM1 1370   4.373   3.883   8.417  0.0000  0.0000  0.0000
 1371OM     OM1 1371   4.563   3.765   8.569  0.0000  0.0000  0.0000
 1372OM     OM1 1372   4.594   3.822   8.314  0.0000  0.0000  0.0000
 1373OM     OM1 1373   3.928   3.210   0.702  0.0000  0.0000  0.0000
 1374OM     OM1 1374   4.152   3.176   0.575  0.0000  0.0000  0.0000
 1375OM     OM1 1375   3.952   3.307   0.460  0.0000  0.0000  0.0000
 1376OM     OM1 1376   6.185   8.840   9.386  0.0000  0.0000  0.0000
 1377OM     OM1 1377   6.415   8.758   9.286  0.0000  0.0000  0.0000
 1378OM     OM1 1378   6.310   8.976   9.199  0.0000  0.0000  0.0000
 1379OM     OM1 1379   6.408   8.957   9.445  0.0000  0.0000  0.0000
 1380OM     OM1 1380   4.006   8.720   8.327  0.0000  0.0000  0.0000
 1381OM     OM1 1381   4.159   8.934   8.321  0.0000  0.0000  0.0000
 1382OM     OM1 1382   4.252   8.720   8.231  0.0000  0.0000  0.0000
 1383OM     OM1 1383   1.616   2.023   8.722  0.0000  0.0000  0.0000
 1384OM     OM1 1384   1.749   2.010   8.949  0.0000  0.0000  0.0000
 1385OM     OM1 1385   1.872   1.978   8.727  0.0000  0.0000  0.0000
 1386OM     OM1 1386   1.705   1.794   8.824  0.0000  0.0000  0.0000
 1387OM     OM1 1387   2.600   0.734   1.082  0.0000  0.0000  0.0000
 1388OM     OM1 1388   2.754   0.945   1.088  0.0000  0.0000  0.0000
 1389OM     OM1 1389   2.846   0.718   0.986  0.0000  0.0000  0.0000
 1390OM     OM1 1390   2.688   6.721   0.896  0.0000  0.0000  0.0000
 1391OM     OM1 1391   2.618   6.703   0.632  0.0000  0.0000  0.0000
 1392OM     OM1 1392   2.814   6.851   0.716  0.0000  0.0000  0.0000
 1393OM     OM1 1393   2.823   6.582   0.721  0.0000  0.0000  0.0000
 1394OM     OM1 1394   4.585   6.338   8.879  0.0000  0.0000  0.0000
 1395OM     OM1 1395   4.576   6.494   9.088  0.0000  0.0000  0.0000
 1396OM     OM1 1396   4.745   6.537   8.898  0.0000  0.0000  0.0000
 1397OM     OM1 1397   4.497   6.589   8.850  0.0000  0.0000  0.0000
 1398OM     OM1 1398   3.851   3.289   8.931  0.0000  0.0000  0.0000
 1399OM     OM1 1399   3.737   3.522   8.998  0.0000  0.0000  0.0000
 1400OM     OM1 1400   3.709   3.309   9.145  0.0000  0.0000  0.0000
 1401OM     OM1 1401   3.587   3.327   8.916  0.0000  0.0000  0.0000
 1402OM     OM1 1402   2.781   8.578   8.996  0.0000  0.0000  0.0000
 1403OM     OM1 1403   2.475   8.403   9.347  0.0000  0.0000  0.0000
 1404OM     OM1 1404   2.555   8.538   8.872  0.0000  0.0000  0.0000
 1405OM     OM1 1405   2.588   8.469   9.125  0.0000  0.0000  0.0000
 1406OM     OM1 1406   2.376   4.564   8.399  0.0000  0.0000  0.0000
 1407OM     OM1 1407   2.562   4.407   8.281  0.0000  0.0000  0.0000
 1408OM     OM1 1408   2.622   4.636   8.403  0.0000  0.0000  0.0000
 1409OM     OM1 1409   3.274   6.161   9.131  0.0000  0.0000  0.0000
 1410OM     OM1 1410   3.196   6.362   9.268  0.0000  0.0000  0.0000
 1411OM     OM1 1411   3.117   6.269   9.494  0.0000  0.0000  0.0000
 1412OM     OM1 1412   3.000   6.186   9.277  0.0000  0.0000  0.0000
 1413OM     OM1 1413   8.914   2.136   8.359  0.0000  0.0000  0.0000
 1414OM     OM1 1414   8.726   2.040   8.204  0.0000  0.0000  0.0000
 1415OM     OM1 1415   7.863   2.464   0.711  0.0000  0.0000  0.0000
 1416OM     OM1 1416   7.732   2.491   0.943  0.0000  0.0000  0.0000
 1417OM     OM1 1417   7.648   2.329   0.758  0.0000  0.0000  0.0000
 1418OM     OM1 1418   7.398   2.836   9.099  0.0000  0.0000  0.0000
 1419OM     OM1 1419   7.316   2.617   9.232  0.0000  0.0000  0.0000
 1420OM     OM1 1420   7.423   2.609   8.998  0.0000  0.0000  0.0000
 1421OM     OM1 1421   7.180   2.729   9.034  0.0000  0.0000  0.0000
 1422OM     OM1 1422   5.646   8.221   8.836  0.0000  0.0000  0.0000
 1423OM     OM1 1423   5.770   8.426   8.753  0.0000  0.0000  0.0000
 1424OM     OM1 1424   5.908   8.255   8.901  0.0000  0.0000  0.0000
 1425OM     OM1 1425   5.733   8.402   9.012  0.0000  0.0000  0.0000
 1426OM     OM1 1426   3.895   0.466   9.239  0.0000  0.0000  0.0000
 1427OM     OM1 1427   4.152   0.476   9.249  0.0000  0.0000  0.0000
 1428OM     OM1 1428   4.041   0.270   9.359  0.0000  0.0000  0.0000
 1429OM     OM1 1429   4.012   0.497   9.473  0.0000  0.0000  0.0000
 1430OM     OM1 1430   2.507   7.812   9.404  0.0000  0.0000  0.0000
 1431OM     OM1 1431   2.385   7.961   9.576  0.0000  0.0000  0.0000
 1432OM     OM1 1432   2.615   7.882   0.037  0.0000  0.0000  0.0000
 1433OM     OM1 1433   0.066   5.138   9.153  0.0000  0.0000  0.0000
 1434OM     OM1 1434   0.064   5.194   9.413  0.0000  0.0000  0.0000
 1435OM     OM1 1435   9.464   5.098   9.294  0.0000  0.0000  0.0000
 1436OM     OM1 1436   0.042   8.943   0.178  0.0000  0.0000  0.0000
 1437OM     OM1 1437   9.476   9.131   0.255  0.0000  0.0000  0.0000
 1438OM     OM1 1438   9.403   8.947   0.086  0.0000  0.0000  0.0000
 1439OM     OM1 1439   9.429   8.892   0.339  0.0000  0.0000  0.0000
 1440OM     OM1 1440   3.120   3.432   0.178  0.0000  0.0000  0.0000
 1441OM     OM1 1441   3.294   3.358   0.358  0.0000  0.0000  0.0000
 1442OM     OM1 1442   3.180   3.591   0.371  0.0000  0.0000  0.0000
 1443OM     OM1 1443   4.427   4.282   8.405  0.0000  0.0000  0.0000
 1444OM     OM1 1444   4.279   4.386   8.229  0.0000  0.0000  0.0000
 1445OM     OM1 1445   3.496   2.522   9.183  0.0000  0.0000  0.0000
 1446OM     OM1 1446   3.355   2.636   9.359  0.0000  0.0000  0.0000
 1447OM     OM1 1447   3.497   2.421   9.418  0.0000  0.0000  0.0000
 1448OM     OM1 1448   3.630   2.639   9.378  0.0000  0.0000  0.0000
 1449OM     OM1 1449   7.065   7.865   8.350  0.0000  0.0000  0.0000
 1450OM     OM1 1450   7.166   7.653   8.247  0.0000  0.0000  0.0000
 1451OM     OM1 1451   5.260   4.762   9.165  0.0000  0.0000  0.0000
 1452OM     OM1 1452   5.136   4.874   8.956  0.0000  0.0000  0.0000
 1453OM     OM1 1453   5.121   4.988   9.187  0.0000  0.0000  0.0000
 1454OM     OM1 1454   4.220   2.626   8.410  0.0000  0.0000  0.0000
 1455OM     OM1 1455   3.997   2.713   8.299  0.0000  0.0000  0.0000
 1456OM     OM1 1456   4.147   2.877   8.438  0.0000  0.0000  0.0000
 1457OM     OM1 1457   7.926   9.187   0.368  0.0000  0.0000  0.0000
 1458OM     OM1 1458   7.979   9.370   0.552  0.0000  0.0000  0.0000
 1459OM     OM1 1459   7.992   9.101   0.597  0.0000  0.0000  0.0000
 1460OM     OM1 1460   8.465   2.378   0.643  0.0000  0.0000  0.0000
 1461OM     OM1 1461   8.277   2.676   0.901  0.0000  0.0000  0.0000
 1462OM     OM1 1462   8.501   2.627   0.778  0.0000  0.0000  0.0000
 1463OM     OM1 1463   8.225   2.615   0.382  0.0000  0.0000  0.0000
 1464OM     OM1 1464   6.504   9.582   9.369  0.0000  0.0000  0.0000
 1465OM     OM1 1465   6.530   9.575   0.022  0.0000  0.0000  0.0000
 1466OM     OM1 1466   6.288   0.031   9.517  0.0000  0.0000  0.0000
 1467OM     OM1 1467   6.494   0.191   9.517  0.0000  0.0000  0.0000
 1468OM     OM1 1468   5.969   6.704   8.491  0.0000  0.0000  0.0000
 1469OM     OM1 1469   5.949   7.062   8.504  0.0000  0.0000  0.0000
 1470OM     OM1 1470   6.086   6.884   8.325  0.0000  0.0000  0.0000
 1471OM     OM1 1471   5.909   7.058   8.253  0.0000  0.0000  0.0000
 1472OM     OM1 1472   9.242   8.984   0.504  0.0000  0.0000  0.0000
 1473OM     OM1 1473   9.195   9.213   0.597  0.0000  0.0000  0.0000
 1474OM     OM1 1474   9.017   9.015   0.644  0.0000  0.0000  0.0000
 1475OM     OM1 1475   9.237   9.018   0.762  0.0000  0.0000  0.0000
 1476OM     OM1 1476   2.043   6.976   1.445  0.0000  0.0000  0.0000
 1477OM     OM1 1477   1.847   7.021   1.283  0.0000  0.0000  0.0000
 1478OM     OM1 1478   7.726   3.000   0.989  0.0000  0.0000  0.0000
 1479OM     OM1 1479   7.515   3.096   0.886  0.0000  0.0000  0.0000
 1480OM     OM1 1480   7.727   3.254   0.935  0.0000  0.0000  0.0000
 1481OM     OM1 1481   7.581   3.172   1.134  0.0000  0.0000  0.0000
 1482OM     OM1 1482   4.254   6.625   9.459  0.0000  0.0000  0.0000
 1483OM     OM1 1483   4.502   6.698   9.506  0.0000  0.0000  0.0000
 1484OM     OM1 1484   4.283   6.773   0.057  0.0000  0.0000  0.0000
 1485OM     OM1 1485   4.317   6.869   9.423  0.0000  0.0000  0.0000
 1486OM     OM1 1486   2.543   3.877   0.560  0.0000  0.0000  0.0000
 1487OM     OM1 1487   2.753   3.753   0.638  0.0000  0.0000  0.0000
 1488OM     OM1 1488   2.717   3.795   0.373  0.0000  0.0000  0.0000
 1489OM     OM1 1489   2.578   3.619   0.509  0.0000  0.0000  0.0000
 1490OM     OM1 1490   5.367   8.077   0.604  0.0000  0.0000  0.0000
 1491OM     OM1 1491   5.319   8.178   0.832  0.0000  0.0000  0.0000
 1492OM     OM1 1492   5.153   8.222   0.632  0.0000  0.0000  0.0000
 1493OM     OM1 1493   5.390   8.339   0.630  0.0000  0.0000  0.0000
 1494OM     OM1 1494   5.749   1.953   8.633  0.0000  0.0000  0.0000
 1495OM     OM1 1495   5.811   1.823   8.413  0.0000  0.0000  0.0000
 1496OM     OM1 1496   5.571   1.908   8.437  0.0000  0.0000  0.0000
 1497OM     OM1 1497   5.642   1.724   8.603  0.0000  0.0000  0.0000
 1498OM     OM1 1498   8.587   3.490   0.381  0.0000  0.0000  0.0000
 1499OM     OM1 1499   8.241   3.453   0.104  0.0000  0.0000  0.0000
 1500OM     OM1 1500   8.406   3.328   0.258  0.0000  0.0000  0.0000
 1501OM     OM1 1501   8.605   3.434   0.131  0.0000  0.0000  0.0000
 1502OM     OM1 1502   6.939   8.146   0.599  0.0000  0.0000  0.0000
 1503OM     OM1 1503   7.128   8.280   0.705  0.0000  0.0000  0.0000
 1504OM     OM1 1504   7.188   8.031   0.614  0.0000  0.0000  0.0000
 1505OM     OM1 1505   7.130   8.228   0.453  0.0000  0.0000  0.0000
 1506OM     OM1 1506   5.011   7.213   0.495  0.0000  0.0000  0.0000
 1507OM     OM1 1507   5.084   7.219   0.734  0.0000  0.0000  0.0000
 1508OM     OM1 1508   5.026   7.452   0.618  0.0000  0.0000  0.0000
 1509OM     OM1 1509   5.243   7.319   0.555  0.0000  0.0000  0.0000
 1510OM     OM1 1510   0.110   0.931   0.848  0.0000  0.0000  0.0000
 1511OM     OM1 1511   0.082   0.907   0.600  0.0000  0.0000  0.0000
 1512OM     OM1 1512   0.330   0.875   0.746  0.0000  0.0000  0.0000
 1513OM     OM1 1513   0.151   0.698   0.730  0.0000  0.0000  0.0000
 1514OM     OM1 1514   4.471   8.250   0.872  0.0000  0.0000  0.0000
 1515OM     OM1 1515   4.410   8.415   0.666  0.0000  0.0000  0.0000
 1516OM     OM1 1516   4.449   8.159   0.637  0.0000  0.0000  0.0000
 1517OM     OM1 1517   4.237   8.267   0.771  0.0000  0.0000  0.0000
 1518OM     OM1 1518   7.214   5.279   0.778  0.0000  0.0000  0.0000
 1519OM     OM1 1519   7.002   5.280   0.631  0.0000  0.0000  0.0000
 1520OM     OM1 1520   6.995   5.202   0.878  0.0000  0.0000  0.0000
 1521OM     OM1 1521   7.114   5.050   0.690  0.0000  0.0000  0.0000
 1522OM     OM1 1522   2.967   3.899   8.997  0.0000  0.0000  0.0000
 1523OM     OM1 1523   2.895   3.954   9.249  0.0000  0.0000  0.0000
 1524OM     OM1 1524   2.975   3.711   9.187  0.0000  0.0000  0.0000
 1525OM     OM1 1525   2.750   3.800   9.102  0.0000  0.0000  0.0000
 1526OM     OM1 1526   8.857   6.298   1.239  0.0000  0.0000  0.0000
 1527OM     OM1 1527   8.832   6.423   1.002  0.0000  0.0000  0.0000
 1528OM     OM1 1528   8.825   6.165   1.017  0.0000  0.0000  0.0000
 1529OM     OM1 1529   9.055   6.295   1.066  0.0000  0.0000  0.0000
 1530OM     OM1 1530   7.450   1.725   9.021  0.0000  0.0000  0.0000
 1531OM     OM1 1531   7.332   1.522   9.118  0.0000  0.0000  0.0000
 1532OM     OM1 1532   7.493   1.487   8.906  0.0000  0.0000  0.0000
 1533OM     OM1 1533   7.594   1.548   9.131  0.0000  0.0000  0.0000
 1534OM     OM1 1534   0.147   8.475   9.048  0.0000  0.0000  0.0000
 1535OM     OM1 1535   0.083   8.224   9.084  0.0000  0.0000  0.0000
 1536OM     OM1 1536   0.015   8.359   8.870  0.0000  0.0000  0.0000
 1537OM     OM1 1537   9.501   8.408   9.107  0.0000  0.0000  0.0000
 1538OM     OM1 1538   3.397   3.617   9.183  0.0000  0.0000  0.0000
 1539OM     OM1 1539   3.532   3.675   8.965  0.0000  0.0000  0.0000
 1540OM     OM1 1540   3.276   3.603   8.960  0.0000  0.0000  0.0000
 1541OM     OM1 1541   2.088   4.172   8.426  0.0000  0.0000  0.0000
 1542OM     OM1 1542   1.836   4.109   8.409  0.0000  0.0000  0.0000
 1543OM     OM1 1543   4.019   5.256   9.321  0.0000  0.0000  0.0000
 1544OM     OM1 1544   4.182   5.374   9.494  0.0000  0.0000  0.0000
 1545OM     OM1 1545   4.064   5.510   9.299  0.0000  0.0000  0.0000
 1546OM     OM1 1546   4.256   5.338   9.251  0.0000  0.0000  0.0000
 1547OM     OM1 1547   2.217   0.421   0.168  0.0000  0.0000  0.0000
 1548OM     OM1 1548   2.462   0.332   0.187  0.0000  0.0000  0.0000
 1549OM     OM1 1549   2.283   0.193   0.301  0.0000  0.0000  0.0000
 1550OM     OM1 1550   2.282   0.192   0.048  0.0000  0.0000  0.0000
 1551OM     OM1 1551   4.814   2.324   9.429  0.0000  0.0000  0.0000
 1552OM     OM1 1552   4.676   2.112   9.414  0.0000  0.0000  0.0000
 1553OM     OM1 1553   4.807   2.141   0.030  0.0000  0.0000  0.0000
 1554OM     OM1 1554   4.629   2.314   9.597  0.0000  0.0000  0.0000
 1555OM     OM1 1555   0.560   0.303   0.390  0.0000  0.0000  0.0000
 1556OM     OM1 1556   0.795   0.341   0.304  0.0000  0.0000  0.0000
 1557OM     OM1 1557   0.772   0.236   0.538  0.0000  0.0000  0.0000
 1558OM     OM1 1558   0.695   0.091   0.340  0.0000  0.0000  0.0000
 1559OM     OM1 1559   8.120   4.296   9.491  0.0000  0.0000  0.0000
 1560OM     OM1 1560   8.013   4.075   9.533  0.0000  0.0000  0.0000
 1561OM     OM1 1561   8.056   4.221   0.135  0.0000  0.0000  0.0000
 1562OM     OM1 1562   8.263   4.120   0.019  0.0000  0.0000  0.0000
 1563OM     OM1 1563   7.815   7.892   1.100  0.0000  0.0000  0.0000
 1564OM     OM1 1564   7.816   7.991   0.849  0.0000  0.0000  0.0000
 1565OM     OM1 1565   8.034   7.915   0.959  0.0000  0.0000  0.0000
 1566OM     OM1 1566   7.915   8.127   1.058  0.0000  0.0000  0.0000
 1567OM     OM1 1567   5.343   2.073   9.064  0.0000  0.0000  0.0000
 1568OM     OM1 1568   5.599   2.222   8.767  0.0000  0.0000  0.0000
 1569OM     OM1 1569   5.365   2.219   8.850  0.0000  0.0000  0.0000
 1570OM     OM1 1570   5.422   2.330   9.073  0.0000  0.0000  0.0000
 1571OM     OM1 1571   4.969   1.275   0.629  0.0000  0.0000  0.0000
 1572OM     OM1 1572   4.970   1.507   0.726  0.0000  0.0000  0.0000
 1573OM     OM1 1573   5.091   1.458   0.489  0.0000  0.0000  0.0000
 1574OM     OM1 1574   5.201   1.379   0.705  0.0000  0.0000  0.0000
 1575OM     OM1 1575   8.554   0.070   0.704  0.0000  0.0000  0.0000
 1576OM     OM1 1576   8.407   0.149   0.904  0.0000  0.0000  0.0000
 1577OM     OM1 1577   8.420   0.024   0.493  0.0000  0.0000  0.0000
 1578OM     OM1 1578   8.554   0.253   0.521  0.0000  0.0000  0.0000
 1579OM     OM1 1579   6.556   5.446   0.562  0.0000  0.0000  0.0000
 1580OM     OM1 1580   6.307   5.486   0.625  0.0000  0.0000  0.0000
 1581OM     OM1 1581   6.506   5.564   0.793  0.0000  0.0000  0.0000
 1582OM     OM1 1582   6.456   5.685   0.572  0.0000  0.0000  0.0000
 1583OM     OM1 1583   2.825   2.592   1.076  0.0000  0.0000  0.0000
 1584OM     OM1 1584   2.718   2.665   0.846  0.0000  0.0000  0.0000
 1585OM     OM1 1585   2.731   2.843   1.032  0.0000  0.0000  0.0000
 1586OM     OM1 1586   0.907   7.007   9.333  0.0000  0.0000  0.0000
 1587OM     OM1 1587   0.866   6.940   9.575  0.0000  0.0000  0.0000
 1588OM     OM1 1588   0.979   6.713   9.603  0.0000  0.0000  0.0000
 1589OM     OM1 1589   5.320   5.888   0.593  0.0000  0.0000  0.0000
 1590OM     OM1 1590   5.194   6.049   0.416  0.0000  0.0000  0.0000
 1591OM     OM1 1591   5.118   5.800   0.456  0.0000  0.0000  0.0000
 1592OM     OM1 1592   5.082   5.994   0.633  0.0000  0.0000  0.0000
 1593OM     OM1 1593   6.318   5.918   8.833  0.0000  0.0000  0.0000
 1594OM     OM1 1594   6.465   5.713   8.883  0.0000  0.0000  0.0000
 1595OM     OM1 1595   6.332   5.719   8.653  0.0000  0.0000  0.0000
 1596OM     OM1 1596   6.284   3.449   0.369  0.0000  0.0000  0.0000
 1597OM     OM1 1597   6.037   3.410   0.298  0.0000  0.0000  0.0000
 1598OM     OM1 1598   6.209   3.200   0.379  0.0000  0.0000  0.0000
 1599OM     OM1 1599   0.146   6.098   0.201  0.0000  0.0000  0.0000
 1600OM     OM1 1600   0.113   6.349   0.160  0.0000  0.0000  0.0000
 1601OM     OM1 1601   0.352   6.269   0.243  0.0000  0.0000  0.0000
 1602OM     OM1 1602   0.087   0.348   9.013  0.0000  0.0000  0.0000
 1603OM     OM1 1603   0.168   0.254   9.233  0.0000  0.0000  0.0000
 1604OM     OM1 1604   9.571   0.441   9.222  0.0000  0.0000  0.0000
 1605OM     OM1 1605   2.596   6.586   9.605  0.0000  0.0000  0.0000
 1606OM     OM1 1606   2.409   6.725   9.508  0.0000  0.0000  0.0000
 1607OM     OM1 1607   2.642   6.821   9.480  0.0000  0.0000  0.0000
 1608OM     OM1 1608   2.555   6.811   0.120  0.0000  0.0000  0.0000
 1609OM     OM1 1609   8.945   0.392   8.916  0.0000  0.0000  0.0000
 1610OM     OM1 1610   8.720   0.534   8.946  0.0000  0.0000  0.0000
 1611OM     OM1 1611   8.959   0.642   8.996  0.0000  0.0000  0.0000
 1612OM     OM1 1612   9.012   0.146   8.975  0.0000  0.0000  0.0000
 1613OM     OM1 1613   9.180   8.519   0.434  0.0000  0.0000  0.0000
 1614OM     OM1 1614   8.992   8.427   0.268  0.0000  0.0000  0.0000
 1615OM     OM1 1615   8.978   8.666   0.386  0.0000  0.0000  0.0000
 1616OM     OM1 1616   0.038   6.795   8.891  0.0000  0.0000  0.0000
 1617OM     OM1 1617   9.586   6.961   8.692  0.0000  0.0000  0.0000
 1618OM     OM1 1618   0.226   6.908   8.761  0.0000  0.0000  0.0000
 1619OM     OM1 1619   8.698   1.687   9.572  0.0000  0.0000  0.0000
 1620OM     OM1 1620   8.758   1.716   0.216  0.0000  0.0000  0.0000
 1621OM     OM1 1621   8.956   1.546   0.215  0.0000  0.0000  0.0000
 1622OM     OM1 1622   8.981   1.797   0.119  0.0000  0.0000  0.0000
 1623OM     OM1 1623   3.725   5.436   1.226  0.0000  0.0000  0.0000
 1624OM     OM1 1624   3.625   5.444   0.978  0.0000  0.0000  0.0000
 1625OM     OM1 1625   3.632   5.229   1.119  0.0000  0.0000  0.0000
 1626OM     OM1 1626   4.662   5.473   9.365  0.0000  0.0000  0.0000
 1627OM     OM1 1627   4.686   5.585   9.139  0.0000  0.0000  0.0000
 1628OM     OM1 1628   4.503   5.400   9.165  0.0000  0.0000  0.0000
 1629OM     OM1 1629   4.760   5.337   9.172  0.0000  0.0000  0.0000
 1630OM     OM1 1630   1.456   1.970   0.234  0.0000  0.0000  0.0000
 1631OM     OM1 1631   1.515   1.882   0.461  0.0000  0.0000  0.0000
 1632OM     OM1 1632   1.347   2.076   0.456  0.0000  0.0000  0.0000
 1633OM     OM1 1633   1.497   1.635   0.420  0.0000  0.0000  0.0000
 1634OM     OM1 1634   2.817   3.244   1.292  0.0000  0.0000  0.0000
 1635OM     OM1 1635   2.929   3.037   1.190  0.0000  0.0000  0.0000
 1636OM     OM1 1636   2.682   3.074   1.137  0.0000  0.0000  0.0000
 1637OM     OM1 1637   7.238   7.565   0.785  0.0000  0.0000  0.0000
 1638OM     OM1 1638   7.319   7.810   0.737  0.0000  0.0000  0.0000
 1639OM     OM1 1639   7.480   7.617   0.705  0.0000  0.0000  0.0000
 1640OM     OM1 1640   7.376   7.661   0.964  0.0000  0.0000  0.0000
 1641OM     OM1 1641   3.331   4.216   8.511  0.0000  0.0000  0.0000
 1642OM     OM1 1642   3.530   4.314   8.390  0.0000  0.0000  0.0000
 1643OM     OM1 1643   3.505   4.052   8.402  0.0000  0.0000  0.0000
 1644OM     OM1 1644   7.247   3.972   8.314  0.0000  0.0000  0.0000
 1645OM     OM1 1645   7.360   4.185   8.399  0.0000  0.0000  0.0000
 1646OM     OM1 1646   7.501   3.968   8.434  0.0000  0.0000  0.0000
 1647OM     OM1 1647   4.435   7.566   9.087  0.0000  0.0000  0.0000
 1648OM     OM1 1648   4.654   7.191   8.906  0.0000  0.0000  0.0000
 1649OM     OM1 1649   4.543   7.436   8.899  0.0000  0.0000  0.0000
 1650OM     OM1 1650   6.965   2.182   1.141  0.0000  0.0000  0.0000
 1651OM     OM1 1651   6.771   2.272   1.277  0.0000  0.0000  0.0000
 1652OM     OM1 1652   6.846   7.036   8.318  0.0000  0.0000  0.0000
 1653OM     OM1 1653   7.010   7.173   8.467  0.0000  0.0000  0.0000
 1654OM     OM1 1654   6.791   7.276   8.386  0.0000  0.0000  0.0000
 1655OM     OM1 1655   6.670   6.842   8.357  0.0000  0.0000  0.0000
 1656OM     OM1 1656   1.011   3.894   0.589  0.0000  0.0000  0.0000
 1657OM     OM1 1657   0.990   3.916   0.842  0.0000  0.0000  0.0000
 1658OM     OM1 1658   1.219   3.854   0.752  0.0000  0.0000  0.0000
 1659OM     OM1 1659   1.023   3.678   0.743  0.0000  0.0000  0.0000
 1660OM     OM1 1660   4.493   5.654   0.756  0.0000  0.0000  0.0000
 1661OM     OM1 1661   4.298   5.821   0.812  0.0000  0.0000  0.0000
 1662OM     OM1 1662   4.244   5.579   0.731  0.0000  0.0000  0.0000
 1663OM     OM1 1663   4.342   5.621   0.972  0.0000  0.0000  0.0000
 1664OM     OM1 1664   0.561   5.573   9.233  0.0000  0.0000  0.0000
 1665OM     OM1 1665   0.397   5.414   9.354  0.0000  0.0000  0.0000
 1666OM     OM1 1666   0.429   5.405   9.089  0.0000  0.0000  0.0000
 1667OM     OM1 1667   0.302   5.606   9.192  0.0000  0.0000  0.0000
 1668OM     OM1 1668   5.170   3.768   0.054  0.0000  0.0000  0.0000
 1669OM     OM1 1669   5.195   4.001   9.548  0.0000  0.0000  0.0000
 1670OM     OM1 1670   5.146   3.805   9.394  0.0000  0.0000  0.0000
 1671OM     OM1 1671   4.956   3.880   9.557  0.0000  0.0000  0.0000
 1672OM     OM1 1672   8.754   1.582   9.325  0.0000  0.0000  0.0000
 1673OM     OM1 1673   8.536   1.709   9.381  0.0000  0.0000  0.0000
 1674OM     OM1 1674   3.136   2.514   0.210  0.0000  0.0000  0.0000
 1675OM     OM1 1675   3.060   2.320   0.041  0.0000  0.0000  0.0000
 1676OM     OM1 1676   3.276   2.288   0.203  0.0000  0.0000  0.0000
 1677OM     OM1 1677   3.033   2.296   0.293  0.0000  0.0000  0.0000
 1678OM     OM1 1678   7.343   1.443   0.227  0.0000  0.0000  0.0000
 1679OM     OM1 1679   7.420   1.313   0.014  0.0000  0.0000  0.0000
 1680OM     OM1 1680   7.387   1.565   9.602  0.0000  0.0000  0.0000
 1681OM     OM1 1681   7.630   7.104   8.432  0.0000  0.0000  0.0000
 1682OM     OM1 1682   7.461   7.283   8.354  0.0000  0.0000  0.0000
 1683OM     OM1 1683   7.465   7.057   8.249  0.0000  0.0000  0.0000
 1684OM     OM1 1684   4.476   7.165   8.354  0.0000  0.0000  0.0000
 1685OM     OM1 1685   4.060   6.935   8.244  0.0000  0.0000  0.0000
 1686OM     OM1 1686   9.074   0.236   1.161  0.0000  0.0000  0.0000
 1687OM     OM1 1687   9.315   0.253   1.095  0.0000  0.0000  0.0000
 1688OM     OM1 1688   9.282   0.002   1.169  0.0000  0.0000  0.0000
 1689OM     OM1 1689   1.355   0.576   8.357  0.0000  0.0000  0.0000
 1690OM     OM1 1690   1.523   0.699   8.504  0.0000  0.0000  0.0000
 1691OM     OM1 1691   1.317   0.823   8.445  0.0000  0.0000  0.0000
 1692OM     OM1 1692   9.071   4.826   0.709  0.0000  0.0000  0.0000
 1693OM     OM1 1693   9.030   4.658   0.509  0.0000  0.0000  0.0000
 1694OM     OM1 1694   9.112   4.577   0.745  0.0000  0.0000  0.0000
 1695OM     OM1 1695   8.861   4.656   0.710  0.0000  0.0000  0.0000
 1696OM     OM1 1696   1.219   9.511   8.552  0.0000  0.0000  0.0000
 1697OM     OM1 1697   1.463   9.477   8.480  0.0000  0.0000  0.0000
 1698OM     OM1 1698   1.507   9.235   8.571  0.0000  0.0000  0.0000
 1699OM     OM1 1699   1.526   9.290   8.316  0.0000  0.0000  0.0000
 1700OM     OM1 1700   8.187   5.465   8.595  0.0000  0.0000  0.0000
 1701OM     OM1 1701   8.176   5.426   8.336  0.0000  0.0000  0.0000
 1702OM     OM1 1702   8.145   5.230   8.498  0.0000  0.0000  0.0000
 1703OM     OM1 1703   7.955   5.415   8.466  0.0000  0.0000  0.0000
 1704OM     OM1 1704   1.743   4.104   8.900  0.0000  0.0000  0.0000
 1705OM     OM1 1705   1.955   4.046   8.745  0.0000  0.0000  0.0000
 1706OM     OM1 1706   1.830   4.263   8.718  0.0000  0.0000  0.0000
 1707OM     OM1 1707   1.718   4.049   8.637  0.0000  0.0000  0.0000
 1708OM     OM1 1708   6.829   0.384   9.312  0.0000  0.0000  0.0000
 1709OM     OM1 1709   6.674   0.378   9.515  0.0000  0.0000  0.0000
 1710OM     OM1 1710   6.577   0.438   9.292  0.0000  0.0000  0.0000
 1711OM     OM1 1711   8.022   4.782   1.199  0.0000  0.0000  0.0000
 1712OM     OM1 1712   8.112   5.034   1.240  0.0000  0.0000  0.0000
 1713OM     OM1 1713   7.965   4.610   1.005  0.0000  0.0000  0.0000
 1714OM     OM1 1714   8.207   4.636   1.057  0.0000  0.0000  0.0000
 1715OM     OM1 1715   6.768   0.777   8.424  0.0000  0.0000  0.0000
 1716OM     OM1 1716   6.593   0.912   8.578  0.0000  0.0000  0.0000
 1717OM     OM1 1717   6.553   0.888   8.329  0.0000  0.0000  0.0000
 1718OM     OM1 1718   9.523   7.661   8.370  0.0000  0.0000  0.0000
 1719OM     OM1 1719   0.369   8.379   8.977  0.0000  0.0000  0.0000
 1720OM     OM1 1720   0.712   8.269   8.732  0.0000  0.0000  0.0000
 1721OM     OM1 1721   0.449   8.269   8.688  0.0000  0.0000  0.0000
 1722OM     OM1 1722   0.537   8.196   8.910  0.0000  0.0000  0.0000
 1723OM     OM1 1723   2.719   8.516   0.325  0.0000  0.0000  0.0000
 1724OM     OM1 1724   2.560   8.615   0.136  0.0000  0.0000  0.0000
 1725OM     OM1 1725   2.750   8.762   0.244  0.0000  0.0000  0.0000
 1726OM     OM1 1726   2.524   8.698   0.367  0.0000  0.0000  0.0000
 1727OM     OM1 1727   4.339   6.280   1.266  0.0000  0.0000  0.0000
 1728OM     OM1 1728   8.778   6.824   9.210  0.0000  0.0000  0.0000
 1729OM     OM1 1729   9.022   6.775   9.313  0.0000  0.0000  0.0000
 1730OM     OM1 1730   8.834   6.854   9.467  0.0000  0.0000  0.0000
 1731OM     OM1 1731   7.622   2.191   8.985  0.0000  0.0000  0.0000
 1732OM     OM1 1732   7.811   2.278   9.133  0.0000  0.0000  0.0000
 1733OM     OM1 1733   7.551   2.273   9.222  0.0000  0.0000  0.0000
 1734OM     OM1 1734   7.628   2.444   9.037  0.0000  0.0000  0.0000
 1735OM     OM1 1735   1.936   8.534   1.117  0.0000  0.0000  0.0000
 1736OM     OM1 1736   2.101   8.691   1.234  0.0000  0.0000  0.0000
 1737OM     OM1 1737   1.848   8.731   1.270  0.0000  0.0000  0.0000
 1738OM     OM1 1738   3.865   5.965   9.150  0.0000  0.0000  0.0000
 1739OM     OM1 1739   3.752   5.751   9.215  0.0000  0.0000  0.0000
 1740OM     OM1 1740   4.054   6.017   9.315  0.0000  0.0000  0.0000
 1741OM     OM1 1741   3.746   5.894   9.436  0.0000  0.0000  0.0000
 1742OM     OM1 1742   4.889   7.878   1.322  0.0000  0.0000  0.0000
 1743OM     OM1 1743   6.911   4.004   9.419  0.0000  0.0000  0.0000
 1744OM     OM1 1744   7.060   4.206   9.339  0.0000  0.0000  0.0000
 1745OM     OM1 1745   6.806   4.204   9.296  0.0000  0.0000  0.0000
 1746OM     OM1 1746   6.948   4.044   9.158  0.0000  0.0000  0.0000
 1747OM     OM1 1747   8.230   0.717   0.193  0.0000  0.0000  0.0000
 1748OM     OM1 1748   8.221   0.978   0.246  0.0000  0.0000  0.0000
 1749OM     OM1 1749   8.545   0.993   9.499  0.0000  0.0000  0.0000
 1750OM     OM1 1750   9.030   2.331   1.152  0.0000  0.0000  0.0000
 1751OM     OM1 1751   0.333   9.555   8.321  0.0000  0.0000  0.0000
 1752OM     OM1 1752   0.099   9.424   8.365  0.0000  0.0000  0.0000
 1753OM     OM1 1753   0.316   9.303   8.397  0.0000  0.0000  0.0000
 1754OM     OM1 1754   5.410   1.757   0.946  0.0000  0.0000  0.0000
 1755OM     OM1 1755   5.376   1.896   1.166  0.0000  0.0000  0.0000
 1756OM     OM1 1756   5.465   1.641   1.170  0.0000  0.0000  0.0000
 1757OM     OM1 1757   5.610   1.843   1.092  0.0000  0.0000  0.0000
 1758OM     OM1 1758   0.590   8.895   8.382  0.0000  0.0000  0.0000
 1759OM     OM1 1759   0.394   9.063   8.423  0.0000  0.0000  0.0000
 1760OM     OM1 1760   0.640   9.154   8.383  0.0000  0.0000  0.0000
 1761OM     OM1 1761   1.877   2.966   8.745  0.0000  0.0000  0.0000
 1762OM     OM1 1762   1.870   2.815   8.950  0.0000  0.0000  0.0000
 1763OM     OM1 1763   1.682   2.780   8.770  0.0000  0.0000  0.0000
 1764OM     OM1 1764   4.686   3.862   9.546  0.0000  0.0000  0.0000
 1765OM     OM1 1765   4.593   3.915   0.177  0.0000  0.0000  0.0000
 1766OM     OM1 1766   4.694   4.100   0.028  0.0000  0.0000  0.0000
 1767OM     OM1 1767   4.449   3.975   9.579  0.0000  0.0000  0.0000
 1768OM     OM1 1768   9.259   5.935   0.156  0.0000  0.0000  0.0000
 1769OM     OM1 1769   9.398   6.023   9.558  0.0000  0.0000  0.0000
 1770OM     OM1 1770   9.296   6.196   0.119  0.0000  0.0000  0.0000
 1771OM     OM1 1771   9.493   6.052   0.196  0.0000  0.0000  0.0000
 1772OM     OM1 1772   5.078   1.986   8.296  0.0000  0.0000  0.0000
 1773OM     OM1 1773   5.129   2.116   8.520  0.0000  0.0000  0.0000
 1774OM     OM1 1774   4.957   2.204   8.336  0.0000  0.0000  0.0000
 1775OM     OM1 1775   4.906   1.987   8.492  0.0000  0.0000  0.0000
 1776OM     OM1 1776   1.878   2.237   1.101  0.0000  0.0000  0.0000
 1777OM     OM1 1777   2.058   2.071   1.156  0.0000  0.0000  0.0000
 1778OM     OM1 1778   0.545   6.444   0.201  0.0000  0.0000  0.0000
 1779OM     OM1 1779   0.481   6.365   0.448  0.0000  0.0000  0.0000
 1780OM     OM1 1780   0.614   6.215   0.292  0.0000  0.0000  0.0000
 1781OM     OM1 1781   7.141   6.093   8.519  0.0000  0.0000  0.0000
 1782OM     OM1 1782   7.336   6.088   8.697  0.0000  0.0000  0.0000
 1783OM     OM1 1783   7.249   6.310   8.597  0.0000  0.0000  0.0000
 1784OM     OM1 1784   7.092   6.160   8.762  0.0000  0.0000  0.0000
 1785OM     OM1 1785   0.457   0.785   0.414  0.0000  0.0000  0.0000
 1786OM     OM1 1786   0.472   0.965   0.232  0.0000  0.0000  0.0000
 1787OM     OM1 1787   0.234   0.862   0.297  0.0000  0.0000  0.0000
 1788OM     OM1 1788   5.057   0.827   8.767  0.0000  0.0000  0.0000
 1789OM     OM1 1789   4.960   0.792   8.995  0.0000  0.0000  0.0000
 1790OM     OM1 1790   5.180   0.929   8.983  0.0000  0.0000  0.0000
 1791OM     OM1 1791   4.954   1.037   8.895  0.0000  0.0000  0.0000
 1792OM     OM1 1792   6.513   2.088   0.745  0.0000  0.0000  0.0000
 1793OM     OM1 1793   6.610   1.992   0.971  0.0000  0.0000  0.0000
 1794OM     OM1 1794   6.657   2.246   0.908  0.0000  0.0000  0.0000
 1795OM     OM1 1795   5.591   1.094   0.528  0.0000  0.0000  0.0000
 1796OM     OM1 1796   5.579   1.122   0.266  0.0000  0.0000  0.0000
 1797OM     OM1 1797   5.514   1.320   0.417  0.0000  0.0000  0.0000
 1798OM     OM1 1798   5.764   1.247   0.398  0.0000  0.0000  0.0000
 1799OM     OM1 1799   2.979   1.251   8.950  0.0000  0.0000  0.0000
 1800OM     OM1 1800   2.948   1.503   9.045  0.0000  0.0000  0.0000
 1801OM     OM1 1801   3.077   1.452   8.817  0.0000  0.0000  0.0000
 1802OM     OM1 1802   3.175   1.387   9.043  0.0000  0.0000  0.0000
 1803OM     OM1 1803   5.803   9.418   0.461  0.0000  0.0000  0.0000
 1804OM     OM1 1804   5.918   0.038   0.523  0.0000  0.0000  0.0000
 1805OM     OM1 1805   5.774   9.516   0.706  0.0000  0.0000  0.0000
 1806OM     OM1 1806   6.005   9.428   0.632  0.0000  0.0000  0.0000
 1807OM     OM1 1807   4.698   3.224   1.206  0.0000  0.0000  0.0000
 1808OM     OM1 1808   4.480   3.351   1.154  0.0000  0.0000  0.0000
 1809OM     OM1 1809   7.275   0.921   0.164  0.0000  0.0000  0.0000
 1810OM     OM1 1810   7.537   0.809   0.197  0.0000  0.0000  0.0000
 1811OM     OM1 1811   7.313   0.683   0.250  0.0000  0.0000  0.0000
 1812OM     OM1 1812   5.298   1.848   8.947  0.0000  0.0000  0.0000
 1813OM     OM1 1813   5.454   1.855   9.163  0.0000  0.0000  0.0000
 1814OM     OM1 1814   5.194   1.906   9.181  0.0000  0.0000  0.0000
 1815OM     OM1 1815   9.569   6.548   8.860  0.0000  0.0000  0.0000
 1816OM     OM1 1816   0.100   6.519   8.649  0.0000  0.0000  0.0000
 1817OM     OM1 1817   0.007   6.309   8.781  0.0000  0.0000  0.0000
 1818OM     OM1 1818   9.437   6.459   8.657  0.0000  0.0000  0.0000
 1819OM     OM1 1819   4.124   1.198   0.346  0.0000  0.0000  0.0000
 1820OM     OM1 1820   4.030   1.425   0.269  0.0000  0.0000  0.0000
 1821OM     OM1 1821   4.216   1.309   0.123  0.0000  0.0000  0.0000
 1822OM     OM1 1822   3.862   2.337   9.158  0.0000  0.0000  0.0000
 1823OM     OM1 1823   3.901   2.144   9.341  0.0000  0.0000  0.0000
 1824OM     OM1 1824   3.665   2.264   9.305  0.0000  0.0000  0.0000
 1825OM     OM1 1825   6.028   1.016   8.983  0.0000  0.0000  0.0000
 1826OM     OM1 1826   5.973   1.091   8.745  0.0000  0.0000  0.0000
 1827OM     OM1 1827   6.197   1.173   8.838  0.0000  0.0000  0.0000
 1828OM     OM1 1828   6.160   0.917   8.779  0.0000  0.0000  0.0000
 1829OM     OM1 1829   8.776   2.667   1.297  0.0000  0.0000  0.0000
 1830OM     OM1 1830   8.846   2.925   1.319  0.0000  0.0000  0.0000
 1831OM     OM1 1831   8.622   2.861   1.209  0.0000  0.0000  0.0000
 1832OM     OM1 1832   5.779   8.243   9.314  0.0000  0.0000  0.0000
 1833OM     OM1 1833   5.794   8.414   9.515  0.0000  0.0000  0.0000
 1834OM     OM1 1834   5.999   8.366   9.361  0.0000  0.0000  0.0000
 1835OM     OM1 1835   5.787   8.490   9.257  0.0000  0.0000  0.0000
 1836OM     OM1 1836   9.401   9.599   8.980  0.0000  0.0000  0.0000
 1837OM     OM1 1837   9.336   9.378   9.104  0.0000  0.0000  0.0000
 1838OM     OM1 1838   9.186   9.600   9.112  0.0000  0.0000  0.0000
 1839OM     OM1 1839   7.465   3.586   0.569  0.0000  0.0000  0.0000
 1840OM     OM1 1840   7.517   3.637   0.317  0.0000  0.0000  0.0000
 1841OM     OM1 1841   7.555   3.815   0.496  0.0000  0.0000  0.0000
 1842OM     OM1 1842   7.715   3.593   0.491  0.0000  0.0000  0.0000
 1843OM     OM1 1843   6.653   4.171   0.625  0.0000  0.0000  0.0000
 1844OM     OM1 1844   6.809   4.385   0.636  0.0000  0.0000  0.0000
 1845OM     OM1 1845   6.595   4.398   0.499  0.0000  0.0000  0.0000
 1846OM     OM1 1846   6.577   4.371   0.763  0.0000  0.0000  0.0000
 1847OM     OM1 1847   8.196   6.066   0.334  0.0000  0.0000  0.0000
 1848OM     OM1 1848   8.169   6.311   0.401  0.0000  0.0000  0.0000
 1849OM     OM1 1849   8.102   6.241   0.156  0.0000  0.0000  0.0000
 1850OM     OM1 1850   8.360   6.235   0.240  0.0000  0.0000  0.0000
 1851OM     OM1 1851   5.361   7.138   9.469  0.0000  0.0000  0.0000
 1852OM     OM1 1852   5.265   7.224   0.086  0.0000  0.0000  0.0000
 1853OM     OM1 1853   5.315   6.974   0.067  0.0000  0.0000  0.0000
 1854OM     OM1 1854   5.108   7.072   9.553  0.0000  0.0000  0.0000
 1855OM     OM1 1855   5.495   5.218   8.716  0.0000  0.0000  0.0000
 1856OM     OM1 1856   5.296   5.060   8.759  0.0000  0.0000  0.0000
 1857OM     OM1 1857   5.255   5.317   8.754  0.0000  0.0000  0.0000
 1858OM     OM1 1858   6.345   2.300   1.387  0.0000  0.0000  0.0000
 1859OM     OM1 1859   0.553   7.503   0.795  0.0000  0.0000  0.0000
 1860OM     OM1 1860   0.682   7.637   0.978  0.0000  0.0000  0.0000
 1861OM     OM1 1861   0.729   7.387   0.955  0.0000  0.0000  0.0000
 1862OM     OM1 1862   0.804   7.532   0.754  0.0000  0.0000  0.0000
 1863OM     OM1 1863   5.829   0.722   8.368  0.0000  0.0000  0.0000
 1864OM     OM1 1864   5.780   0.941   8.264  0.0000  0.0000  0.0000
 1865OM     OM1 1865   6.032   0.865   8.293  0.0000  0.0000  0.0000
 1866OM     OM1 1866   3.021   7.720   1.122  0.0000  0.0000  0.0000
 1867OM     OM1 1867   3.227   7.601   1.212  0.0000  0.0000  0.0000
 1868OM     OM1 1868   6.896   1.998   9.283  0.0000  0.0000  0.0000
 1869OM     OM1 1869   6.681   2.117   9.378  0.0000  0.0000  0.0000
 1870OM     OM1 1870   6.882   2.256   9.285  0.0000  0.0000  0.0000
 1871OM     OM1 1871   6.897   2.128   9.512  0.0000  0.0000  0.0000
 1872OM     OM1 1872   3.876   7.923   0.454  0.0000  0.0000  0.0000
 1873OM     OM1 1873   3.915   7.671   0.514  0.0000  0.0000  0.0000
 1874OM     OM1 1874   3.917   7.856   0.706  0.0000  0.0000  0.0000
 1875OM     OM1 1875   3.699   7.797   0.590  0.0000  0.0000  0.0000
 1876OM     OM1 1876   2.596   5.993   1.125  0.0000  0.0000  0.0000
 1877OM     OM1 1877   2.702   5.847   1.308  0.0000  0.0000  0.0000
 1878OM     OM1 1878   2.851   5.978   1.124  0.0000  0.0000  0.0000
 1879OM     OM1 1879   8.137   3.545   0.749  0.0000  0.0000  0.0000
 1880OM     OM1 1880   8.110   3.787   0.667  0.0000  0.0000  0.0000
 1881OM     OM1 1881   8.187   3.729   0.918  0.0000  0.0000  0.0000
 1882OM     OM1 1882   8.351   3.710   0.721  0.0000  0.0000  0.0000
 1883OM     OM1 1883   5.398   5.340   9.439  0.0000  0.0000  0.0000
 1884OM     OM1 1884   5.253   5.438   9.221  0.0000  0.0000  0.0000
 1885OM     OM1 1885   5.509   5.429   9.228  0.0000  0.0000  0.0000
 1886OM     OM1 1886   1.924   4.265   9.382  0.0000  0.0000  0.0000
 1887OM     OM1 1887   1.898   4.510   9.314  0.0000  0.0000  0.0000
 1888OM     OM1 1888   2.091   4.442   9.485  0.0000  0.0000  0.0000
 1889OM     OM1 1889   5.484   7.551   1.267  0.0000  0.0000  0.0000
 1890OM     OM1 1890   5.268   7.578   1.114  0.0000  0.0000  0.0000
 1891OM     OM1 1891   5.425   7.777   1.149  0.0000  0.0000  0.0000
 1892OM     OM1 1892   1.039   0.342   0.258  0.0000  0.0000  0.0000
 1893OM     OM1 1893   1.271   0.300   0.353  0.0000  0.0000  0.0000
 1894OM     OM1 1894   0.912   0.573   0.316  0.0000  0.0000  0.0000
 1895OM     OM1 1895   1.065   0.373   0.509  0.0000  0.0000  0.0000
 1896OM     OM1 1896   8.156   8.201   8.258  0.0000  0.0000  0.0000
 1897OM     OM1 1897   8.286   8.200   8.479  0.0000  0.0000  0.0000
 1898OM     OM1 1898   8.329   4.725   9.411  0.0000  0.0000  0.0000
 1899OM     OM1 1899   8.256   4.966   9.342  0.0000  0.0000  0.0000
 1900OM     OM1 1900   8.297   4.787   9.155  0.0000  0.0000  0.0000
 1901OM     OM1 1901   8.498   4.875   9.278  0.0000  0.0000  0.0000
 1902OM     OM1 1902   7.910   1.630   0.547  0.0000  0.0000  0.0000
 1903OM     OM1 1903   7.522   1.412   0.649  0.0000  0.0000  0.0000
 1904OM     OM1 1904   7.840   1.325   0.745  0.0000  0.0000  0.0000
 1905OM     OM1 1905   7.675   1.625   0.648  0.0000  0.0000  0.0000
 1906OM     OM1 1906   6.250   8.484   0.109  0.0000  0.0000  0.0000
 1907OM     OM1 1907   6.051   8.488   0.269  0.0000  0.0000  0.0000
 1908OM     OM1 1908   6.273   8.620   0.327  0.0000  0.0000  0.0000
 1909OM     OM1 1909   6.275   8.370   0.353  0.0000  0.0000  0.0000
 1910OM     OM1 1910   8.150   0.299   0.428  0.0000  0.0000  0.0000
 1911OM     OM1 1911   8.351   0.238   0.276  0.0000  0.0000  0.0000
 1912OM     OM1 1912   8.438   0.296   0.050  0.0000  0.0000  0.0000
 1913OM     OM1 1913   8.104   0.216   0.188  0.0000  0.0000  0.0000
 1914OM     OM1 1914   5.836   7.040   0.072  0.0000  0.0000  0.0000
 1915OM     OM1 1915   5.898   7.232   0.232  0.0000  0.0000  0.0000
 1916OM     OM1 1916   5.725   7.023   0.296  0.0000  0.0000  0.0000
 1917OM     OM1 1917   5.664   7.233   0.145  0.0000  0.0000  0.0000
 1918OM     OM1 1918   7.687   2.744   0.971  0.0000  0.0000  0.0000
 1919OM     OM1 1919   7.495   2.581   0.912  0.0000  0.0000  0.0000
 1920OM     OM1 1920   1.153   4.035   1.178  0.0000  0.0000  0.0000
 1921OM     OM1 1921   0.929   4.037   1.307  0.0000  0.0000  0.0000
 1922OM     OM1 1922   1.003   3.828   1.167  0.0000  0.0000  0.0000
 1923OM     OM1 1923   0.920   4.048   1.049  0.0000  0.0000  0.0000
 1924OM     OM1 1924   0.947   8.010   8.746  0.0000  0.0000  0.0000
 1925OM     OM1 1925   1.013   7.865   8.548  0.0000  0.0000  0.0000
 1926OM     OM1 1926   1.251   7.967   8.484  0.0000  0.0000  0.0000
 1927OM     OM1 1927   1.498   7.994   8.526  0.0000  0.0000  0.0000
 1928OM     OM1 1928   4.437   9.162   0.927  0.0000  0.0000  0.0000
 1929OM     OM1 1929   4.260   8.915   1.185  0.0000  0.0000  0.0000
 1930OM     OM1 1930   4.247   8.892   0.600  0.0000  0.0000  0.0000
 1931OM     OM1 1931   4.229   9.149   1.069  0.0000  0.0000  0.0000
 1932OM     OM1 1932   7.234   7.133   0.008  0.0000  0.0000  0.0000
 1933OM     OM1 1933   7.462   7.226   0.118  0.0000  0.0000  0.0000
 1934OM     OM1 1934   7.313   7.387   9.587  0.0000  0.0000  0.0000
 1935OM     OM1 1935   7.225   7.305   0.206  0.0000  0.0000  0.0000
 1936OM     OM1 1936   1.450   7.574   9.334  0.0000  0.0000  0.0000
 1937OM     OM1 1937   1.450   7.615   9.083  0.0000  0.0000  0.0000
 1938OM     OM1 1938   1.540   7.387   9.197  0.0000  0.0000  0.0000
 1939OM     OM1 1939   3.113   8.233   8.191  0.0000  0.0000  0.0000
 1940OM     OM1 1940   2.642   9.500   8.940  0.0000  0.0000  0.0000
 1941OM     OM1 1941   2.407   9.563   9.011  0.0000  0.0000  0.0000
 1942OM     OM1 1942   2.548   9.431   9.185  0.0000  0.0000  0.0000
 1943OM     OM1 1943   2.319   2.088   1.114  0.0000  0.0000  0.0000
 1944OM     OM1 1944   2.481   2.067   1.322  0.0000  0.0000  0.0000
 1945OM     OM1 1945   2.494   1.891   1.140  0.0000  0.0000  0.0000
 1946OM     OM1 1946   4.231   8.861   8.762  0.0000  0.0000  0.0000
 1947OM     OM1 1947   4.564   8.763   8.927  0.0000  0.0000  0.0000
 1948OM     OM1 1948   4.226   8.657   8.592  0.0000  0.0000  0.0000
 1949OM     OM1 1949   0.862   3.676   8.437  0.0000  0.0000  0.0000
 1950OM     OM1 1950   1.005   3.797   8.604  0.0000  0.0000  0.0000
 1951OM     OM1 1951   0.846   3.946   8.467  0.0000  0.0000  0.0000
 1952OM     OM1 1952   4.346   1.811   0.234  0.0000  0.0000  0.0000
 1953OM     OM1 1953   4.295   1.733   9.593  0.0000  0.0000  0.0000
 1954OM     OM1 1954   4.113   1.861   0.137  0.0000  0.0000  0.0000
 1955OM     OM1 1955   4.165   1.622   0.179  0.0000  0.0000  0.0000
 1956OM     OM1 1956   5.982   8.856   8.655  0.0000  0.0000  0.0000
 1957OM     OM1 1957   5.801   8.674   8.662  0.0000  0.0000  0.0000
 1958OM     OM1 1958   5.759   8.876   8.499  0.0000  0.0000  0.0000
 1959OM     OM1 1959   5.745   8.918   8.749  0.0000  0.0000  0.0000
 1960OM     OM1 1960   7.940   0.266   8.416  0.0000  0.0000  0.0000
 1961OM     OM1 1961   7.753   0.354   8.574  0.0000  0.0000  0.0000
 1962OM     OM1 1962   7.743   0.108   8.452  0.0000  0.0000  0.0000
 1963OM     OM1 1963   7.888   0.147   8.651  0.0000  0.0000  0.0000
 1964OM     OM1 1964   1.343   1.328   9.153  0.0000  0.0000  0.0000
 1965OM     OM1 1965   1.501   1.249   9.337  0.0000  0.0000  0.0000
 1966OM     OM1 1966   1.459   1.499   9.319  0.0000  0.0000  0.0000
 1967OM     OM1 1967   1.601   1.395   9.133  0.0000  0.0000  0.0000
 1968OM     OM1 1968   0.537   3.924   1.067  0.0000  0.0000  0.0000
 1969OM     OM1 1969   0.331   3.936   1.246  0.0000  0.0000  0.0000
 1970OM     OM1 1970   0.508   3.744   1.246  0.0000  0.0000  0.0000
 1971OM     OM1 1971   0.429   7.147   1.161  0.0000  0.0000  0.0000
 1972OM     OM1 1972   0.180   7.067   1.172  0.0000  0.0000  0.0000
 1973OM     OM1 1973   0.253   7.243   0.989  0.0000  0.0000  0.0000
 1974OM     OM1 1974   0.191   7.130   0.770  0.0000  0.0000  0.0000
 1975OM     OM1 1975   6.763   4.379   9.109  0.0000  0.0000  0.0000
 1976OM     OM1 1976   6.690   4.749   9.155  0.0000  0.0000  0.0000
 1977OM     OM1 1977   6.883   4.598   9.053  0.0000  0.0000  0.0000
 1978OM     OM1 1978   6.922   4.732   9.272  0.0000  0.0000  0.0000
 1979OM     OM1 1979   8.706   1.917   1.023  0.0000  0.0000  0.0000
 1980OM     OM1 1980   8.943   1.890   1.143  0.0000  0.0000  0.0000
 1981OM     OM1 1981   8.931   1.882   0.884  0.0000  0.0000  0.0000
 1982OM     OM1 1982   8.884   2.106   0.999  0.0000  0.0000  0.0000
 1983OM     OM1 1983   6.823   7.359   1.040  0.0000  0.0000  0.0000
 1984OM     OM1 1984   6.790   7.203   1.248  0.0000  0.0000  0.0000
 1985OM     OM1 1985   6.583   7.312   1.111  0.0000  0.0000  0.0000
 1986OM     OM1 1986   6.737   7.450   1.282  0.0000  0.0000  0.0000
 1987OM     OM1 1987   5.586   0.994   8.445  0.0000  0.0000  0.0000
 1988OM     OM1 1988   5.541   0.815   8.639  0.0000  0.0000  0.0000
 1989OM     OM1 1989   5.723   1.148   8.692  0.0000  0.0000  0.0000
 1990OM     OM1 1990   5.476   1.060   8.669  0.0000  0.0000  0.0000
 1991OM     OM1 1991   8.810   8.465   1.119  0.0000  0.0000  0.0000
 1992OM     OM1 1992   8.615   8.637   1.096  0.0000  0.0000  0.0000
 1993OM     OM1 1993   8.851   8.711   1.206  0.0000  0.0000  0.0000
 1994OM     OM1 1994   8.843   8.662   0.954  0.0000  0.0000  0.0000
 1995OM     OM1 1995   6.440   6.982   9.235  0.0000  0.0000  0.0000
 1996OM     OM1 1996   6.579   7.114   9.394  0.0000  0.0000  0.0000
 1997OM     OM1 1997   6.693   6.905   9.270  0.0000  0.0000  0.0000
 1998OM     OM1 1998   6.650   7.121   9.140  0.0000  0.0000  0.0000
 1999OM     OM1 1999   6.444   3.060   9.081  0.0000  0.0000  0.0000
 2000OM     OM1 2000   6.287   2.909   8.936  0.0000  0.0000  0.0000
 2001OM     OM1 2001   6.523   2.832   9.009  0.0000  0.0000  0.0000
 2002OM     OM1 2002   6.506   3.024   8.829  0.0000  0.0000  0.0000
 2003OM     OM1 2003   3.320   0.063   9.243  0.0000  0.0000  0.0000
 2004OM     OM1 2004   3.532   0.098   9.399  0.0000  0.0000  0.0000
 2005OM     OM1 2005   3.527   0.154   9.140  0.0000  0.0000  0.0000
 2006OM     OM1 2006   4.158   7.709   0.512  0.0000  0.0000  0.0000
 2007OM     OM1 2007   4.047   7.622   0.286  0.0000  0.0000  0.0000
 2008OM     OM1 2008   4.094   7.463   0.488  0.0000  0.0000  0.0000
 2009OM     OM1 2009   0.255   7.989   8.308  0.0000  0.0000  0.0000
 2010OM     OM1 2010   2.017   8.627   0.878  0.0000  0.0000  0.0000
 2011OM     OM1 2011   1.938   8.706   0.633  0.0000  0.0000  0.0000
 2012OM     OM1 2012   1.910   8.856   0.840  0.0000  0.0000  0.0000
 2013OM     OM1 2013   2.142   8.823   0.747  0.0000  0.0000  0.0000
 2014OM     OM1 2014   1.235   3.689   8.403  0.0000  0.0000  0.0000
 2015OM     OM1 2015   1.472   3.749   8.492  0.0000  0.0000  0.0000
 2016OM     OM1 2016   1.350   3.541   8.595  0.0000  0.0000  0.0000
 2017OM     OM1 2017   1.255   3.765   8.651  0.0000  0.0000  0.0000
 2018OM     OM1 2018   1.960   1.738   1.184  0.0000  0.0000  0.0000
 2019OM     OM1 2019   2.188   1.680   1.297  0.0000  0.0000  0.0000
 2020OM     OM1 2020   7.921   7.429   8.506  0.0000  0.0000  0.0000
 2021OM     OM1 2021   7.952   7.583   8.298  0.0000  0.0000  0.0000
 2022OM     OM1 2022   8.144   7.410   8.371  0.0000  0.0000  0.0000
 2023OM     OM1 2023   6.258   0.279   8.632  0.0000  0.0000  0.0000
 2024OM     OM1 2024   5.999   0.269   8.659  0.0000  0.0000  0.0000
 2025OM     OM1 2025   6.122   0.093   8.504  0.0000  0.0000  0.0000
 2026OM     OM1 2026   6.107   0.332   8.422  0.0000  0.0000  0.0000
 2027OM     OM1 2027   8.542   1.423   1.353  0.0000  0.0000  0.0000
 2028OM     OM1 2028   8.416   1.388   1.129  0.0000  0.0000  0.0000
 2029OM     OM1 2029   5.639   7.517   8.541  0.0000  0.0000  0.0000
 2030OM     OM1 2030   5.877   7.433   8.606  0.0000  0.0000  0.0000
 2031OM     OM1 2031   5.829   7.507   8.366  0.0000  0.0000  0.0000
 2032OM     OM1 2032   5.825   7.687   8.569  0.0000  0.0000  0.0000
 2033OM     OM1 2033   1.636   4.497   8.761  0.0000  0.0000  0.0000
 2034OM     OM1 2034   1.841   4.483   8.591  0.0000  0.0000  0.0000
 2035OM     OM1 2035   1.685   4.684   8.581  0.0000  0.0000  0.0000
 2036OM     OM1 2036   1.597   4.432   8.522  0.0000  0.0000  0.0000
 2037OM     OM1 2037   1.268   0.704   0.166  0.0000  0.0000  0.0000
 2038OM     OM1 2038   1.391   0.778   0.377  0.0000  0.0000  0.0000
 2039OM     OM1 2039   1.400   0.521   0.306  0.0000  0.0000  0.0000
 2040OM     OM1 2040   1.530   0.697   0.167  0.0000  0.0000  0.0000
 2041OM     OM1 2041   4.717   4.047   8.302  0.0000  0.0000  0.0000
 2042OM     OM1 2042   4.835   3.820   8.246  0.0000  0.0000  0.0000
 2043OM     OM1 2043   9.310   2.676   8.316  0.0000  0.0000  0.0000
 2044OM     OM1 2044   9.499   2.725   8.487  0.0000  0.0000  0.0000
 2045OM     OM1 2045   9.567   2.610   8.267  0.0000  0.0000  0.0000
 2046OM     OM1 2046   1.652   6.351   8.260  0.0000  0.0000  0.0000
 2047OM     OM1 2047   1.466   6.185   8.290  0.0000  0.0000  0.0000
 2048OM     OM1 2048   1.437   6.412   8.404  0.0000  0.0000  0.0000
 2049OM     OM1 2049   6.681   5.175   8.762  0.0000  0.0000  0.0000
 2050OM     OM1 2050   6.575   5.132   8.996  0.0000  0.0000  0.0000
 2051OM     OM1 2051   6.832   5.092   8.965  0.0000  0.0000  0.0000
 2052OM     OM1 2052   6.744   5.331   8.971  0.0000  0.0000  0.0000
 2053OM     OM1 2053   9.086   7.388   9.546  0.0000  0.0000  0.0000
 2054OM     OM1 2054   8.976   7.560   0.097  0.0000  0.0000  0.0000
 2055OM     OM1 2055   0.015   0.184   0.590  0.0000  0.0000  0.0000
 2056OM     OM1 2056   0.167   0.161   0.390  0.0000  0.0000  0.0000
 2057OM     OM1 2057   0.270   0.271   0.597  0.0000  0.0000  0.0000
 2058OM     OM1 2058   0.229   0.027   0.617  0.0000  0.0000  0.0000
 2059OM     OM1 2059   0.142   9.594   9.271  0.0000  0.0000  0.0000
 2060OM     OM1 2060   0.164   9.393   9.087  0.0000  0.0000  0.0000
 2061OM     OM1 2061   0.099   9.347   9.342  0.0000  0.0000  0.0000
 2062OM     OM1 2062   0.526   2.326   0.866  0.0000  0.0000  0.0000
 2063OM     OM1 2063   0.308   2.276   0.992  0.0000  0.0000  0.0000
 2064OM     OM1 2064   0.411   2.526   0.999  0.0000  0.0000  0.0000
 2065OM     OM1 2065   0.297   2.440   0.788  0.0000  0.0000  0.0000
 2066OM     OM1 2066   6.613   7.624   1.431  0.0000  0.0000  0.0000
 2067OM     OM1 2067   5.632   1.681   9.096  0.0000  0.0000  0.0000
 2068OM     OM1 2068   5.713   1.910   9.189  0.0000  0.0000  0.0000
 2069OM     OM1 2069   5.599   1.740   9.352  0.0000  0.0000  0.0000
 2070OM     OM1 2070   9.326   7.309   9.514  0.0000  0.0000  0.0000
 2071OM     OM1 2071   9.216   7.408   9.308  0.0000  0.0000  0.0000
 2072OM     OM1 2072   1.060   3.710   0.338  0.0000  0.0000  0.0000
 2073OM     OM1 2073   1.245   3.545   0.404  0.0000  0.0000  0.0000
 2074OM     OM1 2074   1.058   3.347   9.572  0.0000  0.0000  0.0000
 2075OM     OM1 2075   4.197   2.980   9.091  0.0000  0.0000  0.0000
 2076OM     OM1 2076   4.379   2.857   9.226  0.0000  0.0000  0.0000
 2077OM     OM1 2077   4.303   2.775   8.986  0.0000  0.0000  0.0000
 2078OM     OM1 2078   4.460   2.973   9.007  0.0000  0.0000  0.0000
 2079OM     OM1 2079   1.826   8.225   0.683  0.0000  0.0000  0.0000
 2080OM     OM1 2080   1.895   8.401   0.879  0.0000  0.0000  0.0000
 2081OM     OM1 2081   2.049   8.371   0.672  0.0000  0.0000  0.0000
 2082OM     OM1 2082   8.510   2.095   1.032  0.0000  0.0000  0.0000
 2083OM     OM1 2083   8.471   1.859   0.923  0.0000  0.0000  0.0000
 2084OM     OM1 2084   4.663   5.627   8.743  0.0000  0.0000  0.0000
 2085OM     OM1 2085   4.826   5.585   8.543  0.0000  0.0000  0.0000
 2086OM     OM1 2086   4.776   5.397   8.704  0.0000  0.0000  0.0000
 2087OM     OM1 2087   4.593   5.461   8.540  0.0000  0.0000  0.0000
 2088OM     OM1 2088   2.524   1.672   8.770  0.0000  0.0000  0.0000
 2089OM     OM1 2089   2.493   1.608   9.013  0.0000  0.0000  0.0000
 2090OM     OM1 2090   2.323   1.523   8.838  0.0000  0.0000  0.0000
 2091OM     OM1 2091   2.333   1.783   8.911  0.0000  0.0000  0.0000
 2092OM     OM1 2092   3.358   7.342   8.447  0.0000  0.0000  0.0000
 2093OM     OM1 2093   3.424   7.170   8.635  0.0000  0.0000  0.0000
 2094OM     OM1 2094   3.187   7.177   8.535  0.0000  0.0000  0.0000
 2095OM     OM1 2095   3.375   7.070   8.396  0.0000  0.0000  0.0000
 2096OM     OM1 2096   9.021   8.796   8.435  0.0000  0.0000  0.0000
 2097OM     OM1 2097   9.225   8.644   8.373  0.0000  0.0000  0.0000
 2098OM     OM1 2098   7.681   4.712   8.450  0.0000  0.0000  0.0000
 2099OM     OM1 2099   7.868   4.601   8.292  0.0000  0.0000  0.0000
 2100OM     OM1 2100   7.511   4.894   8.518  0.0000  0.0000  0.0000
 2101OM     OM1 2101   4.969   6.865   9.490  0.0000  0.0000  0.0000
 2102OM     OM1 2102   4.876   7.017   0.072  0.0000  0.0000  0.0000
 2103OM     OM1 2103   4.885   7.113   9.439  0.0000  0.0000  0.0000
 2104OM     OM1 2104   1.028   4.263   0.603  0.0000  0.0000  0.0000
 2105OM     OM1 2105   0.882   4.144   0.805  0.0000  0.0000  0.0000
 2106OM     OM1 2106   0.852   4.396   0.752  0.0000  0.0000  0.0000
 2107OM     OM1 2107   6.114   0.436   1.220  0.0000  0.0000  0.0000
 2108OM     OM1 2108   5.940   0.602   1.139  0.0000  0.0000  0.0000
 2109OM     OM1 2109   3.367   3.606   8.483  0.0000  0.0000  0.0000
 2110OM     OM1 2110   3.154   3.748   8.493  0.0000  0.0000  0.0000
 2111OM     OM1 2111   3.235   3.615   8.709  0.0000  0.0000  0.0000
 2112OM     OM1 2112   3.131   3.490   8.511  0.0000  0.0000  0.0000
 2113OM     OM1 2113   4.273   6.206   8.654  0.0000  0.0000  0.0000
 2114OM     OM1 2114   4.351   5.950   8.624  0.0000  0.0000  0.0000
 2115OM     OM1 2115   4.244   6.032   8.845  0.0000  0.0000  0.0000
 2116OM     OM1 2116   4.484   6.122   8.768  0.0000  0.0000  0.0000
 2117OM     OM1 2117   6.170   7.962   9.578  0.0000  0.0000  0.0000
 2118OM     OM1 2118   6.048   7.749   9.560  0.0000  0.0000  0.0000
 2119OM     OM1 2119   5.827   7.913   9.562  0.0000  0.0000  0.0000
 2120OM     OM1 2120   5.864   7.722   0.126  0.0000  0.0000  0.0000
 2121OM     OM1 2121   8.060   1.412   9.457  0.0000  0.0000  0.0000
 2122OM     OM1 2122   7.885   1.232   9.352  0.0000  0.0000  0.0000
 2123OM     OM1 2123   8.132   1.189   9.331  0.0000  0.0000  0.0000
 2124OM     OM1 2124   8.045   1.391   9.203  0.0000  0.0000  0.0000
 2125OM     OM1 2125   7.880   8.470   0.762  0.0000  0.0000  0.0000
 2126OM     OM1 2126   7.968   8.318   0.566  0.0000  0.0000  0.0000
 2127OM     OM1 2127   6.953   7.933   0.151  0.0000  0.0000  0.0000
 2128OM     OM1 2128   6.745   7.922   0.002  0.0000  0.0000  0.0000
 2129OM     OM1 2129   6.728   7.838   0.251  0.0000  0.0000  0.0000
 2130OM     OM1 2130   6.870   7.705   0.055  0.0000  0.0000  0.0000
 2131OM     OM1 2131   2.809   9.509   8.749  0.0000  0.0000  0.0000
 2132OM     OM1 2132   2.554   9.476   8.698  0.0000  0.0000  0.0000
 2133OM     OM1 2133   5.048   6.205   8.514  0.0000  0.0000  0.0000
 2134OM     OM1 2134   5.054   6.304   8.755  0.0000  0.0000  0.0000
 2135OM     OM1 2135   5.277   6.295   8.619  0.0000  0.0000  0.0000
 2136OM     OM1 2136   5.104   6.465   8.549  0.0000  0.0000  0.0000
 2137OM     OM1 2137   1.818   2.364   8.582  0.0000  0.0000  0.0000
 2138OM     OM1 2138   1.984   2.184   8.617  0.0000  0.0000  0.0000
 2139OM     OM1 2139   2.054   2.364   8.445  0.0000  0.0000  0.0000
 2140OM     OM1 2140   3.557   8.436   0.728  0.0000  0.0000  0.0000
 2141OM     OM1 2141   3.798   8.399   0.648  0.0000  0.0000  0.0000
 2142OM     OM1 2142   3.690   8.643   0.652  0.0000  0.0000  0.0000
 2143OM     OM1 2143   3.635   8.469   0.467  0.0000  0.0000  0.0000
 2144OM     OM1 2144   1.195   9.364   8.758  0.0000  0.0000  0.0000
 2145OM     OM1 2145   1.309   9.453   8.981  0.0000  0.0000  0.0000
 2146OM     OM1 2146   1.186   9.216   8.972  0.0000  0.0000  0.0000
 2147OM     OM1 2147   1.053   9.436   8.963  0.0000  0.0000  0.0000
 2148OM     OM1 2148   1.715   6.481   1.416  0.0000  0.0000  0.0000
 2149OM     OM1 2149   3.839   5.167   0.972  0.0000  0.0000  0.0000
 2150OM     OM1 2150   3.682   4.976   1.069  0.0000  0.0000  0.0000
 2151OM     OM1 2151   3.606   5.140   0.880  0.0000  0.0000  0.0000
 2152OM     OM1 2152   8.135   5.715   0.119  0.0000  0.0000  0.0000
 2153OM     OM1 2153   8.137   5.761   9.466  0.0000  0.0000  0.0000
 2154OM     OM1 2154   8.306   5.889   9.603  0.0000  0.0000  0.0000
 2155OM     OM1 2155   8.325   5.621   9.570  0.0000  0.0000  0.0000
 2156OM     OM1 2156   2.802   5.951   0.454  0.0000  0.0000  0.0000
 2157OM     OM1 2157   2.632   6.153   0.436  0.0000  0.0000  0.0000
 2158OM     OM1 2158   2.736   6.081   0.669  0.0000  0.0000  0.0000
 2159OM     OM1 2159   7.697   8.248   1.064  0.0000  0.0000  0.0000
 2160OM     OM1 2160   7.901   8.383   1.159  0.0000  0.0000  0.0000
 2161OM     OM1 2161   4.774   8.644   8.449  0.0000  0.0000  0.0000
 2162OM     OM1 2162   4.825   8.881   8.367  0.0000  0.0000  0.0000
 2163OM     OM1 2163   5.126   8.522   8.351  0.0000  0.0000  0.0000
 2164OM     OM1 2164   4.942   8.671   8.250  0.0000  0.0000  0.0000
 2165OM     OM1 2165   3.345   8.326   8.245  0.0000  0.0000  0.0000
 2166OM     OM1 2166   3.394   8.589   8.313  0.0000  0.0000  0.0000
 2167OM     OM1 2167   9.238   2.738   9.057  0.0000  0.0000  0.0000
 2168OM     OM1 2168   9.189   2.780   8.796  0.0000  0.0000  0.0000
 2169OM     OM1 2169   9.266   2.551   8.888  0.0000  0.0000  0.0000
 2170OM     OM1 2170   9.027   2.632   8.946  0.0000  0.0000  0.0000
 2171OM     OM1 2171   6.464   5.037   9.550  0.0000  0.0000  0.0000
 2172OM     OM1 2172   6.409   5.261   9.448  0.0000  0.0000  0.0000
 2173OM     OM1 2173   6.508   5.249   0.089  0.0000  0.0000  0.0000
 2174OM     OM1 2174   6.259   5.197   0.043  0.0000  0.0000  0.0000
 2175OM     OM1 2175   5.760   4.472   1.024  0.0000  0.0000  0.0000
 2176OM     OM1 2176   5.363   4.700   1.248  0.0000  0.0000  0.0000
 2177OM     OM1 2177   5.831   4.624   1.222  0.0000  0.0000  0.0000
 2178OM     OM1 2178   5.582   4.625   1.139  0.0000  0.0000  0.0000
 2179OM     OM1 2179   8.728   7.935   9.560  0.0000  0.0000  0.0000
 2180OM     OM1 2180   8.640   8.101   0.117  0.0000  0.0000  0.0000
 2181OM     OM1 2181   5.026   6.635   9.352  0.0000  0.0000  0.0000
 2182OM     OM1 2182   5.171   6.844   9.330  0.0000  0.0000  0.0000
 2183OM     OM1 2183   4.919   6.833   9.239  0.0000  0.0000  0.0000
 2184OM     OM1 2184   4.346   7.472   0.920  0.0000  0.0000  0.0000
 2185OM     OM1 2185   4.269   7.459   0.683  0.0000  0.0000  0.0000
 2186OM     OM1 2186   4.473   7.623   0.735  0.0000  0.0000  0.0000
 2187OM     OM1 2187   4.503   7.363   0.742  0.0000  0.0000  0.0000
 2188OM     OM1 2188   7.694   5.935   0.126  0.0000  0.0000  0.0000
 2189OM     OM1 2189   7.479   6.054   0.032  0.0000  0.0000  0.0000
 2190OM     OM1 2190   7.648   5.940   9.471  0.0000  0.0000  0.0000
 2191OM     OM1 2191   7.512   5.790   0.014  0.0000  0.0000  0.0000
 2192OM     OM1 2192   5.594   3.069   8.567  0.0000  0.0000  0.0000
 2193OM     OM1 2193   5.614   3.186   8.802  0.0000  0.0000  0.0000
 2194OM     OM1 2194   5.331   2.938   8.581  0.0000  0.0000  0.0000
 2195OM     OM1 2195   5.498   2.938   8.768  0.0000  0.0000  0.0000
 2196OM     OM1 2196   8.214   5.609   0.547  0.0000  0.0000  0.0000
 2197OM     OM1 2197   8.453   5.565   0.447  0.0000  0.0000  0.0000
 2198OM     OM1 2198   8.387   5.460   0.679  0.0000  0.0000  0.0000
 2199OM     OM1 2199   8.282   5.372   0.462  0.0000  0.0000  0.0000
 2200OM     OM1 2200   8.310   0.988   8.308  0.0000  0.0000  0.0000
 2201OM     OM1 2201   8.524   1.123   8.311  0.0000  0.0000  0.0000
 2202OM     OM1 2202   7.962   6.206   9.538  0.0000  0.0000  0.0000
 2203OM     OM1 2203   7.867   6.135   9.295  0.0000  0.0000  0.0000
 2204OM     OM1 2204   8.003   5.976   9.432  0.0000  0.0000  0.0000
 2205OM     OM1 2205   8.123   6.192   9.334  0.0000  0.0000  0.0000
 2206OM     OM1 2206   5.512   0.635   8.829  0.0000  0.0000  0.0000
 2207OM     OM1 2207   5.636   0.845   8.892  0.0000  0.0000  0.0000
 2208OM     OM1 2208   5.752   0.679   8.737  0.0000  0.0000  0.0000
 2209OM     OM1 2209   1.541   8.970   8.597  0.0000  0.0000  0.0000
 2210OM     OM1 2210   1.576   9.136   8.797  0.0000  0.0000  0.0000
 2211OM     OM1 2211   1.340   9.067   8.717  0.0000  0.0000  0.0000
 2212OM     OM1 2212   8.906   5.561   0.661  0.0000  0.0000  0.0000
 2213OM     OM1 2213   8.939   5.445   0.421  0.0000  0.0000  0.0000
 2214OM     OM1 2214   9.094   5.645   0.504  0.0000  0.0000  0.0000
 2215OM     OM1 2215   9.098   5.398   0.610  0.0000  0.0000  0.0000
 2216OM     OM1 2216   8.094   2.000   8.420  0.0000  0.0000  0.0000
 2217OM     OM1 2217   7.883   2.035   8.261  0.0000  0.0000  0.0000
 2218OM     OM1 2218   3.549   2.456   0.584  0.0000  0.0000  0.0000
 2219OM     OM1 2219   3.489   2.614   0.786  0.0000  0.0000  0.0000
 2220OM     OM1 2220   3.741   2.570   0.706  0.0000  0.0000  0.0000
 2221OM     OM1 2221   3.581   2.729   0.582  0.0000  0.0000  0.0000
 2222OM     OM1 2222   4.510   0.889   0.113  0.0000  0.0000  0.0000
 2223OM     OM1 2223   4.338   0.951   9.528  0.0000  0.0000  0.0000
 2224OM     OM1 2224   4.273   0.787   0.109  0.0000  0.0000  0.0000
 2225OM     OM1 2225   4.442   0.708   9.532  0.0000  0.0000  0.0000
 2226OM     OM1 2226   6.670   8.730   0.245  0.0000  0.0000  0.0000
 2227OM     OM1 2227   6.842   8.525   0.194  0.0000  0.0000  0.0000
 2228OM     OM1 2228   6.921   8.728   0.336  0.0000  0.0000  0.0000
 2229OM     OM1 2229   6.860   8.764   0.083  0.0000  0.0000  0.0000
 2230OM     OM1 2230   5.899   0.464   8.802  0.0000  0.0000  0.0000
 2231OM     OM1 2231   6.018   0.700   8.754  0.0000  0.0000  0.0000
 2232OM     OM1 2232   5.906   0.567   8.567  0.0000  0.0000  0.0000
 2233OM     OM1 2233   8.764   4.493   8.356  0.0000  0.0000  0.0000
 2234OM     OM1 2234   9.016   4.446   8.300  0.0000  0.0000  0.0000
 2235OM     OM1 2235   0.268   0.114   0.119  0.0000  0.0000  0.0000
 2236OM     OM1 2236   0.289   9.475   0.196  0.0000  0.0000  0.0000
 2237OM     OM1 2237   0.452   0.023   0.322  0.0000  0.0000  0.0000
 2238OM     OM1 2238   0.489   0.001   0.063  0.0000  0.0000  0.0000
 2239OM     OM1 2239   6.538   7.219   8.432  0.0000  0.0000  0.0000
 2240OM     OM1 2240   6.619   7.450   8.324  0.0000  0.0000  0.0000
 2241OM     OM1 2241   6.651   7.406   8.572  0.0000  0.0000  0.0000
 2242OM     OM1 2242   7.290   4.319   0.703  0.0000  0.0000  0.0000
 2243OM     OM1 2243   7.495   4.299   0.851  0.0000  0.0000  0.0000
 2244OM     OM1 2244   7.459   4.525   0.701  0.0000  0.0000  0.0000
 2245OM     OM1 2245   7.537   4.306   0.598  0.0000  0.0000  0.0000
 2246OM     OM1 2246   6.335   5.305   8.390  0.0000  0.0000  0.0000
 2247OM     OM1 2247   6.247   5.280   8.640  0.0000  0.0000  0.0000
 2248OM     OM1 2248   6.495   5.224   8.582  0.0000  0.0000  0.0000
 2249OM     OM1 2249   6.395   5.480   8.562  0.0000  0.0000  0.0000
 2250OM     OM1 2250   8.825   3.414   0.007  0.0000  0.0000  0.0000
 2251OM     OM1 2251   8.603   3.305   9.525  0.0000  0.0000  0.0000
 2252OM     OM1 2252   8.631   3.565   9.496  0.0000  0.0000  0.0000
 2253OM     OM1 2253   8.327   6.576   1.071  0.0000  0.0000  0.0000
 2254OM     OM1 2254   8.308   6.584   0.815  0.0000  0.0000  0.0000
 2255OM     OM1 2255   8.398   6.365   0.936  0.0000  0.0000  0.0000
 2256OM     OM1 2256   8.151   6.420   0.963  0.0000  0.0000  0.0000
 2257OM     OM1 2257   7.192   7.363   9.090  0.0000  0.0000  0.0000
 2258OM     OM1 2258   7.419   7.231   9.027  0.0000  0.0000  0.0000
 2259OM     OM1 2259   7.285   7.361   8.844  0.0000  0.0000  0.0000
 2260OM     OM1 2260   7.415   7.485   9.037  0.0000  0.0000  0.0000
 2261OM     OM1 2261   1.896   5.218   1.009  0.0000  0.0000  0.0000
 2262OM     OM1 2262   1.968   5.338   0.791  0.0000  0.0000  0.0000
 2263OM     OM1 2263   1.732   5.237   0.795  0.0000  0.0000  0.0000
 2264OM     OM1 2264   1.938   5.078   0.794  0.0000  0.0000  0.0000
 2265OM     OM1 2265   2.011   9.124   0.470  0.0000  0.0000  0.0000
 2266OM     OM1 2266   2.092   9.166   0.723  0.0000  0.0000  0.0000
 2267OM     OM1 2267   2.258   9.089   0.536  0.0000  0.0000  0.0000
 2268OM     OM1 2268   2.168   9.328   0.526  0.0000  0.0000  0.0000
 2269OM     OM1 2269   1.596   1.600   0.145  0.0000  0.0000  0.0000
 2270OM     OM1 2270   1.551   1.351   0.196  0.0000  0.0000  0.0000
 2271OM     OM1 2271   1.557   1.235   0.428  0.0000  0.0000  0.0000
 2272OM     OM1 2272   1.689   1.137   0.207  0.0000  0.0000  0.0000
 2273OM     OM1 2273   9.505   7.187   0.032  0.0000  0.0000  0.0000
 2274OM     OM1 2274   9.560   7.417   9.515  0.0000  0.0000  0.0000
 2275OM     OM1 2275   9.434   7.419   0.131  0.0000  0.0000  0.0000
 2276OM     OM1 2276   0.763   3.718   9.281  0.0000  0.0000  0.0000
 2277OM     OM1 2277   0.718   3.908   9.109  0.0000  0.0000  0.0000
 2278OM     OM1 2278   0.628   3.670   9.060  0.0000  0.0000  0.0000
 2279OM     OM1 2279   0.889   3.725   9.051  0.0000  0.0000  0.0000
 2280OM     OM1 2280   1.406   7.185   8.762  0.0000  0.0000  0.0000
 2281OM     OM1 2281   1.556   7.354   8.874  0.0000  0.0000  0.0000
 2282OM     OM1 2282   1.462   7.152   9.015  0.0000  0.0000  0.0000
 2283OM     OM1 2283   1.302   7.358   8.921  0.0000  0.0000  0.0000
 2284OM     OM1 2284   1.298   0.767   1.009  0.0000  0.0000  0.0000
 2285OM     OM1 2285   1.315   0.527   1.097  0.0000  0.0000  0.0000
 2286OM     OM1 2286   1.535   0.615   0.994  0.0000  0.0000  0.0000
 2287OM     OM1 2287   1.341   0.576   0.839  0.0000  0.0000  0.0000
 2288OM     OM1 2288   5.848   6.238   9.044  0.0000  0.0000  0.0000
 2289OM     OM1 2289   5.753   6.299   8.802  0.0000  0.0000  0.0000
 2290OM     OM1 2290   5.761   6.471   9.004  0.0000  0.0000  0.0000
 2291OM     OM1 2291   0.766   2.741   9.027  0.0000  0.0000  0.0000
 2292OM     OM1 2292   0.925   2.928   8.982  0.0000  0.0000  0.0000
 2293OM     OM1 2293   0.911   2.828   9.226  0.0000  0.0000  0.0000
 2294OM     OM1 2294   0.717   2.977   9.131  0.0000  0.0000  0.0000
 2295OM     OM1 2295   4.270   9.136   8.438  0.0000  0.0000  0.0000
 2296OM     OM1 2296   5.069   1.603   1.197  0.0000  0.0000  0.0000
 2297OM     OM1 2297   5.022   1.347   1.284  0.0000  0.0000  0.0000
 2298OM     OM1 2298   4.842   1.532   1.288  0.0000  0.0000  0.0000
 2299OM     OM1 2299   2.252   8.584   8.328  0.0000  0.0000  0.0000
 2300OM     OM1 2300   3.808   6.605   0.064  0.0000  0.0000  0.0000
 2301OM     OM1 2301   3.786   6.858   0.144  0.0000  0.0000  0.0000
 2302OM     OM1 2302   4.023   6.740   0.122  0.0000  0.0000  0.0000
 2303OM     OM1 2303   3.859   6.678   0.312  0.0000  0.0000  0.0000
 2304OM     OM1 2304   0.336   3.989   8.598  0.0000  0.0000  0.0000
 2305OM     OM1 2305   7.875   5.594   0.844  0.0000  0.0000  0.0000
 2306OM     OM1 2306   7.958   5.830   0.859  0.0000  0.0000  0.0000
 2307OM     OM1 2307   7.749   5.776   0.707  0.0000  0.0000  0.0000
 2308OM     OM1 2308   7.984   5.703   0.626  0.0000  0.0000  0.0000
 2309OM     OM1 2309   0.202   7.539   0.438  0.0000  0.0000  0.0000
 2310OM     OM1 2310   0.221   7.271   0.415  0.0000  0.0000  0.0000
 2311OM     OM1 2311   0.022   7.410   0.307  0.0000  0.0000  0.0000
 2312OM     OM1 2312   0.043   7.387   0.568  0.0000  0.0000  0.0000
 2313OM     OM1 2313   0.146   5.167   1.091  0.0000  0.0000  0.0000
 2314OM     OM1 2314   0.304   5.293   0.933  0.0000  0.0000  0.0000
 2315OM     OM1 2315   0.141   5.117   0.831  0.0000  0.0000  0.0000
 2316OM     OM1 2316   0.354   5.046   0.979  0.0000  0.0000  0.0000
 2317OM     OM1 2317   7.001   5.929   0.050  0.0000  0.0000  0.0000
 2318OM     OM1 2318   6.805   5.984   9.482  0.0000  0.0000  0.0000
 2319OM     OM1 2319   6.972   5.795   9.433  0.0000  0.0000  0.0000
 2320OM     OM1 2320   6.793   5.770   0.018  0.0000  0.0000  0.0000
 2321OM     OM1 2321   2.673   0.467   0.110  0.0000  0.0000  0.0000
 2322OM     OM1 2322   2.585   0.488   0.358  0.0000  0.0000  0.0000
 2323OM     OM1 2323   2.701   0.274   0.290  0.0000  0.0000  0.0000
 2324OM     OM1 2324   3.588   8.330   1.426  0.0000  0.0000  0.0000
 2325OM     OM1 2325   3.702   8.463   1.241  0.0000  0.0000  0.0000
 2326OM     OM1 2326   2.840   8.895   0.865  0.0000  0.0000  0.0000
 2327OM     OM1 2327   2.672   8.975   1.058  0.0000  0.0000  0.0000
 2328OM     OM1 2328   2.859   8.809   1.116  0.0000  0.0000  0.0000
 2329OM     OM1 2329   2.925   9.051   1.047  0.0000  0.0000  0.0000
 2330OM     OM1 2330   0.219   7.358   8.459  0.0000  0.0000  0.0000
 2331OM     OM1 2331   0.318   7.154   8.571  0.0000  0.0000  0.0000
 2332OM     OM1 2332   0.420   7.470   8.343  0.0000  0.0000  0.0000
 2333OM     OM1 2333   2.557   7.031   0.279  0.0000  0.0000  0.0000
 2334OM     OM1 2334   2.522   7.282   0.248  0.0000  0.0000  0.0000
 2335OM     OM1 2335   2.364   7.146   0.409  0.0000  0.0000  0.0000
 2336OM     OM1 2336   2.611   7.194   0.481  0.0000  0.0000  0.0000
 2337OM     OM1 2337   8.532   1.961   0.496  0.0000  0.0000  0.0000
 2338OM     OM1 2338   8.970   1.752   0.373  0.0000  0.0000  0.0000
 2339OM     OM1 2339   8.603   1.832   0.705  0.0000  0.0000  0.0000
 2340OM     OM1 2340   8.779   1.831   0.514  0.0000  0.0000  0.0000
 2341OM     OM1 2341   8.927   4.758   8.997  0.0000  0.0000  0.0000
 2342OM     OM1 2342   8.828   4.554   8.595  0.0000  0.0000  0.0000
 2343OM     OM1 2343   8.973   4.726   8.742  0.0000  0.0000  0.0000
 2344OM     OM1 2344   1.255   4.479   9.354  0.0000  0.0000  0.0000
 2345OM     OM1 2345   1.126   4.502   9.583  0.0000  0.0000  0.0000
 2346OM     OM1 2346   1.111   4.699   9.426  0.0000  0.0000  0.0000
 2347OM     OM1 2347   1.337   4.655   9.525  0.0000  0.0000  0.0000
 2348OM     OM1 2348   4.940   6.030   8.656  0.0000  0.0000  0.0000
 2349OM     OM1 2349   5.103   5.959   8.454  0.0000  0.0000  0.0000
 2350OM     OM1 2350   4.229   9.048   0.816  0.0000  0.0000  0.0000
 2351OM     OM1 2351   4.009   9.002   0.671  0.0000  0.0000  0.0000
 2352OM     OM1 2352   4.208   9.298   0.862  0.0000  0.0000  0.0000
 2353OM     OM1 2353   4.209   9.143   0.579  0.0000  0.0000  0.0000
 2354OM     OM1 2354   6.927   3.623   0.729  0.0000  0.0000  0.0000
 2355OM     OM1 2355   7.110   3.769   0.631  0.0000  0.0000  0.0000
 2356OM     OM1 2356   6.880   3.746   0.498  0.0000  0.0000  0.0000
 2357OM     OM1 2357   7.054   3.545   0.516  0.0000  0.0000  0.0000
 2358OM     OM1 2358   9.593   3.278   9.281  0.0000  0.0000  0.0000
 2359OM     OM1 2359   0.136   3.486   9.185  0.0000  0.0000  0.0000
 2360OM     OM1 2360   9.521   3.410   9.070  0.0000  0.0000  0.0000
 2361OM     OM1 2361   9.505   3.530   9.295  0.0000  0.0000  0.0000
 2362OM     OM1 2362   0.548   5.386   0.937  0.0000  0.0000  0.0000
 2363OM     OM1 2363   0.774   5.251   0.959  0.0000  0.0000  0.0000
 2364OM     OM1 2364   0.722   5.418   0.752  0.0000  0.0000  0.0000
 2365OM     OM1 2365   0.776   5.504   0.994  0.0000  0.0000  0.0000
 2366OM     OM1 2366   0.240   5.557   0.585  0.0000  0.0000  0.0000
 2367OM     OM1 2367   0.097   5.560   0.814  0.0000  0.0000  0.0000
 2368OM     OM1 2368   0.255   5.755   0.750  0.0000  0.0000  0.0000
 2369OM     OM1 2369   0.352   5.520   0.819  0.0000  0.0000  0.0000
 2370OM     OM1 2370   1.233   0.834   9.543  0.0000  0.0000  0.0000
 2371OM     OM1 2371   1.371   1.054   9.462  0.0000  0.0000  0.0000
 2372OM     OM1 2372   1.113   1.049   9.445  0.0000  0.0000  0.0000
 2373OM     OM1 2373   1.238   1.044   0.076  0.0000  0.0000  0.0000
 2374OM     OM1 2374   4.219   0.485   0.415  0.0000  0.0000  0.0000
 2375OM     OM1 2375   4.358   0.440   0.201  0.0000  0.0000  0.0000
 2376OM     OM1 2376   4.121   0.324   0.218  0.0000  0.0000  0.0000
 2377OM     OM1 2377   4.138   0.585   0.200  0.0000  0.0000  0.0000
 2378OM     OM1 2378   4.382   5.794   0.019  0.0000  0.0000  0.0000
 2379OM     OM1 2379   4.292   5.945   9.416  0.0000  0.0000  0.0000
 2380OM     OM1 2380   4.417   6.049   0.005  0.0000  0.0000  0.0000
 2381OM     OM1 2381   4.547   5.888   9.446  0.0000  0.0000  0.0000
 2382OM     OM1 2382   0.564   8.232   1.055  0.0000  0.0000  0.0000
 2383OM     OM1 2383   0.303   8.234   1.051  0.0000  0.0000  0.0000
 2384OM     OM1 2384   0.437   8.066   0.904  0.0000  0.0000  0.0000
 2385OM     OM1 2385   0.440   8.316   0.840  0.0000  0.0000  0.0000
 2386OM     OM1 2386   1.226   5.976   8.923  0.0000  0.0000  0.0000
 2387OM     OM1 2387   1.061   6.165   9.018  0.0000  0.0000  0.0000
 2388OM     OM1 2388   1.133   6.157   8.765  0.0000  0.0000  0.0000
 2389OM     OM1 2389   0.975   5.972   8.863  0.0000  0.0000  0.0000
 2390OM     OM1 2390   0.802   0.780   0.212  0.0000  0.0000  0.0000
 2391OM     OM1 2391   0.842   0.976   0.055  0.0000  0.0000  0.0000
 2392OM     OM1 2392   0.802   0.726   9.564  0.0000  0.0000  0.0000
 2393OM     OM1 2393   1.026   0.793   0.085  0.0000  0.0000  0.0000
 2394OM     OM1 2394   4.574   5.875   0.162  0.0000  0.0000  0.0000
 2395OM     OM1 2395   4.529   5.615   0.145  0.0000  0.0000  0.0000
 2396OM     OM1 2396   4.375   5.777   0.285  0.0000  0.0000  0.0000
 2397OM     OM1 2397   4.554   5.358   0.217  0.0000  0.0000  0.0000
 2398OM     OM1 2398   1.096   8.792   0.503  0.0000  0.0000  0.0000
 2399OM     OM1 2399   0.932   8.937   0.379  0.0000  0.0000  0.0000
 2400OM     OM1 2400   1.168   9.035   0.414  0.0000  0.0000  0.0000
 2401OM     OM1 2401   1.072   8.564   0.389  0.0000  0.0000  0.0000
 2402OM     OM1 2402   4.055   7.675   9.359  0.0000  0.0000  0.0000
 2403OM     OM1 2403   4.009   7.649   0.017  0.0000  0.0000  0.0000
 2404OM     OM1 2404   3.974   7.874   9.499  0.0000  0.0000  0.0000
 2405OM     OM1 2405   3.812   7.675   9.444  0.0000  0.0000  0.0000
 2406OM     OM1 2406   2.978   1.274   0.813  0.0000  0.0000  0.0000
 2407OM     OM1 2407   3.053   1.518   0.784  0.0000  0.0000  0.0000
 2408OM     OM1 2408   2.811   1.461   0.825  0.0000  0.0000  0.0000
 2409OM     OM1 2409   2.996   1.417   1.025  0.0000  0.0000  0.0000
 2410OM     OM1 2410   4.996   7.306   9.065  0.0000  0.0000  0.0000
 2411OM     OM1 2411   4.967   7.332   9.326  0.0000  0.0000  0.0000
 2412OM     OM1 2412   5.184   7.224   9.218  0.0000  0.0000  0.0000
 2413OM     OM1 2413   6.529   3.014   0.108  0.0000  0.0000  0.0000
 2414OM     OM1 2414   6.766   3.093   0.147  0.0000  0.0000  0.0000
 2415OM     OM1 2415   6.711   2.825   0.146  0.0000  0.0000  0.0000
 2416OM     OM1 2416   6.705   2.964   9.531  0.0000  0.0000  0.0000
 2417OM     OM1 2417   3.093   6.976   0.938  0.0000  0.0000  0.0000
 2418OM     OM1 2418   3.009   6.816   1.136  0.0000  0.0000  0.0000
 2419OM     OM1 2419   3.187   7.003   1.180  0.0000  0.0000  0.0000
 2420OM     OM1 2420   2.941   7.063   1.147  0.0000  0.0000  0.0000
 2421OM     OM1 2421   4.346   3.997   1.112  0.0000  0.0000  0.0000
 2422OM     OM1 2422   4.100   4.019   1.042  0.0000  0.0000  0.0000
 2423OM     OM1 2423   4.268   3.914   0.870  0.0000  0.0000  0.0000
 2424OM     OM1 2424   4.290   4.169   0.927  0.0000  0.0000  0.0000
 2425OM     OM1 2425   0.594   0.439   9.003  0.0000  0.0000  0.0000
 2426OM     OM1 2426   0.851   0.428   8.959  0.0000  0.0000  0.0000
 2427OM     OM1 2427   0.684   0.257   8.855  0.0000  0.0000  0.0000
 2428OM     OM1 2428   0.686   0.500   8.762  0.0000  0.0000  0.0000
 2429OM     OM1 2429   8.244   3.766   8.271  0.0000  0.0000  0.0000
 2430OM     OM1 2430   8.428   3.583   8.280  0.0000  0.0000  0.0000
 2431OM     OM1 2431   8.808   7.014   8.240  0.0000  0.0000  0.0000
 2432OM     OM1 2432   9.140   7.353   8.301  0.0000  0.0000  0.0000
 2433OM     OM1 2433   9.044   7.131   8.221  0.0000  0.0000  0.0000
 2434OM     OM1 2434   2.564   5.895   0.051  0.0000  0.0000  0.0000
 2435OM     OM1 2435   2.501   6.101   0.216  0.0000  0.0000  0.0000
 2436OM     OM1 2436   2.599   6.145   9.588  0.0000  0.0000  0.0000
 2437OM     OM1 2437   2.364   6.050   9.597  0.0000  0.0000  0.0000
 2438OM     OM1 2438   4.093   3.115   9.496  0.0000  0.0000  0.0000
 2439OM     OM1 2439   4.118   3.025   0.137  0.0000  0.0000  0.0000
 2440OM     OM1 2440   3.891   2.990   0.028  0.0000  0.0000  0.0000
 2441OM     OM1 2441   4.117   2.864   9.557  0.0000  0.0000  0.0000
 2442OM     OM1 2442   2.329   2.731   1.116  0.0000  0.0000  0.0000
 2443OM     OM1 2443   2.178   2.925   1.212  0.0000  0.0000  0.0000
 2444OM     OM1 2444   2.158   2.827   0.957  0.0000  0.0000  0.0000
 2445OM     OM1 2445   2.067   2.699   1.161  0.0000  0.0000  0.0000
 2446OM     OM1 2446   2.586   5.462   0.888  0.0000  0.0000  0.0000
 2447OM     OM1 2447   2.624   5.667   0.723  0.0000  0.0000  0.0000
 2448OM     OM1 2448   2.422   5.511   0.690  0.0000  0.0000  0.0000
 2449OM     OM1 2449   2.429   5.673   0.894  0.0000  0.0000  0.0000
 2450OM     OM1 2450   1.720   3.170   1.119  0.0000  0.0000  0.0000
 2451OM     OM1 2451   1.506   3.280   1.225  0.0000  0.0000  0.0000
 2452OM     OM1 2452   1.726   3.429   1.187  0.0000  0.0000  0.0000
 2453OM     OM1 2453   8.218   0.197   1.064  0.0000  0.0000  0.0000
 2454OM     OM1 2454   8.312   0.401   0.916  0.0000  0.0000  0.0000
 2455OM     OM1 2455   8.454   0.309   1.112  0.0000  0.0000  0.0000
 2456OM     OM1 2456   0.630   0.892   8.289  0.0000  0.0000  0.0000
 2457OM     OM1 2457   0.672   0.636   8.277  0.0000  0.0000  0.0000
 2458OM     OM1 2458   4.035   4.514   8.915  0.0000  0.0000  0.0000
 2459OM     OM1 2459   4.170   4.728   9.000  0.0000  0.0000  0.0000
 2460OM     OM1 2460   4.239   4.598   8.783  0.0000  0.0000  0.0000
 2461OM     OM1 2461   4.274   4.487   9.016  0.0000  0.0000  0.0000
 2462OM     OM1 2462   3.850   3.655   1.300  0.0000  0.0000  0.0000
 2463OM     OM1 2463   3.662   3.479   1.307  0.0000  0.0000  0.0000
 2464OM     OM1 2464   0.175   6.868   0.726  0.0000  0.0000  0.0000
 2465OM     OM1 2465   0.158   6.683   0.913  0.0000  0.0000  0.0000
 2466OM     OM1 2466   0.012   6.661   0.708  0.0000  0.0000  0.0000
 2467OM     OM1 2467   9.576   6.865   0.880  0.0000  0.0000  0.0000
 2468OM     OM1 2468   6.723   5.784   8.704  0.0000  0.0000  0.0000
 2469OM     OM1 2469   6.731   5.858   8.466  0.0000  0.0000  0.0000
 2470OM     OM1 2470   6.777   5.600   8.538  0.0000  0.0000  0.0000
 2471OM     OM1 2471   6.540   5.693   8.518  0.0000  0.0000  0.0000
 2472OM     OM1 2472   4.437   2.349   8.766  0.0000  0.0000  0.0000
 2473OM     OM1 2473   4.253   2.458   8.611  0.0000  0.0000  0.0000
 2474OM     OM1 2474   4.393   2.600   8.793  0.0000  0.0000  0.0000
 2475OM     OM1 2475   4.494   2.513   8.568  0.0000  0.0000  0.0000
 2476OM     OM1 2476   9.458   0.529   0.355  0.0000  0.0000  0.0000
 2477OM     OM1 2477   9.224   0.481   0.444  0.0000  0.0000  0.0000
 2478OM     OM1 2478   9.252   0.594   0.205  0.0000  0.0000  0.0000
 2479OM     OM1 2479   9.339   0.574   0.653  0.0000  0.0000  0.0000
 2480OM     OM1 2480   7.333   1.062   9.173  0.0000  0.0000  0.0000
 2481OM     OM1 2481   7.279   1.317   9.256  0.0000  0.0000  0.0000
 2482OM     OM1 2482   7.413   1.168   9.399  0.0000  0.0000  0.0000
 2483OM     OM1 2483   5.175   2.770   1.149  0.0000  0.0000  0.0000
 2484OM     OM1 2484   5.061   3.000   1.155  0.0000  0.0000  0.0000
 2485OM     OM1 2485   4.922   2.789   1.085  0.0000  0.0000  0.0000
 2486OM     OM1 2486   0.062   8.752   9.338  0.0000  0.0000  0.0000
 2487OM     OM1 2487   0.172   8.958   9.222  0.0000  0.0000  0.0000
 2488OM     OM1 2488   0.014   8.818   9.080  0.0000  0.0000  0.0000
 2489OM     OM1 2489   9.506   8.948   9.267  0.0000  0.0000  0.0000
 2490OM     OM1 2490   3.297   3.396   0.853  0.0000  0.0000  0.0000
 2491OM     OM1 2491   3.469   2.961   0.635  0.0000  0.0000  0.0000
 2492OM     OM1 2492   3.401   3.199   0.708  0.0000  0.0000  0.0000
 2493OM     OM1 2493   0.910   5.799   8.408  0.0000  0.0000  0.0000
 2494OM     OM1 2494   1.037   5.831   8.188  0.0000  0.0000  0.0000
 2495OM     OM1 2495   1.014   6.036   8.352  0.0000  0.0000  0.0000
 2496OM     OM1 2496   6.341   2.765   8.611  0.0000  0.0000  0.0000
 2497OM     OM1 2497   6.483   2.966   8.530  0.0000  0.0000  0.0000
 2498OM     OM1 2498   6.247   2.905   8.403  0.0000  0.0000  0.0000
 2499OM     OM1 2499   6.471   2.766   8.385  0.0000  0.0000  0.0000
 2500OM     OM1 2500   6.031   8.430   1.377  0.0000  0.0000  0.0000
 2501OM     OM1 2501   5.825   8.489   1.232  0.0000  0.0000  0.0000
 2502OM     OM1 2502   5.755   0.570   9.596  0.0000  0.0000  0.0000
 2503OM     OM1 2503   5.879   0.621   0.212  0.0000  0.0000  0.0000
 2504OM     OM1 2504   5.959   0.420   0.051  0.0000  0.0000  0.0000
 2505OM     OM1 2505   6.602   8.572   1.054  0.0000  0.0000  0.0000
 2506OM     OM1 2506   6.369   8.671   1.151  0.0000  0.0000  0.0000
 2507OM     OM1 2507   6.666   8.324   1.042  0.0000  0.0000  0.0000
 2508OM     OM1 2508   6.298   6.596   9.223  0.0000  0.0000  0.0000
 2509OM     OM1 2509   6.303   6.331   9.173  0.0000  0.0000  0.0000
 2510OM     OM1 2510   6.338   6.436   9.417  0.0000  0.0000  0.0000
 2511OM     OM1 2511   6.105   6.445   9.298  0.0000  0.0000  0.0000
 2512OM     OM1 2512   9.417   8.282   0.799  0.0000  0.0000  0.0000
 2513OM     OM1 2513   9.332   8.511   0.881  0.0000  0.0000  0.0000
 2514OM     OM1 2514   9.358   8.487   0.625  0.0000  0.0000  0.0000
 2515OM     OM1 2515   9.574   8.488   0.766  0.0000  0.0000  0.0000
 2516OM     OM1 2516   1.377   1.825   8.584  0.0000  0.0000  0.0000
 2517OM     OM1 2517   1.211   1.828   8.377  0.0000  0.0000  0.0000
 2518OM     OM1 2518   1.442   1.932   8.354  0.0000  0.0000  0.0000
 2519OM     OM1 2519   1.261   2.053   8.498  0.0000  0.0000  0.0000
 2520OM     OM1 2520   8.623   3.189   8.938  0.0000  0.0000  0.0000
 2521OM     OM1 2521   8.497   3.212   9.167  0.0000  0.0000  0.0000
 2522OM     OM1 2522   8.632   3.414   9.069  0.0000  0.0000  0.0000
 2523OM     OM1 2523   8.757   3.221   9.168  0.0000  0.0000  0.0000
 2524OM     OM1 2524   8.944   1.449   0.669  0.0000  0.0000  0.0000
 2525OM     OM1 2525   8.955   1.366   0.403  0.0000  0.0000  0.0000
 2526OM     OM1 2526   9.055   1.233   0.615  0.0000  0.0000  0.0000
 2527OM     OM1 2527   9.164   1.453   0.530  0.0000  0.0000  0.0000
 2528OM     OM1 2528   0.501   8.409   0.364  0.0000  0.0000  0.0000
 2529OM     OM1 2529   0.308   8.576   0.350  0.0000  0.0000  0.0000
 2530OM     OM1 2530   0.397   8.468   0.135  0.0000  0.0000  0.0000
 2531OM     OM1 2531   0.247   8.331   0.301  0.0000  0.0000  0.0000
 2532OM     OM1 2532   3.426   8.477   0.324  0.0000  0.0000  0.0000
 2533OM     OM1 2533   3.191   8.429   0.436  0.0000  0.0000  0.0000
 2534OM     OM1 2534   3.247   8.660   0.318  0.0000  0.0000  0.0000
 2535OM     OM1 2535   3.220   8.439   0.175  0.0000  0.0000  0.0000
 2536OM     OM1 2536   6.909   5.965   8.762  0.0000  0.0000  0.0000
 2537OM     OM1 2537   6.973   5.720   8.751  0.0000  0.0000  0.0000
 2538OM     OM1 2538   6.821   5.796   8.946  0.0000  0.0000  0.0000
 2539OM     OM1 2539   2.869   8.563   1.048  0.0000  0.0000  0.0000
 2540OM     OM1 2540   2.812   8.607   1.289  0.0000  0.0000  0.0000
 2541OM     OM1 2541   3.058   8.670   1.200  0.0000  0.0000  0.0000
 2542OM     OM1 2542   7.217   0.889   0.693  0.0000  0.0000  0.0000
 2543OM     OM1 2543   7.013   0.864   0.845  0.0000  0.0000  0.0000
 2544OM     OM1 2544   7.259   0.779   0.926  0.0000  0.0000  0.0000
 2545OM     OM1 2545   6.571   2.568   9.036  0.0000  0.0000  0.0000
 2546OM     OM1 2546   6.724   2.389   9.132  0.0000  0.0000  0.0000
 2547OM     OM1 2547   6.558   2.329   8.941  0.0000  0.0000  0.0000
 2548OM     OM1 2548   6.459   2.359   9.171  0.0000  0.0000  0.0000
 2549OM     OM1 2549   2.028   3.307   0.459  0.0000  0.0000  0.0000
 2550OM     OM1 2550   1.856   3.417   0.601  0.0000  0.0000  0.0000
 2551OM     OM1 2551   2.113   3.465   0.647  0.0000  0.0000  0.0000
 2552OM     OM1 2552   1.995   3.242   0.724  0.0000  0.0000  0.0000
 2553OM     OM1 2553   2.282   7.096   0.874  0.0000  0.0000  0.0000
 2554OM     OM1 2554   2.480   7.188   1.043  0.0000  0.0000  0.0000
 2555OM     OM1 2555   2.237   7.253   1.077  0.0000  0.0000  0.0000
 2556OM     OM1 2556   2.362   7.344   0.871  0.0000  0.0000  0.0000
 2557OM     OM1 2557   2.101   6.077   8.281  0.0000  0.0000  0.0000
 2558OM     OM1 2558   2.285   5.766   8.470  0.0000  0.0000  0.0000
 2559OM     OM1 2559   2.503   5.840   8.343  0.0000  0.0000  0.0000
 2560OM     OM1 2560   2.263   5.874   8.236  0.0000  0.0000  0.0000
 2561OM     OM1 2561   1.182   1.231   8.976  0.0000  0.0000  0.0000
 2562OM     OM1 2562   1.320   1.077   9.130  0.0000  0.0000  0.0000
 2563OM     OM1 2563   1.120   1.207   9.237  0.0000  0.0000  0.0000
 2564OM     OM1 2564   8.540   0.642   9.302  0.0000  0.0000  0.0000
 2565OM     OM1 2565   8.675   0.506   9.488  0.0000  0.0000  0.0000
 2566OM     OM1 2566   8.417   0.492   9.486  0.0000  0.0000  0.0000
 2567OM     OM1 2567   3.425   8.993   1.000  0.0000  0.0000  0.0000
 2568OM     OM1 2568   3.482   8.953   1.252  0.0000  0.0000  0.0000
 2569OM     OM1 2569   3.564   9.172   1.128  0.0000  0.0000  0.0000
 2570OM     OM1 2570   3.669   8.939   1.072  0.0000  0.0000  0.0000
 2571OM     OM1 2571   1.106   9.266   0.321  0.0000  0.0000  0.0000
 2572OM     OM1 2572   1.224   9.087   0.168  0.0000  0.0000  0.0000
 2573OM     OM1 2573   1.174   8.871   0.019  0.0000  0.0000  0.0000
 2574OM     OM1 2574   4.540   4.800   0.030  0.0000  0.0000  0.0000
 2575OM     OM1 2575   4.746   4.674   0.120  0.0000  0.0000  0.0000
 2576OM     OM1 2576   4.680   4.652   9.468  0.0000  0.0000  0.0000
 2577OM     OM1 2577   4.541   4.538   0.049  0.0000  0.0000  0.0000
 2578OM     OM1 2578   8.155   4.542   9.445  0.0000  0.0000  0.0000
 2579OM     OM1 2579   8.411   4.494   9.488  0.0000  0.0000  0.0000
 2580OM     OM1 2580   8.288   4.645   0.052  0.0000  0.0000  0.0000
 2581OM     OM1 2581   9.289   2.309   8.471  0.0000  0.0000  0.0000
 2582OM     OM1 2582   9.551   2.338   8.428  0.0000  0.0000  0.0000
 2583OM     OM1 2583   7.972   3.179   0.954  0.0000  0.0000  0.0000
 2584OM     OM1 2584   7.808   3.562   1.239  0.0000  0.0000  0.0000
 2585OM     OM1 2585   7.901   3.414   1.051  0.0000  0.0000  0.0000
 2586OM     OM1 2586   7.985   3.668   1.070  0.0000  0.0000  0.0000
 2587OM     OM1 2587   1.725   2.693   8.275  0.0000  0.0000  0.0000
 2588OM     OM1 2588   1.914   2.632   8.448  0.0000  0.0000  0.0000
 2589OM     OM1 2589   4.825   4.073   1.203  0.0000  0.0000  0.0000
 2590OM     OM1 2590   4.632   4.239   1.122  0.0000  0.0000  0.0000
 2591OM     OM1 2591   4.570   4.027   1.251  0.0000  0.0000  0.0000
 2592OM     OM1 2592   1.761   0.405   8.787  0.0000  0.0000  0.0000
 2593OM     OM1 2593   1.773   0.143   8.734  0.0000  0.0000  0.0000
 2594OM     OM1 2594   1.546   0.245   8.791  0.0000  0.0000  0.0000
 2595OM     OM1 2595   4.899   9.048   8.566  0.0000  0.0000  0.0000
 2596OM     OM1 2596   5.026   9.222   8.716  0.0000  0.0000  0.0000
 2597OM     OM1 2597   5.020   8.973   8.783  0.0000  0.0000  0.0000
 2598OM     OM1 2598   5.233   4.749   0.126  0.0000  0.0000  0.0000
 2599OM     OM1 2599   5.058   4.933   0.078  0.0000  0.0000  0.0000
 2600OM     OM1 2600   4.982   4.726   0.209  0.0000  0.0000  0.0000
 2601OM     OM1 2601   5.034   4.699   9.560  0.0000  0.0000  0.0000
 2602OM     OM1 2602   5.269   5.771   8.363  0.0000  0.0000  0.0000
 2603OM     OM1 2603   5.072   5.615   8.426  0.0000  0.0000  0.0000
 2604OM     OM1 2604   7.073   1.566   8.322  0.0000  0.0000  0.0000
 2605OM     OM1 2605   6.852   1.655   8.210  0.0000  0.0000  0.0000
 2606OM     OM1 2606   3.088   7.838   0.878  0.0000  0.0000  0.0000
 2607OM     OM1 2607   3.002   7.601   0.889  0.0000  0.0000  0.0000
 2608OM     OM1 2608   3.302   7.820   0.744  0.0000  0.0000  0.0000
 2609OM     OM1 2609   3.109   7.966   0.637  0.0000  0.0000  0.0000
 2610OM     OM1 2610   7.397   5.794   0.467  0.0000  0.0000  0.0000
 2611OM     OM1 2611   7.202   5.669   0.380  0.0000  0.0000  0.0000
 2612OM     OM1 2612   7.406   5.686   0.219  0.0000  0.0000  0.0000
 2613OM     OM1 2613   0.156   1.217   9.467  0.0000  0.0000  0.0000
 2614OM     OM1 2614   0.394   1.107   9.440  0.0000  0.0000  0.0000
 2615OM     OM1 2615   0.186   0.976   9.558  0.0000  0.0000  0.0000
 2616OM     OM1 2616   9.366   9.217   0.866  0.0000  0.0000  0.0000
 2617OM     OM1 2617   9.285   9.414   1.007  0.0000  0.0000  0.0000
 2618OM     OM1 2618   9.536   9.404   0.905  0.0000  0.0000  0.0000
 2619OM     OM1 2619   8.544   7.391   0.911  0.0000  0.0000  0.0000
 2620OM     OM1 2620   8.459   7.444   1.154  0.0000  0.0000  0.0000
 2621OM     OM1 2621   8.470   7.628   0.973  0.0000  0.0000  0.0000
 2622OM     OM1 2622   8.694   7.538   1.075  0.0000  0.0000  0.0000
 2623OM     OM1 2623   6.161   6.643   8.328  0.0000  0.0000  0.0000
 2624OM     OM1 2624   6.030   6.464   8.204  0.0000  0.0000  0.0000
 2625OM     OM1 2625   0.393   9.274   0.308  0.0000  0.0000  0.0000
 2626OM     OM1 2626   0.765   9.022   0.210  0.0000  0.0000  0.0000
 2627OM     OM1 2627   0.612   9.221   0.173  0.0000  0.0000  0.0000
 2628OM     OM1 2628   0.806   9.171   0.000  0.0000  0.0000  0.0000
 2629OM     OM1 2629   6.118   2.656   8.579  0.0000  0.0000  0.0000
 2630OM     OM1 2630   6.295   2.515   8.710  0.0000  0.0000  0.0000
 2631OM     OM1 2631   6.183   2.710   8.822  0.0000  0.0000  0.0000
 2632OM     OM1 2632   4.802   1.424   0.911  0.0000  0.0000  0.0000
 2633OM     OM1 2633   4.871   1.251   1.103  0.0000  0.0000  0.0000
 2634OM     OM1 2634   4.627   1.327   1.085  0.0000  0.0000  0.0000
 2635OM     OM1 2635   4.731   1.181   0.889  0.0000  0.0000  0.0000
 2636OM     OM1 2636   7.068   1.206   0.600  0.0000  0.0000  0.0000
 2637OM     OM1 2637   6.813   1.249   0.544  0.0000  0.0000  0.0000
 2638OM     OM1 2638   6.884   1.077   0.735  0.0000  0.0000  0.0000
 2639OM     OM1 2639   6.914   1.342   0.761  0.0000  0.0000  0.0000
 2640OM     OM1 2640   3.310   0.469   0.878  0.0000  0.0000  0.0000
 2641OM     OM1 2641   3.062   0.560   0.950  0.0000  0.0000  0.0000
 2642OM     OM1 2642   3.166   0.633   0.732  0.0000  0.0000  0.0000
 2643OM     OM1 2643   3.271   0.714   0.961  0.0000  0.0000  0.0000
 2644OM     OM1 2644   0.108   5.133   0.062  0.0000  0.0000  0.0000
 2645OM     OM1 2645   0.056   5.375   0.002  0.0000  0.0000  0.0000
 2646OM     OM1 2646   0.286   5.261   9.529  0.0000  0.0000  0.0000
 2647OM     OM1 2647   3.981   5.084   8.736  0.0000  0.0000  0.0000
 2648OM     OM1 2648   3.895   5.305   8.636  0.0000  0.0000  0.0000
 2649OM     OM1 2649   3.868   5.480   8.824  0.0000  0.0000  0.0000
 2650OM     OM1 2650   4.151   5.263   8.646  0.0000  0.0000  0.0000
 2651OM     OM1 2651   5.665   3.317   8.131  0.0000  0.0000  0.0000
 2652OM     OM1 2652   5.438   3.197   8.173  0.0000  0.0000  0.0000
 2653OM     OM1 2653   5.651   3.147   8.321  0.0000  0.0000  0.0000
 2654OM     OM1 2654   4.350   7.839   0.291  0.0000  0.0000  0.0000
 2655OM     OM1 2655   4.504   7.644   0.215  0.0000  0.0000  0.0000
 2656OM     OM1 2656   4.248   7.672   0.127  0.0000  0.0000  0.0000
 2657OM     OM1 2657   4.447   7.831   0.050  0.0000  0.0000  0.0000
 2658OM     OM1 2658   4.971   8.322   0.180  0.0000  0.0000  0.0000
 2659OM     OM1 2659   5.014   8.555   0.044  0.0000  0.0000  0.0000
 2660OM     OM1 2660   7.011   9.153   0.256  0.0000  0.0000  0.0000
 2661OM     OM1 2661   6.986   8.988   0.061  0.0000  0.0000  0.0000
 2662OM     OM1 2662   7.081   9.226   0.008  0.0000  0.0000  0.0000
 2663OM     OM1 2663   6.831   9.186   0.057  0.0000  0.0000  0.0000
 2664OM     OM1 2664   7.169   8.333   9.194  0.0000  0.0000  0.0000
 2665OM     OM1 2665   7.186   8.486   9.402  0.0000  0.0000  0.0000
 2666OM     OM1 2666   0.244   4.590   8.496  0.0000  0.0000  0.0000
 2667OM     OM1 2667   0.171   4.339   8.456  0.0000  0.0000  0.0000
 2668OM     OM1 2668   6.385   6.741   9.029  0.0000  0.0000  0.0000
 2669OM     OM1 2669   6.645   6.746   9.083  0.0000  0.0000  0.0000
 2670OM     OM1 2670   6.529   6.527   9.032  0.0000  0.0000  0.0000
 2671OM     OM1 2671   6.589   6.703   8.842  0.0000  0.0000  0.0000
 2672OM     OM1 2672   0.372   1.432   0.578  0.0000  0.0000  0.0000
 2673OM     OM1 2673   0.595   1.528   0.688  0.0000  0.0000  0.0000
 2674OM     OM1 2674   0.596   1.297   0.573  0.0000  0.0000  0.0000
 2675OM     OM1 2675   0.561   1.524   0.430  0.0000  0.0000  0.0000
 2676OM     OM1 2676   2.694   3.351   9.088  0.0000  0.0000  0.0000
 2677OM     OM1 2677   2.443   3.361   9.167  0.0000  0.0000  0.0000
 2678OM     OM1 2678   2.561   3.127   9.123  0.0000  0.0000  0.0000
 2679OM     OM1 2679   2.633   3.263   9.329  0.0000  0.0000  0.0000
 2680OM     OM1 2680   7.910   0.971   9.310  0.0000  0.0000  0.0000
 2681OM     OM1 2681   7.939   0.759   9.452  0.0000  0.0000  0.0000
 2682OM     OM1 2682   7.896   0.735   9.192  0.0000  0.0000  0.0000
 2683OM     OM1 2683   7.784   0.496   9.147  0.0000  0.0000  0.0000
 2684OM     OM1 2684   5.127   5.663   1.155  0.0000  0.0000  0.0000
 2685OM     OM1 2685   4.907   5.592   1.011  0.0000  0.0000  0.0000
 2686OM     OM1 2686   5.033   5.837   1.008  0.0000  0.0000  0.0000
 2687OM     OM1 2687   5.129   5.625   0.892  0.0000  0.0000  0.0000
 2688OM     OM1 2688   5.881   3.420   8.577  0.0000  0.0000  0.0000
 2689OM     OM1 2689   5.630   3.453   8.588  0.0000  0.0000  0.0000
 2690OM     OM1 2690   5.762   3.412   8.350  0.0000  0.0000  0.0000
 2691OM     OM1 2691   5.771   3.634   8.462  0.0000  0.0000  0.0000
 2692OM     OM1 2692   4.449   5.179   0.686  0.0000  0.0000  0.0000
 2693OM     OM1 2693   4.530   4.942   0.748  0.0000  0.0000  0.0000
 2694OM     OM1 2694   4.316   5.041   0.864  0.0000  0.0000  0.0000
 2695OM     OM1 2695   4.305   4.965   0.619  0.0000  0.0000  0.0000
 2696OM     OM1 2696   0.826   2.632   1.024  0.0000  0.0000  0.0000
 2697OM     OM1 2697   0.576   2.689   1.116  0.0000  0.0000  0.0000
 2698OM     OM1 2698   0.685   2.463   1.145  0.0000  0.0000  0.0000
 2699OM     OM1 2699   8.120   2.984   1.054  0.0000  0.0000  0.0000
 2700OM     OM1 2700   8.174   3.236   1.097  0.0000  0.0000  0.0000
 2701OM     OM1 2701   8.205   3.139   0.853  0.0000  0.0000  0.0000
 2702OM     OM1 2702   0.260   5.789   0.121  0.0000  0.0000  0.0000
 2703OM     OM1 2703   0.415   5.590   0.131  0.0000  0.0000  0.0000
 2704OM     OM1 2704   0.245   5.628   0.329  0.0000  0.0000  0.0000
 2705OM     OM1 2705   0.452   5.773   0.315  0.0000  0.0000  0.0000
 2706OM     OM1 2706   0.596   0.711   8.635  0.0000  0.0000  0.0000
 2707OM     OM1 2707   0.447   0.493   8.668  0.0000  0.0000  0.0000
 2708OM     OM1 2708   0.642   0.504   8.495  0.0000  0.0000  0.0000
 2709OM     OM1 2709   7.998   8.468   9.592  0.0000  0.0000  0.0000
 2710OM     OM1 2710   8.087   8.525   9.336  0.0000  0.0000  0.0000
 2711OM     OM1 2711   7.866   8.607   9.411  0.0000  0.0000  0.0000
 2712OM     OM1 2712   7.896   8.348   9.397  0.0000  0.0000  0.0000
 2713OM     OM1 2713   8.549   4.156   8.648  0.0000  0.0000  0.0000
 2714OM     OM1 2714   8.477   3.906   8.572  0.0000  0.0000  0.0000
 2715OM     OM1 2715   8.691   4.025   8.486  0.0000  0.0000  0.0000
 2716OM     OM1 2716   8.440   4.119   8.422  0.0000  0.0000  0.0000
 2717OM     OM1 2717   6.826   5.138   9.327  0.0000  0.0000  0.0000
 2718OM     OM1 2718   6.613   5.300   9.294  0.0000  0.0000  0.0000
 2719OM     OM1 2719   6.849   5.362   9.206  0.0000  0.0000  0.0000
 2720OM     OM1 2720   6.796   5.347   9.471  0.0000  0.0000  0.0000
 2721OM     OM1 2721   8.767   2.100   8.988  0.0000  0.0000  0.0000
 2722OM     OM1 2722   8.534   2.223   9.002  0.0000  0.0000  0.0000
 2723OM     OM1 2723   8.537   1.963   8.977  0.0000  0.0000  0.0000
 2724OM     OM1 2724   8.621   2.117   8.776  0.0000  0.0000  0.0000
 2725OM     OM1 2725   9.104   5.444   0.133  0.0000  0.0000  0.0000
 2726OM     OM1 2726   9.281   5.404   0.318  0.0000  0.0000  0.0000
 2727OM     OM1 2727   9.062   5.253   0.304  0.0000  0.0000  0.0000
 2728OM     OM1 2728   9.262   5.236   0.130  0.0000  0.0000  0.0000
 2729OM     OM1 2729   7.476   3.361   8.366  0.0000  0.0000  0.0000
 2730OM     OM1 2730   7.415   3.506   8.167  0.0000  0.0000  0.0000
 2731OM     OM1 2731   7.660   3.504   8.246  0.0000  0.0000  0.0000
 2732OM     OM1 2732   9.252   1.592   1.179  0.0000  0.0000  0.0000
 2733OM     OM1 2733   9.516   1.578   1.144  0.0000  0.0000  0.0000
 2734OM     OM1 2734   9.350   1.484   0.962  0.0000  0.0000  0.0000
 2735OM     OM1 2735   2.643   7.723   0.690  0.0000  0.0000  0.0000
 2736OM     OM1 2736   2.776   7.815   0.472  0.0000  0.0000  0.0000
 2737OM     OM1 2737   2.712   7.566   0.505  0.0000  0.0000  0.0000
 2738OM     OM1 2738   3.270   0.016   8.692  0.0000  0.0000  0.0000
 2739OM     OM1 2739   3.166   0.241   8.768  0.0000  0.0000  0.0000
 2740OM     OM1 2740   3.024   0.036   8.792  0.0000  0.0000  0.0000
 2741OM     OM1 2741   3.078   0.116   8.548  0.0000  0.0000  0.0000
 2742OM     OM1 2742   0.999   1.658   8.810  0.0000  0.0000  0.0000
 2743OM     OM1 2743   1.163   1.723   8.987  0.0000  0.0000  0.0000
 2744OM     OM1 2744   1.258   1.659   8.745  0.0000  0.0000  0.0000
 2745OM     OM1 2745   1.162   1.472   8.887  0.0000  0.0000  0.0000
 2746OM     OM1 2746   6.893   5.100   1.085  0.0000  0.0000  0.0000
 2747OM     OM1 2747   7.152   5.122   1.070  0.0000  0.0000  0.0000
 2748OM     OM1 2748   7.017   5.340   1.106  0.0000  0.0000  0.0000
 2749OM     OM1 2749   6.388   0.935   9.488  0.0000  0.0000  0.0000
 2750OM     OM1 2750   6.134   0.994   9.422  0.0000  0.0000  0.0000
 2751OM     OM1 2751   6.293   0.884   9.256  0.0000  0.0000  0.0000
 2752OM     OM1 2752   6.218   0.740   9.454  0.0000  0.0000  0.0000
 2753OM     OM1 2753   8.319   7.036   8.667  0.0000  0.0000  0.0000
 2754OM     OM1 2754   8.117   6.819   8.519  0.0000  0.0000  0.0000
 2755OM     OM1 2755   8.369   6.813   8.794  0.0000  0.0000  0.0000
 2756OM     OM1 2756   8.369   6.816   8.540  0.0000  0.0000  0.0000
 2757OM     OM1 2757   9.226   7.916   9.506  0.0000  0.0000  0.0000
 2758OM     OM1 2758   9.176   7.730   0.073  0.0000  0.0000  0.0000
 2759OM     OM1 2759   9.416   7.824   0.085  0.0000  0.0000  0.0000
 2760OM     OM1 2760   9.221   7.975   0.152  0.0000  0.0000  0.0000
 2761OM     OM1 2761   4.083   1.051   0.572  0.0000  0.0000  0.0000
 2762OM     OM1 2762   3.948   1.265   0.524  0.0000  0.0000  0.0000
 2763OM     OM1 2763   4.218   1.276   0.568  0.0000  0.0000  0.0000
 2764OM     OM1 2764   4.476   5.035   8.886  0.0000  0.0000  0.0000
 2765OM     OM1 2765   4.734   5.053   8.819  0.0000  0.0000  0.0000
 2766OM     OM1 2766   4.611   4.828   8.785  0.0000  0.0000  0.0000
 2767OM     OM1 2767   4.655   4.917   9.025  0.0000  0.0000  0.0000
 2768OM     OM1 2768   0.741   2.173   0.854  0.0000  0.0000  0.0000
 2769OM     OM1 2769   0.873   1.991   1.013  0.0000  0.0000  0.0000
 2770OM     OM1 2770   0.616   2.004   0.997  0.0000  0.0000  0.0000
 2771OM     OM1 2771   0.556   3.723   0.905  0.0000  0.0000  0.0000
 2772OM     OM1 2772   0.537   3.329   0.938  0.0000  0.0000  0.0000
 2773OM     OM1 2773   0.376   3.523   0.953  0.0000  0.0000  0.0000
 2774OM     OM1 2774   0.485   3.549   0.722  0.0000  0.0000  0.0000
 2775OM     OM1 2775   3.895   3.259   8.402  0.0000  0.0000  0.0000
 2776OM     OM1 2776   4.119   3.133   8.400  0.0000  0.0000  0.0000
 2777OM     OM1 2777   1.801   6.107   9.246  0.0000  0.0000  0.0000
 2778OM     OM1 2778   1.688   6.046   9.018  0.0000  0.0000  0.0000
 2779OM     OM1 2779   1.756   5.852   9.188  0.0000  0.0000  0.0000
 2780OM     OM1 2780   9.510   3.602   1.091  0.0000  0.0000  0.0000
 2781OM     OM1 2781   0.051   3.662   0.881  0.0000  0.0000  0.0000
 2782OM     OM1 2782   9.461   3.492   0.856  0.0000  0.0000  0.0000
 2783OM     OM1 2783   9.405   3.742   0.883  0.0000  0.0000  0.0000
 2784OM     OM1 2784   9.039   4.329   0.529  0.0000  0.0000  0.0000
 2785OM     OM1 2785   8.822   4.411   0.666  0.0000  0.0000  0.0000
 2786OM     OM1 2786   8.851   4.166   0.569  0.0000  0.0000  0.0000
 2787OM     OM1 2787   8.820   4.374   0.407  0.0000  0.0000  0.0000
 2788OM     OM1 2788   6.954   6.876   0.731  0.0000  0.0000  0.0000
 2789OM     OM1 2789   6.936   6.887   0.474  0.0000  0.0000  0.0000
 2790OM     OM1 2790   6.945   6.660   0.598  0.0000  0.0000  0.0000
 2791OM     OM1 2791   1.628   4.024   0.404  0.0000  0.0000  0.0000
 2792OM     OM1 2792   1.452   3.897   0.255  0.0000  0.0000  0.0000
 2793OM     OM1 2793   1.464   4.084   0.594  0.0000  0.0000  0.0000
 2794OM     OM1 2794   3.576   2.191   9.530  0.0000  0.0000  0.0000
 2795OM     OM1 2795   3.615   2.347   0.129  0.0000  0.0000  0.0000
 2796OM     OM1 2796   3.486   2.135   0.167  0.0000  0.0000  0.0000
 2797OM     OM1 2797   3.520   2.579   0.095  0.0000  0.0000  0.0000
 2798OM     OM1 2798   6.872   6.625   0.274  0.0000  0.0000  0.0000
 2799OM     OM1 2799   7.046   6.509   0.413  0.0000  0.0000  0.0000
 2800OM     OM1 2800   2.770   7.336   8.821  0.0000  0.0000  0.0000
 2801OM     OM1 2801   2.569   7.234   8.949  0.0000  0.0000  0.0000
 2802OM     OM1 2802   2.549   7.418   8.725  0.0000  0.0000  0.0000
 2803OM     OM1 2803   0.123   9.412   0.565  0.0000  0.0000  0.0000
 2804OM     OM1 2804   0.373   9.415   0.655  0.0000  0.0000  0.0000
 2805OM     OM1 2805   0.182   9.457   0.815  0.0000  0.0000  0.0000
 2806OM     OM1 2806   3.676   4.936   0.200  0.0000  0.0000  0.0000
 2807OM     OM1 2807   3.526   5.148   0.207  0.0000  0.0000  0.0000
 2808OM     OM1 2808   3.692   5.132   0.023  0.0000  0.0000  0.0000
 2809OM     OM1 2809   3.494   4.958   0.014  0.0000  0.0000  0.0000
 2810OM     OM1 2810   5.179   3.371   8.782  0.0000  0.0000  0.0000
 2811OM     OM1 2811   5.135   3.627   8.797  0.0000  0.0000  0.0000
 2812OM     OM1 2812   4.935   3.462   8.777  0.0000  0.0000  0.0000
 2813OM     OM1 2813   5.068   3.484   9.003  0.0000  0.0000  0.0000
 2814OM     OM1 2814   8.307   7.714   8.738  0.0000  0.0000  0.0000
 2815OM     OM1 2815   8.372   7.666   9.038  0.0000  0.0000  0.0000
 2816OM     OM1 2816   8.467   7.558   8.606  0.0000  0.0000  0.0000
 2817OM     OM1 2817   8.628   7.682   9.036  0.0000  0.0000  0.0000
 2818OM     OM1 2818   7.649   5.705   9.353  0.0000  0.0000  0.0000
 2819OM     OM1 2819   7.768   5.545   9.529  0.0000  0.0000  0.0000
 2820OM     OM1 2820   7.895   5.728   9.396  0.0000  0.0000  0.0000
 2821OM     OM1 2821   7.808   5.511   9.272  0.0000  0.0000  0.0000
 2822OM     OM1 2822   5.842   2.172   8.559  0.0000  0.0000  0.0000
 2823OM     OM1 2823   6.003   1.988   8.673  0.0000  0.0000  0.0000
 2824OM     OM1 2824   5.835   2.135   8.809  0.0000  0.0000  0.0000
 2825OM     OM1 2825   2.693   1.559   0.324  0.0000  0.0000  0.0000
 2826OM     OM1 2826   2.527   1.753   0.266  0.0000  0.0000  0.0000
 2827OM     OM1 2827   2.468   1.507   0.197  0.0000  0.0000  0.0000
 2828OM     OM1 2828   2.656   1.642   0.073  0.0000  0.0000  0.0000
 2829OM     OM1 2829   5.955   9.271   0.311  0.0000  0.0000  0.0000
 2830OM     OM1 2830   5.901   9.510   0.241  0.0000  0.0000  0.0000
 2831OM     OM1 2831   5.711   9.327   0.226  0.0000  0.0000  0.0000
 2832OM     OM1 2832   9.100   8.616   0.956  0.0000  0.0000  0.0000
 2833OM     OM1 2833   8.999   8.834   0.836  0.0000  0.0000  0.0000
 2834OM     OM1 2834   4.538   0.145   9.426  0.0000  0.0000  0.0000
 2835OM     OM1 2835   4.770   0.016   9.499  0.0000  0.0000  0.0000
 2836OM     OM1 2836   4.733   0.278   9.520  0.0000  0.0000  0.0000
 2837OM     OM1 2837   6.544   6.261   1.167  0.0000  0.0000  0.0000
 2838OM     OM1 2838   6.650   6.445   1.018  0.0000  0.0000  0.0000
 2839OM     OM1 2839   6.746   6.377   1.254  0.0000  0.0000  0.0000
 2840OM     OM1 2840   8.261   0.523   0.496  0.0000  0.0000  0.0000
 2841OM     OM1 2841   8.526   0.502   0.470  0.0000  0.0000  0.0000
 2842OM     OM1 2842   8.423   0.723   0.555  0.0000  0.0000  0.0000
 2843OM     OM1 2843   8.418   0.511   0.705  0.0000  0.0000  0.0000
 2844OM     OM1 2844   4.572   7.443   0.371  0.0000  0.0000  0.0000
 2845OM     OM1 2845   4.493   7.190   0.338  0.0000  0.0000  0.0000
 2846OM     OM1 2846   4.333   7.357   0.463  0.0000  0.0000  0.0000
 2847OM     OM1 2847   4.381   7.391   0.218  0.0000  0.0000  0.0000
 2848OM     OM1 2848   1.526   4.062   9.559  0.0000  0.0000  0.0000
 2849OM     OM1 2849   1.587   4.251   9.398  0.0000  0.0000  0.0000
 2850OM     OM1 2850   1.773   4.109   9.508  0.0000  0.0000  0.0000
 2851OM     OM1 2851   1.441   2.650   8.794  0.0000  0.0000  0.0000
 2852OM     OM1 2852   1.525   2.719   8.565  0.0000  0.0000  0.0000
 2853OM     OM1 2853   1.655   2.533   8.700  0.0000  0.0000  0.0000
 2854OM     OM1 2854   0.295   1.980   0.713  0.0000  0.0000  0.0000
 2855OM     OM1 2855   0.143   2.128   0.553  0.0000  0.0000  0.0000
 2856OM     OM1 2856   0.219   1.891   0.492  0.0000  0.0000  0.0000
 2857OM     OM1 2857   8.259   2.152   1.070  0.0000  0.0000  0.0000
 2858OM     OM1 2858   6.469   2.866   0.628  0.0000  0.0000  0.0000
 2859OM     OM1 2859   6.243   2.731   0.665  0.0000  0.0000  0.0000
 2860OM     OM1 2860   6.387   2.797   0.869  0.0000  0.0000  0.0000
 2861OM     OM1 2861   6.483   2.730   0.420  0.0000  0.0000  0.0000
 2862OM     OM1 2862   9.255   6.828   8.822  0.0000  0.0000  0.0000
 2863OM     OM1 2863   9.240   6.633   8.668  0.0000  0.0000  0.0000
 2864OM     OM1 2864   1.614   3.420   0.690  0.0000  0.0000  0.0000
 2865OM     OM1 2865   1.637   3.362   0.447  0.0000  0.0000  0.0000
 2866OM     OM1 2866   1.650   3.147   0.299  0.0000  0.0000  0.0000
 2867OM     OM1 2867   4.598   2.154   8.844  0.0000  0.0000  0.0000
 2868OM     OM1 2868   4.835   2.220   8.749  0.0000  0.0000  0.0000
 2869OM     OM1 2869   4.733   1.998   8.688  0.0000  0.0000  0.0000
 2870OM     OM1 2870   4.813   2.041   8.945  0.0000  0.0000  0.0000
 2871OM     OM1 2871   7.311   4.800   0.295  0.0000  0.0000  0.0000
 2872OM     OM1 2872   7.424   4.668   0.482  0.0000  0.0000  0.0000
 2873OM     OM1 2873   7.351   4.538   0.263  0.0000  0.0000  0.0000
 2874OM     OM1 2874   1.983   4.139   1.020  0.0000  0.0000  0.0000
 2875OM     OM1 2875   1.726   4.197   1.016  0.0000  0.0000  0.0000
 2876OM     OM1 2876   1.800   3.948   1.073  0.0000  0.0000  0.0000
 2877OM     OM1 2877   1.703   0.809   0.317  0.0000  0.0000  0.0000
 2878OM     OM1 2878   1.645   0.918   0.082  0.0000  0.0000  0.0000
 2879OM     OM1 2879   1.793   0.706   0.097  0.0000  0.0000  0.0000
 2880OM     OM1 2880   1.789   0.324   0.635  0.0000  0.0000  0.0000
 2881OM     OM1 2881   1.983   0.408   0.492  0.0000  0.0000  0.0000
 2882OM     OM1 2882   1.867   0.191   0.409  0.0000  0.0000  0.0000
 2883OM     OM1 2883   2.011   0.198   0.635  0.0000  0.0000  0.0000
 2884OM     OM1 2884   2.652   5.651   8.263  0.0000  0.0000  0.0000
 2885OM     OM1 2885   2.738   5.802   8.452  0.0000  0.0000  0.0000
 2886OM     OM1 2886   1.225   7.603   8.968  0.0000  0.0000  0.0000
 2887OM     OM1 2887   1.270   7.789   9.148  0.0000  0.0000  0.0000
 2888OM     OM1 2888   1.379   7.812   8.923  0.0000  0.0000  0.0000
 2889OM     OM1 2889   9.048   1.571   8.361  0.0000  0.0000  0.0000
 2890OM     OM1 2890   9.291   1.629   8.420  0.0000  0.0000  0.0000
 2891OM     OM1 2891   9.095   1.788   8.501  0.0000  0.0000  0.0000
 2892OM     OM1 2892   3.707   7.253   0.965  0.0000  0.0000  0.0000
 2893OM     OM1 2893   3.718   7.078   1.149  0.0000  0.0000  0.0000
 2894OM     OM1 2894   3.697   6.773   0.961  0.0000  0.0000  0.0000
 2895OM     OM1 2895   3.765   7.009   0.897  0.0000  0.0000  0.0000
 2896OM     OM1 2896   6.590   4.970   8.631  0.0000  0.0000  0.0000
 2897OM     OM1 2897   6.646   4.722   8.736  0.0000  0.0000  0.0000
 2898OM     OM1 2898   6.493   4.746   8.534  0.0000  0.0000  0.0000
 2899OM     OM1 2899   6.748   4.794   8.513  0.0000  0.0000  0.0000
 2900OM     OM1 2900   7.717   0.955   0.091  0.0000  0.0000  0.0000
 2901OM     OM1 2901   7.769   0.713   0.059  0.0000  0.0000  0.0000
 2902OM     OM1 2902   7.767   0.806   0.304  0.0000  0.0000  0.0000
 2903OM     OM1 2903   9.225   4.100   0.113  0.0000  0.0000  0.0000
 2904OM     OM1 2904   8.968   4.059   0.118  0.0000  0.0000  0.0000
 2905OM     OM1 2905   9.079   4.231   0.288  0.0000  0.0000  0.0000
 2906OM     OM1 2906   0.548   7.440   8.561  0.0000  0.0000  0.0000
 2907OM     OM1 2907   0.819   7.502   8.877  0.0000  0.0000  0.0000
 2908OM     OM1 2908   0.573   7.544   8.803  0.0000  0.0000  0.0000
 2909OM     OM1 2909   4.297   8.783   9.402  0.0000  0.0000  0.0000
 2910OM     OM1 2910   4.160   8.581   9.482  0.0000  0.0000  0.0000
 2911OM     OM1 2911   4.041   8.804   9.451  0.0000  0.0000  0.0000
 2912OM     OM1 2912   0.404   2.081   1.130  0.0000  0.0000  0.0000
 2913OM     OM1 2913   0.632   2.197   1.172  0.0000  0.0000  0.0000
 2914OM     OM1 2914   0.589   1.945   1.252  0.0000  0.0000  0.0000
 2915OM     OM1 2915   6.633   8.414   9.541  0.0000  0.0000  0.0000
 2916OM     OM1 2916   6.757   8.286   0.126  0.0000  0.0000  0.0000
 2917OM     OM1 2917   6.651   8.153   9.531  0.0000  0.0000  0.0000
 2918OM     OM1 2918   4.371   0.115   9.224  0.0000  0.0000  0.0000
 2919OM     OM1 2919   4.390   9.548   9.415  0.0000  0.0000  0.0000
 2920OM     OM1 2920   4.274   0.184   9.453  0.0000  0.0000  0.0000
 2921OM     OM1 2921   6.233   8.581   1.356  0.0000  0.0000  0.0000
 2922OM     OM1 2922   6.137   8.769   1.205  0.0000  0.0000  0.0000
 2923OM     OM1 2923   4.931   8.349   8.864  0.0000  0.0000  0.0000
 2924OM     OM1 2924   4.984   8.095   8.824  0.0000  0.0000  0.0000
 2925OM     OM1 2925   4.741   8.179   8.867  0.0000  0.0000  0.0000
 2926OM     OM1 2926   4.919   8.168   9.060  0.0000  0.0000  0.0000
 2927OM     OM1 2927   1.763   6.175   8.642  0.0000  0.0000  0.0000
 2928OM     OM1 2928   1.942   6.066   8.493  0.0000  0.0000  0.0000
 2929OM     OM1 2929   1.774   5.914   8.628  0.0000  0.0000  0.0000
 2930OM     OM1 2930   1.973   6.037   8.744  0.0000  0.0000  0.0000
 2931OM     OM1 2931   3.113   0.210   9.256  0.0000  0.0000  0.0000
 2932OM     OM1 2932   3.099   9.582   9.138  0.0000  0.0000  0.0000
 2933OM     OM1 2933   3.213   0.180   9.021  0.0000  0.0000  0.0000
 2934OM     OM1 2934   4.562   8.577   9.532  0.0000  0.0000  0.0000
 2935OM     OM1 2935   4.802   8.670   9.545  0.0000  0.0000  0.0000
 2936OM     OM1 2936   4.601   8.840   9.538  0.0000  0.0000  0.0000
 2937OM     OM1 2937   8.617   7.440   0.132  0.0000  0.0000  0.0000
 2938OM     OM1 2938   8.382   7.385   0.216  0.0000  0.0000  0.0000
 2939OM     OM1 2939   8.557   7.526   0.367  0.0000  0.0000  0.0000
 2940OM     OM1 2940   4.861   6.834   0.817  0.0000  0.0000  0.0000
 2941OM     OM1 2941   4.650   6.876   0.695  0.0000  0.0000  0.0000
 2942OM     OM1 2942   4.707   6.627   0.774  0.0000  0.0000  0.0000
 2943OM     OM1 2943   4.842   7.023   0.576  0.0000  0.0000  0.0000
 2944OM     OM1 2944   8.721   3.208   8.463  0.0000  0.0000  0.0000
 2945OM     OM1 2945   8.468   3.189   8.403  0.0000  0.0000  0.0000
 2946OM     OM1 2946   8.579   3.424   8.415  0.0000  0.0000  0.0000
 2947OM     OM1 2947   7.648   6.963   0.513  0.0000  0.0000  0.0000
 2948OM     OM1 2948   7.851   6.865   0.392  0.0000  0.0000  0.0000
 2949OM     OM1 2949   7.709   6.712   0.563  0.0000  0.0000  0.0000
 2950OM     OM1 2950   7.859   6.890   0.657  0.0000  0.0000  0.0000
 2951OM     OM1 2951   3.448   5.127   8.760  0.0000  0.0000  0.0000
 2952OM     OM1 2952   3.594   5.140   8.526  0.0000  0.0000  0.0000
 2953OM     OM1 2953   3.346   5.074   8.533  0.0000  0.0000  0.0000
 2954OM     OM1 2954   3.511   4.911   8.651  0.0000  0.0000  0.0000
 2955OM     OM1 2955   1.748   1.769   0.029  0.0000  0.0000  0.0000
 2956OM     OM1 2956   1.688   1.775   0.298  0.0000  0.0000  0.0000
 2957OM     OM1 2957   1.854   1.605   0.206  0.0000  0.0000  0.0000
 2958OM     OM1 2958   2.863   5.959   9.231  0.0000  0.0000  0.0000
 2959OM     OM1 2959   2.654   5.917   9.080  0.0000  0.0000  0.0000
 2960OM     OM1 2960   2.750   5.726   9.226  0.0000  0.0000  0.0000
 2961OM     OM1 2961   2.888   5.791   9.022  0.0000  0.0000  0.0000
 2962OM     OM1 2962   2.225   8.915   0.975  0.0000  0.0000  0.0000
 2963OM     OM1 2963   2.186   9.009   1.234  0.0000  0.0000  0.0000
 2964OM     OM1 2964   2.415   9.023   1.103  0.0000  0.0000  0.0000
 2965OM     OM1 2965   2.323   8.796   1.179  0.0000  0.0000  0.0000
 2966OM     OM1 2966   7.827   6.569   9.015  0.0000  0.0000  0.0000
 2967OM     OM1 2967   7.637   6.768   8.999  0.0000  0.0000  0.0000
 2968OM     OM1 2968   7.670   6.607   9.206  0.0000  0.0000  0.0000
 2969OM     OM1 2969   7.567   6.519   8.986  0.0000  0.0000  0.0000
 2970OM     OM1 2970   5.045   9.478   0.884  0.0000  0.0000  0.0000
 2971OM     OM1 2971   5.173   9.241   0.844  0.0000  0.0000  0.0000
 2972OM     OM1 2972   5.178   8.978   0.848  0.0000  0.0000  0.0000
 2973OM     OM1 2973   5.301   9.460   0.903  0.0000  0.0000  0.0000
 2974OM     OM1 2974   7.299   3.282   0.169  0.0000  0.0000  0.0000
 2975OM     OM1 2975   7.297   3.533   0.251  0.0000  0.0000  0.0000
 2976OM     OM1 2976   7.122   3.360   0.345  0.0000  0.0000  0.0000
 2977OM     OM1 2977   7.108   3.447   0.101  0.0000  0.0000  0.0000
 2978OM     OM1 2978   2.500   8.963   0.009  0.0000  0.0000  0.0000
 2979OM     OM1 2979   2.350   9.125   0.161  0.0000  0.0000  0.0000
 2980OM     OM1 2980   2.246   8.945   0.008  0.0000  0.0000  0.0000
 2981OM     OM1 2981   2.388   8.878   0.232  0.0000  0.0000  0.0000
 2982OM     OM1 2982   6.745   4.843   0.131  0.0000  0.0000  0.0000
 2983OM     OM1 2983   6.713   4.589   0.058  0.0000  0.0000  0.0000
 2984OM     OM1 2984   6.556   4.787   9.576  0.0000  0.0000  0.0000
 2985OM     OM1 2985   6.811   4.767   9.502  0.0000  0.0000  0.0000
 2986OM     OM1 2986   3.918   3.702   8.292  0.0000  0.0000  0.0000
 2987OM     OM1 2987   4.024   3.569   8.490  0.0000  0.0000  0.0000
 2988OM     OM1 2988   4.149   3.764   8.374  0.0000  0.0000  0.0000
 2989OM     OM1 2989   7.120   1.402   8.515  0.0000  0.0000  0.0000
 2990OM     OM1 2990   7.274   1.415   8.301  0.0000  0.0000  0.0000
 2991OM     OM1 2991   7.089   1.785   8.206  0.0000  0.0000  0.0000
 2992OM     OM1 2992   2.389   2.306   8.825  0.0000  0.0000  0.0000
 2993OM     OM1 2993   2.494   2.352   8.592  0.0000  0.0000  0.0000
 2994OM     OM1 2994   2.394   2.106   8.658  0.0000  0.0000  0.0000
 2995OM     OM1 2995   2.248   2.326   8.607  0.0000  0.0000  0.0000
 2996OM     OM1 2996   2.989   2.391   1.142  0.0000  0.0000  0.0000
 2997OM     OM1 2997   2.734   2.366   1.178  0.0000  0.0000  0.0000
 2998OM     OM1 2998   4.098   2.545   8.862  0.0000  0.0000  0.0000
 2999OM     OM1 2999   4.058   2.573   9.109  0.0000  0.0000  0.0000
 3000OM     OM1 3000   4.303   2.526   9.019  0.0000  0.0000  0.0000
 3001OM     OM1 3001   4.141   2.329   9.012  0.0000  0.0000  0.0000
 3002OM     OM1 3002   9.428   8.730   8.931  0.0000  0.0000  0.0000
 3003OM     OM1 3003   9.507   8.971   8.888  0.0000  0.0000  0.0000
 3004OM     OM1 3004   3.899   3.320   0.939  0.0000  0.0000  0.0000
 3005OM     OM1 3005   3.859   3.049   0.888  0.0000  0.0000  0.0000
 3006OM     OM1 3006   4.096   3.161   0.891  0.0000  0.0000  0.0000
 3007OM     OM1 3007   5.646   3.940   0.584  0.0000  0.0000  0.0000
 3008OM     OM1 3008   6.074   3.786   0.515  0.0000  0.0000  0.0000
 3009OM     OM1 3009   5.640   3.683   0.532  0.0000  0.0000  0.0000
 3010OM     OM1 3010   5.829   3.828   0.428  0.0000  0.0000  0.0000
 3011OM     OM1 3011   1.667   2.363   1.173  0.0000  0.0000  0.0000
 3012OM     OM1 3012   1.453   2.328   1.026  0.0000  0.0000  0.0000
 3013OM     OM1 3013   1.454   2.266   1.289  0.0000  0.0000  0.0000
 3014OM     OM1 3014   1.460   2.514   1.200  0.0000  0.0000  0.0000
 3015OM     OM1 3015   6.127   0.493   9.485  0.0000  0.0000  0.0000
 3016OM     OM1 3016   5.911   0.357   9.408  0.0000  0.0000  0.0000
 3017OM     OM1 3017   6.112   0.236   9.539  0.0000  0.0000  0.0000
 3018OM     OM1 3018   2.685   0.933   8.739  0.0000  0.0000  0.0000
 3019OM     OM1 3019   2.545   0.743   8.839  0.0000  0.0000  0.0000
 3020OM     OM1 3020   2.786   0.698   8.715  0.0000  0.0000  0.0000
 3021OM     OM1 3021   2.572   0.748   8.577  0.0000  0.0000  0.0000
 3022OM     OM1 3022   5.996   8.061   0.162  0.0000  0.0000  0.0000
 3023OM     OM1 3023   6.237   8.161   0.121  0.0000  0.0000  0.0000
 3024OM     OM1 3024   6.052   8.189   9.545  0.0000  0.0000  0.0000
 3025OM     OM1 3025   5.575   6.368   0.341  0.0000  0.0000  0.0000
 3026OM     OM1 3026   5.398   6.462   0.497  0.0000  0.0000  0.0000
 3027OM     OM1 3027   5.633   6.569   0.488  0.0000  0.0000  0.0000
 3028OM     OM1 3028   5.597   6.324   0.597  0.0000  0.0000  0.0000
 3029OM     OM1 3029   7.039   3.877   8.668  0.0000  0.0000  0.0000
 3030OM     OM1 3030   6.928   3.969   8.897  0.0000  0.0000  0.0000
 3031OM     OM1 3031   6.989   4.121   8.682  0.0000  0.0000  0.0000
 3032OM     OM1 3032   7.168   4.031   8.851  0.0000  0.0000  0.0000
 3033OM     OM1 3033   6.154   6.267   1.174  0.0000  0.0000  0.0000
 3034OM     OM1 3034   5.944   6.231   1.333  0.0000  0.0000  0.0000
 3035OM     OM1 3035   6.081   6.444   1.343  0.0000  0.0000  0.0000
 3036OM     OM1 3036   5.118   8.853   8.991  0.0000  0.0000  0.0000
 3037OM     OM1 3037   5.175   8.756   8.763  0.0000  0.0000  0.0000
 3038OM     OM1 3038   5.275   8.996   8.833  0.0000  0.0000  0.0000
 3039OM     OM1 3039   0.063   3.937   1.255  0.0000  0.0000  0.0000
 3040OM     OM1 3040   0.125   4.145   1.129  0.0000  0.0000  0.0000
 3041OM     OM1 3041   9.529   4.160   1.300  0.0000  0.0000  0.0000
 3042OM     OM1 3042   8.670   1.251   1.210  0.0000  0.0000  0.0000
 3043OM     OM1 3043   1.194   2.398   9.121  0.0000  0.0000  0.0000
 3044OM     OM1 3044   1.203   2.222   8.929  0.0000  0.0000  0.0000
 3045OM     OM1 3045   1.020   2.405   8.926  0.0000  0.0000  0.0000
 3046OM     OM1 3046   1.311   2.333   9.342  0.0000  0.0000  0.0000
 3047OM     OM1 3047   2.332   3.811   1.242  0.0000  0.0000  0.0000
 3048OM     OM1 3048   2.366   4.057   1.284  0.0000  0.0000  0.0000
 3049OM     OM1 3049   3.489   5.383   0.318  0.0000  0.0000  0.0000
 3050OM     OM1 3050   3.233   5.356   0.333  0.0000  0.0000  0.0000
 3051OM     OM1 3051   3.328   5.595   0.289  0.0000  0.0000  0.0000
 3052OM     OM1 3052   3.371   5.471   0.525  0.0000  0.0000  0.0000
 3053OM     OM1 3053   2.237   3.793   0.040  0.0000  0.0000  0.0000
 3054OM     OM1 3054   2.314   3.653   0.250  0.0000  0.0000  0.0000
 3055OM     OM1 3055   2.066   3.692   0.198  0.0000  0.0000  0.0000
 3056OM     OM1 3056   4.430   7.373   8.649  0.0000  0.0000  0.0000
 3057OM     OM1 3057   4.362   7.639   8.848  0.0000  0.0000  0.0000
 3058OM     OM1 3058   7.393   5.450   0.884  0.0000  0.0000  0.0000
 3059OM     OM1 3059   7.501   5.351   1.097  0.0000  0.0000  0.0000
 3060OM     OM1 3060   7.527   5.237   0.867  0.0000  0.0000  0.0000
 3061OM     OM1 3061   9.021   6.962   0.008  0.0000  0.0000  0.0000
 3062OM     OM1 3062   8.766   6.975   0.080  0.0000  0.0000  0.0000
 3063OM     OM1 3063   9.164   9.323   8.749  0.0000  0.0000  0.0000
 3064OM     OM1 3064   8.956   9.474   8.757  0.0000  0.0000  0.0000
 3065OM     OM1 3065   9.206   9.567   8.810  0.0000  0.0000  0.0000
 3066OM     OM1 3066   9.131   9.523   8.568  0.0000  0.0000  0.0000
 3067OM     OM1 3067   3.970   9.393   9.388  0.0000  0.0000  0.0000
 3068OM     OM1 3068   4.158   9.446   9.205  0.0000  0.0000  0.0000
 3069OM     OM1 3069   4.093   0.017   9.397  0.0000  0.0000  0.0000
 3070OM     OM1 3070   8.990   6.205   8.656  0.0000  0.0000  0.0000
 3071OM     OM1 3071   9.140   6.223   8.444  0.0000  0.0000  0.0000
 3072OM     OM1 3072   8.962   6.413   8.496  0.0000  0.0000  0.0000
 3073OM     OM1 3073   9.177   6.381   8.647  0.0000  0.0000  0.0000
 3074OM     OM1 3074   5.456   7.391   0.140  0.0000  0.0000  0.0000
 3075OM     OM1 3075   5.663   7.466   0.016  0.0000  0.0000  0.0000
 3076OM     OM1 3076   5.655   7.452   0.288  0.0000  0.0000  0.0000
 3077OM     OM1 3077   0.778   1.561   0.299  0.0000  0.0000  0.0000
 3078OM     OM1 3078   0.639   1.770   0.365  0.0000  0.0000  0.0000
 3079OM     OM1 3079   0.550   1.607   0.177  0.0000  0.0000  0.0000
 3080OM     OM1 3080   9.454   0.218   0.781  0.0000  0.0000  0.0000
 3081OM     OM1 3081   9.393   0.328   0.559  0.0000  0.0000  0.0000
 3082OM     OM1 3082   4.129   6.965   0.163  0.0000  0.0000  0.0000
 3083OM     OM1 3083   4.211   6.773   0.304  0.0000  0.0000  0.0000
 3084OM     OM1 3084   9.482   9.220   8.786  0.0000  0.0000  0.0000
 3085OM     OM1 3085   0.274   9.262   8.872  0.0000  0.0000  0.0000
 3086OM     OM1 3086   0.056   9.395   8.848  0.0000  0.0000  0.0000
 3087OM     OM1 3087   6.214   8.844   8.787  0.0000  0.0000  0.0000
 3088OM     OM1 3088   6.056   9.048   8.805  0.0000  0.0000  0.0000
 3089OM     OM1 3089   6.179   9.002   8.576  0.0000  0.0000  0.0000
 3090OM     OM1 3090   1.838   7.817   0.353  0.0000  0.0000  0.0000
 3091OM     OM1 3091   2.038   7.928   0.474  0.0000  0.0000  0.0000
 3092OM     OM1 3092   1.803   8.036   0.500  0.0000  0.0000  0.0000
 3093OM     OM1 3093   1.914   8.053   0.271  0.0000  0.0000  0.0000
 3094OM     OM1 3094   2.850   0.877   0.239  0.0000  0.0000  0.0000
 3095OM     OM1 3095   3.108   0.836   0.202  0.0000  0.0000  0.0000
 3096OM     OM1 3096   2.964   0.889   9.605  0.0000  0.0000  0.0000
 3097OM     OM1 3097   5.138   3.888   0.554  0.0000  0.0000  0.0000
 3098OM     OM1 3098   5.314   4.037   0.659  0.0000  0.0000  0.0000
 3099OM     OM1 3099   5.121   3.959   0.806  0.0000  0.0000  0.0000
 3100OM     OM1 3100   1.480   1.687   8.298  0.0000  0.0000  0.0000
 3101OM     OM1 3101   1.431   1.425   8.316  0.0000  0.0000  0.0000
 3102OM     OM1 3102   1.592   1.144   9.568  0.0000  0.0000  0.0000
 3103OM     OM1 3103   1.842   1.071   0.006  0.0000  0.0000  0.0000
 3104OM     OM1 3104   1.918   9.489   8.373  0.0000  0.0000  0.0000
 3105OM     OM1 3105   1.813   0.124   8.331  0.0000  0.0000  0.0000
 3106OM     OM1 3106   2.045   0.071   8.238  0.0000  0.0000  0.0000
 3107OM     OM1 3107   4.780   8.467   1.053  0.0000  0.0000  0.0000
 3108OM     OM1 3108   4.968   8.276   1.056  0.0000  0.0000  0.0000
 3109OM     OM1 3109   4.792   8.295   1.372  0.0000  0.0000  0.0000
 3110OM     OM1 3110   5.808   2.645   0.826  0.0000  0.0000  0.0000
 3111OM     OM1 3111   6.022   2.571   0.689  0.0000  0.0000  0.0000
 3112OM     OM1 3112   5.917   2.396   0.845  0.0000  0.0000  0.0000
 3113OM     OM1 3113   6.482   3.777   0.152  0.0000  0.0000  0.0000
 3114OM     OM1 3114   6.639   3.572   0.150  0.0000  0.0000  0.0000
 3115OM     OM1 3115   6.693   3.774   0.313  0.0000  0.0000  0.0000
 3116OM     OM1 3116   6.486   3.620   0.356  0.0000  0.0000  0.0000
 3117OM     OM1 3117   5.012   8.814   9.596  0.0000  0.0000  0.0000
 3118OM     OM1 3118   5.009   8.634   9.397  0.0000  0.0000  0.0000
 3119OM     OM1 3119   3.823   9.325   8.265  0.0000  0.0000  0.0000
 3120OM     OM1 3120   3.801   9.108   8.405  0.0000  0.0000  0.0000
 3121OM     OM1 3121   4.032   9.213   8.358  0.0000  0.0000  0.0000
 3122OM     OM1 3122   0.413   8.118   9.472  0.0000  0.0000  0.0000
 3123OM     OM1 3123   0.642   8.122   9.353  0.0000  0.0000  0.0000
 3124OM     OM1 3124   0.624   8.078   0.009  0.0000  0.0000  0.0000
 3125OM     OM1 3125   0.537   7.890   9.448  0.0000  0.0000  0.0000
 3126OM     OM1 3126   8.769   7.053   0.778  0.0000  0.0000  0.0000
 3127OM     OM1 3127   8.630   6.885   0.940  0.0000  0.0000  0.0000
 3128OM     OM1 3128   8.546   7.129   0.878  0.0000  0.0000  0.0000
 3129OM     OM1 3129   8.554   6.940   0.696  0.0000  0.0000  0.0000
 3130OM     OM1 3130   6.533   8.379   0.427  0.0000  0.0000  0.0000
 3131OM     OM1 3131   6.370   8.242   0.566  0.0000  0.0000  0.0000
 3132OM     OM1 3132   6.416   8.171   0.315  0.0000  0.0000  0.0000
 3133OM     OM1 3133   3.424   0.984   8.422  0.0000  0.0000  0.0000
 3134OM     OM1 3134   3.323   1.019   8.656  0.0000  0.0000  0.0000
 3135OM     OM1 3135   3.513   0.835   8.620  0.0000  0.0000  0.0000
 3136OM     OM1 3136   3.423   1.124   8.869  0.0000  0.0000  0.0000
 3137OM     OM1 3137   2.675   7.804   8.925  0.0000  0.0000  0.0000
 3138OM     OM1 3138   2.532   7.759   9.147  0.0000  0.0000  0.0000
 3139OM     OM1 3139   2.773   7.841   9.165  0.0000  0.0000  0.0000
 3140OM     OM1 3140   9.241   3.072   9.115  0.0000  0.0000  0.0000
 3141OM     OM1 3141   9.344   2.884   9.244  0.0000  0.0000  0.0000
 3142OM     OM1 3142   9.379   3.131   9.332  0.0000  0.0000  0.0000
 3143OM     OM1 3143   9.136   3.012   9.352  0.0000  0.0000  0.0000
 3144OM     OM1 3144   0.500   3.118   9.090  0.0000  0.0000  0.0000
 3145OM     OM1 3145   0.538   2.986   9.315  0.0000  0.0000  0.0000
 3146OM     OM1 3146   0.681   3.203   9.253  0.0000  0.0000  0.0000
 3147OM     OM1 3147   0.062   3.898   8.235  0.0000  0.0000  0.0000
 3148OM     OM1 3148   9.037   5.726   8.397  0.0000  0.0000  0.0000
 3149OM     OM1 3149   9.238   5.591   8.483  0.0000  0.0000  0.0000
 3150OM     OM1 3150   2.030   1.614   0.401  0.0000  0.0000  0.0000
 3151OM     OM1 3151   1.892   1.517   0.593  0.0000  0.0000  0.0000
 3152OM     OM1 3152   1.990   1.757   0.639  0.0000  0.0000  0.0000
 3153OM     OM1 3153   2.147   1.572   0.635  0.0000  0.0000  0.0000
 3154OM     OM1 3154   4.177   5.868   0.411  0.0000  0.0000  0.0000
 3155OM     OM1 3155   4.429   5.958   0.471  0.0000  0.0000  0.0000
 3156OM     OM1 3156   4.329   6.026   0.249  0.0000  0.0000  0.0000
 3157OM     OM1 3157   0.882   1.965   0.047  0.0000  0.0000  0.0000
 3158OM     OM1 3158   0.651   2.081   9.599  0.0000  0.0000  0.0000
 3159OM     OM1 3159   0.758   1.919   9.418  0.0000  0.0000  0.0000
 3160OM     OM1 3160   0.866   2.147   9.469  0.0000  0.0000  0.0000
 3161OM     OM1 3161   4.666   8.096   1.275  0.0000  0.0000  0.0000
 3162OM     OM1 3162   4.041   8.058   0.069  0.0000  0.0000  0.0000
 3163OM     OM1 3163   3.785   8.012   9.601  0.0000  0.0000  0.0000
 3164OM     OM1 3164   3.958   8.133   9.446  0.0000  0.0000  0.0000
 3165OM     OM1 3165   8.347   4.224   9.094  0.0000  0.0000  0.0000
 3166OM     OM1 3166   8.516   4.106   9.252  0.0000  0.0000  0.0000
 3167OM     OM1 3167   8.389   3.975   9.054  0.0000  0.0000  0.0000
 3168OM     OM1 3168   8.577   4.165   9.005  0.0000  0.0000  0.0000
 3169OM     OM1 3169   6.608   8.156   8.885  0.0000  0.0000  0.0000
 3170OM     OM1 3170   6.669   8.354   8.728  0.0000  0.0000  0.0000
 3171OM     OM1 3171   6.579   8.129   8.622  0.0000  0.0000  0.0000
 3172OM     OM1 3172   6.421   8.283   8.757  0.0000  0.0000  0.0000
 3173OM     OM1 3173   9.189   6.629   8.984  0.0000  0.0000  0.0000
 3174OM     OM1 3174   9.192   6.594   9.237  0.0000  0.0000  0.0000
 3175OM     OM1 3175   9.316   6.422   9.091  0.0000  0.0000  0.0000
 3176OM     OM1 3176   9.055   6.427   9.085  0.0000  0.0000  0.0000
 3177OM     OM1 3177   5.716   4.678   9.022  0.0000  0.0000  0.0000
 3178OM     OM1 3178   5.567   4.486   8.920  0.0000  0.0000  0.0000
 3179OM     OM1 3179   5.581   4.728   8.807  0.0000  0.0000  0.0000
 3180OM     OM1 3180   5.780   4.574   8.796  0.0000  0.0000  0.0000
 3181OM     OM1 3181   1.751   8.293   9.184  0.0000  0.0000  0.0000
 3182OM     OM1 3182   1.608   8.499   9.121  0.0000  0.0000  0.0000
 3183OM     OM1 3183   1.732   8.367   8.936  0.0000  0.0000  0.0000
 3184OM     OM1 3184   3.785   6.674   1.293  0.0000  0.0000  0.0000
 3185OM     OM1 3185   2.111   5.498   9.005  0.0000  0.0000  0.0000
 3186OM     OM1 3186   2.366   5.436   9.000  0.0000  0.0000  0.0000
 3187OM     OM1 3187   2.212   5.365   9.210  0.0000  0.0000  0.0000
 3188OM     OM1 3188   6.132   8.849   8.377  0.0000  0.0000  0.0000
 3189OM     OM1 3189   6.302   8.670   8.301  0.0000  0.0000  0.0000
 3190OM     OM1 3190   0.775   8.978   0.863  0.0000  0.0000  0.0000
 3191OM     OM1 3191   0.658   9.140   1.024  0.0000  0.0000  0.0000
 3192OM     OM1 3192   0.740   8.892   1.097  0.0000  0.0000  0.0000
 3193OM     OM1 3193   0.908   9.094   1.060  0.0000  0.0000  0.0000
 3194OM     OM1 3194   6.640   6.907   0.911  0.0000  0.0000  0.0000
 3195OM     OM1 3195   6.774   6.990   1.114  0.0000  0.0000  0.0000
 3196OM     OM1 3196   6.593   7.088   0.724  0.0000  0.0000  0.0000
 3197OM     OM1 3197   6.893   6.827   0.970  0.0000  0.0000  0.0000
 3198OM     OM1 3198   3.208   2.032   9.415  0.0000  0.0000  0.0000
 3199OM     OM1 3199   3.404   1.946   9.268  0.0000  0.0000  0.0000
 3200OM     OM1 3200   3.232   2.111   9.162  0.0000  0.0000  0.0000
 3201OM     OM1 3201   3.402   2.193   9.339  0.0000  0.0000  0.0000
 3202OM     OM1 3202   3.043   7.484   9.324  0.0000  0.0000  0.0000
 3203OM     OM1 3203   2.898   7.697   9.346  0.0000  0.0000  0.0000
 3204OM     OM1 3204   2.848   7.501   9.512  0.0000  0.0000  0.0000
 3205OM     OM1 3205   3.063   7.641   9.536  0.0000  0.0000  0.0000
 3206OM     OM1 3206   8.395   7.363   8.442  0.0000  0.0000  0.0000
 3207OM     OM1 3207   8.248   7.172   8.324  0.0000  0.0000  0.0000
 3208OM     OM1 3208   8.198   7.243   8.564  0.0000  0.0000  0.0000
 3209OM     OM1 3209   5.591   2.792   9.045  0.0000  0.0000  0.0000
 3210OM     OM1 3210   5.480   3.029   9.063  0.0000  0.0000  0.0000
 3211OM     OM1 3211   5.500   2.895   9.273  0.0000  0.0000  0.0000
 3212OM     OM1 3212   5.323   2.819   9.101  0.0000  0.0000  0.0000
 3213OM     OM1 3213   1.654   0.411   0.855  0.0000  0.0000  0.0000
 3214OM     OM1 3214   1.509   0.319   0.442  0.0000  0.0000  0.0000
 3215OM     OM1 3215   1.567   0.228   0.693  0.0000  0.0000  0.0000
 3216OM     OM1 3216   0.221   0.178   8.871  0.0000  0.0000  0.0000
 3217OM     OM1 3217   0.225   0.426   8.792  0.0000  0.0000  0.0000
 3218OM     OM1 3218   0.346   0.356   9.011  0.0000  0.0000  0.0000
 3219OM     OM1 3219   0.282   0.315   8.284  0.0000  0.0000  0.0000
 3220OM     OM1 3220   0.101   0.193   8.434  0.0000  0.0000  0.0000
 3221OM     OM1 3221   0.073   0.443   8.357  0.0000  0.0000  0.0000
 3222OM     OM1 3222   0.252   0.389   8.533  0.0000  0.0000  0.0000
 3223OM     OM1 3223   4.275   0.789   8.185  0.0000  0.0000  0.0000
 3224OM     OM1 3224   4.488   0.708   8.315  0.0000  0.0000  0.0000
 3225OM     OM1 3225   1.122   3.606   9.044  0.0000  0.0000  0.0000
 3226OM     OM1 3226   1.143   3.359   9.130  0.0000  0.0000  0.0000
 3227OM     OM1 3227   1.112   3.548   9.294  0.0000  0.0000  0.0000
 3228OM     OM1 3228   1.343   3.521   9.182  0.0000  0.0000  0.0000
 3229OM     OM1 3229   8.447   3.302   0.998  0.0000  0.0000  0.0000
 3230OM     OM1 3230   8.378   3.289   0.744  0.0000  0.0000  0.0000
 3231OM     OM1 3231   8.623   3.315   0.814  0.0000  0.0000  0.0000
 3232OM     OM1 3232   8.463   3.518   0.838  0.0000  0.0000  0.0000
 3233OM     OM1 3233   2.180   5.020   9.095  0.0000  0.0000  0.0000
 3234OM     OM1 3234   2.085   4.761   8.762  0.0000  0.0000  0.0000
 3235OM     OM1 3235   1.920   4.707   8.940  0.0000  0.0000  0.0000
 3236OM     OM1 3236   3.551   8.909   9.472  0.0000  0.0000  0.0000
 3237OM     OM1 3237   3.550   9.114   9.310  0.0000  0.0000  0.0000
 3238OM     OM1 3238   3.325   8.987   9.348  0.0000  0.0000  0.0000
 3239OM     OM1 3239   3.420   9.123   9.543  0.0000  0.0000  0.0000
 3240OM     OM1 3240   9.015   5.066   0.648  0.0000  0.0000  0.0000
 3241OM     OM1 3241   8.829   4.950   0.510  0.0000  0.0000  0.0000
 3242OM     OM1 3242   8.751   5.109   0.704  0.0000  0.0000  0.0000
 3243OM     OM1 3243   1.917   8.303   0.191  0.0000  0.0000  0.0000
 3244OM     OM1 3244   1.698   8.173   0.166  0.0000  0.0000  0.0000
 3245OM     OM1 3245   1.887   8.110   0.013  0.0000  0.0000  0.0000
 3246OM     OM1 3246   6.230   8.392   8.610  0.0000  0.0000  0.0000
 3247OM     OM1 3247   6.219   8.594   8.764  0.0000  0.0000  0.0000
 3248OM     OM1 3248   6.158   8.624   8.507  0.0000  0.0000  0.0000
 3249OM     OM1 3249   5.996   8.503   8.661  0.0000  0.0000  0.0000
 3250OM     OM1 3250   4.978   8.093   0.770  0.0000  0.0000  0.0000
 3251OM     OM1 3251   4.897   8.293   0.630  0.0000  0.0000  0.0000
 3252OM     OM1 3252   4.957   8.073   0.516  0.0000  0.0000  0.0000
 3253OM     OM1 3253   1.570   5.503   1.154  0.0000  0.0000  0.0000
 3254OM     OM1 3254   1.350   5.457   1.002  0.0000  0.0000  0.0000
 3255OM     OM1 3255   1.572   5.346   0.961  0.0000  0.0000  0.0000
 3256OM     OM1 3256   2.343   6.246   9.426  0.0000  0.0000  0.0000
 3257OM     OM1 3257   2.392   6.498   9.374  0.0000  0.0000  0.0000
 3258OM     OM1 3258   2.412   6.310   9.185  0.0000  0.0000  0.0000
 3259OM     OM1 3259   2.585   6.312   9.389  0.0000  0.0000  0.0000
 3260OM     OM1 3260   8.021   2.950   0.625  0.0000  0.0000  0.0000
 3261OM     OM1 3261   8.082   3.080   0.402  0.0000  0.0000  0.0000
 3262OM     OM1 3262   8.249   3.087   0.602  0.0000  0.0000  0.0000
 3263OM     OM1 3263   8.203   2.863   0.470  0.0000  0.0000  0.0000
 3264OM     OM1 3264   0.227   0.631   8.640  0.0000  0.0000  0.0000
 3265OM     OM1 3265   9.507   3.281   9.518  0.0000  0.0000  0.0000
 3266OM     OM1 3266   9.534   3.507   0.058  0.0000  0.0000  0.0000
 3267OM     OM1 3267   9.305   3.426   9.552  0.0000  0.0000  0.0000
 3268OM     OM1 3268   9.406   3.314   0.155  0.0000  0.0000  0.0000
 3269OM     OM1 3269   2.865   8.983   0.151  0.0000  0.0000  0.0000
 3270OM     OM1 3270   3.071   9.148   0.194  0.0000  0.0000  0.0000
 3271OM     OM1 3271   2.828   9.230   0.242  0.0000  0.0000  0.0000
 3272OM     OM1 3272   2.933   9.051   0.390  0.0000  0.0000  0.0000
 3273OM     OM1 3273   3.465   1.814   9.053  0.0000  0.0000  0.0000
 3274OM     OM1 3274   3.357   1.571   9.088  0.0000  0.0000  0.0000
 3275OM     OM1 3275   3.403   1.664   8.849  0.0000  0.0000  0.0000
 3276OM     OM1 3276   3.600   1.596   9.007  0.0000  0.0000  0.0000
 3277OM     OM1 3277   2.396   7.265   0.016  0.0000  0.0000  0.0000
 3278OM     OM1 3278   2.622   7.393   0.030  0.0000  0.0000  0.0000
 3279OM     OM1 3279   1.730   3.272   9.079  0.0000  0.0000  0.0000
 3280OM     OM1 3280   1.619   3.071   9.205  0.0000  0.0000  0.0000
 3281OM     OM1 3281   1.504   3.315   9.192  0.0000  0.0000  0.0000
 3282OM     OM1 3282   6.470   1.947   8.501  0.0000  0.0000  0.0000
 3283OM     OM1 3283   6.237   1.905   8.602  0.0000  0.0000  0.0000
 3284OM     OM1 3284   4.553   4.482   1.131  0.0000  0.0000  0.0000
 3285OM     OM1 3285   4.453   4.674   1.274  0.0000  0.0000  0.0000
 3286OM     OM1 3286   4.829   3.686   0.062  0.0000  0.0000  0.0000
 3287OM     OM1 3287   4.842   3.704   9.405  0.0000  0.0000  0.0000
 3288OM     OM1 3288   3.233   5.921   9.232  0.0000  0.0000  0.0000
 3289OM     OM1 3289   3.414   6.083   9.331  0.0000  0.0000  0.0000
 3290OM     OM1 3290   3.443   5.981   9.084  0.0000  0.0000  0.0000
 3291OM     OM1 3291   3.717   6.771   9.258  0.0000  0.0000  0.0000
 3292OM     OM1 3292   3.758   6.728   8.937  0.0000  0.0000  0.0000
 3293OM     OM1 3293   3.761   6.954   9.086  0.0000  0.0000  0.0000
 3294OM     OM1 3294   3.975   6.833   9.016  0.0000  0.0000  0.0000
 3295OM     OM1 3295   8.224   3.782   8.956  0.0000  0.0000  0.0000
 3296OM     OM1 3296   8.167   4.034   8.929  0.0000  0.0000  0.0000
 3297OM     OM1 3297   8.158   3.929   9.163  0.0000  0.0000  0.0000
 3298OM     OM1 3298   4.946   2.144   0.803  0.0000  0.0000  0.0000
 3299OM     OM1 3299   4.947   1.832   1.111  0.0000  0.0000  0.0000
 3300OM     OM1 3300   4.894   2.091   1.054  0.0000  0.0000  0.0000
 3301OM     OM1 3301   4.722   1.941   1.192  0.0000  0.0000  0.0000
 3302OM     OM1 3302   2.001   5.005   8.320  0.0000  0.0000  0.0000
 3303OM     OM1 3303   1.920   4.764   8.266  0.0000  0.0000  0.0000
 3304OM     OM1 3304   1.814   4.887   8.469  0.0000  0.0000  0.0000
 3305OM     OM1 3305   7.516   3.057   9.162  0.0000  0.0000  0.0000
 3306OM     OM1 3306   7.477   3.290   9.282  0.0000  0.0000  0.0000
 3307OM     OM1 3307   7.531   3.080   9.421  0.0000  0.0000  0.0000
 3308OM     OM1 3308   7.302   3.098   9.309  0.0000  0.0000  0.0000
 3309OM     OM1 3309   8.126   0.826   9.263  0.0000  0.0000  0.0000
 3310OM     OM1 3310   8.224   1.025   9.137  0.0000  0.0000  0.0000
 3311OM     OM1 3311   8.207   0.799   9.010  0.0000  0.0000  0.0000
 3312OM     OM1 3312   8.391   0.829   9.199  0.0000  0.0000  0.0000
 3313OM     OM1 3313   8.536   1.374   0.899  0.0000  0.0000  0.0000
 3314OM     OM1 3314   8.621   1.434   0.658  0.0000  0.0000  0.0000
 3315OM     OM1 3315   8.769   1.503   0.856  0.0000  0.0000  0.0000
 3316OM     OM1 3316   8.531   1.620   0.826  0.0000  0.0000  0.0000
 3317OM     OM1 3317   3.902   8.905   0.462  0.0000  0.0000  0.0000
 3318OM     OM1 3318   4.001   8.659   0.458  0.0000  0.0000  0.0000
 3319OM     OM1 3319   3.842   8.739   0.268  0.0000  0.0000  0.0000
 3320OM     OM1 3320   2.046   1.974   0.758  0.0000  0.0000  0.0000
 3321OM     OM1 3321   1.801   1.870   0.766  0.0000  0.0000  0.0000
 3322OM     OM1 3322   1.978   1.762   0.912  0.0000  0.0000  0.0000
 3323OM     OM1 3323   8.710   7.250   9.112  0.0000  0.0000  0.0000
 3324OM     OM1 3324   8.897   7.362   8.968  0.0000  0.0000  0.0000
 3325OM     OM1 3325   0.740   9.595   9.568  0.0000  0.0000  0.0000
 3326OM     OM1 3326   0.886   0.100   9.368  0.0000  0.0000  0.0000
 3327OM     OM1 3327   0.999   0.021   9.584  0.0000  0.0000  0.0000
 3328OM     OM1 3328   0.971   0.013   9.141  0.0000  0.0000  0.0000
 3329OM     OM1 3329   1.817   4.421   1.093  0.0000  0.0000  0.0000
 3330OM     OM1 3330   2.023   4.497   0.926  0.0000  0.0000  0.0000
 3331OM     OM1 3331   1.874   4.667   1.058  0.0000  0.0000  0.0000
 3332OM     OM1 3332   2.043   4.503   1.184  0.0000  0.0000  0.0000
 3333OM     OM1 3333   4.317   8.380   1.233  0.0000  0.0000  0.0000
 3334OM     OM1 3334   4.071   8.356   1.173  0.0000  0.0000  0.0000
 3335OM     OM1 3335   4.220   8.151   1.133  0.0000  0.0000  0.0000
 3336OM     OM1 3336   9.179   1.915   1.253  0.0000  0.0000  0.0000
 3337OM     OM1 3337   9.042   1.696   1.293  0.0000  0.0000  0.0000
 3338OM     OM1 3338   2.826   5.656   1.421  0.0000  0.0000  0.0000
 3339OM     OM1 3339   2.942   5.502   1.261  0.0000  0.0000  0.0000
 3340OM     OM1 3340   1.935   6.463   8.815  0.0000  0.0000  0.0000
 3341OM     OM1 3341   1.807   6.476   9.046  0.0000  0.0000  0.0000
 3342OM     OM1 3342   1.702   6.586   8.833  0.0000  0.0000  0.0000
 3343OM     OM1 3343   1.711   6.331   8.841  0.0000  0.0000  0.0000
 3344OM     OM1 3344   3.507   2.801   1.148  0.0000  0.0000  0.0000
 3345OM     OM1 3345   3.677   2.605   1.193  0.0000  0.0000  0.0000
 3346OM     OM1 3346   3.478   2.564   1.039  0.0000  0.0000  0.0000
 3347OM     OM1 3347   3.435   2.596   1.291  0.0000  0.0000  0.0000
 3348OM     OM1 3348   6.853   8.240   0.818  0.0000  0.0000  0.0000
 3349OM     OM1 3349   6.703   8.264   0.598  0.0000  0.0000  0.0000
 3350OM     OM1 3350   6.759   8.027   0.726  0.0000  0.0000  0.0000
 3351OM     OM1 3351   4.824   1.085   8.552  0.0000  0.0000  0.0000
 3352OM     OM1 3352   5.013   1.259   8.554  0.0000  0.0000  0.0000
 3353OM     OM1 3353   5.083   1.019   8.475  0.0000  0.0000  0.0000
 3354OM     OM1 3354   4.512   9.330   9.506  0.0000  0.0000  0.0000
 3355OM     OM1 3355   4.266   9.381   9.558  0.0000  0.0000  0.0000
 3356OM     OM1 3356   4.343   9.315   9.306  0.0000  0.0000  0.0000
 3357OM     OM1 3357   5.550   9.505   0.857  0.0000  0.0000  0.0000
 3358OM     OM1 3358   5.590   9.180   1.211  0.0000  0.0000  0.0000
 3359OM     OM1 3359   5.486   9.324   1.026  0.0000  0.0000  0.0000
 3360OM     OM1 3360   5.647   9.122   0.960  0.0000  0.0000  0.0000
 3361OM     OM1 3361   5.361   9.236   8.911  0.0000  0.0000  0.0000
 3362OM     OM1 3362   5.404   9.148   8.667  0.0000  0.0000  0.0000
 3363OM     OM1 3363   5.534   9.045   8.859  0.0000  0.0000  0.0000
 3364OM     OM1 3364   2.190   4.649   8.553  0.0000  0.0000  0.0000
 3365OM     OM1 3365   2.152   4.655   8.286  0.0000  0.0000  0.0000
 3366OM     OM1 3366   2.060   4.337   8.626  0.0000  0.0000  0.0000
 3367OM     OM1 3367   2.158   4.429   8.412  0.0000  0.0000  0.0000
 3368OM     OM1 3368   5.340   1.386   0.926  0.0000  0.0000  0.0000
 3369OM     OM1 3369   5.454   1.481   0.713  0.0000  0.0000  0.0000
 3370OM     OM1 3370   5.255   1.605   0.806  0.0000  0.0000  0.0000
 3371OM     OM1 3371   0.119   6.876   8.269  0.0000  0.0000  0.0000
 3372OM     OM1 3372   9.411   8.892   1.199  0.0000  0.0000  0.0000
 3373OM     OM1 3373   9.409   8.966   0.946  0.0000  0.0000  0.0000
 3374OM     OM1 3374   9.316   8.728   1.025  0.0000  0.0000  0.0000
 3375OM     OM1 3375   9.190   8.952   1.087  0.0000  0.0000  0.0000
 3376OM     OM1 3376   3.965   1.811   1.194  0.0000  0.0000  0.0000
 3377OM     OM1 3377   4.057   1.994   1.014  0.0000  0.0000  0.0000
 3378OM     OM1 3378   4.216   1.876   1.175  0.0000  0.0000  0.0000
 3379OM     OM1 3379   8.676   3.653   1.318  0.0000  0.0000  0.0000
 3380OM     OM1 3380   8.902   3.659   1.426  0.0000  0.0000  0.0000
 3381OM     OM1 3381   3.685   9.303   0.412  0.0000  0.0000  0.0000
 3382OM     OM1 3382   3.676   9.566   0.452  0.0000  0.0000  0.0000
 3383OM     OM1 3383   3.688   9.465   0.205  0.0000  0.0000  0.0000
 3384OM     OM1 3384   3.891   9.482   0.363  0.0000  0.0000  0.0000
 3385OM     OM1 3385   2.155   1.752   8.446  0.0000  0.0000  0.0000
 3386OM     OM1 3386   2.374   1.850   8.543  0.0000  0.0000  0.0000
 3387OM     OM1 3387   2.372   1.611   8.423  0.0000  0.0000  0.0000
 3388OM     OM1 3388   2.507   1.162   9.030  0.0000  0.0000  0.0000
 3389OM     OM1 3389   2.474   1.314   8.821  0.0000  0.0000  0.0000
 3390OM     OM1 3390   2.692   1.170   8.858  0.0000  0.0000  0.0000
 3391OM     OM1 3391   2.633   1.391   9.007  0.0000  0.0000  0.0000
 3392OM     OM1 3392   8.704   5.727   9.596  0.0000  0.0000  0.0000
 3393OM     OM1 3393   8.827   5.689   9.376  0.0000  0.0000  0.0000
 3394OM     OM1 3394   8.940   5.605   9.602  0.0000  0.0000  0.0000
 3395OM     OM1 3395   8.729   5.484   9.499  0.0000  0.0000  0.0000
 3396OM     OM1 3396   0.713   6.622   8.703  0.0000  0.0000  0.0000
 3397OM     OM1 3397   0.924   6.761   8.739  0.0000  0.0000  0.0000
 3398OM     OM1 3398   0.681   6.871   8.768  0.0000  0.0000  0.0000
 3399OM     OM1 3399   8.153   5.571   8.826  0.0000  0.0000  0.0000
 3400OM     OM1 3400   7.906   5.644   8.788  0.0000  0.0000  0.0000
 3401OM     OM1 3401   8.117   5.794   8.701  0.0000  0.0000  0.0000
 3402OM     OM1 3402   2.097   2.312   9.545  0.0000  0.0000  0.0000
 3403OM     OM1 3403   2.262   2.519   9.539  0.0000  0.0000  0.0000
 3404OM     OM1 3404   2.173   2.414   0.163  0.0000  0.0000  0.0000
 3405OM     OM1 3405   2.012   2.548   9.604  0.0000  0.0000  0.0000
 3406OM     OM1 3406   1.794   0.578   1.002  0.0000  0.0000  0.0000
 3407OM     OM1 3407   6.030   7.507   0.894  0.0000  0.0000  0.0000
 3408OM     OM1 3408   6.015   7.731   1.032  0.0000  0.0000  0.0000
 3409OM     OM1 3409   6.095   7.970   1.112  0.0000  0.0000  0.0000
 3410OM     OM1 3410   5.655   5.289   0.503  0.0000  0.0000  0.0000
 3411OM     OM1 3411   5.430   5.298   0.638  0.0000  0.0000  0.0000
 3412OM     OM1 3412   5.658   5.336   0.759  0.0000  0.0000  0.0000
 3413OM     OM1 3413   5.591   5.096   0.672  0.0000  0.0000  0.0000
 3414OM     OM1 3414   1.023   7.434   0.632  0.0000  0.0000  0.0000
 3415OM     OM1 3415   0.777   7.388   0.542  0.0000  0.0000  0.0000
 3416OM     OM1 3416   1.287   7.386   0.612  0.0000  0.0000  0.0000
 3417OM     OM1 3417   0.154   1.491   8.386  0.0000  0.0000  0.0000
 3418OM     OM1 3418   0.364   1.495   8.242  0.0000  0.0000  0.0000
 3419OM     OM1 3419   0.289   1.270   8.351  0.0000  0.0000  0.0000
 3420OM     OM1 3420   7.898   1.904   9.099  0.0000  0.0000  0.0000
 3421OM     OM1 3421   7.798   2.028   8.884  0.0000  0.0000  0.0000
 3422OM     OM1 3422   8.055   1.964   8.900  0.0000  0.0000  0.0000
 3423OM     OM1 3423   7.872   1.780   8.870  0.0000  0.0000  0.0000
 3424OM     OM1 3424   5.323   3.610   1.205  0.0000  0.0000  0.0000
 3425OM     OM1 3425   5.189   3.424   1.333  0.0000  0.0000  0.0000
 3426OM     OM1 3426   7.177   8.702   0.392  0.0000  0.0000  0.0000
 3427OM     OM1 3427   7.215   8.768   0.145  0.0000  0.0000  0.0000
 3428OM     OM1 3428   7.358   8.580   0.250  0.0000  0.0000  0.0000
 3429OM     OM1 3429   7.402   8.832   0.310  0.0000  0.0000  0.0000
 3430OM     OM1 3430   1.048   2.687   8.363  0.0000  0.0000  0.0000
 3431OM     OM1 3431   0.825   2.543   8.375  0.0000  0.0000  0.0000
 3432OM     OM1 3432   6.491   8.255   0.090  0.0000  0.0000  0.0000
 3433OM     OM1 3433   6.428   7.995   0.133  0.0000  0.0000  0.0000
 3434OM     OM1 3434   0.930   5.435   1.192  0.0000  0.0000  0.0000
 3435OM     OM1 3435   7.317   7.753   0.258  0.0000  0.0000  0.0000
 3436OM     OM1 3436   7.195   7.891   0.074  0.0000  0.0000  0.0000
 3437OM     OM1 3437   7.310   7.653   0.022  0.0000  0.0000  0.0000
 3438OM     OM1 3438   7.455   7.866   0.064  0.0000  0.0000  0.0000
 3439OM     OM1 3439   8.694   5.590   9.170  0.0000  0.0000  0.0000
 3440OM     OM1 3440   8.566   5.358   9.132  0.0000  0.0000  0.0000
 3441OM     OM1 3441   8.581   5.524   8.935  0.0000  0.0000  0.0000
 3442OM     OM1 3442   8.432   5.575   9.138  0.0000  0.0000  0.0000
 3443OM     OM1 3443   9.253   8.496   1.136  0.0000  0.0000  0.0000
 3444OM     OM1 3444   7.368   0.285   0.388  0.0000  0.0000  0.0000
 3445OM     OM1 3445   7.334   0.353   0.639  0.0000  0.0000  0.0000
 3446OM     OM1 3446   7.568   0.382   0.534  0.0000  0.0000  0.0000
 3447OM     OM1 3447   7.363   0.536   0.459  0.0000  0.0000  0.0000
 3448OM     OM1 3448   1.688   0.060   1.047  0.0000  0.0000  0.0000
 3449OM     OM1 3449   1.953   0.037   0.991  0.0000  0.0000  0.0000
 3450OM     OM1 3450   1.780   0.182   0.849  0.0000  0.0000  0.0000
 3451OM     OM1 3451   1.775   9.526   0.842  0.0000  0.0000  0.0000
 3452OM     OM1 3452   6.764   6.894   8.794  0.0000  0.0000  0.0000
 3453OM     OM1 3453   6.691   6.736   8.600  0.0000  0.0000  0.0000
 3454OM     OM1 3454   4.742   1.319   0.508  0.0000  0.0000  0.0000
 3455OM     OM1 3455   4.930   1.153   0.412  0.0000  0.0000  0.0000
 3456OM     OM1 3456   4.786   1.099   0.639  0.0000  0.0000  0.0000
 3457OM     OM1 3457   9.175   8.823   0.323  0.0000  0.0000  0.0000
 3458OM     OM1 3458   9.546   8.573   0.158  0.0000  0.0000  0.0000
 3459OM     OM1 3459   9.300   8.734   0.528  0.0000  0.0000  0.0000
 3460OM     OM1 3460   3.045   8.973   8.553  0.0000  0.0000  0.0000
 3461OM     OM1 3461   2.927   9.190   8.568  0.0000  0.0000  0.0000
 3462OM     OM1 3462   3.164   9.183   8.669  0.0000  0.0000  0.0000
 3463OM     OM1 3463   3.155   9.173   8.418  0.0000  0.0000  0.0000
 3464OM     OM1 3464   3.692   0.630   0.828  0.0000  0.0000  0.0000
 3465OM     OM1 3465   3.659   0.427   0.660  0.0000  0.0000  0.0000
 3466OM     OM1 3466   3.853   0.616   0.626  0.0000  0.0000  0.0000
 3467OM     OM1 3467   3.609   0.661   0.574  0.0000  0.0000  0.0000
 3468OM     OM1 3468   4.320   4.451   8.581  0.0000  0.0000  0.0000
 3469OM     OM1 3469   4.483   4.622   8.688  0.0000  0.0000  0.0000
 3470OM     OM1 3470   4.283   4.711   8.549  0.0000  0.0000  0.0000
 3471OM     OM1 3471   5.439   0.647   0.224  0.0000  0.0000  0.0000
 3472OM     OM1 3472   5.487   0.898   0.171  0.0000  0.0000  0.0000
 3473OM     OM1 3473   5.556   0.731   9.605  0.0000  0.0000  0.0000
 3474OM     OM1 3474   5.295   0.759   0.037  0.0000  0.0000  0.0000
 3475OM     OM1 3475   0.992   5.637   1.033  0.0000  0.0000  0.0000
 3476OM     OM1 3476   0.789   5.670   1.189  0.0000  0.0000  0.0000
 3477OM     OM1 3477   4.621   2.904   8.502  0.0000  0.0000  0.0000
 3478OM     OM1 3478   4.824   2.831   8.351  0.0000  0.0000  0.0000
 3479OM     OM1 3479   4.718   3.059   8.307  0.0000  0.0000  0.0000
 3480OM     OM1 3480   4.520   6.988   8.983  0.0000  0.0000  0.0000
 3481OM     OM1 3481   4.426   6.861   9.193  0.0000  0.0000  0.0000
 3482OM     OM1 3482   4.589   7.057   9.224  0.0000  0.0000  0.0000
 3483OM     OM1 3483   4.681   6.832   9.117  0.0000  0.0000  0.0000
 3484OM     OM1 3484   3.507   9.505   8.725  0.0000  0.0000  0.0000
 3485OM     OM1 3485   3.471   0.164   8.684  0.0000  0.0000  0.0000
 3486OM     OM1 3486   2.650   4.884   8.480  0.0000  0.0000  0.0000
 3487OM     OM1 3487   2.449   5.035   8.525  0.0000  0.0000  0.0000
 3488OM     OM1 3488   2.672   5.156   8.475  0.0000  0.0000  0.0000
 3489OM     OM1 3489   2.782   3.833   8.552  0.0000  0.0000  0.0000
 3490OM     OM1 3490   2.689   3.655   8.378  0.0000  0.0000  0.0000
 3491OM     OM1 3491   2.531   3.799   8.514  0.0000  0.0000  0.0000
 3492OM     OM1 3492   0.433   3.240   1.361  0.0000  0.0000  0.0000
 3493OM     OM1 3493   0.535   3.479   1.280  0.0000  0.0000  0.0000
 3494OM     OM1 3494   2.929   4.274   1.205  0.0000  0.0000  0.0000
 3495OM     OM1 3495   3.672   6.381   0.660  0.0000  0.0000  0.0000
 3496OM     OM1 3496   3.663   6.132   0.670  0.0000  0.0000  0.0000
 3497OM     OM1 3497   3.493   6.258   0.823  0.0000  0.0000  0.0000
 3498OM     OM1 3498   3.466   6.255   0.561  0.0000  0.0000  0.0000
 3499OM     OM1 3499   7.591   1.873   1.079  0.0000  0.0000  0.0000
 3500OM     OM1 3500   7.578   1.620   1.158  0.0000  0.0000  0.0000
 3501OM     OM1 3501   7.506   1.677   0.927  0.0000  0.0000  0.0000
 3502OM     OM1 3502   7.767   1.708   0.998  0.0000  0.0000  0.0000
 3503OM     OM1 3503   8.274   7.996   1.028  0.0000  0.0000  0.0000
 3504OM     OM1 3504   8.155   7.789   1.145  0.0000  0.0000  0.0000
 3505OM     OM1 3505   8.257   7.773   0.906  0.0000  0.0000  0.0000
 3506OM     OM1 3506   5.438   2.234   9.591  0.0000  0.0000  0.0000
 3507OM     OM1 3507   5.263   2.052   0.044  0.0000  0.0000  0.0000
 3508OM     OM1 3508   5.196   2.277   9.525  0.0000  0.0000  0.0000
 3509OM     OM1 3509   5.262   2.261   0.186  0.0000  0.0000  0.0000
 3510OM     OM1 3510   7.796   2.884   0.508  0.0000  0.0000  0.0000
 3511OM     OM1 3511   7.568   2.768   0.551  0.0000  0.0000  0.0000
 3512OM     OM1 3512   7.623   2.851   0.305  0.0000  0.0000  0.0000
 3513OM     OM1 3513   7.574   3.021   0.490  0.0000  0.0000  0.0000
 3514OM     OM1 3514   1.372   0.391   0.646  0.0000  0.0000  0.0000
 3515OM     OM1 3515   1.365   0.142   0.555  0.0000  0.0000  0.0000
 3516OM     OM1 3516   7.641   2.825   9.169  0.0000  0.0000  0.0000
 3517OM     OM1 3517   7.744   2.855   9.412  0.0000  0.0000  0.0000
 3518OM     OM1 3518   0.182   8.615   8.400  0.0000  0.0000  0.0000
 3519OM     OM1 3519   0.108   8.864   8.382  0.0000  0.0000  0.0000
 3520OM     OM1 3520   9.553   8.692   8.495  0.0000  0.0000  0.0000
 3521OM     OM1 3521   2.453   7.978   8.552  0.0000  0.0000  0.0000
 3522OM     OM1 3522   2.303   7.782   8.616  0.0000  0.0000  0.0000
 3523OM     OM1 3523   2.558   7.781   8.692  0.0000  0.0000  0.0000
 3524OM     OM1 3524   2.499   7.737   8.446  0.0000  0.0000  0.0000
 3525OM     OM1 3525   4.580   2.679   1.244  0.0000  0.0000  0.0000
 3526OM     OM1 3526   4.741   2.522   1.104  0.0000  0.0000  0.0000
 3527OM     OM1 3527   4.565   2.420   1.260  0.0000  0.0000  0.0000
 3528OM     OM1 3528   8.112   1.336   8.957  0.0000  0.0000  0.0000
 3529OM     OM1 3529   8.344   1.290   8.872  0.0000  0.0000  0.0000
 3530OM     OM1 3530   8.141   1.141   8.784  0.0000  0.0000  0.0000
 3531OM     OM1 3531   7.891   0.536   8.704  0.0000  0.0000  0.0000
 3532OM     OM1 3532   8.076   0.406   8.819  0.0000  0.0000  0.0000
 3533OM     OM1 3533   8.114   0.655   8.804  0.0000  0.0000  0.0000
 3534OM     OM1 3534   7.927   0.591   8.957  0.0000  0.0000  0.0000
 3535OM     OM1 3535   3.237   0.546   8.507  0.0000  0.0000  0.0000
 3536OM     OM1 3536   3.419   0.352   8.519  0.0000  0.0000  0.0000
 3537OM     OM1 3537   3.262   0.378   8.309  0.0000  0.0000  0.0000
 3538OM     OM1 3538   2.252   0.993   0.905  0.0000  0.0000  0.0000
 3539OM     OM1 3539   2.355   0.824   1.082  0.0000  0.0000  0.0000
 3540OM     OM1 3540   2.195   1.016   1.162  0.0000  0.0000  0.0000
 3541OM     OM1 3541   2.426   1.081   1.078  0.0000  0.0000  0.0000
 3542OM     OM1 3542   7.970   0.131   1.115  0.0000  0.0000  0.0000
 3543OM     OM1 3543   7.719   0.113   1.173  0.0000  0.0000  0.0000
 3544OM     OM1 3544   7.814   0.335   1.058  0.0000  0.0000  0.0000
 3545OM     OM1 3545   7.774   0.118   0.925  0.0000  0.0000  0.0000
 3546OM     OM1 3546   6.874   3.780   9.535  0.0000  0.0000  0.0000
 3547OM     OM1 3547   6.692   3.967   9.555  0.0000  0.0000  0.0000
 3548OM     OM1 3548   6.925   3.995   0.079  0.0000  0.0000  0.0000
 3549OM     OM1 3549   8.583   9.127   1.267  0.0000  0.0000  0.0000
 3550OM     OM1 3550   8.475   9.154   1.048  0.0000  0.0000  0.0000
 3551OM     OM1 3551   8.615   9.350   1.112  0.0000  0.0000  0.0000
 3552OM     OM1 3552   8.755   9.150   1.058  0.0000  0.0000  0.0000
 3553OM     OM1 3553   2.010   4.147   9.596  0.0000  0.0000  0.0000
 3554OM     OM1 3554   1.998   4.016   9.376  0.0000  0.0000  0.0000
 3555OM     OM1 3555   0.770   5.998   0.284  0.0000  0.0000  0.0000
 3556OM     OM1 3556   0.961   5.807   0.308  0.0000  0.0000  0.0000
 3557OM     OM1 3557   0.964   5.988   0.117  0.0000  0.0000  0.0000
 3558OM     OM1 3558   0.787   5.795   0.121  0.0000  0.0000  0.0000
 3559OM     OM1 3559   3.914   2.765   1.333  0.0000  0.0000  0.0000
 3560OM     OM1 3560   3.929   3.021   1.318  0.0000  0.0000  0.0000
 3561OM     OM1 3561   3.697   2.917   1.282  0.0000  0.0000  0.0000
 3562OM     OM1 3562   4.230   4.324   9.506  0.0000  0.0000  0.0000
 3563OM     OM1 3563   4.184   3.976   0.014  0.0000  0.0000  0.0000
 3564OM     OM1 3564   4.207   4.196   0.130  0.0000  0.0000  0.0000
 3565OM     OM1 3565   4.440   4.303   0.068  0.0000  0.0000  0.0000
 3566OM     OM1 3566   6.175   7.541   8.459  0.0000  0.0000  0.0000
 3567OM     OM1 3567   6.042   7.743   8.352  0.0000  0.0000  0.0000
 3568OM     OM1 3568   6.048   7.507   8.237  0.0000  0.0000  0.0000
 3569OM     OM1 3569   7.528   6.498   8.259  0.0000  0.0000  0.0000
 3570OM     OM1 3570   7.634   6.747   8.258  0.0000  0.0000  0.0000
 3571OM     OM1 3571   6.176   9.498   8.781  0.0000  0.0000  0.0000
 3572OM     OM1 3572   5.951   9.413   8.659  0.0000  0.0000  0.0000
 3573OM     OM1 3573   5.950   9.524   8.901  0.0000  0.0000  0.0000
 3574OM     OM1 3574   6.041   9.293   8.873  0.0000  0.0000  0.0000
 3575OM     OM1 3575   4.983   0.938   0.290  0.0000  0.0000  0.0000
 3576OM     OM1 3576   5.127   1.145   0.231  0.0000  0.0000  0.0000
 3577OM     OM1 3577   4.434   7.156   8.796  0.0000  0.0000  0.0000
 3578OM     OM1 3578   4.771   7.403   9.003  0.0000  0.0000  0.0000
 3579OM     OM1 3579   4.563   7.289   9.120  0.0000  0.0000  0.0000
 3580OM     OM1 3580   9.191   8.805   9.007  0.0000  0.0000  0.0000
 3581OM     OM1 3581   9.222   8.587   8.866  0.0000  0.0000  0.0000
 3582OM     OM1 3582   9.309   8.583   9.109  0.0000  0.0000  0.0000
 3583OM     OM1 3583   7.144   8.099   0.228  0.0000  0.0000  0.0000
 3584OM     OM1 3584   6.710   5.769   0.412  0.0000  0.0000  0.0000
 3585OM     OM1 3585   6.786   5.753   0.659  0.0000  0.0000  0.0000
 3586OM     OM1 3586   6.961   5.745   0.464  0.0000  0.0000  0.0000
 3587OM     OM1 3587   5.683   1.072   1.029  0.0000  0.0000  0.0000
 3588OM     OM1 3588   5.920   1.063   1.111  0.0000  0.0000  0.0000
 3589OM     OM1 3589   5.946   0.821   1.001  0.0000  0.0000  0.0000
 3590OM     OM1 3590   6.096   1.011   0.913  0.0000  0.0000  0.0000
 3591OM     OM1 3591   4.277   4.356   0.746  0.0000  0.0000  0.0000
 3592OM     OM1 3592   4.091   4.518   0.815  0.0000  0.0000  0.0000
 3593OM     OM1 3593   4.024   4.299   0.690  0.0000  0.0000  0.0000
 3594OM     OM1 3594   4.140   4.496   0.560  0.0000  0.0000  0.0000
 3595OM     OM1 3595   2.484   5.449   1.124  0.0000  0.0000  0.0000
 3596OM     OM1 3596   2.742   5.424   1.093  0.0000  0.0000  0.0000
 3597OM     OM1 3597   2.577   5.227   1.028  0.0000  0.0000  0.0000
 3598OM     OM1 3598   8.707   2.280   9.419  0.0000  0.0000  0.0000
 3599OM     OM1 3599   8.952   2.282   9.550  0.0000  0.0000  0.0000
 3600OM     OM1 3600   8.743   2.163   0.042  0.0000  0.0000  0.0000
 3601OM     OM1 3601   8.743   9.577   8.277  0.0000  0.0000  0.0000
 3602OM     OM1 3602   6.061   3.420   1.207  0.0000  0.0000  0.0000
 3603OM     OM1 3603   5.935   3.186   1.253  0.0000  0.0000  0.0000
 3604OM     OM1 3604   6.182   3.197   1.235  0.0000  0.0000  0.0000
 3605OM     OM1 3605   8.800   8.594   0.088  0.0000  0.0000  0.0000
 3606OM     OM1 3606   8.562   8.556   0.197  0.0000  0.0000  0.0000
 3607OM     OM1 3607   8.659   8.362   0.067  0.0000  0.0000  0.0000
 3608OM     OM1 3608   8.596   8.571   9.544  0.0000  0.0000  0.0000
 3609OM     OM1 3609   7.204   6.775   9.244  0.0000  0.0000  0.0000
 3610OM     OM1 3610   7.034   6.684   9.421  0.0000  0.0000  0.0000
 3611OM     OM1 3611   7.155   6.922   9.454  0.0000  0.0000  0.0000
 3612OM     OM1 3612   7.289   6.701   9.479  0.0000  0.0000  0.0000
 3613OM     OM1 3613   3.795   7.345   0.056  0.0000  0.0000  0.0000
 3614OM     OM1 3614   3.649   7.545   9.592  0.0000  0.0000  0.0000
 3615OM     OM1 3615   3.633   7.448   0.234  0.0000  0.0000  0.0000
 3616OM     OM1 3616   3.538   7.317   0.030  0.0000  0.0000  0.0000
 3617OM     OM1 3617   8.641   3.241   0.316  0.0000  0.0000  0.0000
 3618OM     OM1 3618   8.164   3.225   0.198  0.0000  0.0000  0.0000
 3619OM     OM1 3619   8.373   3.237   0.023  0.0000  0.0000  0.0000
 3620OM     OM1 3620   7.672   4.451   8.657  0.0000  0.0000  0.0000
 3621OM     OM1 3621   7.546   4.525   8.884  0.0000  0.0000  0.0000
 3622OM     OM1 3622   7.576   4.277   8.818  0.0000  0.0000  0.0000
 3623OM     OM1 3623   3.726   4.475   1.076  0.0000  0.0000  0.0000
 3624OM     OM1 3624   3.468   4.525   1.030  0.0000  0.0000  0.0000
 3625OM     OM1 3625   3.228   4.492   1.135  0.0000  0.0000  0.0000
 3626OM     OM1 3626   3.654   4.714   1.045  0.0000  0.0000  0.0000
 3627OM     OM1 3627   2.893   8.233   8.319  0.0000  0.0000  0.0000
 3628OM     OM1 3628   2.690   8.597   8.411  0.0000  0.0000  0.0000
 3629OM     OM1 3629   5.328   3.403   0.077  0.0000  0.0000  0.0000
 3630OM     OM1 3630   5.337   3.150   0.107  0.0000  0.0000  0.0000
 3631OM     OM1 3631   5.463   3.597   9.583  0.0000  0.0000  0.0000
 3632OM     OM1 3632   0.230   5.480   8.525  0.0000  0.0000  0.0000
 3633OM     OM1 3633   0.189   5.259   8.412  0.0000  0.0000  0.0000
 3634OM     OM1 3634   0.249   5.260   8.676  0.0000  0.0000  0.0000
 3635OM     OM1 3635   0.024   5.398   8.276  0.0000  0.0000  0.0000
 3636OM     OM1 3636   0.315   0.356   0.301  0.0000  0.0000  0.0000
 3637OM     OM1 3637   0.461   0.534   0.432  0.0000  0.0000  0.0000
 3638OM     OM1 3638   9.325   4.412   0.741  0.0000  0.0000  0.0000
 3639OM     OM1 3639   9.580   4.408   0.796  0.0000  0.0000  0.0000
 3640OM     OM1 3640   9.437   4.206   0.856  0.0000  0.0000  0.0000
 3641OM     OM1 3641   9.481   4.251   0.604  0.0000  0.0000  0.0000
 3642OM     OM1 3642   0.367   1.396   1.195  0.0000  0.0000  0.0000
 3643OM     OM1 3643   0.576   1.232   1.191  0.0000  0.0000  0.0000
 3644OM     OM1 3644   7.654   3.360   1.305  0.0000  0.0000  0.0000
 3645OM     OM1 3645   7.636   3.604   1.422  0.0000  0.0000  0.0000
 3646OM     OM1 3646   4.928   4.236   0.012  0.0000  0.0000  0.0000
 3647OM     OM1 3647   4.842   4.158   0.240  0.0000  0.0000  0.0000
 3648OM     OM1 3648   4.703   4.339   0.103  0.0000  0.0000  0.0000
 3649OM     OM1 3649   2.746   6.360   9.582  0.0000  0.0000  0.0000
 3650OM     OM1 3650   2.794   6.148   9.421  0.0000  0.0000  0.0000
 3651OM     OM1 3651   4.651   7.011   0.222  0.0000  0.0000  0.0000
 3652OM     OM1 3652   4.607   7.007   0.475  0.0000  0.0000  0.0000
 3653OM     OM1 3653   4.415   6.933   0.322  0.0000  0.0000  0.0000
 3654OM     OM1 3654   6.001   7.365   9.108  0.0000  0.0000  0.0000
 3655OM     OM1 3655   5.828   7.693   9.453  0.0000  0.0000  0.0000
 3656OM     OM1 3656   5.935   7.592   9.004  0.0000  0.0000  0.0000
 3657OM     OM1 3657   5.869   7.538   9.244  0.0000  0.0000  0.0000
 3658OM     OM1 3658   7.127   4.451   9.420  0.0000  0.0000  0.0000
 3659OM     OM1 3659   7.165   4.373   9.172  0.0000  0.0000  0.0000
 3660OM     OM1 3660   7.309   4.273   9.352  0.0000  0.0000  0.0000
 3661OM     OM1 3661   7.324   3.971   9.058  0.0000  0.0000  0.0000
 3662OM     OM1 3662   7.426   4.071   8.835  0.0000  0.0000  0.0000
 3663OM     OM1 3663   7.286   4.223   8.996  0.0000  0.0000  0.0000
 3664OM     OM1 3664   3.515   7.306   9.220  0.0000  0.0000  0.0000
 3665OM     OM1 3665   3.376   7.267   9.434  0.0000  0.0000  0.0000
 3666OM     OM1 3666   3.253   7.358   9.222  0.0000  0.0000  0.0000
 3667OM     OM1 3667   3.350   7.106   9.231  0.0000  0.0000  0.0000
 3668OM     OM1 3668   9.306   1.015   1.020  0.0000  0.0000  0.0000
 3669OM     OM1 3669   9.346   1.235   0.896  0.0000  0.0000  0.0000
 3670OM     OM1 3670   9.132   1.107   0.838  0.0000  0.0000  0.0000
 3671OM     OM1 3671   9.152   1.233   1.063  0.0000  0.0000  0.0000
 3672OM     OM1 3672   2.693   4.324   0.482  0.0000  0.0000  0.0000
 3673OM     OM1 3673   2.596   4.128   0.337  0.0000  0.0000  0.0000
 3674OM     OM1 3674   2.694   4.078   0.575  0.0000  0.0000  0.0000
 3675OM     OM1 3675   2.845   4.155   0.363  0.0000  0.0000  0.0000
 3676OM     OM1 3676   7.559   9.266   1.342  0.0000  0.0000  0.0000
 3677OM     OM1 3677   7.583   9.003   1.304  0.0000  0.0000  0.0000
 3678OM     OM1 3678   8.179   1.808   8.569  0.0000  0.0000  0.0000
 3679OM     OM1 3679   8.347   1.983   8.493  0.0000  0.0000  0.0000
 3680OM     OM1 3680   8.171   2.044   8.678  0.0000  0.0000  0.0000
 3681OM     OM1 3681   3.411   1.369   8.940  0.0000  0.0000  0.0000
 3682OM     OM1 3682   3.368   1.325   9.194  0.0000  0.0000  0.0000
 3683OM     OM1 3683   8.911   0.934   9.127  0.0000  0.0000  0.0000
 3684OM     OM1 3684   8.666   0.864   9.236  0.0000  0.0000  0.0000
 3685OM     OM1 3685   8.720   1.101   9.156  0.0000  0.0000  0.0000
 3686OM     OM1 3686   8.434   2.318   1.159  0.0000  0.0000  0.0000
 3687OM     OM1 3687   8.417   2.285   0.896  0.0000  0.0000  0.0000
 3688OM     OM1 3688   2.577   1.909   8.687  0.0000  0.0000  0.0000
 3689OM     OM1 3689   2.728   1.803   8.870  0.0000  0.0000  0.0000
 3690OM     OM1 3690   2.744   1.706   8.630  0.0000  0.0000  0.0000
 3691OM     OM1 3691   6.406   4.490   0.347  0.0000  0.0000  0.0000
 3692OM     OM1 3692   6.625   4.633   0.389  0.0000  0.0000  0.0000
 3693OM     OM1 3693   6.635   4.419   0.236  0.0000  0.0000  0.0000
 3694OM     OM1 3694   9.546   1.582   0.006  0.0000  0.0000  0.0000
 3695OM     OM1 3695   0.003   1.492   0.248  0.0000  0.0000  0.0000
 3696OM     OM1 3696   0.070   1.728   0.164  0.0000  0.0000  0.0000
 3697OM     OM1 3697   9.423   1.687   0.216  0.0000  0.0000  0.0000
 3698OM     OM1 3698   9.386   5.642   0.686  0.0000  0.0000  0.0000
 3699OM     OM1 3699   9.451   5.543   0.449  0.0000  0.0000  0.0000
 3700OM     OM1 3700   9.582   5.743   0.538  0.0000  0.0000  0.0000
 3701OM     OM1 3701   9.321   5.766   0.479  0.0000  0.0000  0.0000
 3702OM     OM1 3702   4.958   6.414   8.971  0.0000  0.0000  0.0000
 3703OM     OM1 3703   4.843   6.620   9.116  0.0000  0.0000  0.0000
 3704OM     OM1 3704   0.242   4.217   9.370  0.0000  0.0000  0.0000
 3705OM     OM1 3705   0.480   4.102   9.310  0.0000  0.0000  0.0000
 3706OM     OM1 3706   0.275   3.955   9.386  0.0000  0.0000  0.0000
 3707OM     OM1 3707   0.405   4.122   9.548  0.0000  0.0000  0.0000
 3708OM     OM1 3708   8.748   5.770   0.711  0.0000  0.0000  0.0000
 3709OM     OM1 3709   8.671   5.551   0.804  0.0000  0.0000  0.0000
 3710OM     OM1 3710   8.642   5.626   1.049  0.0000  0.0000  0.0000
 3711OM     OM1 3711   8.482   5.434   0.929  0.0000  0.0000  0.0000
 3712OM     OM1 3712   2.482   0.247   0.768  0.0000  0.0000  0.0000
 3713OM     OM1 3713   2.248   0.298   0.674  0.0000  0.0000  0.0000
 3714OM     OM1 3714   2.553   0.105   0.975  0.0000  0.0000  0.0000
 3715OM     OM1 3715   2.405   0.163   0.526  0.0000  0.0000  0.0000
 3716OM     OM1 3716   1.717   2.208   0.810  0.0000  0.0000  0.0000
 3717OM     OM1 3717   1.616   1.997   0.933  0.0000  0.0000  0.0000
 3718OM     OM1 3718   1.612   2.007   0.680  0.0000  0.0000  0.0000
 3719OM     OM1 3719   1.459   2.176   0.824  0.0000  0.0000  0.0000
 3720OM     OM1 3720   5.381   8.268   9.602  0.0000  0.0000  0.0000
 3721OM     OM1 3721   5.596   8.380   0.092  0.0000  0.0000  0.0000
 3722OM     OM1 3722   5.497   8.185   0.226  0.0000  0.0000  0.0000
 3723OM     OM1 3723   5.850   4.032   9.488  0.0000  0.0000  0.0000
 3724OM     OM1 3724   5.712   4.256   9.544  0.0000  0.0000  0.0000
 3725OM     OM1 3725   5.971   4.241   9.560  0.0000  0.0000  0.0000
 3726OM     OM1 3726   0.403   2.787   0.951  0.0000  0.0000  0.0000
 3727OM     OM1 3727   0.312   2.699   1.174  0.0000  0.0000  0.0000
 3728OM     OM1 3728   6.478   6.311   9.586  0.0000  0.0000  0.0000
 3729OM     OM1 3729   6.544   6.566   9.519  0.0000  0.0000  0.0000
 3730OM     OM1 3730   6.497   6.125   0.158  0.0000  0.0000  0.0000
 3731OM     OM1 3731   6.561   6.080   9.519  0.0000  0.0000  0.0000
 3732OM     OM1 3732   6.484   1.483   0.948  0.0000  0.0000  0.0000
 3733OM     OM1 3733   6.547   1.737   0.984  0.0000  0.0000  0.0000
 3734OM     OM1 3734   6.323   1.669   0.875  0.0000  0.0000  0.0000
 3735OM     OM1 3735   6.371   1.639   1.138  0.0000  0.0000  0.0000
 3736OM     OM1 3736   3.186   6.964   8.255  0.0000  0.0000  0.0000
 3737OM     OM1 3737   3.280   6.827   8.442  0.0000  0.0000  0.0000
 3738OM     OM1 3738   5.378   8.966   1.274  0.0000  0.0000  0.0000
 3739OM     OM1 3739   5.403   9.078   1.055  0.0000  0.0000  0.0000
 3740OM     OM1 3740   5.146   8.966   1.170  0.0000  0.0000  0.0000
 3741OM     OM1 3741   8.070   4.402   0.622  0.0000  0.0000  0.0000
 3742OM     OM1 3742   8.218   4.213   0.524  0.0000  0.0000  0.0000
 3743OM     OM1 3743   8.228   4.453   0.427  0.0000  0.0000  0.0000
 3744OM     OM1 3744   8.020   4.306   0.380  0.0000  0.0000  0.0000
 3745OM     OM1 3745   6.441   4.054   8.954  0.0000  0.0000  0.0000
 3746OM     OM1 3746   6.505   4.032   8.702  0.0000  0.0000  0.0000
 3747OM     OM1 3747   6.562   3.846   8.882  0.0000  0.0000  0.0000
 3748OM     OM1 3748   6.315   3.875   8.807  0.0000  0.0000  0.0000
 3749OM     OM1 3749   4.666   2.688   8.625  0.0000  0.0000  0.0000
 3750OM     OM1 3750   4.520   2.888   8.753  0.0000  0.0000  0.0000
 3751OM     OM1 3751   5.180   4.093   8.457  0.0000  0.0000  0.0000
 3752OM     OM1 3752   4.923   4.126   8.451  0.0000  0.0000  0.0000
 3753OM     OM1 3753   5.042   4.124   8.677  0.0000  0.0000  0.0000
 3754OM     OM1 3754   5.085   4.330   8.516  0.0000  0.0000  0.0000
 3755OM     OM1 3755   9.381   2.641   0.435  0.0000  0.0000  0.0000
 3756OM     OM1 3756   9.247   2.418   0.363  0.0000  0.0000  0.0000
 3757OM     OM1 3757   9.211   2.521   0.599  0.0000  0.0000  0.0000
 3758OM     OM1 3758   9.438   2.419   0.551  0.0000  0.0000  0.0000
 3759OM     OM1 3759   1.359   9.198   0.372  0.0000  0.0000  0.0000
 3760OM     OM1 3760   1.350   8.864   0.211  0.0000  0.0000  0.0000
 3761OM     OM1 3761   1.403   8.996   9.604  0.0000  0.0000  0.0000
 3762OM     OM1 3762   8.998   1.642   0.831  0.0000  0.0000  0.0000
 3763OM     OM1 3763   8.998   1.401   0.932  0.0000  0.0000  0.0000
 3764OM     OM1 3764   2.654   3.690   9.547  0.0000  0.0000  0.0000
 3765OM     OM1 3765   2.732   3.617   0.180  0.0000  0.0000  0.0000
 3766OM     OM1 3766   4.017   3.842   8.806  0.0000  0.0000  0.0000
 3767OM     OM1 3767   4.203   4.017   8.876  0.0000  0.0000  0.0000
 3768OM     OM1 3768   4.263   3.764   8.813  0.0000  0.0000  0.0000
 3769OM     OM1 3769   4.184   3.942   8.634  0.0000  0.0000  0.0000
 3770OM     OM1 3770   7.345   5.705   9.154  0.0000  0.0000  0.0000
 3771OM     OM1 3771   2.109   8.040   1.297  0.0000  0.0000  0.0000
 3772OM     OM1 3772   1.865   8.104   1.232  0.0000  0.0000  0.0000
 3773OM     OM1 3773   9.175   6.865   1.186  0.0000  0.0000  0.0000
 3774OM     OM1 3774   9.347   6.878   0.996  0.0000  0.0000  0.0000
 3775OM     OM1 3775   9.339   6.659   1.140  0.0000  0.0000  0.0000
 3776OM     OM1 3776   7.322   5.789   8.358  0.0000  0.0000  0.0000
 3777OM     OM1 3777   7.447   5.692   8.567  0.0000  0.0000  0.0000
 3778OM     OM1 3778   7.463   5.947   8.531  0.0000  0.0000  0.0000
 3779OM     OM1 3779   7.590   5.786   8.379  0.0000  0.0000  0.0000
 3780OM     OM1 3780   8.554   5.989   0.395  0.0000  0.0000  0.0000
 3781OM     OM1 3781   8.563   5.882   0.148  0.0000  0.0000  0.0000
 3782OM     OM1 3782   8.604   5.747   0.357  0.0000  0.0000  0.0000
 3783OM     OM1 3783   8.360   5.862   0.330  0.0000  0.0000  0.0000
 3784OM     OM1 3784   5.031   8.772   0.952  0.0000  0.0000  0.0000
 3785OM     OM1 3785   5.021   8.838   0.704  0.0000  0.0000  0.0000
 3786OM     OM1 3786   4.928   9.000   0.890  0.0000  0.0000  0.0000
 3787OM     OM1 3787   6.952   7.277   0.585  0.0000  0.0000  0.0000
 3788OM     OM1 3788   6.702   7.231   0.544  0.0000  0.0000  0.0000
 3789OM     OM1 3789   6.785   7.347   0.772  0.0000  0.0000  0.0000
 3790OM     OM1 3790   2.344   9.335   0.328  0.0000  0.0000  0.0000
 3791OM     OM1 3791   2.261   9.564   0.433  0.0000  0.0000  0.0000
 3792OM     OM1 3792   2.110   9.424   0.289  0.0000  0.0000  0.0000
 3793OM     OM1 3793   2.915   8.316   8.795  0.0000  0.0000  0.0000
 3794OM     OM1 3794   2.682   8.316   8.675  0.0000  0.0000  0.0000
 3795OM     OM1 3795   2.775   8.103   8.782  0.0000  0.0000  0.0000
 3796OM     OM1 3796   2.701   8.334   8.929  0.0000  0.0000  0.0000
 3797OM     OM1 3797   2.625   6.555   0.411  0.0000  0.0000  0.0000
 3798OM     OM1 3798   2.824   6.391   0.390  0.0000  0.0000  0.0000
 3799OM     OM1 3799   2.766   6.528   0.178  0.0000  0.0000  0.0000
 3800OM     OM1 3800   2.606   6.343   0.258  0.0000  0.0000  0.0000
 3801OM     OM1 3801   1.738   4.324   0.671  0.0000  0.0000  0.0000
 3802OM     OM1 3802   1.496   4.277   0.759  0.0000  0.0000  0.0000
 3803OM     OM1 3803   1.569   4.517   0.674  0.0000  0.0000  0.0000
 3804OM     OM1 3804   1.662   4.422   0.894  0.0000  0.0000  0.0000
 3805OM     OM1 3805   6.780   7.474   0.542  0.0000  0.0000  0.0000
 3806OM     OM1 3806   6.490   7.316   0.660  0.0000  0.0000  0.0000
 3807OM     OM1 3807   6.459   7.112   0.505  0.0000  0.0000  0.0000
 3808OM     OM1 3808   9.323   1.561   8.987  0.0000  0.0000  0.0000
 3809OM     OM1 3809   9.215   1.804   8.964  0.0000  0.0000  0.0000
 3810OM     OM1 3810   9.478   1.764   8.971  0.0000  0.0000  0.0000
 3811OM     OM1 3811   9.326   1.730   9.183  0.0000  0.0000  0.0000
 3812OM     OM1 3812   1.189   1.890   9.198  0.0000  0.0000  0.0000
 3813OM     OM1 3813   1.043   1.595   9.487  0.0000  0.0000  0.0000
 3814OM     OM1 3814   1.303   1.645   9.466  0.0000  0.0000  0.0000
 3815OM     OM1 3815   1.140   1.839   9.447  0.0000  0.0000  0.0000
 3816OM     OM1 3816   4.692   5.773   8.963  0.0000  0.0000  0.0000
 3817OM     OM1 3817   4.472   5.718   9.077  0.0000  0.0000  0.0000
 3818OM     OM1 3818   4.659   5.834   9.218  0.0000  0.0000  0.0000
 3819OM     OM1 3819   7.875   1.574   9.526  0.0000  0.0000  0.0000
 3820OM     OM1 3820   7.897   1.764   9.332  0.0000  0.0000  0.0000
 3821OM     OM1 3821   7.796   1.539   9.282  0.0000  0.0000  0.0000
 3822OM     OM1 3822   7.665   1.715   9.430  0.0000  0.0000  0.0000
 3823OM     OM1 3823   9.344   0.776   0.813  0.0000  0.0000  0.0000
 3824OM     OM1 3824   9.439   0.819   0.581  0.0000  0.0000  0.0000
 3825OM     OM1 3825   9.182   0.762   0.604  0.0000  0.0000  0.0000
 3826OM     OM1 3826   1.507   9.592   0.398  0.0000  0.0000  0.0000
 3827OM     OM1 3827   1.703   9.424   0.380  0.0000  0.0000  0.0000
 3828OM     OM1 3828   1.717   0.048   0.251  0.0000  0.0000  0.0000
 3829OM     OM1 3829   7.395   3.095   0.311  0.0000  0.0000  0.0000
 3830OM     OM1 3830   7.466   3.099   0.066  0.0000  0.0000  0.0000
 3831OM     OM1 3831   7.222   3.042   0.102  0.0000  0.0000  0.0000
 3832OM     OM1 3832   8.250   7.981   8.362  0.0000  0.0000  0.0000
 3833OM     OM1 3833   8.232   8.104   8.726  0.0000  0.0000  0.0000
 3834OM     OM1 3834   8.289   7.729   8.341  0.0000  0.0000  0.0000
 3835OM     OM1 3835   8.313   1.926   8.861  0.0000  0.0000  0.0000
 3836OM     OM1 3836   8.494   1.724   8.883  0.0000  0.0000  0.0000
 3837OM     OM1 3837   8.341   1.787   9.075  0.0000  0.0000  0.0000
 3838OM     OM1 3838   6.751   9.564   0.589  0.0000  0.0000  0.0000
 3839OM     OM1 3839   7.010   9.596   0.600  0.0000  0.0000  0.0000
 3840OM     OM1 3840   6.883   9.590   0.366  0.0000  0.0000  0.0000
 3841OM     OM1 3841   6.911   9.377   0.496  0.0000  0.0000  0.0000
 3842OM     OM1 3842   9.167   9.222   8.994  0.0000  0.0000  0.0000
 3843OM     OM1 3843   9.271   9.084   8.810  0.0000  0.0000  0.0000
 3844OM     OM1 3844   9.010   9.125   8.804  0.0000  0.0000  0.0000
 3845OM     OM1 3845   0.822   8.141   8.295  0.0000  0.0000  0.0000
 3846OM     OM1 3846   0.803   8.017   8.518  0.0000  0.0000  0.0000
 3847OM     OM1 3847   0.618   8.214   8.443  0.0000  0.0000  0.0000
 3848OM     OM1 3848   0.856   8.259   8.526  0.0000  0.0000  0.0000
 3849OM     OM1 3849   1.203   6.617   9.488  0.0000  0.0000  0.0000
 3850OM     OM1 3850   0.976   6.555   9.385  0.0000  0.0000  0.0000
 3851OM     OM1 3851   1.031   6.467   0.014  0.0000  0.0000  0.0000
 3852OM     OM1 3852   0.970   3.420   0.818  0.0000  0.0000  0.0000
 3853OM     OM1 3853   1.137   3.474   0.636  0.0000  0.0000  0.0000
 3854OM     OM1 3854   1.197   3.544   0.880  0.0000  0.0000  0.0000
 3855OM     OM1 3855   7.895   3.822   0.202  0.0000  0.0000  0.0000
 3856OM     OM1 3856   7.918   3.599   0.337  0.0000  0.0000  0.0000
 3857OM     OM1 3857   8.060   3.803   0.406  0.0000  0.0000  0.0000
 3858OM     OM1 3858   8.106   3.670   0.176  0.0000  0.0000  0.0000
 3859OM     OM1 3859   6.316   4.850   9.478  0.0000  0.0000  0.0000
 3860OM     OM1 3860   6.146   4.787   0.065  0.0000  0.0000  0.0000
 3861OM     OM1 3861   6.104   4.719   9.427  0.0000  0.0000  0.0000
 3862OM     OM1 3862   6.079   4.970   9.494  0.0000  0.0000  0.0000
 3863OM     OM1 3863   2.352   8.196   0.084  0.0000  0.0000  0.0000
 3864OM     OM1 3864   2.141   8.345   0.089  0.0000  0.0000  0.0000
 3865OM     OM1 3865   2.254   8.256   0.315  0.0000  0.0000  0.0000
 3866OM     OM1 3866   2.369   8.437   0.173  0.0000  0.0000  0.0000
 3867OM     OM1 3867   2.555   6.797   0.388  0.0000  0.0000  0.0000
 3868OM     OM1 3868   2.351   6.873   0.250  0.0000  0.0000  0.0000
 3869OM     OM1 3869   4.292   3.939   9.375  0.0000  0.0000  0.0000
 3870OM     OM1 3870   6.634   7.682   0.441  0.0000  0.0000  0.0000
 3871OM     OM1 3871   6.780   7.533   0.288  0.0000  0.0000  0.0000
 3872OM     OM1 3872   6.886   7.691   0.449  0.0000  0.0000  0.0000
 3873OM     OM1 3873   5.069   0.834   9.519  0.0000  0.0000  0.0000
 3874OM     OM1 3874   4.811   0.819   9.436  0.0000  0.0000  0.0000
 3875OM     OM1 3875   4.957   1.025   9.404  0.0000  0.0000  0.0000
 3876OM     OM1 3876   4.877   0.940   0.051  0.0000  0.0000  0.0000
 3877OM     OM1 3877   9.415   8.482   8.427  0.0000  0.0000  0.0000
 3878OM     OM1 3878   9.175   8.384   8.364  0.0000  0.0000  0.0000
 3879OM     OM1 3879   7.694   4.636   1.191  0.0000  0.0000  0.0000
 3880OM     OM1 3880   7.461   4.739   1.242  0.0000  0.0000  0.0000
 3881OM     OM1 3881   7.645   4.895   1.144  0.0000  0.0000  0.0000
 3882OM     OM1 3882   5.631   0.052   8.686  0.0000  0.0000  0.0000
 3883OM     OM1 3883   5.450   9.489   8.590  0.0000  0.0000  0.0000
 3884OM     OM1 3884   5.718   9.456   8.545  0.0000  0.0000  0.0000
 3885OM     OM1 3885   5.575   0.036   8.430  0.0000  0.0000  0.0000
 3886OM     OM1 3886   7.197   3.808   9.216  0.0000  0.0000  0.0000
 3887OM     OM1 3887   6.973   3.800   9.094  0.0000  0.0000  0.0000
 3888OM     OM1 3888   6.999   3.676   9.326  0.0000  0.0000  0.0000
 3889OM     OM1 3889   4.444   3.424   0.097  0.0000  0.0000  0.0000
 3890OM     OM1 3890   4.506   3.423   9.454  0.0000  0.0000  0.0000
 3891OM     OM1 3891   4.316   3.253   9.529  0.0000  0.0000  0.0000
 3892OM     OM1 3892   5.079   7.861   0.822  0.0000  0.0000  0.0000
 3893OM     OM1 3893   4.971   8.016   1.013  0.0000  0.0000  0.0000
 3894OM     OM1 3894   4.819   7.895   0.837  0.0000  0.0000  0.0000
 3895OM     OM1 3895   4.728   9.359   9.119  0.0000  0.0000  0.0000
 3896OM     OM1 3896   4.941   9.264   9.241  0.0000  0.0000  0.0000
 3897OM     OM1 3897   4.725   9.304   9.373  0.0000  0.0000  0.0000
 3898OM     OM1 3898   4.742   9.101   9.210  0.0000  0.0000  0.0000
 3899OM     OM1 3899   2.266   8.550   1.093  0.0000  0.0000  0.0000
 3900OM     OM1 3900   2.404   8.489   0.878  0.0000  0.0000  0.0000
 3901OM     OM1 3901   2.429   8.347   1.084  0.0000  0.0000  0.0000
 3902OM     OM1 3902   3.331   8.165   1.053  0.0000  0.0000  0.0000
 3903OM     OM1 3903   3.530   8.250   0.922  0.0000  0.0000  0.0000
 3904OM     OM1 3904   3.538   8.219   1.190  0.0000  0.0000  0.0000
 3905OM     OM1 3905   3.546   8.012   1.031  0.0000  0.0000  0.0000
 3906OM     OM1 3906   2.718   5.231   0.537  0.0000  0.0000  0.0000
 3907OM     OM1 3907   2.878   5.400   0.424  0.0000  0.0000  0.0000
 3908OM     OM1 3908   2.944   5.281   0.648  0.0000  0.0000  0.0000
 3909OM     OM1 3909   2.767   5.476   0.638  0.0000  0.0000  0.0000
 3910OM     OM1 3910   8.803   2.138   0.293  0.0000  0.0000  0.0000
 3911OM     OM1 3911   8.649   2.337   0.204  0.0000  0.0000  0.0000
 3912OM     OM1 3912   8.553   2.093   0.201  0.0000  0.0000  0.0000
 3913OM     OM1 3913   5.137   4.495   8.707  0.0000  0.0000  0.0000
 3914OM     OM1 3914   5.089   4.597   8.476  0.0000  0.0000  0.0000
 3915OM     OM1 3915   8.431   4.910   8.969  0.0000  0.0000  0.0000
 3916OM     OM1 3916   8.270   5.078   8.848  0.0000  0.0000  0.0000
 3917OM     OM1 3917   8.490   5.165   8.963  0.0000  0.0000  0.0000
 3918OM     OM1 3918   8.505   5.021   8.745  0.0000  0.0000  0.0000
 3919OM     OM1 3919   5.220   0.223   0.967  0.0000  0.0000  0.0000
 3920OM     OM1 3920   5.230   0.385   0.764  0.0000  0.0000  0.0000
 3921OM     OM1 3921   4.979   0.361   0.732  0.0000  0.0000  0.0000
 3922OM     OM1 3922   3.372   6.915   1.340  0.0000  0.0000  0.0000
 3923OM     OM1 3923   3.545   6.806   1.186  0.0000  0.0000  0.0000
 3924OM     OM1 3924   0.072   3.903   9.229  0.0000  0.0000  0.0000
 3925OM     OM1 3925   0.298   3.916   9.133  0.0000  0.0000  0.0000
 3926OM     OM1 3926   0.250   3.705   9.273  0.0000  0.0000  0.0000
 3927OM     OM1 3927   2.707   2.448   8.463  0.0000  0.0000  0.0000
 3928OM     OM1 3928   2.585   2.617   8.606  0.0000  0.0000  0.0000
 3929OM     OM1 3929   4.084   8.749   1.164  0.0000  0.0000  0.0000
 3930OM     OM1 3930   4.319   8.642   1.247  0.0000  0.0000  0.0000
 3931OM     OM1 3931   8.887   3.171   0.085  0.0000  0.0000  0.0000
 3932OM     OM1 3932   9.050   2.965   0.129  0.0000  0.0000  0.0000
 3933OM     OM1 3933   8.778   2.947   0.137  0.0000  0.0000  0.0000
 3934OM     OM1 3934   8.922   2.978   9.521  0.0000  0.0000  0.0000
 3935OM     OM1 3935   0.573   3.033   1.278  0.0000  0.0000  0.0000
 3936OM     OM1 3936   0.799   2.984   1.172  0.0000  0.0000  0.0000
 3937OM     OM1 3937   3.598   6.097   9.515  0.0000  0.0000  0.0000
 3938OM     OM1 3938   3.680   5.903   0.074  0.0000  0.0000  0.0000
 3939OM     OM1 3939   1.606   9.166   1.056  0.0000  0.0000  0.0000
 3940OM     OM1 3940   1.723   9.033   0.869  0.0000  0.0000  0.0000
 3941OM     OM1 3941   1.476   9.090   0.837  0.0000  0.0000  0.0000
 3942OM     OM1 3942   1.668   9.282   0.837  0.0000  0.0000  0.0000
 3943OM     OM1 3943   1.977   3.226   9.003  0.0000  0.0000  0.0000
 3944OM     OM1 3944   1.788   3.287   8.828  0.0000  0.0000  0.0000
 3945OM     OM1 3945   1.884   3.468   8.971  0.0000  0.0000  0.0000
 3946OM     OM1 3946   5.803   8.482   8.488  0.0000  0.0000  0.0000
 3947OM     OM1 3947   0.342   3.261   9.517  0.0000  0.0000  0.0000
 3948OM     OM1 3948   0.166   3.109   0.029  0.0000  0.0000  0.0000
 3949OM     OM1 3949   0.339   3.002   9.474  0.0000  0.0000  0.0000
 3950OM     OM1 3950   7.784   5.980   0.370  0.0000  0.0000  0.0000
 3951OM     OM1 3951   7.742   6.214   0.470  0.0000  0.0000  0.0000
 3952OM     OM1 3952   7.671   6.000   0.610  0.0000  0.0000  0.0000
 3953OM     OM1 3953   7.920   6.059   0.583  0.0000  0.0000  0.0000
 3954OM     OM1 3954   2.891   0.229   1.039  0.0000  0.0000  0.0000
 3955OM     OM1 3955   2.779   0.011   0.923  0.0000  0.0000  0.0000
 3956OM     OM1 3956   2.760   0.286   1.246  0.0000  0.0000  0.0000
 3957OM     OM1 3957   2.726   0.241   0.855  0.0000  0.0000  0.0000
 3958OM     OM1 3958   8.882   1.114   0.771  0.0000  0.0000  0.0000
 3959OM     OM1 3959   9.049   0.977   0.626  0.0000  0.0000  0.0000
 3960OM     OM1 3960   2.077   0.577   0.325  0.0000  0.0000  0.0000
 3961OM     OM1 3961   2.038   0.600   0.076  0.0000  0.0000  0.0000
 3962OM     OM1 3962   6.567   7.082   0.225  0.0000  0.0000  0.0000
 3963OM     OM1 3963   6.395   7.017   0.051  0.0000  0.0000  0.0000
 3964OM     OM1 3964   6.382   7.254   0.159  0.0000  0.0000  0.0000
 3965OM     OM1 3965   6.313   7.052   0.306  0.0000  0.0000  0.0000
 3966OM     OM1 3966   5.560   2.362   9.401  0.0000  0.0000  0.0000
 3967OM     OM1 3967   5.691   2.585   9.364  0.0000  0.0000  0.0000
 3968OM     OM1 3968   5.434   2.572   9.484  0.0000  0.0000  0.0000
 3969OM     OM1 3969   5.472   2.537   9.240  0.0000  0.0000  0.0000
 3970OM     OM1 3970   5.446   2.419   8.701  0.0000  0.0000  0.0000
 3971OM     OM1 3971   5.373   2.173   8.609  0.0000  0.0000  0.0000
 3972OM     OM1 3972   5.186   2.291   9.012  0.0000  0.0000  0.0000
 3973OM     OM1 3973   0.481   6.254   8.663  0.0000  0.0000  0.0000
 3974OM     OM1 3974   0.444   6.182   8.417  0.0000  0.0000  0.0000
 3975OM     OM1 3975   0.689   6.177   8.538  0.0000  0.0000  0.0000
 3976OM     OM1 3976   0.592   6.390   8.449  0.0000  0.0000  0.0000
 3977OM     OM1 3977   5.079   9.472   9.177  0.0000  0.0000  0.0000
 3978OM     OM1 3978   5.103   0.045   8.988  0.0000  0.0000  0.0000
 3979OM     OM1 3979   8.346   8.699   0.226  0.0000  0.0000  0.0000
 3980OM     OM1 3980   8.166   8.511   0.176  0.0000  0.0000  0.0000
 3981OM     OM1 3981   8.106   8.767   0.127  0.0000  0.0000  0.0000
 3982OM     OM1 3982   3.530   7.809   0.872  0.0000  0.0000  0.0000
 3983OM     OM1 3983   3.649   7.786   1.106  0.0000  0.0000  0.0000
 3984OM     OM1 3984   3.767   7.917   0.916  0.0000  0.0000  0.0000
 3985OM     OM1 3985   0.407   5.046   0.336  0.0000  0.0000  0.0000
 3986OM     OM1 3986   0.190   4.941   0.221  0.0000  0.0000  0.0000
 3987OM     OM1 3987   0.423   4.897   0.129  0.0000  0.0000  0.0000
 3988OM     OM1 3988   0.336   4.806   0.381  0.0000  0.0000  0.0000
 3989OM     OM1 3989   7.352   1.958   9.109  0.0000  0.0000  0.0000
 3990OM     OM1 3990   7.343   2.126   9.303  0.0000  0.0000  0.0000
 3991OM     OM1 3991   7.147   1.926   9.268  0.0000  0.0000  0.0000
 3992OM     OM1 3992   7.155   2.137   9.128  0.0000  0.0000  0.0000
 3993OM     OM1 3993   4.012   8.183   8.450  0.0000  0.0000  0.0000
 3994OM     OM1 3994   3.872   8.048   8.627  0.0000  0.0000  0.0000
 3995OM     OM1 3995   4.102   7.960   8.545  0.0000  0.0000  0.0000
 3996OM     OM1 3996   4.080   8.177   8.704  0.0000  0.0000  0.0000
 3997OM     OM1 3997   3.999   2.829   9.156  0.0000  0.0000  0.0000
 3998OM     OM1 3998   4.004   2.905   8.917  0.0000  0.0000  0.0000
 3999OM     OM1 3999   3.966   3.096   9.075  0.0000  0.0000  0.0000
 4000OM     OM1 4000   1.270   4.719   0.841  0.0000  0.0000  0.0000
 4001OM     OM1 4001   1.039   4.812   0.899  0.0000  0.0000  0.0000
 4002OM     OM1 4002   1.061   4.675   0.682  0.0000  0.0000  0.0000
 4003OM     OM1 4003   7.505   4.059   0.582  0.0000  0.0000  0.0000
 4004OM     OM1 4004   7.356   3.854   0.655  0.0000  0.0000  0.0000
 4005OM     OM1 4005   7.286   6.515   0.694  0.0000  0.0000  0.0000
 4006OM     OM1 4006   7.051   6.421   0.657  0.0000  0.0000  0.0000
 4007OM     OM1 4007   7.240   6.251   0.703  0.0000  0.0000  0.0000
 4008OM     OM1 4008   7.143   6.427   0.890  0.0000  0.0000  0.0000
 4009OM     OM1 4009   5.089   9.570   0.469  0.0000  0.0000  0.0000
 4010OM     OM1 4010   5.181   9.424   0.670  0.0000  0.0000  0.0000
 4011OM     OM1 4011   5.264   9.395   0.409  0.0000  0.0000  0.0000
 4012OM     OM1 4012   5.236   1.979   8.728  0.0000  0.0000  0.0000
 4013OM     OM1 4013   5.318   1.942   8.497  0.0000  0.0000  0.0000
 4014OM     OM1 4014   2.765   0.020   1.232  0.0000  0.0000  0.0000
 4015OM     OM1 4015   2.844   9.393   1.140  0.0000  0.0000  0.0000
 4016OM     OM1 4016   2.609   9.418   1.273  0.0000  0.0000  0.0000
 4017OM     OM1 4017   1.182   0.401   8.454  0.0000  0.0000  0.0000
 4018OM     OM1 4018   1.350   0.320   8.279  0.0000  0.0000  0.0000
 4019OM     OM1 4019   0.021   8.428   0.357  0.0000  0.0000  0.0000
 4020OM     OM1 4020   0.112   8.213   0.489  0.0000  0.0000  0.0000
 4021OM     OM1 4021   0.018   8.201   0.243  0.0000  0.0000  0.0000
 4022OM     OM1 4022   7.795   6.058   1.042  0.0000  0.0000  0.0000
 4023OM     OM1 4023   7.582   6.332   1.176  0.0000  0.0000  0.0000
 4024OM     OM1 4024   7.575   6.421   0.937  0.0000  0.0000  0.0000
 4025OM     OM1 4025   7.562   6.151   0.996  0.0000  0.0000  0.0000
 4026OM     OM1 4026   7.147   2.925   9.201  0.0000  0.0000  0.0000
 4027OM     OM1 4027   7.170   2.972   8.944  0.0000  0.0000  0.0000
 4028OM     OM1 4028   3.404   0.894   1.107  0.0000  0.0000  0.0000
 4029OM     OM1 4029   3.658   0.963   1.178  0.0000  0.0000  0.0000
 4030OM     OM1 4030   5.526   5.468   8.722  0.0000  0.0000  0.0000
 4031OM     OM1 4031   5.309   5.237   8.382  0.0000  0.0000  0.0000
 4032OM     OM1 4032   5.482   5.388   8.247  0.0000  0.0000  0.0000
 4033OM     OM1 4033   3.285   9.022   1.401  0.0000  0.0000  0.0000
 4034OM     OM1 4034   3.111   9.077   1.224  0.0000  0.0000  0.0000
 4035OM     OM1 4035   2.777   4.298   0.156  0.0000  0.0000  0.0000
 4036OM     OM1 4036   2.964   4.730   0.053  0.0000  0.0000  0.0000
 4037OM     OM1 4037   2.835   4.388   9.527  0.0000  0.0000  0.0000
 4038OM     OM1 4038   2.792   4.554   0.130  0.0000  0.0000  0.0000
 4039OM     OM1 4039   6.088   5.803   9.134  0.0000  0.0000  0.0000
 4040OM     OM1 4040   5.947   5.633   9.270  0.0000  0.0000  0.0000
 4041OM     OM1 4041   0.719   0.801   1.234  0.0000  0.0000  0.0000
 4042OM     OM1 4042   0.509   0.684   1.150  0.0000  0.0000  0.0000
 4043OM     OM1 4043   6.830   0.555   9.135  0.0000  0.0000  0.0000
 4044OM     OM1 4044   6.798   0.309   9.065  0.0000  0.0000  0.0000
 4045OM     OM1 4045   7.037   0.397   9.151  0.0000  0.0000  0.0000
 4046OM     OM1 4046   5.162   6.574   0.490  0.0000  0.0000  0.0000
 4047OM     OM1 4047   5.277   6.501   0.272  0.0000  0.0000  0.0000
 4048OM     OM1 4048   5.189   6.317   0.434  0.0000  0.0000  0.0000
 4049OM     OM1 4049   0.150   2.162   1.163  0.0000  0.0000  0.0000
 4050OM     OM1 4050   0.204   2.374   1.285  0.0000  0.0000  0.0000
 4051OM     OM1 4051   9.582   2.224   1.339  0.0000  0.0000  0.0000
 4052OM     OM1 4052   0.012   2.384   1.121  0.0000  0.0000  0.0000
 4053OM     OM1 4053   2.002   1.706   8.651  0.0000  0.0000  0.0000
 4054OM     OM1 4054   2.002   1.439   8.714  0.0000  0.0000  0.0000
 4055OM     OM1 4055   1.779   1.580   8.708  0.0000  0.0000  0.0000
 4056OM     OM1 4056   5.626   7.762   8.714  0.0000  0.0000  0.0000
 4057OM     OM1 4057   5.703   7.904   8.497  0.0000  0.0000  0.0000
 4058OM     OM1 4058   5.846   7.899   8.720  0.0000  0.0000  0.0000
 4059OM     OM1 4059   3.842   3.778   8.618  0.0000  0.0000  0.0000
 4060OM     OM1 4060   3.759   3.873   8.386  0.0000  0.0000  0.0000
 4061OM     OM1 4061   3.611   3.705   8.502  0.0000  0.0000  0.0000
 4062OM     OM1 4062   8.241   6.243   8.836  0.0000  0.0000  0.0000
 4063OM     OM1 4063   8.056   6.289   8.660  0.0000  0.0000  0.0000
 4064OM     OM1 4064   8.169   6.050   8.680  0.0000  0.0000  0.0000
 4065OM     OM1 4065   8.006   6.132   8.862  0.0000  0.0000  0.0000
 4066OM     OM1 4066   1.044   9.142   0.851  0.0000  0.0000  0.0000
 4067OM     OM1 4067   1.019   9.000   0.625  0.0000  0.0000  0.0000
 4068OM     OM1 4068   0.920   9.337   0.972  0.0000  0.0000  0.0000
 4069OM     OM1 4069   4.639   7.135   0.705  0.0000  0.0000  0.0000
 4070OM     OM1 4070   4.206   1.808   9.158  0.0000  0.0000  0.0000
 4071OM     OM1 4071   3.967   1.896   9.102  0.0000  0.0000  0.0000
 4072OM     OM1 4072   4.159   2.065   9.082  0.0000  0.0000  0.0000
 4073OM     OM1 4073   4.085   1.971   9.319  0.0000  0.0000  0.0000
 4074OM     OM1 4074   8.812   3.967   8.714  0.0000  0.0000  0.0000
 4075OM     OM1 4075   8.846   3.821   8.500  0.0000  0.0000  0.0000
 4076OM     OM1 4076   8.960   4.057   8.525  0.0000  0.0000  0.0000
 4077OM     OM1 4077   4.303   0.661   8.650  0.0000  0.0000  0.0000
 4078OM     OM1 4078   4.494   0.704   8.815  0.0000  0.0000  0.0000
 4079OM     OM1 4079   4.364   0.917   8.710  0.0000  0.0000  0.0000
 4080OM     OM1 4080   4.515   0.777   8.563  0.0000  0.0000  0.0000
 4081OM     OM1 4081   1.708   9.384   8.489  0.0000  0.0000  0.0000
 4082OM     OM1 4082   1.342   0.103   8.430  0.0000  0.0000  0.0000
 4083OM     OM1 4083   1.417   0.043   8.669  0.0000  0.0000  0.0000
 4084OM     OM1 4084   8.616   4.398   8.560  0.0000  0.0000  0.0000
 4085OM     OM1 4085   8.619   4.657   8.494  0.0000  0.0000  0.0000
 4086OM     OM1 4086   8.001   4.091   8.544  0.0000  0.0000  0.0000
 4087OM     OM1 4087   7.911   4.097   8.304  0.0000  0.0000  0.0000
 4088OM     OM1 4088   7.775   3.971   8.474  0.0000  0.0000  0.0000
 4089OM     OM1 4089   5.700   8.874   0.943  0.0000  0.0000  0.0000
 4090OM     OM1 4090   5.609   8.998   0.736  0.0000  0.0000  0.0000
 4091OM     OM1 4091   5.856   9.027   0.797  0.0000  0.0000  0.0000
 4092OM     OM1 4092   3.168   4.948   9.242  0.0000  0.0000  0.0000
 4093OM     OM1 4093   3.339   4.795   9.137  0.0000  0.0000  0.0000
 4094OM     OM1 4094   3.392   4.895   9.379  0.0000  0.0000  0.0000
 4095OM     OM1 4095   3.404   5.045   9.164  0.0000  0.0000  0.0000
 4096OM     OM1 4096   4.872   1.814   9.056  0.0000  0.0000  0.0000
 4097OM     OM1 4097   4.986   1.618   8.908  0.0000  0.0000  0.0000
 4098OM     OM1 4098   4.767   1.573   9.057  0.0000  0.0000  0.0000
 4099OM     OM1 4099   4.759   1.720   8.845  0.0000  0.0000  0.0000
 4100OM     OM1 4100   6.534   8.870   0.060  0.0000  0.0000  0.0000
 4101OM     OM1 4101   6.422   8.828   0.289  0.0000  0.0000  0.0000
 4102OM     OM1 4102   1.787   0.884   8.401  0.0000  0.0000  0.0000
 4103OM     OM1 4103   1.954   1.092   8.441  0.0000  0.0000  0.0000
 4104OM     OM1 4104   6.750   0.100   9.199  0.0000  0.0000  0.0000
 4105OM     OM1 4105   6.620   0.136   8.965  0.0000  0.0000  0.0000
 4106OM     OM1 4106   6.881   0.089   8.970  0.0000  0.0000  0.0000
 4107OM     OM1 4107   6.275   3.719   8.482  0.0000  0.0000  0.0000
 4108OM     OM1 4108   6.390   3.946   8.390  0.0000  0.0000  0.0000
 4109OM     OM1 4109   6.487   4.159   8.474  0.0000  0.0000  0.0000
 4110OM     OM1 4110   6.226   4.131   8.460  0.0000  0.0000  0.0000
 4111OM     OM1 4111   9.180   4.524   1.432  0.0000  0.0000  0.0000
 4112OM     OM1 4112   3.133   0.679   9.303  0.0000  0.0000  0.0000
 4113OM     OM1 4113   3.067   0.437   9.374  0.0000  0.0000  0.0000
 4114OM     OM1 4114   0.732   0.125   0.768  0.0000  0.0000  0.0000
 4115OM     OM1 4115   0.545   9.543   0.800  0.0000  0.0000  0.0000
 4116OM     OM1 4116   0.557   0.144   0.967  0.0000  0.0000  0.0000
 4117OM     OM1 4117   0.483   0.180   0.723  0.0000  0.0000  0.0000
 4118OM     OM1 4118   5.965   7.285   8.352  0.0000  0.0000  0.0000
 4119OM     OM1 4119   5.738   7.193   8.421  0.0000  0.0000  0.0000
 4120OM     OM1 4120   2.572   1.856   9.546  0.0000  0.0000  0.0000
 4121OM     OM1 4121   2.574   1.943   9.301  0.0000  0.0000  0.0000
 4122OM     OM1 4122   2.600   2.110   9.490  0.0000  0.0000  0.0000
 4123OM     OM1 4123   2.364   1.989   9.458  0.0000  0.0000  0.0000
 4124OM     OM1 4124   3.904   2.416   0.565  0.0000  0.0000  0.0000
 4125OM     OM1 4125   3.970   2.167   0.538  0.0000  0.0000  0.0000
 4126OM     OM1 4126   4.101   2.355   0.411  0.0000  0.0000  0.0000
 4127OM     OM1 4127   3.860   2.270   0.336  0.0000  0.0000  0.0000
 4128OM     OM1 4128   1.163   7.068   9.324  0.0000  0.0000  0.0000
 4129OM     OM1 4129   1.078   6.850   9.212  0.0000  0.0000  0.0000
 4130OM     OM1 4130   9.248   8.035   9.280  0.0000  0.0000  0.0000
 4131OM     OM1 4131   9.086   8.135   9.472  0.0000  0.0000  0.0000
 4132OM     OM1 4132   7.073   0.938   9.596  0.0000  0.0000  0.0000
 4133OM     OM1 4133   7.248   1.120   0.002  0.0000  0.0000  0.0000
 4134OM     OM1 4134   7.075   1.107   0.195  0.0000  0.0000  0.0000
 4135OM     OM1 4135   8.616   4.344   8.816  0.0000  0.0000  0.0000
 4136OM     OM1 4136   8.585   4.416   9.064  0.0000  0.0000  0.0000
 4137OM     OM1 4137   8.803   4.288   8.992  0.0000  0.0000  0.0000
 4138OM     OM1 4138   8.947   0.478   0.756  0.0000  0.0000  0.0000
 4139OM     OM1 4139   8.734   0.504   0.879  0.0000  0.0000  0.0000
 4140OM     OM1 4140   8.731   0.422   0.612  0.0000  0.0000  0.0000
 4141OM     OM1 4141   9.122   0.271   0.059  0.0000  0.0000  0.0000
 4142OM     OM1 4142   9.079   0.520   0.028  0.0000  0.0000  0.0000
 4143OM     OM1 4143   9.144   0.353   9.426  0.0000  0.0000  0.0000
 4144OM     OM1 4144   8.908   0.367   9.513  0.0000  0.0000  0.0000
 4145OM     OM1 4145   7.384   3.014   8.789  0.0000  0.0000  0.0000
 4146OM     OM1 4146   7.545   2.825   8.699  0.0000  0.0000  0.0000
 4147OM     OM1 4147   7.576   2.936   8.934  0.0000  0.0000  0.0000
 4148OM     OM1 4148   7.638   3.062   8.706  0.0000  0.0000  0.0000
 4149OM     OM1 4149   8.109   9.571   0.990  0.0000  0.0000  0.0000
 4150OM     OM1 4150   8.175   0.016   1.247  0.0000  0.0000  0.0000
 4151OM     OM1 4151   2.083   1.402   0.914  0.0000  0.0000  0.0000
 4152OM     OM1 4152   1.846   1.394   0.812  0.0000  0.0000  0.0000
 4153OM     OM1 4153   1.896   1.543   1.022  0.0000  0.0000  0.0000
 4154OM     OM1 4154   0.949   1.150   0.227  0.0000  0.0000  0.0000
 4155OM     OM1 4155   1.193   1.231   0.247  0.0000  0.0000  0.0000
 4156OM     OM1 4156   0.987   1.408   0.236  0.0000  0.0000  0.0000
 4157OM     OM1 4157   1.028   1.256   0.446  0.0000  0.0000  0.0000
 4158OM     OM1 4158   8.564   3.612   0.611  0.0000  0.0000  0.0000
 4159OM     OM1 4159   8.599   3.733   0.837  0.0000  0.0000  0.0000
 4160OM     OM1 4160   0.238   7.777   0.574  0.0000  0.0000  0.0000
 4161OM     OM1 4161   0.348   7.564   0.643  0.0000  0.0000  0.0000
 4162OM     OM1 4162   0.420   7.683   0.415  0.0000  0.0000  0.0000
 4163OM     OM1 4163   9.309   9.300   0.029  0.0000  0.0000  0.0000
 4164OM     OM1 4164   9.566   9.316   9.570  0.0000  0.0000  0.0000
 4165OM     OM1 4165   9.428   9.532   9.585  0.0000  0.0000  0.0000
 4166OM     OM1 4166   9.466   9.385   0.200  0.0000  0.0000  0.0000
 4167OM     OM1 4167   7.631   1.391   1.243  0.0000  0.0000  0.0000
 4168OM     OM1 4168   7.873   1.444   1.228  0.0000  0.0000  0.0000
 4169OM     OM1 4169   8.514   6.523   9.229  0.0000  0.0000  0.0000
 4170OM     OM1 4170   8.549   6.458   9.469  0.0000  0.0000  0.0000
 4171OM     OM1 4171   8.366   6.320   9.331  0.0000  0.0000  0.0000
 4172OM     OM1 4172   5.189   5.536   1.370  0.0000  0.0000  0.0000
 4173OM     OM1 4173   2.898   7.185   9.287  0.0000  0.0000  0.0000
 4174OM     OM1 4174   2.824   7.256   9.544  0.0000  0.0000  0.0000
 4175OM     OM1 4175   2.688   7.325   9.340  0.0000  0.0000  0.0000
 4176OM     OM1 4176   6.541   7.496   8.789  0.0000  0.0000  0.0000
 4177OM     OM1 4177   6.656   7.661   8.609  0.0000  0.0000  0.0000
 4178OM     OM1 4178   6.428   7.530   8.554  0.0000  0.0000  0.0000
 4179OM     OM1 4179   7.104   7.866   9.150  0.0000  0.0000  0.0000
 4180OM     OM1 4180   6.847   7.866   9.210  0.0000  0.0000  0.0000
 4181OM     OM1 4181   6.920   7.953   8.986  0.0000  0.0000  0.0000
 4182OM     OM1 4182   4.749   4.413   0.976  0.0000  0.0000  0.0000
 4183OM     OM1 4183   4.490   4.340   0.919  0.0000  0.0000  0.0000
 4184OM     OM1 4184   3.559   3.316   1.144  0.0000  0.0000  0.0000
 4185OM     OM1 4185   3.412   3.424   1.350  0.0000  0.0000  0.0000
 4186OM     OM1 4186   2.563   7.573   9.329  0.0000  0.0000  0.0000
 4187OM     OM1 4187   2.529   7.398   9.147  0.0000  0.0000  0.0000
 4188OM     OM1 4188   2.437   7.354   9.386  0.0000  0.0000  0.0000
 4189OM     OM1 4189   2.293   4.867   8.659  0.0000  0.0000  0.0000
 4190OM     OM1 4190   2.332   4.646   8.775  0.0000  0.0000  0.0000
 4191OM     OM1 4191   9.207   2.280   9.482  0.0000  0.0000  0.0000
 4192OM     OM1 4192   9.144   2.321   0.132  0.0000  0.0000  0.0000
 4193OM     OM1 4193   9.085   2.502   9.558  0.0000  0.0000  0.0000
 4194OM     OM1 4194   7.820   6.094   9.046  0.0000  0.0000  0.0000
 4195OM     OM1 4195   7.765   6.227   8.832  0.0000  0.0000  0.0000
 4196OM     OM1 4196   7.928   6.330   9.011  0.0000  0.0000  0.0000
 4197OM     OM1 4197   5.822   9.006   9.245  0.0000  0.0000  0.0000
 4198OM     OM1 4198   5.893   9.020   9.492  0.0000  0.0000  0.0000
 4199OM     OM1 4199   5.892   9.241   9.332  0.0000  0.0000  0.0000
 4200OM     OM1 4200   5.672   9.138   9.419  0.0000  0.0000  0.0000
 4201OM     OM1 4201   7.202   5.533   0.731  0.0000  0.0000  0.0000
 4202OM     OM1 4202   6.998   5.688   0.781  0.0000  0.0000  0.0000
 4203OM     OM1 4203   7.200   5.708   0.925  0.0000  0.0000  0.0000
 4204OM     OM1 4204   7.230   5.783   0.673  0.0000  0.0000  0.0000
 4205OM     OM1 4205   3.093   6.006   8.526  0.0000  0.0000  0.0000
 4206OM     OM1 4206   3.256   6.183   8.420  0.0000  0.0000  0.0000
 4207OM     OM1 4207   2.998   6.182   8.358  0.0000  0.0000  0.0000
 4208OM     OM1 4208   2.330   9.263   8.354  0.0000  0.0000  0.0000
 4209OM     OM1 4209   2.444   9.445   8.213  0.0000  0.0000  0.0000
 4210OM     OM1 4210   8.033   9.541   8.757  0.0000  0.0000  0.0000
 4211OM     OM1 4211   8.256   9.504   8.630  0.0000  0.0000  0.0000
 4212OM     OM1 4212   8.273   9.558   8.876  0.0000  0.0000  0.0000
 4213OM     OM1 4213   9.566   7.855   0.993  0.0000  0.0000  0.0000
 4214OM     OM1 4214   0.131   8.046   1.001  0.0000  0.0000  0.0000
 4215OM     OM1 4215   0.157   7.853   0.822  0.0000  0.0000  0.0000
 4216OM     OM1 4216   0.215   7.807   1.070  0.0000  0.0000  0.0000
 4217OM     OM1 4217   0.558   7.319   9.557  0.0000  0.0000  0.0000
 4218OM     OM1 4218   0.400   7.476   0.081  0.0000  0.0000  0.0000
 4219OM     OM1 4219   0.649   7.486   0.128  0.0000  0.0000  0.0000
 4220OM     OM1 4220   0.532   7.261   0.199  0.0000  0.0000  0.0000
 4221OM     OM1 4221   0.194   6.102   1.233  0.0000  0.0000  0.0000
 4222OM     OM1 4222   0.330   6.039   1.020  0.0000  0.0000  0.0000
 4223OM     OM1 4223   0.083   5.964   1.036  0.0000  0.0000  0.0000
 4224OM     OM1 4224   0.256   5.850   1.190  0.0000  0.0000  0.0000
 4225OM     OM1 4225   8.973   1.452   9.316  0.0000  0.0000  0.0000
 4226OM     OM1 4226   9.220   1.548   9.333  0.0000  0.0000  0.0000
 4227OM     OM1 4227   9.124   1.393   9.519  0.0000  0.0000  0.0000
 4228OM     OM1 4228   9.167   1.297   9.273  0.0000  0.0000  0.0000
 4229OM     OM1 4229   1.393   1.002   8.895  0.0000  0.0000  0.0000
 4230OM     OM1 4230   1.483   0.838   8.719  0.0000  0.0000  0.0000
 4231OM     OM1 4231   1.413   1.089   8.652  0.0000  0.0000  0.0000
 4232OM     OM1 4232   1.974   3.574   9.271  0.0000  0.0000  0.0000
 4233OM     OM1 4233   2.116   3.377   9.405  0.0000  0.0000  0.0000
 4234OM     OM1 4234   2.226   3.514   9.226  0.0000  0.0000  0.0000
 4235OM     OM1 4235   2.149   3.633   9.450  0.0000  0.0000  0.0000
 4236OM     OM1 4236   1.328   9.133   8.355  0.0000  0.0000  0.0000
 4237OM     OM1 4237   3.428   5.810   8.542  0.0000  0.0000  0.0000
 4238OM     OM1 4238   3.509   5.783   8.307  0.0000  0.0000  0.0000
 4239OM     OM1 4239   3.466   6.027   8.406  0.0000  0.0000  0.0000
 4240OM     OM1 4240   3.677   5.892   8.481  0.0000  0.0000  0.0000
 4241OM     OM1 4241   6.629   0.740   1.013  0.0000  0.0000  0.0000
 4242OM     OM1 4242   6.764   0.539   1.097  0.0000  0.0000  0.0000
 4243OM     OM1 4243   6.540   0.493   0.970  0.0000  0.0000  0.0000
 4244OM     OM1 4244   7.793   8.703   8.988  0.0000  0.0000  0.0000
 4245OM     OM1 4245   7.558   8.592   9.035  0.0000  0.0000  0.0000
 4246OM     OM1 4246   7.581   8.846   8.996  0.0000  0.0000  0.0000
 4247OM     OM1 4247   7.599   8.687   8.798  0.0000  0.0000  0.0000
 4248OM     OM1 4248   7.527   6.667   8.691  0.0000  0.0000  0.0000
 4249OM     OM1 4249   7.698   6.578   8.512  0.0000  0.0000  0.0000
 4250OM     OM1 4250   7.452   6.470   8.552  0.0000  0.0000  0.0000
 4251OM     OM1 4251   7.650   6.424   8.704  0.0000  0.0000  0.0000
 4252OM     OM1 4252   3.337   4.482   9.458  0.0000  0.0000  0.0000
 4253OM     OM1 4253   3.448   4.706   9.551  0.0000  0.0000  0.0000
 4254OM     OM1 4254   3.198   4.679   9.555  0.0000  0.0000  0.0000
 4255OM     OM1 4255   5.176   1.156   9.399  0.0000  0.0000  0.0000
 4256OM     OM1 4256   5.217   1.413   9.382  0.0000  0.0000  0.0000
 4257OM     OM1 4257   5.231   1.284   0.013  0.0000  0.0000  0.0000
 4258OM     OM1 4258   5.411   1.256   9.428  0.0000  0.0000  0.0000
 4259OM     OM1 4259   8.352   6.324   0.588  0.0000  0.0000  0.0000
 4260OM     OM1 4260   8.102   6.237   0.639  0.0000  0.0000  0.0000
 4261OM     OM1 4261   8.153   6.485   0.590  0.0000  0.0000  0.0000
 4262OM     OM1 4262   2.016   2.826   0.216  0.0000  0.0000  0.0000
 4263OM     OM1 4263   2.118   2.916   0.427  0.0000  0.0000  0.0000
 4264OM     OM1 4264   2.082   3.071   0.194  0.0000  0.0000  0.0000
 4265OM     OM1 4265   2.268   2.901   0.205  0.0000  0.0000  0.0000
 4266OM     OM1 4266   3.596   3.664   0.477  0.0000  0.0000  0.0000
 4267OM     OM1 4267   3.677   3.490   0.660  0.0000  0.0000  0.0000
 4268OM     OM1 4268   3.772   3.489   0.411  0.0000  0.0000  0.0000
 4269OM     OM1 4269   3.530   3.404   0.465  0.0000  0.0000  0.0000
 4270OM     OM1 4270   5.021   8.096   1.255  0.0000  0.0000  0.0000
 4271OM     OM1 4271   5.189   8.138   1.056  0.0000  0.0000  0.0000
 4272OM     OM1 4272   6.446   6.120   0.611  0.0000  0.0000  0.0000
 4273OM     OM1 4273   6.597   6.328   0.590  0.0000  0.0000  0.0000
 4274OM     OM1 4274   6.396   6.304   0.429  0.0000  0.0000  0.0000
 4275OM     OM1 4275   6.597   6.144   0.398  0.0000  0.0000  0.0000
 4276OM     OM1 4276   8.439   2.131   0.678  0.0000  0.0000  0.0000
 4277OM     OM1 4277   8.648   2.246   0.767  0.0000  0.0000  0.0000
 4278OM     OM1 4278   0.153   3.413   8.408  0.0000  0.0000  0.0000
 4279OM     OM1 4279   0.045   3.211   8.546  0.0000  0.0000  0.0000
 4280OM     OM1 4280   9.585   3.459   8.593  0.0000  0.0000  0.0000
 4281OM     OM1 4281   9.520   3.339   8.361  0.0000  0.0000  0.0000
 4282OM     OM1 4282   4.172   5.476   0.126  0.0000  0.0000  0.0000
 4283OM     OM1 4283   4.411   5.426   0.019  0.0000  0.0000  0.0000
 4284OM     OM1 4284   0.773   6.495   8.926  0.0000  0.0000  0.0000
 4285OM     OM1 4285   0.574   6.512   9.108  0.0000  0.0000  0.0000
 4286OM     OM1 4286   0.559   6.435   8.815  0.0000  0.0000  0.0000
 4287OM     OM1 4287   6.431   5.971   0.824  0.0000  0.0000  0.0000
 4288OM     OM1 4288   6.220   6.104   0.723  0.0000  0.0000  0.0000
 4289OM     OM1 4289   6.324   5.899   0.593  0.0000  0.0000  0.0000
 4290OM     OM1 4290   3.653   0.335   8.657  0.0000  0.0000  0.0000
 4291OM     OM1 4291   3.891   0.283   8.767  0.0000  0.0000  0.0000
 4292OM     OM1 4292   3.853   0.338   8.504  0.0000  0.0000  0.0000
 4293OM     OM1 4293   3.781   0.110   8.610  0.0000  0.0000  0.0000
 4294OM     OM1 4294   8.061   1.542   0.096  0.0000  0.0000  0.0000
 4295OM     OM1 4295   8.350   1.683   9.559  0.0000  0.0000  0.0000
 4296OM     OM1 4296   8.037   1.774   0.204  0.0000  0.0000  0.0000
 4297OM     OM1 4297   8.898   3.567   8.469  0.0000  0.0000  0.0000
 4298OM     OM1 4298   8.669   3.664   8.384  0.0000  0.0000  0.0000
 4299OM     OM1 4299   4.142   8.323   9.478  0.0000  0.0000  0.0000
 4300OM     OM1 4300   3.978   8.320   9.270  0.0000  0.0000  0.0000
 4301OM     OM1 4301   4.171   8.146   9.299  0.0000  0.0000  0.0000
 4302OM     OM1 4302   6.657   1.479   8.624  0.0000  0.0000  0.0000
 4303OM     OM1 4303   6.425   1.572   8.650  0.0000  0.0000  0.0000
 4304OM     OM1 4304   6.724   1.524   8.379  0.0000  0.0000  0.0000
 4305OM     OM1 4305   1.494   3.763   8.939  0.0000  0.0000  0.0000
 4306OM     OM1 4306   1.556   3.533   9.049  0.0000  0.0000  0.0000
 4307OM     OM1 4307   1.618   3.592   8.791  0.0000  0.0000  0.0000
 4308OM     OM1 4308   1.379   3.538   8.856  0.0000  0.0000  0.0000
 4309OM     OM1 4309   4.605   0.409   0.094  0.0000  0.0000  0.0000
 4310OM     OM1 4310   4.605   0.506   9.466  0.0000  0.0000  0.0000
 4311OM     OM1 4311   4.841   0.497   9.587  0.0000  0.0000  0.0000
 4312OM     OM1 4312   9.049   4.195   9.007  0.0000  0.0000  0.0000
 4313OM     OM1 4313   8.851   4.035   8.965  0.0000  0.0000  0.0000
 4314OM     OM1 4314   3.995   3.453   0.256  0.0000  0.0000  0.0000
 4315OM     OM1 4315   4.237   3.499   0.358  0.0000  0.0000  0.0000
 4316OM     OM1 4316   4.041   3.681   0.342  0.0000  0.0000  0.0000
 4317OM     OM1 4317   4.895   7.329   1.039  0.0000  0.0000  0.0000
 4318OM     OM1 4318   5.103   7.311   1.200  0.0000  0.0000  0.0000
 4319OM     OM1 4319   5.090   7.160   0.983  0.0000  0.0000  0.0000
 4320OM     OM1 4320   5.085   6.966   0.792  0.0000  0.0000  0.0000
 4321OM     OM1 4321   6.536   5.197   0.579  0.0000  0.0000  0.0000
 4322OM     OM1 4322   6.501   5.203   0.842  0.0000  0.0000  0.0000
 4323OM     OM1 4323   6.293   5.161   0.679  0.0000  0.0000  0.0000
 4324OM     OM1 4324   6.486   4.982   0.719  0.0000  0.0000  0.0000
 4325OM     OM1 4325   4.888   4.525   8.348  0.0000  0.0000  0.0000
 4326OM     OM1 4326   4.766   4.297   8.355  0.0000  0.0000  0.0000
 4327OM     OM1 4327   1.949   4.909   1.083  0.0000  0.0000  0.0000
 4328OM     OM1 4328   2.127   4.949   0.897  0.0000  0.0000  0.0000
 4329OM     OM1 4329   2.105   5.111   1.105  0.0000  0.0000  0.0000
 4330OM     OM1 4330   2.209   4.866   1.129  0.0000  0.0000  0.0000
 4331OM     OM1 4331   5.537   7.257   8.914  0.0000  0.0000  0.0000
 4332OM     OM1 4332   5.743   7.402   9.062  0.0000  0.0000  0.0000
 4333OM     OM1 4333   5.769   7.163   8.989  0.0000  0.0000  0.0000
 4334OM     OM1 4334   5.752   7.363   8.819  0.0000  0.0000  0.0000
 4335OM     OM1 4335   1.209   5.850   0.321  0.0000  0.0000  0.0000
 4336OM     OM1 4336   1.090   5.728   0.525  0.0000  0.0000  0.0000
 4337OM     OM1 4337   1.128   5.595   0.312  0.0000  0.0000  0.0000
 4338OM     OM1 4338   0.837   8.458   8.304  0.0000  0.0000  0.0000
 4339OM     OM1 4339   1.039   8.470   8.476  0.0000  0.0000  0.0000
 4340OM     OM1 4340   1.032   8.280   8.281  0.0000  0.0000  0.0000
 4341OM     OM1 4341   4.687   0.471   0.570  0.0000  0.0000  0.0000
 4342OM     OM1 4342   4.762   0.241   0.663  0.0000  0.0000  0.0000
 4343OM     OM1 4343   4.505   0.320   0.660  0.0000  0.0000  0.0000
 4344OM     OM1 4344   4.676   0.426   0.829  0.0000  0.0000  0.0000
 4345OM     OM1 4345   3.644   2.893   0.083  0.0000  0.0000  0.0000
 4346OM     OM1 4346   3.426   2.793   9.595  0.0000  0.0000  0.0000
 4347OM     OM1 4347   3.566   2.962   9.452  0.0000  0.0000  0.0000
 4348OM     OM1 4348   3.419   3.043   0.044  0.0000  0.0000  0.0000
 4349OM     OM1 4349   7.643   7.670   8.474  0.0000  0.0000  0.0000
 4350OM     OM1 4350   7.541   7.445   8.533  0.0000  0.0000  0.0000
 4351OM     OM1 4351   7.505   7.637   8.693  0.0000  0.0000  0.0000
 4352OM     OM1 4352   7.749   7.524   8.670  0.0000  0.0000  0.0000
 4353OM     OM1 4353   2.747   5.623   8.654  0.0000  0.0000  0.0000
 4354OM     OM1 4354   2.557   5.487   8.811  0.0000  0.0000  0.0000
 4355OM     OM1 4355   2.699   5.369   8.633  0.0000  0.0000  0.0000
 4356OM     OM1 4356   2.808   5.464   8.855  0.0000  0.0000  0.0000
 4357OM     OM1 4357   2.222   8.444   9.333  0.0000  0.0000  0.0000
 4358OM     OM1 4358   2.189   8.416   9.067  0.0000  0.0000  0.0000
 4359OM     OM1 4359   1.987   8.398   9.225  0.0000  0.0000  0.0000
 4360OM     OM1 4360   2.171   8.211   9.222  0.0000  0.0000  0.0000
 4361OM     OM1 4361   8.657   0.697   1.039  0.0000  0.0000  0.0000
 4362OM     OM1 4362   8.501   0.893   0.963  0.0000  0.0000  0.0000
 4363OM     OM1 4363   8.432   0.756   1.171  0.0000  0.0000  0.0000
 4364OM     OM1 4364   8.434   0.632   0.942  0.0000  0.0000  0.0000
 4365OM     OM1 4365   5.494   0.882   0.985  0.0000  0.0000  0.0000
 4366OM     OM1 4366   5.281   0.709   0.989  0.0000  0.0000  0.0000
 4367OM     OM1 4367   5.447   0.707   1.184  0.0000  0.0000  0.0000
 4368OM     OM1 4368   5.518   0.611   0.964  0.0000  0.0000  0.0000
 4369OM     OM1 4369   9.069   4.928   9.186  0.0000  0.0000  0.0000
 4370OM     OM1 4370   9.203   5.129   9.269  0.0000  0.0000  0.0000
 4371OM     OM1 4371   9.195   5.074   9.017  0.0000  0.0000  0.0000
 4372OM     OM1 4372   9.055   0.198   9.220  0.0000  0.0000  0.0000
 4373OM     OM1 4373   9.163   0.455   9.203  0.0000  0.0000  0.0000
 4374OM     OM1 4374   3.551   3.354   0.848  0.0000  0.0000  0.0000
 4375OM     OM1 4375   6.179   9.123   9.019  0.0000  0.0000  0.0000
 4376OM     OM1 4376   5.927   9.097   9.024  0.0000  0.0000  0.0000
 4377OM     OM1 4377   0.363   4.220   1.070  0.0000  0.0000  0.0000
 4378OM     OM1 4378   0.319   4.396   1.250  0.0000  0.0000  0.0000
 4379OM     OM1 4379   0.537   4.417   1.098  0.0000  0.0000  0.0000
 4380OM     OM1 4380   3.769   7.239   9.267  0.0000  0.0000  0.0000
 4381OM     OM1 4381   3.679   7.467   9.345  0.0000  0.0000  0.0000
 4382OM     OM1 4382   5.685   8.660   1.093  0.0000  0.0000  0.0000
 4383OM     OM1 4383   5.468   8.778   1.022  0.0000  0.0000  0.0000
 4384OM     OM1 4384   5.616   8.893   1.193  0.0000  0.0000  0.0000
 4385OM     OM1 4385   1.790   1.836   9.144  0.0000  0.0000  0.0000
 4386OM     OM1 4386   1.796   1.577   9.164  0.0000  0.0000  0.0000
 4387OM     OM1 4387   1.813   1.728   9.377  0.0000  0.0000  0.0000
 4388OM     OM1 4388   2.017   1.721   9.213  0.0000  0.0000  0.0000
 4389OM     OM1 4389   0.250   8.793   0.214  0.0000  0.0000  0.0000
 4390OM     OM1 4390   0.074   8.679   0.357  0.0000  0.0000  0.0000
 4391OM     OM1 4391   3.590   2.606   8.498  0.0000  0.0000  0.0000
 4392OM     OM1 4392   3.792   2.454   8.436  0.0000  0.0000  0.0000
 4393OM     OM1 4393   3.497   2.810   8.655  0.0000  0.0000  0.0000
 4394OM     OM1 4394   0.252   8.607   9.459  0.0000  0.0000  0.0000
 4395OM     OM1 4395   0.500   8.513   9.511  0.0000  0.0000  0.0000
 4396OM     OM1 4396   0.311   8.355   9.440  0.0000  0.0000  0.0000
 4397OM     OM1 4397   0.407   8.535   9.270  0.0000  0.0000  0.0000
 4398OM     OM1 4398   2.790   1.430   1.172  0.0000  0.0000  0.0000
 4399OM     OM1 4399   2.555   1.315   1.090  0.0000  0.0000  0.0000
 4400OM     OM1 4400   2.775   1.205   1.035  0.0000  0.0000  0.0000
 4401OM     OM1 4401   1.474   5.927   8.932  0.0000  0.0000  0.0000
 4402OM     OM1 4402   1.465   6.176   9.027  0.0000  0.0000  0.0000
 4403OM     OM1 4403   1.563   6.130   8.794  0.0000  0.0000  0.0000
 4404OM     OM1 4404   7.382   8.676   9.209  0.0000  0.0000  0.0000
 4405OM     OM1 4405   7.465   8.422   9.209  0.0000  0.0000  0.0000
 4406OM     OM1 4406   7.312   8.529   9.016  0.0000  0.0000  0.0000
 4407OM     OM1 4407   9.453   7.876   0.341  0.0000  0.0000  0.0000
 4408OM     OM1 4408   9.480   7.759   0.567  0.0000  0.0000  0.0000
 4409OM     OM1 4409   0.036   7.968   0.497  0.0000  0.0000  0.0000
 4410OM     OM1 4410   7.050   6.014   8.971  0.0000  0.0000  0.0000
 4411OM     OM1 4411   7.142   6.172   9.146  0.0000  0.0000  0.0000
 4412OM     OM1 4412   7.050   5.929   9.220  0.0000  0.0000  0.0000
 4413OM     OM1 4413   6.292   3.645   8.927  0.0000  0.0000  0.0000
 4414OM     OM1 4414   6.515   3.502   8.947  0.0000  0.0000  0.0000
 4415OM     OM1 4415   6.278   3.414   9.047  0.0000  0.0000  0.0000
 4416OM     OM1 4416   6.329   3.424   8.793  0.0000  0.0000  0.0000
 4417OM     OM1 4417   5.818   7.544   1.036  0.0000  0.0000  0.0000
 4418OM     OM1 4418   6.034   7.512   1.157  0.0000  0.0000  0.0000
 4419OM     OM1 4419   5.955   7.814   1.267  0.0000  0.0000  0.0000
 4420OM     OM1 4420   2.963   6.393   0.607  0.0000  0.0000  0.0000
 4421OM     OM1 4421   2.998   6.573   0.426  0.0000  0.0000  0.0000
 4422OM     OM1 4422   3.073   6.322   0.370  0.0000  0.0000  0.0000
 4423OM     OM1 4423   4.464   0.208   0.212  0.0000  0.0000  0.0000
 4424OM     OM1 4424   4.577   0.398   0.343  0.0000  0.0000  0.0000
 4425OM     OM1 4425   0.948   7.416   1.088  0.0000  0.0000  0.0000
 4426OM     OM1 4426   0.811   7.185   1.107  0.0000  0.0000  0.0000
 4427OM     OM1 4427   0.725   7.400   1.213  0.0000  0.0000  0.0000
 4428OM     OM1 4428   3.066   9.382   9.478  0.0000  0.0000  0.0000
 4429OM     OM1 4429   2.984   9.369   9.228  0.0000  0.0000  0.0000
 4430OM     OM1 4430   2.891   9.195   9.388  0.0000  0.0000  0.0000
 4431OM     OM1 4431   3.138   9.174   9.326  0.0000  0.0000  0.0000
 4432OM     OM1 4432   0.193   6.157   8.350  0.0000  0.0000  0.0000
 4433OM     OM1 4433   0.107   6.398   8.374  0.0000  0.0000  0.0000
 4434OM     OM1 4434   9.554   6.182   8.427  0.0000  0.0000  0.0000
 4435OM     OM1 4435   7.671   2.110   8.391  0.0000  0.0000  0.0000
 4436OM     OM1 4436   4.117   2.039   8.689  0.0000  0.0000  0.0000
 4437OM     OM1 4437   3.853   2.035   8.645  0.0000  0.0000  0.0000
 4438OM     OM1 4438   3.958   1.905   8.843  0.0000  0.0000  0.0000
 4439OM     OM1 4439   4.006   1.823   8.598  0.0000  0.0000  0.0000
 4440OM     OM1 4440   5.808   8.517   0.155  0.0000  0.0000  0.0000
 4441OM     OM1 4441   5.634   8.604   9.577  0.0000  0.0000  0.0000
 4442OM     OM1 4442   3.796   8.515   8.832  0.0000  0.0000  0.0000
 4443OM     OM1 4443   4.012   8.363   8.886  0.0000  0.0000  0.0000
 4444OM     OM1 4444   3.969   8.612   8.988  0.0000  0.0000  0.0000
 4445OM     OM1 4445   3.834   8.413   9.067  0.0000  0.0000  0.0000
 4446OM     OM1 4446   4.106   6.100   1.088  0.0000  0.0000  0.0000
 4447OM     OM1 4447   4.081   6.271   0.866  0.0000  0.0000  0.0000
 4448OM     OM1 4448   4.133   6.027   0.847  0.0000  0.0000  0.0000
 4449OM     OM1 4449   3.895   6.099   0.934  0.0000  0.0000  0.0000
 4450OM     OM1 4450   4.154   7.310   1.013  0.0000  0.0000  0.0000
 4451OM     OM1 4451   4.092   7.545   0.937  0.0000  0.0000  0.0000
 4452OM     OM1 4452   4.246   7.507   1.153  0.0000  0.0000  0.0000
 4453OM     OM1 4453   5.412   2.706   1.060  0.0000  0.0000  0.0000
 4454OM     OM1 4454   5.346   2.653   1.307  0.0000  0.0000  0.0000
 4455OM     OM1 4455   5.389   2.900   1.228  0.0000  0.0000  0.0000
 4456OM     OM1 4456   1.935   5.803   0.837  0.0000  0.0000  0.0000
 4457OM     OM1 4457   1.873   6.030   0.953  0.0000  0.0000  0.0000
 4458OM     OM1 4458   1.687   5.862   0.844  0.0000  0.0000  0.0000
 4459OM     OM1 4459   0.314   6.573   9.162  0.0000  0.0000  0.0000
 4460OM     OM1 4460   0.465   6.460   9.338  0.0000  0.0000  0.0000
 4461OM     OM1 4461   0.369   8.793   9.239  0.0000  0.0000  0.0000
 4462OM     OM1 4462   0.423   9.045   9.270  0.0000  0.0000  0.0000
 4463OM     OM1 4463   0.367   8.942   9.036  0.0000  0.0000  0.0000
 4464OM     OM1 4464   6.942   7.856   0.624  0.0000  0.0000  0.0000
 4465OM     OM1 4465   6.716   7.912   0.508  0.0000  0.0000  0.0000
 4466OM     OM1 4466   2.567   9.212   0.264  0.0000  0.0000  0.0000
 4467OM     OM1 4467   2.704   9.215   0.476  0.0000  0.0000  0.0000
 4468OM     OM1 4468   2.676   9.431   0.336  0.0000  0.0000  0.0000
 4469OM     OM1 4469   2.902   8.398   0.856  0.0000  0.0000  0.0000
 4470OM     OM1 4470   3.121   8.266   0.912  0.0000  0.0000  0.0000
 4471OM     OM1 4471   3.140   8.518   0.868  0.0000  0.0000  0.0000
 4472OM     OM1 4472   3.078   8.364   0.668  0.0000  0.0000  0.0000
 4473OM     OM1 4473   5.508   9.441   9.007  0.0000  0.0000  0.0000
 4474OM     OM1 4474   5.625   0.064   8.945  0.0000  0.0000  0.0000
 4475OM     OM1 4475   5.757   9.487   9.067  0.0000  0.0000  0.0000
 4476OM     OM1 4476   7.676   5.137   1.249  0.0000  0.0000  0.0000
 4477OM     OM1 4477   7.781   5.369   1.251  0.0000  0.0000  0.0000
 4478OM     OM1 4478   7.537   5.331   1.348  0.0000  0.0000  0.0000
 4479OM     OM1 4479   5.696   8.589   8.263  0.0000  0.0000  0.0000
 4480OM     OM1 4480   5.336   8.598   8.472  0.0000  0.0000  0.0000
 4481OM     OM1 4481   5.450   8.660   8.247  0.0000  0.0000  0.0000
 4482OM     OM1 4482   3.309   8.036   9.181  0.0000  0.0000  0.0000
 4483OM     OM1 4483   3.281   7.784   9.119  0.0000  0.0000  0.0000
 4484OM     OM1 4484   3.349   7.850   9.368  0.0000  0.0000  0.0000
 4485OM     OM1 4485   3.516   7.883   9.175  0.0000  0.0000  0.0000
 4486OM     OM1 4486   7.426   8.986   8.835  0.0000  0.0000  0.0000
 4487OM     OM1 4487   7.314   9.152   8.660  0.0000  0.0000  0.0000
 4488OM     OM1 4488   7.266   9.156   8.920  0.0000  0.0000  0.0000
 4489OM     OM1 4489   7.168   8.967   8.778  0.0000  0.0000  0.0000
 4490OM     OM1 4490   9.274   4.577   8.792  0.0000  0.0000  0.0000
 4491OM     OM1 4491   9.309   4.402   8.614  0.0000  0.0000  0.0000
 4492OM     OM1 4492   9.167   4.352   8.837  0.0000  0.0000  0.0000
 4493OM     OM1 4493   9.080   4.518   8.634  0.0000  0.0000  0.0000
 4494OM     OM1 4494   4.658   0.340   8.318  0.0000  0.0000  0.0000
 4495OM     OM1 4495   4.651   0.576   8.495  0.0000  0.0000  0.0000
 4496OM     OM1 4496   4.636   0.340   8.577  0.0000  0.0000  0.0000
 4497OM     OM1 4497   4.424   0.342   8.421  0.0000  0.0000  0.0000
 4498OM     OM1 4498   5.815   2.363   0.226  0.0000  0.0000  0.0000
 4499OM     OM1 4499   6.041   2.410   0.356  0.0000  0.0000  0.0000
 4500OM     OM1 4500   6.047   2.285   0.131  0.0000  0.0000  0.0000
 4501OM     OM1 4501   8.095   8.574   1.192  0.0000  0.0000  0.0000
 4502OM     OM1 4502   7.897   8.585   1.001  0.0000  0.0000  0.0000
 4503OM     OM1 4503   8.079   8.407   0.990  0.0000  0.0000  0.0000
 4504OM     OM1 4504   9.528   3.754   0.028  0.0000  0.0000  0.0000
 4505OM     OM1 4505   0.131   3.641   0.154  0.0000  0.0000  0.0000
 4506OM     OM1 4506   9.510   3.653   0.278  0.0000  0.0000  0.0000
 4507OM     OM1 4507   1.917   0.670   9.467  0.0000  0.0000  0.0000
 4508OM     OM1 4508   1.826   0.468   0.006  0.0000  0.0000  0.0000
 4509OM     OM1 4509   5.543   3.935   1.278  0.0000  0.0000  0.0000
 4510OM     OM1 4510   5.334   4.081   1.272  0.0000  0.0000  0.0000
 4511OM     OM1 4511   2.199   5.192   8.348  0.0000  0.0000  0.0000
 4512OM     OM1 4512   2.209   5.430   8.469  0.0000  0.0000  0.0000
 4513OM     OM1 4513   2.008   5.355   8.325  0.0000  0.0000  0.0000
 4514OM     OM1 4514   5.522   8.398   1.253  0.0000  0.0000  0.0000
 4515OM     OM1 4515   0.717   6.658   1.313  0.0000  0.0000  0.0000
 4516OM     OM1 4516   0.959   6.578   1.298  0.0000  0.0000  0.0000
 4517OM     OM1 4517   0.922   6.830   1.316  0.0000  0.0000  0.0000
 4518OM     OM1 4518   0.309   5.894   8.763  0.0000  0.0000  0.0000
 4519OM     OM1 4519   0.316   5.984   8.514  0.0000  0.0000  0.0000
 4520OM     OM1 4520   0.523   5.855   8.631  0.0000  0.0000  0.0000
 4521OM     OM1 4521   0.310   5.731   8.554  0.0000  0.0000  0.0000
 4522OM     OM1 4522   1.190   4.419   9.118  0.0000  0.0000  0.0000
 4523OM     OM1 4523   1.417   4.322   9.215  0.0000  0.0000  0.0000
 4524OM     OM1 4524   9.123   5.867   0.629  0.0000  0.0000  0.0000
 4525OM     OM1 4525   9.112   5.867   0.363  0.0000  0.0000  0.0000
 4526OM     OM1 4526   9.030   9.312   0.443  0.0000  0.0000  0.0000
 4527OM     OM1 4527   8.819   9.160   0.447  0.0000  0.0000  0.0000
 4528OM     OM1 4528   8.817   9.421   0.535  0.0000  0.0000  0.0000
 4529OM     OM1 4529   8.845   9.362   0.287  0.0000  0.0000  0.0000
 4530OM     OM1 4530   9.584   5.189   1.296  0.0000  0.0000  0.0000
 4531OM     OM1 4531   9.344   5.024   8.802  0.0000  0.0000  0.0000
 4532OM     OM1 4532   9.381   4.891   9.017  0.0000  0.0000  0.0000
 4533OM     OM1 4533   9.152   4.857   8.888  0.0000  0.0000  0.0000
 4534OM     OM1 4534   0.705   5.272   1.367  0.0000  0.0000  0.0000
 4535OM     OM1 4535   0.554   5.463   1.263  0.0000  0.0000  0.0000
 4536OM     OM1 4536   4.807   3.525   0.804  0.0000  0.0000  0.0000
 4537OM     OM1 4537   4.769   3.362   1.002  0.0000  0.0000  0.0000
 4538OM     OM1 4538   4.619   3.582   0.975  0.0000  0.0000  0.0000
 4539OM     OM1 4539   6.479   2.540   8.264  0.0000  0.0000  0.0000
 4540OM     OM1 4540   8.584   3.061   0.757  0.0000  0.0000  0.0000
 4541OM     OM1 4541   8.821   3.151   0.765  0.0000  0.0000  0.0000
 4542OM     OM1 4542   8.658   3.222   0.572  0.0000  0.0000  0.0000
 4543OM     OM1 4543   1.548   9.283   0.531  0.0000  0.0000  0.0000
 4544OM     OM1 4544   1.435   9.057   0.589  0.0000  0.0000  0.0000
 4545OM     OM1 4545   1.289   9.270   0.607  0.0000  0.0000  0.0000
 4546OM     OM1 4546   4.154   6.132   9.531  0.0000  0.0000  0.0000
 4547OM     OM1 4547   4.286   6.243   0.115  0.0000  0.0000  0.0000
 4548OM     OM1 4548   4.178   6.388   9.527  0.0000  0.0000  0.0000
 4549OM     OM1 4549   4.020   6.268   0.092  0.0000  0.0000  0.0000
 4550OM     OM1 4550   5.739   6.132   8.586  0.0000  0.0000  0.0000
 4551OM     OM1 4551   5.657   6.069   8.836  0.0000  0.0000  0.0000
 4552OM     OM1 4552   5.526   6.225   8.678  0.0000  0.0000  0.0000
 4553OM     OM1 4553   8.386   5.525   8.222  0.0000  0.0000  0.0000
 4554OM     OM1 4554   8.561   5.775   8.486  0.0000  0.0000  0.0000
 4555OM     OM1 4555   8.552   5.587   8.668  0.0000  0.0000  0.0000
 4556OM     OM1 4556   8.576   5.539   8.406  0.0000  0.0000  0.0000
 4557OM     OM1 4557   0.643   1.212   9.443  0.0000  0.0000  0.0000
 4558OM     OM1 4558   0.535   1.180   9.220  0.0000  0.0000  0.0000
 4559OM     OM1 4559   0.597   0.965   9.352  0.0000  0.0000  0.0000
 4560OM     OM1 4560   6.906   1.506   8.589  0.0000  0.0000  0.0000
 4561OM     OM1 4561   6.611   1.729   8.564  0.0000  0.0000  0.0000
 4562OM     OM1 4562   6.609   1.655   8.816  0.0000  0.0000  0.0000
 4563OM     OM1 4563   0.404   9.161   9.493  0.0000  0.0000  0.0000
 4564OM     OM1 4564   0.652   9.093   9.411  0.0000  0.0000  0.0000
 4565OM     OM1 4565   7.119   4.243   8.482  0.0000  0.0000  0.0000
 4566OM     OM1 4566   7.112   4.338   8.721  0.0000  0.0000  0.0000
 4567OM     OM1 4567   6.650   7.947   9.362  0.0000  0.0000  0.0000
 4568OM     OM1 4568   7.680   9.218   9.483  0.0000  0.0000  0.0000
 4569OM     OM1 4569   7.544   9.190   0.099  0.0000  0.0000  0.0000
 4570OM     OM1 4570   7.632   8.982   9.596  0.0000  0.0000  0.0000
 4571OM     OM1 4571   7.448   9.103   9.459  0.0000  0.0000  0.0000
 4572OM     OM1 4572   7.722   2.797   0.067  0.0000  0.0000  0.0000
 4573OM     OM1 4573   7.941   2.905   9.568  0.0000  0.0000  0.0000
 4574OM     OM1 4574   7.714   3.041   9.596  0.0000  0.0000  0.0000
 4575OM     OM1 4575   5.864   8.063   1.111  0.0000  0.0000  0.0000
 4576OM     OM1 4576   5.680   8.195   1.222  0.0000  0.0000  0.0000
 4577OM     OM1 4577   5.790   7.992   1.347  0.0000  0.0000  0.0000
 4578OM     OM1 4578   5.624   7.950   1.154  0.0000  0.0000  0.0000
 4579OM     OM1 4579   0.849   3.110   8.678  0.0000  0.0000  0.0000
 4580OM     OM1 4580   0.680   3.199   8.493  0.0000  0.0000  0.0000
 4581OM     OM1 4581   0.599   3.032   8.670  0.0000  0.0000  0.0000
 4582OM     OM1 4582   0.654   3.281   8.735  0.0000  0.0000  0.0000
 4583OM     OM1 4583   3.335   2.427   0.871  0.0000  0.0000  0.0000
 4584OM     OM1 4584   3.219   2.300   1.058  0.0000  0.0000  0.0000
 4585OM     OM1 4585   8.221   0.637   0.806  0.0000  0.0000  0.0000
 4586OM     OM1 4586   0.086   3.145   1.236  0.0000  0.0000  0.0000
 4587OM     OM1 4587   9.552   3.362   1.180  0.0000  0.0000  0.0000
 4588OM     OM1 4588   9.489   3.129   1.075  0.0000  0.0000  0.0000
 4589OM     OM1 4589   4.324   0.724   1.189  0.0000  0.0000  0.0000
 4590OM     OM1 4590   4.213   0.735   0.956  0.0000  0.0000  0.0000
 4591OM     OM1 4591   4.253   0.510   1.077  0.0000  0.0000  0.0000
 4592OM     OM1 4592   4.068   0.680   1.171  0.0000  0.0000  0.0000
 4593OM     OM1 4593   1.507   2.943   0.736  0.0000  0.0000  0.0000
 4594OM     OM1 4594   1.374   3.412   0.591  0.0000  0.0000  0.0000
 4595OM     OM1 4595   1.477   3.200   0.701  0.0000  0.0000  0.0000
 4596OM     OM1 4596   3.824   2.655   9.562  0.0000  0.0000  0.0000
 4597OM     OM1 4597   3.959   2.707   0.189  0.0000  0.0000  0.0000
 4598OM     OM1 4598   3.759   2.553   0.191  0.0000  0.0000  0.0000
 4599OM     OM1 4599   5.804   8.231   0.813  0.0000  0.0000  0.0000
 4600OM     OM1 4600   5.913   8.047   0.652  0.0000  0.0000  0.0000
 4601OM     OM1 4601   6.001   8.092   0.897  0.0000  0.0000  0.0000
 4602OM     OM1 4602   5.780   7.962   0.852  0.0000  0.0000  0.0000
 4603OM     OM1 4603   0.524   0.424   8.274  0.0000  0.0000  0.0000
 4604OM     OM1 4604   0.480   0.166   8.257  0.0000  0.0000  0.0000
 4605OM     OM1 4605   3.987   8.803   8.767  0.0000  0.0000  0.0000
 4606OM     OM1 4606   4.062   9.041   8.841  0.0000  0.0000  0.0000
 4607OM     OM1 4607   0.953   4.598   8.369  0.0000  0.0000  0.0000
 4608OM     OM1 4608   1.051   4.388   8.469  0.0000  0.0000  0.0000
 4609OM     OM1 4609   4.375   2.408   0.879  0.0000  0.0000  0.0000
 4610OM     OM1 4610   4.639   2.470   0.876  0.0000  0.0000  0.0000
 4611OM     OM1 4611   4.483   2.521   0.673  0.0000  0.0000  0.0000
 4612OM     OM1 4612   4.546   2.271   0.737  0.0000  0.0000  0.0000
 4613OM     OM1 4613   1.967   6.616   0.054  0.0000  0.0000  0.0000
 4614OM     OM1 4614   2.179   6.616   9.483  0.0000  0.0000  0.0000
 4615OM     OM1 4615   2.160   6.447   0.066  0.0000  0.0000  0.0000
 4616OM     OM1 4616   2.192   6.705   0.126  0.0000  0.0000  0.0000
 4617OM     OM1 4617   0.368   3.645   8.513  0.0000  0.0000  0.0000
 4618OM     OM1 4618   0.266   3.620   8.759  0.0000  0.0000  0.0000
 4619OM     OM1 4619   0.455   3.453   8.685  0.0000  0.0000  0.0000
 4620OM     OM1 4620   7.262   1.063   0.500  0.0000  0.0000  0.0000
 4621OM     OM1 4621   7.310   0.798   0.471  0.0000  0.0000  0.0000
 4622OM     OM1 4622   7.461   0.942   0.621  0.0000  0.0000  0.0000
 4623OM     OM1 4623   6.130   7.302   1.283  0.0000  0.0000  0.0000
 4624OM     OM1 4624   6.266   7.513   1.239  0.0000  0.0000  0.0000
 4625OM     OM1 4625   6.932   7.704   9.024  0.0000  0.0000  0.0000
 4626OM     OM1 4626   7.109   7.773   9.378  0.0000  0.0000  0.0000
 4627OM     OM1 4627   7.324   7.881   9.298  0.0000  0.0000  0.0000
 4628OM     OM1 4628   2.970   6.429   0.867  0.0000  0.0000  0.0000
 4629OM     OM1 4629   2.758   6.325   0.755  0.0000  0.0000  0.0000
 4630OM     OM1 4630   3.518   1.073   0.748  0.0000  0.0000  0.0000
 4631OM     OM1 4631   3.739   1.160   0.868  0.0000  0.0000  0.0000
 4632OM     OM1 4632   3.549   1.325   0.818  0.0000  0.0000  0.0000
 4633OM     OM1 4633   3.702   1.220   0.625  0.0000  0.0000  0.0000
 4634OM     OM1 4634   8.321   6.014   0.557  0.0000  0.0000  0.0000
 4635OM     OM1 4635   8.147   5.847   0.477  0.0000  0.0000  0.0000
 4636OM     OM1 4636   2.247   7.187   8.404  0.0000  0.0000  0.0000
 4637OM     OM1 4637   2.441   7.009   8.426  0.0000  0.0000  0.0000
 4638OM     OM1 4638   2.461   7.247   8.538  0.0000  0.0000  0.0000
 4639OM     OM1 4639   5.996   3.541   0.068  0.0000  0.0000  0.0000
 4640OM     OM1 4640   6.000   3.667   0.302  0.0000  0.0000  0.0000
 4641OM     OM1 4641   1.001   4.875   9.273  0.0000  0.0000  0.0000
 4642OM     OM1 4642   1.019   4.851   9.009  0.0000  0.0000  0.0000
 4643OM     OM1 4643   1.052   4.647   9.154  0.0000  0.0000  0.0000
 4644OM     OM1 4644   0.815   4.750   9.145  0.0000  0.0000  0.0000
 4645OM     OM1 4645   3.143   1.372   8.572  0.0000  0.0000  0.0000
 4646OM     OM1 4646   2.972   1.565   8.613  0.0000  0.0000  0.0000
 4647OM     OM1 4647   3.231   1.600   8.663  0.0000  0.0000  0.0000
 4648OM     OM1 4648   3.881   4.301   1.208  0.0000  0.0000  0.0000
 4649OM     OM1 4649   3.975   4.505   1.049  0.0000  0.0000  0.0000
 4650OM     OM1 4650   3.886   4.540   1.289  0.0000  0.0000  0.0000
 4651OM     OM1 4651   4.961   6.483   0.609  0.0000  0.0000  0.0000
 4652OM     OM1 4652   5.026   6.730   0.659  0.0000  0.0000  0.0000
 4653OM     OM1 4653   4.936   6.665   0.415  0.0000  0.0000  0.0000
 4654OM     OM1 4654   6.454   1.994   0.500  0.0000  0.0000  0.0000
 4655OM     OM1 4655   6.521   1.796   0.337  0.0000  0.0000  0.0000
 4656OM     OM1 4656   6.515   2.038   0.251  0.0000  0.0000  0.0000
 4657OM     OM1 4657   6.290   1.917   0.313  0.0000  0.0000  0.0000
 4658OM     OM1 4658   1.299   1.301   8.742  0.0000  0.0000  0.0000
 4659OM     OM1 4659   1.043   1.279   8.760  0.0000  0.0000  0.0000
 4660OM     OM1 4660   2.627   2.240   0.614  0.0000  0.0000  0.0000
 4661OM     OM1 4661   2.727   2.313   0.830  0.0000  0.0000  0.0000
 4662OM     OM1 4662   2.476   2.392   0.777  0.0000  0.0000  0.0000
 4663OM     OM1 4663   2.676   2.501   0.655  0.0000  0.0000  0.0000
 4664OM     OM1 4664   9.523   2.208   0.664  0.0000  0.0000  0.0000
 4665OM     OM1 4665   0.039   2.431   0.713  0.0000  0.0000  0.0000
 4666OM     OM1 4666   9.409   2.402   0.814  0.0000  0.0000  0.0000
 4667OM     OM1 4667   7.463   8.080   8.882  0.0000  0.0000  0.0000
 4668OM     OM1 4668   7.524   8.089   8.613  0.0000  0.0000  0.0000
 4669OM     OM1 4669   7.423   7.880   8.733  0.0000  0.0000  0.0000
 4670OM     OM1 4670   7.270   8.086   8.700  0.0000  0.0000  0.0000
 4671OM     OM1 4671   3.314   6.233   0.346  0.0000  0.0000  0.0000
 4672OM     OM1 4672   3.123   6.061   0.359  0.0000  0.0000  0.0000
 4673OM     OM1 4673   3.162   6.210   0.143  0.0000  0.0000  0.0000
 4674OM     OM1 4674   3.630   8.360   8.401  0.0000  0.0000  0.0000
 4675OM     OM1 4675   3.487   8.145   8.461  0.0000  0.0000  0.0000
 4676OM     OM1 4676   3.368   8.561   8.576  0.0000  0.0000  0.0000
 4677OM     OM1 4677   3.466   8.340   8.621  0.0000  0.0000  0.0000
 4678OM     OM1 4678   8.763   3.549   8.792  0.0000  0.0000  0.0000
 4679OM     OM1 4679   8.589   3.735   8.731  0.0000  0.0000  0.0000
 4680OM     OM1 4680   8.792   3.786   8.891  0.0000  0.0000  0.0000
 4681OM     OM1 4681   8.588   3.644   8.973  0.0000  0.0000  0.0000
 4682OM     OM1 4682   9.602   1.267   9.269  0.0000  0.0000  0.0000
 4683OM     OM1 4683   0.072   1.471   9.419  0.0000  0.0000  0.0000
 4684OM     OM1 4684   1.370   0.273   9.290  0.0000  0.0000  0.0000
 4685OM     OM1 4685   1.327   0.038   9.388  0.0000  0.0000  0.0000
 4686OM     OM1 4686   1.127   0.165   9.279  0.0000  0.0000  0.0000
 4687OM     OM1 4687   1.317   0.067   9.129  0.0000  0.0000  0.0000
 4688OM     OM1 4688   4.709   5.406   0.993  0.0000  0.0000  0.0000
 4689OM     OM1 4689   4.665   5.658   1.036  0.0000  0.0000  0.0000
 4690OM     OM1 4690   4.736   5.576   0.801  0.0000  0.0000  0.0000
 4691OM     OM1 4691   2.510   6.998   1.333  0.0000  0.0000  0.0000
 4692OM     OM1 4692   2.300   6.946   1.468  0.0000  0.0000  0.0000
 4693OM     OM1 4693   2.291   7.141   1.302  0.0000  0.0000  0.0000
 4694OM     OM1 4694   3.941   4.712   0.879  0.0000  0.0000  0.0000
 4695OM     OM1 4695   4.162   4.685   1.007  0.0000  0.0000  0.0000
 4696OM     OM1 4696   9.281   7.051   0.077  0.0000  0.0000  0.0000
 4697OM     OM1 4697   9.442   6.956   9.518  0.0000  0.0000  0.0000
 4698OM     OM1 4698   8.783   8.930   0.732  0.0000  0.0000  0.0000
 4699OM     OM1 4699   8.932   9.079   0.880  0.0000  0.0000  0.0000
 4700OM     OM1 4700   3.906   4.045   1.219  0.0000  0.0000  0.0000
 4701OM     OM1 4701   3.711   4.162   1.351  0.0000  0.0000  0.0000
 4702OM     OM1 4702   1.814   2.978   0.168  0.0000  0.0000  0.0000
 4703OM     OM1 4703   1.777   2.771   0.309  0.0000  0.0000  0.0000
 4704OM     OM1 4704   1.838   2.740   0.050  0.0000  0.0000  0.0000
 4705OM     OM1 4705   1.772   7.400   8.725  0.0000  0.0000  0.0000
 4706OM     OM1 4706   2.019   7.372   8.639  0.0000  0.0000  0.0000
 4707OM     OM1 4707   1.841   7.453   8.476  0.0000  0.0000  0.0000
 4708OM     OM1 4708   6.685   2.833   8.644  0.0000  0.0000  0.0000
 4709OM     OM1 4709   6.715   2.970   8.415  0.0000  0.0000  0.0000
 4710OM     OM1 4710   6.680   3.085   8.643  0.0000  0.0000  0.0000
 4711OM     OM1 4711   5.048   2.830   0.873  0.0000  0.0000  0.0000
 4712OM     OM1 4712   5.315   2.863   0.884  0.0000  0.0000  0.0000
 4713OM     OM1 4713   5.193   2.931   0.673  0.0000  0.0000  0.0000
 4714OM     OM1 4714   5.157   3.073   0.880  0.0000  0.0000  0.0000
 4715OM     OM1 4715   1.474   0.037   8.924  0.0000  0.0000  0.0000
 4716OM     OM1 4716   1.288   0.192   8.828  0.0000  0.0000  0.0000
 4717OM     OM1 4717   5.156   8.989   9.476  0.0000  0.0000  0.0000
 4718OM     OM1 4718   5.298   8.835   9.320  0.0000  0.0000  0.0000
 4719OM     OM1 4719   5.071   8.919   9.237  0.0000  0.0000  0.0000
 4720OM     OM1 4720   5.272   9.089   9.264  0.0000  0.0000  0.0000
 4721OM     OM1 4721   7.975   4.720   0.211  0.0000  0.0000  0.0000
 4722OM     OM1 4722   8.024   4.834   0.432  0.0000  0.0000  0.0000
 4723OM     OM1 4723   8.055   4.977   0.220  0.0000  0.0000  0.0000
 4724OM     OM1 4724   8.224   4.787   0.259  0.0000  0.0000  0.0000
 4725OM     OM1 4725   1.247   8.446   9.390  0.0000  0.0000  0.0000
 4726OM     OM1 4726   1.027   8.406   9.523  0.0000  0.0000  0.0000
 4727OM     OM1 4727   1.010   8.434   9.264  0.0000  0.0000  0.0000
 4728OM     OM1 4728   1.118   8.221   9.368  0.0000  0.0000  0.0000
 4729OM     OM1 4729   0.894   1.177   9.378  0.0000  0.0000  0.0000
 4730OM     OM1 4730   0.832   1.417   9.453  0.0000  0.0000  0.0000
 4731OM     OM1 4731   0.820   1.229   0.020  0.0000  0.0000  0.0000
 4732OM     OM1 4732   6.137   4.230   1.005  0.0000  0.0000  0.0000
 4733OM     OM1 4733   6.134   4.208   1.255  0.0000  0.0000  0.0000
 4734OM     OM1 4734   5.907   4.283   1.128  0.0000  0.0000  0.0000
 4735OM     OM1 4735   5.977   4.046   1.103  0.0000  0.0000  0.0000
 4736OM     OM1 4736   5.929   5.023   1.204  0.0000  0.0000  0.0000
 4737OM     OM1 4737   5.910   4.823   1.369  0.0000  0.0000  0.0000
 4738OM     OM1 4738   5.527   5.776   1.064  0.0000  0.0000  0.0000
 4739OM     OM1 4739   5.464   5.890   0.812  0.0000  0.0000  0.0000
 4740OM     OM1 4740   5.377   5.664   0.898  0.0000  0.0000  0.0000
 4741OM     OM1 4741   5.288   5.889   0.998  0.0000  0.0000  0.0000
 4742OM     OM1 4742   6.426   3.961   9.588  0.0000  0.0000  0.0000
 4743OM     OM1 4743   6.543   4.154   9.457  0.0000  0.0000  0.0000
 4744OM     OM1 4744   6.527   3.898   9.365  0.0000  0.0000  0.0000
 4745OM     OM1 4745   8.733   0.340   0.081  0.0000  0.0000  0.0000
 4746OM     OM1 4746   8.688   0.256   9.431  0.0000  0.0000  0.0000
 4747OM     OM1 4747   3.049   0.552   9.095  0.0000  0.0000  0.0000
 4748OM     OM1 4748   2.960   0.795   9.149  0.0000  0.0000  0.0000
 4749OM     OM1 4749   3.198   0.749   9.055  0.0000  0.0000  0.0000
 4750OM     OM1 4750   0.062   6.626   9.089  0.0000  0.0000  0.0000
 4751OM     OM1 4751   9.427   6.716   8.996  0.0000  0.0000  0.0000
 4752OM     OM1 4752   8.133   5.214   0.133  0.0000  0.0000  0.0000
 4753OM     OM1 4753   8.140   5.157   0.386  0.0000  0.0000  0.0000
 4754OM     OM1 4754   7.910   5.192   0.260  0.0000  0.0000  0.0000
 4755OM     OM1 4755   7.772   5.363   0.116  0.0000  0.0000  0.0000
 4756OM     OM1 4756   6.716   6.384   8.942  0.0000  0.0000  0.0000
 4757OM     OM1 4757   6.860   6.183   8.876  0.0000  0.0000  0.0000
 4758OM     OM1 4758   6.642   6.244   8.728  0.0000  0.0000  0.0000
 4759OM     OM1 4759   6.233   6.300   0.880  0.0000  0.0000  0.0000
 4760OM     OM1 4760   6.038   6.116   0.958  0.0000  0.0000  0.0000
 4761OM     OM1 4761   6.011   6.260   0.757  0.0000  0.0000  0.0000
 4762OM     OM1 4762   5.350   2.781   0.525  0.0000  0.0000  0.0000
 4763OM     OM1 4763   5.121   2.698   0.622  0.0000  0.0000  0.0000
 4764OM     OM1 4764   5.130   2.879   0.424  0.0000  0.0000  0.0000
 4765OM     OM1 4765   7.501   1.066   0.008  0.0000  0.0000  0.0000
 4766OM     OM1 4766   4.272   9.182   8.807  0.0000  0.0000  0.0000
 4767OM     OM1 4767   4.092   9.169   8.611  0.0000  0.0000  0.0000
 4768OM     OM1 4768   4.050   9.306   8.818  0.0000  0.0000  0.0000
 4769OM     OM1 4769   0.526   5.199   9.423  0.0000  0.0000  0.0000
 4770OM     OM1 4770   0.501   5.385   9.600  0.0000  0.0000  0.0000
 4771OM     OM1 4771   6.685   9.579   8.271  0.0000  0.0000  0.0000
 4772OM     OM1 4772   6.879   9.441   8.374  0.0000  0.0000  0.0000
 4773OM     OM1 4773   5.698   1.524   1.159  0.0000  0.0000  0.0000
 4774OM     OM1 4774   5.861   1.491   0.957  0.0000  0.0000  0.0000
 4775OM     OM1 4775   5.812   1.298   1.123  0.0000  0.0000  0.0000
 4776OM     OM1 4776   5.953   1.514   1.211  0.0000  0.0000  0.0000
 4777OM     OM1 4777   6.791   0.168   1.199  0.0000  0.0000  0.0000
 4778OM     OM1 4778   6.790   0.002   1.007  0.0000  0.0000  0.0000
 4779OM     OM1 4779   6.668   9.536   1.211  0.0000  0.0000  0.0000
 4780OM     OM1 4780   6.571   0.123   1.044  0.0000  0.0000  0.0000
 4781OM     OM1 4781   4.290   2.245   9.203  0.0000  0.0000  0.0000
 4782OM     OM1 4782   4.353   2.189   8.953  0.0000  0.0000  0.0000
 4783OM     OM1 4783   4.474   2.075   9.271  0.0000  0.0000  0.0000
 4784OM     OM1 4784   6.606   5.284   1.075  0.0000  0.0000  0.0000
 4785OM     OM1 4785   6.655   5.046   0.995  0.0000  0.0000  0.0000
 4786OM     OM1 4786   1.148   6.129   9.601  0.0000  0.0000  0.0000
 4787OM     OM1 4787   1.413   6.166   9.535  0.0000  0.0000  0.0000
 4788OM     OM1 4788   1.328   6.022   0.145  0.0000  0.0000  0.0000
 4789OM     OM1 4789   8.043   7.823   8.327  0.0000  0.0000  0.0000
 4790OM     OM1 4790   3.109   8.293   1.217  0.0000  0.0000  0.0000
 4791OM     OM1 4791   3.262   8.520   1.225  0.0000  0.0000  0.0000
 4792OM     OM1 4792   3.343   8.298   1.339  0.0000  0.0000  0.0000
 4793OM     OM1 4793   5.376   9.107   0.732  0.0000  0.0000  0.0000
 4794OM     OM1 4794   5.150   9.098   0.621  0.0000  0.0000  0.0000
 4795OM     OM1 4795   1.334   1.495   1.387  0.0000  0.0000  0.0000
 4796OM     OM1 4796   8.743   9.137   9.520  0.0000  0.0000  0.0000
 4797OM     OM1 4797   8.704   9.147   9.269  0.0000  0.0000  0.0000
 4798OM     OM1 4798   8.554   8.999   9.424  0.0000  0.0000  0.0000
 4799OM     OM1 4799   8.816   8.940   9.343  0.0000  0.0000  0.0000
 4800OM     OM1 4800   9.044   1.442   1.190  0.0000  0.0000  0.0000
 4801OM     OM1 4801   8.781   0.017   9.400  0.0000  0.0000  0.0000
 4802OM     OM1 4802   8.535   0.045   9.367  0.0000  0.0000  0.0000
 4803OM     OM1 4803   8.670   9.385   9.469  0.0000  0.0000  0.0000
 4804OM     OM1 4804   1.720   4.075   0.637  0.0000  0.0000  0.0000
 4805OM     OM1 4805   1.608   3.848   0.582  0.0000  0.0000  0.0000
 4806OM     OM1 4806   1.683   3.962   0.162  0.0000  0.0000  0.0000
 4807OM     OM1 4807   3.132   2.498   8.562  0.0000  0.0000  0.0000
 4808OM     OM1 4808   3.162   2.240   8.518  0.0000  0.0000  0.0000
 4809OM     OM1 4809   2.951   2.360   8.434  0.0000  0.0000  0.0000
 4810OM     OM1 4810   5.872   4.418   8.326  0.0000  0.0000  0.0000
 4811OM     OM1 4811   6.068   4.563   8.392  0.0000  0.0000  0.0000
 4812OM     OM1 4812   5.978   4.206   8.415  0.0000  0.0000  0.0000
 4813OM     OM1 4813   8.969   2.882   8.443  0.0000  0.0000  0.0000
 4814OM     OM1 4814   9.043   2.680   8.299  0.0000  0.0000  0.0000
 4815OM     OM1 4815   4.606   5.682   8.295  0.0000  0.0000  0.0000
 4816OM     OM1 4816   4.848   5.580   8.291  0.0000  0.0000  0.0000
 4817OM     OM1 4817   5.736   5.456   8.297  0.0000  0.0000  0.0000
 4818OM     OM1 4818   6.220   4.272   0.036  0.0000  0.0000  0.0000
 4819OM     OM1 4819   6.096   4.045   0.065  0.0000  0.0000  0.0000
 4820OM     OM1 4820   6.044   4.234   0.219  0.0000  0.0000  0.0000
 4821OM     OM1 4821   0.534   3.938   0.512  0.0000  0.0000  0.0000
 4822OM     OM1 4822   0.290   3.879   0.443  0.0000  0.0000  0.0000
 4823OM     OM1 4823   0.498   3.814   0.291  0.0000  0.0000  0.0000
 4824OM     OM1 4824   0.452   3.687   0.512  0.0000  0.0000  0.0000
 4825OM     OM1 4825   4.256   0.186   1.178  0.0000  0.0000  0.0000
 4826OM     OM1 4826   4.075   0.022   1.227  0.0000  0.0000  0.0000
 4827OM     OM1 4827   4.025   0.221   1.057  0.0000  0.0000  0.0000
 4828OM     OM1 4828   6.117   8.175   9.059  0.0000  0.0000  0.0000
 4829OM     OM1 4829   6.161   8.261   8.822  0.0000  0.0000  0.0000
 4830OM     OM1 4830   6.027   8.035   8.859  0.0000  0.0000  0.0000
 4831OM     OM1 4831   5.806   3.242   8.954  0.0000  0.0000  0.0000
 4832OM     OM1 4832   6.060   3.275   8.987  0.0000  0.0000  0.0000
 4833OM     OM1 4833   5.962   3.238   8.745  0.0000  0.0000  0.0000
 4834OM     OM1 4834   5.954   3.031   8.887  0.0000  0.0000  0.0000
 4835OM     OM1 4835   3.543   6.942   0.084  0.0000  0.0000  0.0000
 4836OM     OM1 4836   3.315   6.894   0.195  0.0000  0.0000  0.0000
 4837OM     OM1 4837   3.363   7.123   0.050  0.0000  0.0000  0.0000
 4838OM     OM1 4838   7.975   3.267   8.904  0.0000  0.0000  0.0000
 4839OM     OM1 4839   7.735   3.378   8.865  0.0000  0.0000  0.0000
 4840OM     OM1 4840   7.841   3.221   8.681  0.0000  0.0000  0.0000
 4841OM     OM1 4841   5.787   8.463   0.686  0.0000  0.0000  0.0000
 4842OM     OM1 4842   5.597   8.457   0.509  0.0000  0.0000  0.0000
 4843OM     OM1 4843   5.838   8.461   0.418  0.0000  0.0000  0.0000
 4844OM     OM1 4844   5.748   8.675   0.525  0.0000  0.0000  0.0000
 4845OM     OM1 4845   8.337   1.946   0.239  0.0000  0.0000  0.0000
 4846OM     OM1 4846   8.556   1.857   0.110  0.0000  0.0000  0.0000
 4847OM     OM1 4847   8.397   2.036   0.000  0.0000  0.0000  0.0000
 4848OM     OM1 4848   5.606   2.230   8.444  0.0000  0.0000  0.0000
 4849OM     OM1 4849   5.822   2.315   8.352  0.0000  0.0000  0.0000
 4850OM     OM1 4850   8.621   2.822   9.586  0.0000  0.0000  0.0000
 4851OM     OM1 4851   8.553   2.583   9.506  0.0000  0.0000  0.0000
 4852OM     OM1 4852   8.509   2.787   9.358  0.0000  0.0000  0.0000
 4853OM     OM1 4853   3.907   2.278   8.585  0.0000  0.0000  0.0000
 4854OM     OM1 4854   4.058   2.433   8.439  0.0000  0.0000  0.0000
 4855OM     OM1 4855   3.935   2.524   8.646  0.0000  0.0000  0.0000
 4856OM     OM1 4856   2.874   5.659   0.788  0.0000  0.0000  0.0000
 4857OM     OM1 4857   2.820   5.713   0.539  0.0000  0.0000  0.0000
 4858OM     OM1 4858   1.495   3.341   0.219  0.0000  0.0000  0.0000
 4859OM     OM1 4859   1.423   3.190   0.414  0.0000  0.0000  0.0000
 4860OM     OM1 4860   1.702   3.610   0.544  0.0000  0.0000  0.0000
 4861OM     OM1 4861   7.216   2.306   8.298  0.0000  0.0000  0.0000
 4862OM     OM1 4862   7.458   2.226   8.318  0.0000  0.0000  0.0000
 4863OM     OM1 4863   2.366   2.746   8.842  0.0000  0.0000  0.0000
 4864OM     OM1 4864   2.478   2.953   8.946  0.0000  0.0000  0.0000
 4865OM     OM1 4865   2.571   2.850   8.723  0.0000  0.0000  0.0000
 4866OM     OM1 4866   2.340   2.981   8.727  0.0000  0.0000  0.0000
 4867OM     OM1 4867   6.684   5.538   0.001  0.0000  0.0000  0.0000
 4868OM     OM1 4868   6.550   5.758   9.543  0.0000  0.0000  0.0000
 4869OM     OM1 4869   6.599   5.704   0.185  0.0000  0.0000  0.0000
 4870OM     OM1 4870   6.917   0.827   1.361  0.0000  0.0000  0.0000
 4871OM     OM1 4871   6.892   1.084   1.297  0.0000  0.0000  0.0000
 4872OM     OM1 4872   6.362   0.521   9.404  0.0000  0.0000  0.0000
 4873OM     OM1 4873   0.079   1.613   8.902  0.0000  0.0000  0.0000
 4874OM     OM1 4874   0.113   1.839   9.037  0.0000  0.0000  0.0000
 4875OM     OM1 4875   0.042   1.830   8.783  0.0000  0.0000  0.0000
 4876OM     OM1 4876   5.164   4.615   9.354  0.0000  0.0000  0.0000
 4877OM     OM1 4877   5.428   4.651   9.340  0.0000  0.0000  0.0000
 4878OM     OM1 4878   5.303   4.503   9.169  0.0000  0.0000  0.0000
 4879OM     OM1 4879   6.591   8.104   1.186  0.0000  0.0000  0.0000
 4880OM     OM1 4880   5.176   2.526   8.566  0.0000  0.0000  0.0000
 4881OM     OM1 4881   4.971   2.449   8.708  0.0000  0.0000  0.0000
 4882OM     OM1 4882   5.181   2.493   8.839  0.0000  0.0000  0.0000
 4883OM     OM1 4883   7.905   4.659   0.583  0.0000  0.0000  0.0000
 4884OM     OM1 4884   8.075   4.836   0.679  0.0000  0.0000  0.0000
 4885OM     OM1 4885   7.830   4.906   0.588  0.0000  0.0000  0.0000
 4886OM     OM1 4886   8.347   4.798   1.296  0.0000  0.0000  0.0000
 4887OM     OM1 4887   3.007   5.955   0.917  0.0000  0.0000  0.0000
 4888OM     OM1 4888   3.236   5.875   1.027  0.0000  0.0000  0.0000
 4889OM     OM1 4889   3.108   5.721   0.872  0.0000  0.0000  0.0000
 4890OM     OM1 4890   3.225   5.940   0.775  0.0000  0.0000  0.0000
 4891OM     OM1 4891   1.050   0.495   9.111  0.0000  0.0000  0.0000
 4892OM     OM1 4892   1.068   0.288   8.947  0.0000  0.0000  0.0000
 4893OM     OM1 4893   0.922   0.270   9.161  0.0000  0.0000  0.0000
 4894OM     OM1 4894   0.964   1.869   8.305  0.0000  0.0000  0.0000
 4895OM     OM1 4895   3.669   7.861   8.443  0.0000  0.0000  0.0000
 4896OM     OM1 4896   3.691   7.665   8.287  0.0000  0.0000  0.0000
 4897OM     OM1 4897   2.884   3.298   8.904  0.0000  0.0000  0.0000
 4898OM     OM1 4898   2.924   3.479   9.083  0.0000  0.0000  0.0000
 4899OM     OM1 4899   2.677   6.178   8.698  0.0000  0.0000  0.0000
 4900OM     OM1 4900   2.559   6.238   8.475  0.0000  0.0000  0.0000
 4901OM     OM1 4901   2.525   6.495   8.489  0.0000  0.0000  0.0000
 4902OM     OM1 4902   2.803   9.033   9.197  0.0000  0.0000  0.0000
 4903OM     OM1 4903   2.804   8.843   9.002  0.0000  0.0000  0.0000
 4904OM     OM1 4904   2.985   9.021   9.007  0.0000  0.0000  0.0000
 4905OM     OM1 4905   2.734   9.090   8.953  0.0000  0.0000  0.0000
 4906OM     OM1 4906   0.205   0.508   9.395  0.0000  0.0000  0.0000
 4907OM     OM1 4907   0.031   0.675   9.281  0.0000  0.0000  0.0000
 4908OM     OM1 4908   0.148   0.729   9.507  0.0000  0.0000  0.0000
 4909OM     OM1 4909   0.286   0.725   9.283  0.0000  0.0000  0.0000
 4910OM     OM1 4910   6.023   3.581   9.389  0.0000  0.0000  0.0000
 4911OM     OM1 4911   6.061   3.763   9.206  0.0000  0.0000  0.0000
 4912OM     OM1 4912   5.834   3.624   9.227  0.0000  0.0000  0.0000
 4913OM     OM1 4913   6.052   3.505   9.134  0.0000  0.0000  0.0000
 4914OM     OM1 4914   7.609   3.283   9.564  0.0000  0.0000  0.0000
 4915OM     OM1 4915   7.679   3.545   9.580  0.0000  0.0000  0.0000
 4916OM     OM1 4916   7.751   3.363   0.150  0.0000  0.0000  0.0000
 4917OM     OM1 4917   7.848   3.361   9.513  0.0000  0.0000  0.0000
 4918OM     OM1 4918   5.680   2.151   9.520  0.0000  0.0000  0.0000
 4919OM     OM1 4919   5.824   1.962   9.416  0.0000  0.0000  0.0000
 4920OM     OM1 4920   5.729   1.950   0.062  0.0000  0.0000  0.0000
 4921OM     OM1 4921   5.930   2.107   9.599  0.0000  0.0000  0.0000
 4922OM     OM1 4922   8.828   2.405   1.311  0.0000  0.0000  0.0000
 4923OM     OM1 4923   1.376   2.900   9.187  0.0000  0.0000  0.0000
 4924OM     OM1 4924   1.313   2.706   9.012  0.0000  0.0000  0.0000
 4925OM     OM1 4925   1.181   2.933   9.023  0.0000  0.0000  0.0000
 4926OM     OM1 4926   1.627   5.647   0.693  0.0000  0.0000  0.0000
 4927OM     OM1 4927   1.454   5.749   0.865  0.0000  0.0000  0.0000
 4928OM     OM1 4928   1.671   5.631   0.954  0.0000  0.0000  0.0000
 4929OM     OM1 4929   0.581   3.592   8.370  0.0000  0.0000  0.0000
 4930OM     OM1 4930   0.345   3.543   8.285  0.0000  0.0000  0.0000
 4931OM     OM1 4931   7.625   6.157   9.205  0.0000  0.0000  0.0000
 4932OM     OM1 4932   5.058   1.096   1.187  0.0000  0.0000  0.0000
 4933OM     OM1 4933   1.136   8.642   0.903  0.0000  0.0000  0.0000
 4934OM     OM1 4934   1.155   8.399   0.794  0.0000  0.0000  0.0000
 4935OM     OM1 4935   1.318   8.605   0.721  0.0000  0.0000  0.0000
 4936OM     OM1 4936   1.070   8.589   0.655  0.0000  0.0000  0.0000
 4937OM     OM1 4937   0.713   4.928   8.373  0.0000  0.0000  0.0000
 4938OM     OM1 4938   1.148   5.105   8.436  0.0000  0.0000  0.0000
 4939OM     OM1 4939   0.888   5.127   8.400  0.0000  0.0000  0.0000
 4940OM     OM1 4940   5.323   0.491   8.970  0.0000  0.0000  0.0000
 4941OM     OM1 4941   5.459   0.578   9.253  0.0000  0.0000  0.0000
 4942OM     OM1 4942   5.207   0.532   9.193  0.0000  0.0000  0.0000
 4943OM     OM1 4943   5.309   0.763   9.147  0.0000  0.0000  0.0000
 4944OM     OM1 4944   1.079   6.598   9.152  0.0000  0.0000  0.0000
 4945OM     OM1 4945   1.017   6.353   9.211  0.0000  0.0000  0.0000
 4946OM     OM1 4946   0.825   6.520   9.176  0.0000  0.0000  0.0000
 4947OM     OM1 4947   6.510   3.790   9.132  0.0000  0.0000  0.0000
 4948OM     OM1 4948   6.296   3.797   9.301  0.0000  0.0000  0.0000
 4949OM     OM1 4949   6.498   3.633   9.336  0.0000  0.0000  0.0000
 4950OM     OM1 4950   3.694   2.184   0.968  0.0000  0.0000  0.0000
 4951OM     OM1 4951   3.821   2.343   0.797  0.0000  0.0000  0.0000
 4952OM     OM1 4952   3.778   2.419   1.039  0.0000  0.0000  0.0000
 4953OM     OM1 4953   3.948   2.228   0.990  0.0000  0.0000  0.0000
 4954OM     OM1 4954   5.670   6.581   1.060  0.0000  0.0000  0.0000
 4955OM     OM1 4955   5.580   6.520   1.299  0.0000  0.0000  0.0000
 4956OM     OM1 4956   5.759   6.365   1.195  0.0000  0.0000  0.0000
 4957OM     OM1 4957   4.459   4.173   0.728  0.0000  0.0000  0.0000
 4958OM     OM1 4958   4.518   4.036   0.518  0.0000  0.0000  0.0000
 4959OM     OM1 4959   4.494   4.297   0.506  0.0000  0.0000  0.0000
 4960OM     OM1 4960   4.701   4.200   0.635  0.0000  0.0000  0.0000
 4961OM     OM1 4961   5.374   2.392   1.318  0.0000  0.0000  0.0000
 4962OM     OM1 4962   2.146   2.217   0.959  0.0000  0.0000  0.0000
 4963OM     OM1 4963   2.201   2.296   1.201  0.0000  0.0000  0.0000
 4964OM     OM1 4964   6.579   0.050   0.786  0.0000  0.0000  0.0000
 4965OM     OM1 4965   6.450   0.270   0.864  0.0000  0.0000  0.0000
 4966OM     OM1 4966   6.363   0.024   0.925  0.0000  0.0000  0.0000
 4967OM     OM1 4967   4.960   1.615   0.966  0.0000  0.0000  0.0000
 4968OM     OM1 4968   5.169   1.750   1.006  0.0000  0.0000  0.0000
 4969OM     OM1 4969   8.510   1.783   8.532  0.0000  0.0000  0.0000
 4970OM     OM1 4970   8.601   2.031   8.532  0.0000  0.0000  0.0000
 4971OM     OM1 4971   8.522   1.917   8.309  0.0000  0.0000  0.0000
 4972OM     OM1 4972   8.719   8.164   9.416  0.0000  0.0000  0.0000
 4973OM     OM1 4973   8.922   8.319   9.391  0.0000  0.0000  0.0000
 4974OM     OM1 4974   8.682   8.419   9.350  0.0000  0.0000  0.0000
 4975OM     OM1 4975   8.789   8.249   9.180  0.0000  0.0000  0.0000
 4976OM     OM1 4976   7.777   8.777   9.230  0.0000  0.0000  0.0000
 4977OM     OM1 4977   7.929   8.923   9.043  0.0000  0.0000  0.0000
 4978OM     OM1 4978   8.006   8.709   9.162  0.0000  0.0000  0.0000
 4979OM     OM1 4979   8.044   0.531   9.172  0.0000  0.0000  0.0000
 4980OM     OM1 4980   8.154   0.322   9.285  0.0000  0.0000  0.0000
 4981OM     OM1 4981   5.711   1.643   8.265  0.0000  0.0000  0.0000
 4982OM     OM1 4982   5.577   1.458   8.392  0.0000  0.0000  0.0000
 4983OM     OM1 4983   6.095   7.924   0.492  0.0000  0.0000  0.0000
 4984OM     OM1 4984   5.962   8.124   0.409  0.0000  0.0000  0.0000
 4985OM     OM1 4985   6.134   8.160   0.605  0.0000  0.0000  0.0000
 4986OM     OM1 4986   1.721   3.596   9.512  0.0000  0.0000  0.0000
 4987OM     OM1 4987   1.579   3.509   9.323  0.0000  0.0000  0.0000
 4988OM     OM1 4988   1.533   3.416   9.567  0.0000  0.0000  0.0000
 4989OM     OM1 4989   3.544   7.681   9.405  0.0000  0.0000  0.0000
 4990OM     OM1 4990   2.827   8.061   8.526  0.0000  0.0000  0.0000
 4991OM     OM1 4991   2.960   7.988   8.308  0.0000  0.0000  0.0000
 4992OM     OM1 4992   8.059   8.892   0.729  0.0000  0.0000  0.0000
 4993OM     OM1 4993   8.298   8.989   0.699  0.0000  0.0000  0.0000
 4994OM     OM1 4994   8.204   3.451   1.255  0.0000  0.0000  0.0000
 4995OM     OM1 4995   8.429   3.584   1.249  0.0000  0.0000  0.0000
 4996OM     OM1 4996   2.989   2.023   1.239  0.0000  0.0000  0.0000
 4997OM     OM1 4997   2.764   2.126   1.276  0.0000  0.0000  0.0000
 4998OM     OM1 4998   7.248   5.246   8.539  0.0000  0.0000  0.0000
 4999OM     OM1 4999   7.520   5.228   8.559  0.0000  0.0000  0.0000
 5000OM     OM1 5000   7.393   5.380   8.379  0.0000  0.0000  0.0000
 5001OM     OM1 5001   7.403   5.103   8.387  0.0000  0.0000  0.0000
 5002OM     OM1 5002   2.034   3.817   9.222  0.0000  0.0000  0.0000
 5003OM     OM1 5003   1.865   3.702   9.068  0.0000  0.0000  0.0000
 5004OM     OM1 5004   1.798   3.759   9.326  0.0000  0.0000  0.0000
 5005OM     OM1 5005   3.768   9.399   9.564  0.0000  0.0000  0.0000
 5006OM     OM1 5006   3.550   9.538   9.601  0.0000  0.0000  0.0000
 5007OM     OM1 5007   3.561   9.286   0.074  0.0000  0.0000  0.0000
 5008OM     OM1 5008   7.894   6.093   0.161  0.0000  0.0000  0.0000
 5009OM     OM1 5009   7.861   6.349   0.123  0.0000  0.0000  0.0000
 5010OM     OM1 5010   7.528   9.497   0.372  0.0000  0.0000  0.0000
 5011OM     OM1 5011   7.627   9.389   0.586  0.0000  0.0000  0.0000
 5012OM     OM1 5012   7.927   0.025   0.511  0.0000  0.0000  0.0000
 5013OM     OM1 5013   7.694   0.080   0.405  0.0000  0.0000  0.0000
 5014OM     OM1 5014   5.304   1.535   9.162  0.0000  0.0000  0.0000
 5015OM     OM1 5015   5.357   1.323   9.020  0.0000  0.0000  0.0000
 5016OM     OM1 5016   5.231   1.524   8.899  0.0000  0.0000  0.0000
 5017OM     OM1 5017   5.116   1.389   9.081  0.0000  0.0000  0.0000
 5018OM     OM1 5018   3.530   4.509   8.547  0.0000  0.0000  0.0000
 5019OM     OM1 5019   3.564   4.539   8.272  0.0000  0.0000  0.0000
 5020OM     OM1 5020   3.336   4.492   8.377  0.0000  0.0000  0.0000
 5021OM     OM1 5021   8.376   1.101   9.322  0.0000  0.0000  0.0000
 5022OM     OM1 5022   6.313   5.094   9.006  0.0000  0.0000  0.0000
 5023OM     OM1 5023   6.097   4.967   9.031  0.0000  0.0000  0.0000
 5024OM     OM1 5024   6.127   5.163   8.850  0.0000  0.0000  0.0000
 5025OM     OM1 5025   6.083   5.215   9.099  0.0000  0.0000  0.0000
 5026OM     OM1 5026   2.145   0.132   0.852  0.0000  0.0000  0.0000
 5027OM     OM1 5027   2.060   0.379   0.826  0.0000  0.0000  0.0000
 5028OM     OM1 5028   0.011   2.276   9.544  0.0000  0.0000  0.0000
 5029OM     OM1 5029   9.440   2.234   9.354  0.0000  0.0000  0.0000
 5030OM     OM1 5030   0.057   6.875   1.314  0.0000  0.0000  0.0000
 5031OM     OM1 5031   9.547   6.996   1.106  0.0000  0.0000  0.0000
 5032OM     OM1 5032   0.055   7.509   9.296  0.0000  0.0000  0.0000
 5033OM     OM1 5033   0.021   7.615   9.057  0.0000  0.0000  0.0000
 5034OM     OM1 5034   9.584   7.759   9.261  0.0000  0.0000  0.0000
 5035OM     OM1 5035   9.418   7.551   9.205  0.0000  0.0000  0.0000
 5036OM     OM1 5036   4.871   4.013   8.844  0.0000  0.0000  0.0000
 5037OM     OM1 5037   5.097   3.892   8.786  0.0000  0.0000  0.0000
 5038OM     OM1 5038   1.050   3.520   8.366  0.0000  0.0000  0.0000
 5039OM     OM1 5039   6.890   0.311   8.349  0.0000  0.0000  0.0000
 5040OM     OM1 5040   7.114   0.422   8.356  0.0000  0.0000  0.0000
 5041OM     OM1 5041   7.096   0.147   8.362  0.0000  0.0000  0.0000
 5042OM     OM1 5042   7.053   0.291   8.568  0.0000  0.0000  0.0000
 5043OM     OM1 5043   2.059   9.193   1.375  0.0000  0.0000  0.0000
 5044OM     OM1 5044   2.134   9.374   1.209  0.0000  0.0000  0.0000
 5045OM     OM1 5045   7.310   8.915   9.310  0.0000  0.0000  0.0000
 5046OM     OM1 5046   7.278   8.944   9.560  0.0000  0.0000  0.0000
 5047OM     OM1 5047   7.193   9.131   9.399  0.0000  0.0000  0.0000
 5048OM     OM1 5048   1.412   7.148   0.232  0.0000  0.0000  0.0000
 5049OM     OM1 5049   1.629   6.903   9.480  0.0000  0.0000  0.0000
 5050OM     OM1 5050   1.478   6.956   0.072  0.0000  0.0000  0.0000
 5051OM     OM1 5051   1.452   6.906   0.325  0.0000  0.0000  0.0000
 5052OM     OM1 5052   4.900   4.633   9.338  0.0000  0.0000  0.0000
 5053OM     OM1 5053   5.003   4.448   9.479  0.0000  0.0000  0.0000
 5054OM     OM1 5054   9.445   1.159   8.290  0.0000  0.0000  0.0000
 5055OM     OM1 5055   0.043   1.174   8.457  0.0000  0.0000  0.0000
 5056OM     OM1 5056   4.823   4.649   1.049  0.0000  0.0000  0.0000
 5057OM     OM1 5057   4.947   4.523   0.854  0.0000  0.0000  0.0000
 5058OM     OM1 5058   4.988   4.446   1.100  0.0000  0.0000  0.0000
 5059OM     OM1 5059   4.704   5.198   0.657  0.0000  0.0000  0.0000
 5060OM     OM1 5060   4.666   5.626   0.553  0.0000  0.0000  0.0000
 5061OM     OM1 5061   4.566   5.420   0.677  0.0000  0.0000  0.0000
 5062OM     OM1 5062   7.305   0.276   0.133  0.0000  0.0000  0.0000
 5063OM     OM1 5063   7.191   0.302   9.499  0.0000  0.0000  0.0000
 5064OM     OM1 5064   7.084   0.409   0.116  0.0000  0.0000  0.0000
 5065OM     OM1 5065   7.812   7.601   0.647  0.0000  0.0000  0.0000
 5066OM     OM1 5066   7.782   7.862   0.622  0.0000  0.0000  0.0000
 5067OM     OM1 5067   8.002   7.751   0.559  0.0000  0.0000  0.0000
 5068OM     OM1 5068   3.267   0.802   8.527  0.0000  0.0000  0.0000
 5069OM     OM1 5069   3.076   0.701   8.375  0.0000  0.0000  0.0000
 5070OM     OM1 5070   3.048   0.689   8.634  0.0000  0.0000  0.0000
 5071OM     OM1 5071   1.119   9.488   0.586  0.0000  0.0000  0.0000
 5072OM     OM1 5072   1.368   9.502   0.609  0.0000  0.0000  0.0000
 5073OM     OM1 5073   1.219   9.433   0.817  0.0000  0.0000  0.0000
 5074OM     OM1 5074   9.065   7.775   8.952  0.0000  0.0000  0.0000
 5075OM     OM1 5075   9.252   7.829   9.117  0.0000  0.0000  0.0000
 5076OM     OM1 5076   9.178   7.579   9.108  0.0000  0.0000  0.0000
 5077OM     OM1 5077   9.297   7.683   8.903  0.0000  0.0000  0.0000
 5078OM     OM1 5078   3.767   8.892   0.682  0.0000  0.0000  0.0000
 5079OM     OM1 5079   3.645   8.773   0.874  0.0000  0.0000  0.0000
 5080OM     OM1 5080   3.510   8.828   0.662  0.0000  0.0000  0.0000
 5081OM     OM1 5081   4.811   8.484   8.664  0.0000  0.0000  0.0000
 5082OM     OM1 5082   4.578   8.513   8.548  0.0000  0.0000  0.0000
 5083OM     OM1 5083   8.773   5.974   0.017  0.0000  0.0000  0.0000
 5084OM     OM1 5084   9.004   5.935   0.128  0.0000  0.0000  0.0000
 5085OM     OM1 5085   0.409   6.234   0.863  0.0000  0.0000  0.0000
 5086OM     OM1 5086   0.341   6.001   0.763  0.0000  0.0000  0.0000
 5087OM     OM1 5087   0.559   6.015   0.896  0.0000  0.0000  0.0000
 5088OM     OM1 5088   0.580   1.694   0.888  0.0000  0.0000  0.0000
 5089OM     OM1 5089   0.342   1.806   0.911  0.0000  0.0000  0.0000
 5090OM     OM1 5090   0.381   1.564   0.995  0.0000  0.0000  0.0000
 5091OM     OM1 5091   0.486   1.749   1.132  0.0000  0.0000  0.0000
 5092OM     OM1 5092   2.491   0.056   8.373  0.0000  0.0000  0.0000
 5093OM     OM1 5093   2.456   0.319   8.357  0.0000  0.0000  0.0000
 5094OM     OM1 5094   2.418   0.215   8.580  0.0000  0.0000  0.0000
 5095OM     OM1 5095   2.256   0.150   8.383  0.0000  0.0000  0.0000
 5096OM     OM1 5096   2.546   1.043   0.008  0.0000  0.0000  0.0000
 5097OM     OM1 5097   2.528   1.262   0.145  0.0000  0.0000  0.0000
 5098OM     OM1 5098   2.743   1.214   0.006  0.0000  0.0000  0.0000
 5099OM     OM1 5099   2.694   1.080   0.225  0.0000  0.0000  0.0000
 5100OM     OM1 5100   5.171   5.163   0.133  0.0000  0.0000  0.0000
 5101OM     OM1 5101   5.421   5.216   0.067  0.0000  0.0000  0.0000
 5102OM     OM1 5102   5.294   5.383   0.217  0.0000  0.0000  0.0000
 5103OM     OM1 5103   5.340   5.150   0.323  0.0000  0.0000  0.0000
 5104OM     OM1 5104   6.940   3.012   8.303  0.0000  0.0000  0.0000
 5105OM     OM1 5105   6.794   3.218   8.389  0.0000  0.0000  0.0000
 5106OM     OM1 5106   2.819   2.182   1.028  0.0000  0.0000  0.0000
 5107OM     OM1 5107   2.576   2.146   1.103  0.0000  0.0000  0.0000
 5108OM     OM1 5108   8.576   5.257   0.319  0.0000  0.0000  0.0000
 5109OM     OM1 5109   8.670   5.012   0.323  0.0000  0.0000  0.0000
 5110OM     OM1 5110   8.483   5.073   0.482  0.0000  0.0000  0.0000
 5111OM     OM1 5111   8.438   5.066   0.222  0.0000  0.0000  0.0000
 5112OM     OM1 5112   6.855   9.027   9.221  0.0000  0.0000  0.0000
 5113OM     OM1 5113   6.857   9.283   9.180  0.0000  0.0000  0.0000
 5114OM     OM1 5114   7.039   9.138   9.065  0.0000  0.0000  0.0000
 5115OM     OM1 5115   7.007   9.322   9.389  0.0000  0.0000  0.0000
 5116OM     OM1 5116   5.663   4.229   1.015  0.0000  0.0000  0.0000
 5117OM     OM1 5117   5.879   4.296   0.877  0.0000  0.0000  0.0000
 5118OM     OM1 5118   8.156   4.317   8.576  0.0000  0.0000  0.0000
 5119OM     OM1 5119   8.189   4.497   8.765  0.0000  0.0000  0.0000
 5120OM     OM1 5120   8.390   4.354   8.688  0.0000  0.0000  0.0000
 5121OM     OM1 5121   8.302   4.541   8.536  0.0000  0.0000  0.0000
 5122OM     OM1 5122   3.965   5.184   0.364  0.0000  0.0000  0.0000
 5123OM     OM1 5123   3.924   4.943   0.281  0.0000  0.0000  0.0000
 5124OM     OM1 5124   4.080   4.970   0.487  0.0000  0.0000  0.0000
 5125OM     OM1 5125   3.769   4.767   0.385  0.0000  0.0000  0.0000
 5126OM     OM1 5126   3.837   4.742   0.133  0.0000  0.0000  0.0000
 5127OM     OM1 5127   6.878   7.102   8.684  0.0000  0.0000  0.0000
 5128OM     OM1 5128   7.106   6.987   8.616  0.0000  0.0000  0.0000
 5129OM     OM1 5129   7.106   7.235   8.700  0.0000  0.0000  0.0000
 5130OM     OM1 5130   5.369   0.125   8.294  0.0000  0.0000  0.0000
 5131OM     OM1 5131   5.295   9.502   8.377  0.0000  0.0000  0.0000
 5132OM     OM1 5132   5.106   0.039   8.282  0.0000  0.0000  0.0000
 5133OM     OM1 5133   3.538   3.561   8.290  0.0000  0.0000  0.0000
 5134OM     OM1 5134   3.449   3.801   8.332  0.0000  0.0000  0.0000
 5135OM     OM1 5135   6.324   9.023   8.365  0.0000  0.0000  0.0000
 5136OM     OM1 5136   6.377   9.258   8.460  0.0000  0.0000  0.0000
 5137OM     OM1 5137   6.003   4.750   0.905  0.0000  0.0000  0.0000
 5138OM     OM1 5138   5.765   4.734   0.995  0.0000  0.0000  0.0000
 5139OM     OM1 5139   5.845   4.944   0.834  0.0000  0.0000  0.0000
 5140OM     OM1 5140   5.805   4.712   0.737  0.0000  0.0000  0.0000
 5141OM     OM1 5141   1.999   6.790   8.220  0.0000  0.0000  0.0000
 5142OM     OM1 5142   2.164   6.987   8.265  0.0000  0.0000  0.0000
 5143OM     OM1 5143   2.155   6.775   8.424  0.0000  0.0000  0.0000
 5144OM     OM1 5144   5.571   3.081   0.805  0.0000  0.0000  0.0000
 5145OM     OM1 5145   5.620   3.277   0.978  0.0000  0.0000  0.0000
 5146OM     OM1 5146   5.516   3.061   1.069  0.0000  0.0000  0.0000
 5147OM     OM1 5147   5.377   3.213   0.903  0.0000  0.0000  0.0000
 5148OM     OM1 5148   9.261   6.374   0.305  0.0000  0.0000  0.0000
 5149OM     OM1 5149   9.463   6.401   0.139  0.0000  0.0000  0.0000
 5150OM     OM1 5150   9.217   6.431   0.053  0.0000  0.0000  0.0000
 5151OM     OM1 5151   5.887   4.499   8.571  0.0000  0.0000  0.0000
 5152OM     OM1 5152   5.995   4.696   8.684  0.0000  0.0000  0.0000
 5153OM     OM1 5153   6.017   4.462   8.793  0.0000  0.0000  0.0000
 5154OM     OM1 5154   2.371   6.737   8.893  0.0000  0.0000  0.0000
 5155OM     OM1 5155   2.523   6.635   8.714  0.0000  0.0000  0.0000
 5156OM     OM1 5156   2.593   6.598   8.963  0.0000  0.0000  0.0000
 5157OM     OM1 5157   6.042   2.036   0.516  0.0000  0.0000  0.0000
 5158OM     OM1 5158   6.262   2.066   0.659  0.0000  0.0000  0.0000
 5159OM     OM1 5159   6.194   2.245   0.489  0.0000  0.0000  0.0000
 5160OM     OM1 5160   6.052   2.223   0.702  0.0000  0.0000  0.0000
 5161OM     OM1 5161   8.541   6.941   9.560  0.0000  0.0000  0.0000
 5162OM     OM1 5162   8.628   7.186   0.044  0.0000  0.0000  0.0000
 5163OM     OM1 5163   8.575   2.503   1.277  0.0000  0.0000  0.0000
 5164OM     OM1 5164   8.359   2.561   1.127  0.0000  0.0000  0.0000
 5165OM     OM1 5165   9.131   2.759   9.601  0.0000  0.0000  0.0000
 5166OM     OM1 5166   9.264   2.626   9.428  0.0000  0.0000  0.0000
 5167OM     OM1 5167   7.065   4.698   9.489  0.0000  0.0000  0.0000
 5168OM     OM1 5168   6.984   4.939   9.402  0.0000  0.0000  0.0000
 5169OM     OM1 5169   7.429   5.497   8.749  0.0000  0.0000  0.0000
 5170OM     OM1 5170   7.230   5.669   8.695  0.0000  0.0000  0.0000
 5171OM     OM1 5171   2.536   2.032   8.466  0.0000  0.0000  0.0000
 5172OM     OM1 5172   2.221   3.141   1.359  0.0000  0.0000  0.0000
 5173OM     OM1 5173   7.660   0.417   1.460  0.0000  0.0000  0.0000
 5174OM     OM1 5174   7.457   0.479   1.307  0.0000  0.0000  0.0000
 5175OM     OM1 5175   0.007   4.530   1.184  0.0000  0.0000  0.0000
 5176OM     OM1 5176   0.159   4.502   0.961  0.0000  0.0000  0.0000
 5177OM     OM1 5177   9.582   4.674   0.975  0.0000  0.0000  0.0000
 5178OM     OM1 5178   0.192   4.694   1.141  0.0000  0.0000  0.0000
 5179OM     OM1 5179   3.157   1.078   0.195  0.0000  0.0000  0.0000
 5180OM     OM1 5180   3.349   0.911   0.112  0.0000  0.0000  0.0000
 5181OM     OM1 5181   3.302   0.908   0.355  0.0000  0.0000  0.0000
 5182OM     OM1 5182   1.426   2.533   8.410  0.0000  0.0000  0.0000
 5183OM     OM1 5183   1.480   2.766   8.315  0.0000  0.0000  0.0000
 5184OM     OM1 5184   1.273   2.734   8.483  0.0000  0.0000  0.0000
 5185OM     OM1 5185   5.786   1.548   0.136  0.0000  0.0000  0.0000
 5186OM     OM1 5186   5.549   1.513   0.244  0.0000  0.0000  0.0000
 5187OM     OM1 5187   5.635   1.756   0.207  0.0000  0.0000  0.0000
 5188OM     OM1 5188   5.376   3.994   8.308  0.0000  0.0000  0.0000
 5189OM     OM1 5189   5.164   3.863   8.339  0.0000  0.0000  0.0000
 5190OM     OM1 5190   7.923   5.835   0.205  0.0000  0.0000  0.0000
 5191OM     OM1 5191   7.954   6.265   1.050  0.0000  0.0000  0.0000
 5192OM     OM1 5192   8.048   6.016   1.012  0.0000  0.0000  0.0000
 5193OM     OM1 5193   7.931   6.142   0.826  0.0000  0.0000  0.0000
 5194OM     OM1 5194   1.603   0.602   8.731  0.0000  0.0000  0.0000
 5195OM     OM1 5195   1.771   0.514   8.553  0.0000  0.0000  0.0000
 5196OM     OM1 5196   1.850   0.662   8.752  0.0000  0.0000  0.0000
 5197OM     OM1 5197   0.594   4.171   0.622  0.0000  0.0000  0.0000
 5198OM     OM1 5198   0.788   4.021   0.529  0.0000  0.0000  0.0000
 5199OM     OM1 5199   0.619   4.137   0.372  0.0000  0.0000  0.0000
 5200OM     OM1 5200   0.992   2.983   0.543  0.0000  0.0000  0.0000
 5201OM     OM1 5201   0.995   3.183   0.708  0.0000  0.0000  0.0000
 5202OM     OM1 5202   1.220   3.101   0.594  0.0000  0.0000  0.0000
 5203OM     OM1 5203   3.083   6.579   9.521  0.0000  0.0000  0.0000
 5204OM     OM1 5204   2.962   6.432   9.356  0.0000  0.0000  0.0000
 5205OM     OM1 5205   2.962   6.691   9.310  0.0000  0.0000  0.0000
 5206OM     OM1 5206   4.791   9.286   0.564  0.0000  0.0000  0.0000
 5207OM     OM1 5207   4.759   9.078   0.714  0.0000  0.0000  0.0000
 5208OM     OM1 5208   4.604   9.449   0.626  0.0000  0.0000  0.0000
 5209OM     OM1 5209   4.833   9.483   0.743  0.0000  0.0000  0.0000
 5210OM     OM1 5210   2.023   2.119   9.103  0.0000  0.0000  0.0000
 5211OM     OM1 5211   1.958   2.233   9.336  0.0000  0.0000  0.0000
 5212OM     OM1 5212   1.876   2.326   9.098  0.0000  0.0000  0.0000
 5213OM     OM1 5213   1.792   2.092   9.195  0.0000  0.0000  0.0000
 5214OM     OM1 5214   6.423   0.479   8.634  0.0000  0.0000  0.0000
 5215OM     OM1 5215   6.479   0.263   8.775  0.0000  0.0000  0.0000
 5216OM     OM1 5216   6.483   0.259   8.510  0.0000  0.0000  0.0000
 5217OM     OM1 5217   1.907   2.997   8.490  0.0000  0.0000  0.0000
 5218OM     OM1 5218   1.978   3.228   8.391  0.0000  0.0000  0.0000
 5219OM     OM1 5219   1.807   3.215   8.577  0.0000  0.0000  0.0000
 5220OM     OM1 5220   1.733   3.141   8.342  0.0000  0.0000  0.0000
 5221OM     OM1 5221   3.263   3.959   8.397  0.0000  0.0000  0.0000
 5222OM     OM1 5222   7.575   6.176   8.647  0.0000  0.0000  0.0000
 5223OM     OM1 5223   4.010   0.085   0.237  0.0000  0.0000  0.0000
 5224OM     OM1 5224   4.131   9.576   0.424  0.0000  0.0000  0.0000
 5225OM     OM1 5225   4.201   9.431   0.215  0.0000  0.0000  0.0000
 5226OM     OM1 5226   4.379   9.578   0.319  0.0000  0.0000  0.0000
 5227OM     OM1 5227   1.558   5.783   8.568  0.0000  0.0000  0.0000
 5228OM     OM1 5228   1.354   5.882   8.709  0.0000  0.0000  0.0000
 5229OM     OM1 5229   1.316   5.761   8.481  0.0000  0.0000  0.0000
 5230OM     OM1 5230   1.445   5.992   8.481  0.0000  0.0000  0.0000
 5231OM     OM1 5231   1.281   1.817   0.768  0.0000  0.0000  0.0000
 5232OM     OM1 5232   1.279   1.527   0.499  0.0000  0.0000  0.0000
 5233OM     OM1 5233   1.367   1.576   0.742  0.0000  0.0000  0.0000
 5234OM     OM1 5234   8.629   8.707   8.245  0.0000  0.0000  0.0000
 5235OM     OM1 5235   8.726   8.501   8.368  0.0000  0.0000  0.0000
 5236OM     OM1 5236   1.748   1.763   1.028  0.0000  0.0000  0.0000
 5237OM     OM1 5237   1.545   1.870   1.139  0.0000  0.0000  0.0000
 5238OM     OM1 5238   2.928   7.538   0.374  0.0000  0.0000  0.0000
 5239OM     OM1 5239   2.830   7.333   0.517  0.0000  0.0000  0.0000
 5240OM     OM1 5240   2.843   7.435   0.150  0.0000  0.0000  0.0000
 5241OM     OM1 5241   3.094   7.488   0.186  0.0000  0.0000  0.0000
 5242OM     OM1 5242   7.763   2.139   9.578  0.0000  0.0000  0.0000
 5243OM     OM1 5243   7.595   1.964   9.470  0.0000  0.0000  0.0000
 5244OM     OM1 5244   7.543   2.075   0.095  0.0000  0.0000  0.0000
 5245OM     OM1 5245   7.524   2.211   9.472  0.0000  0.0000  0.0000
 5246OM     OM1 5246   5.462   1.548   8.615  0.0000  0.0000  0.0000
 5247OM     OM1 5247   5.419   1.783   8.730  0.0000  0.0000  0.0000
 5248OM     OM1 5248   5.586   1.620   8.841  0.0000  0.0000  0.0000
 5249OM     OM1 5249   7.197   9.521   1.173  0.0000  0.0000  0.0000
 5250OM     OM1 5250   7.312   0.142   1.110  0.0000  0.0000  0.0000
 5251OM     OM1 5251   7.055   0.133   1.174  0.0000  0.0000  0.0000
 5252OM     OM1 5252   9.173   7.148   0.476  0.0000  0.0000  0.0000
 5253OM     OM1 5253   9.186   7.316   0.286  0.0000  0.0000  0.0000
 5254OM     OM1 5254   9.383   7.466   0.378  0.0000  0.0000  0.0000
 5255OM     OM1 5255   9.155   7.448   0.507  0.0000  0.0000  0.0000
 5256OM     OM1 5256   3.162   4.315   1.298  0.0000  0.0000  0.0000
 5257OM     OM1 5257   3.134   4.569   1.373  0.0000  0.0000  0.0000
 5258OM     OM1 5258   0.089   5.690   8.425  0.0000  0.0000  0.0000
 5259OM     OM1 5259   0.104   5.646   8.677  0.0000  0.0000  0.0000
 5260OM     OM1 5260   8.888   0.591   1.087  0.0000  0.0000  0.0000
 5261OM     OM1 5261   8.890   0.793   1.261  0.0000  0.0000  0.0000
 5262OM     OM1 5262   7.023   1.314   8.730  0.0000  0.0000  0.0000
 5263OM     OM1 5263   7.215   1.162   8.634  0.0000  0.0000  0.0000
 5264OM     OM1 5264   7.054   1.069   8.817  0.0000  0.0000  0.0000
 5265OM     OM1 5265   7.420   1.616   8.706  0.0000  0.0000  0.0000
 5266OM     OM1 5266   7.151   1.555   8.708  0.0000  0.0000  0.0000
 5267OM     OM1 5267   0.168   6.515   1.110  0.0000  0.0000  0.0000
 5268OM     OM1 5268   0.096   6.615   1.342  0.0000  0.0000  0.0000
 5269OM     OM1 5269   9.527   6.484   1.209  0.0000  0.0000  0.0000
 5270OM     OM1 5270   0.134   6.351   1.306  0.0000  0.0000  0.0000
 5271OM     OM1 5271   3.066   4.119   8.897  0.0000  0.0000  0.0000
 5272OM     OM1 5272   3.207   4.336   8.969  0.0000  0.0000  0.0000
 5273OM     OM1 5273   3.272   4.184   8.768  0.0000  0.0000  0.0000
 5274OM     OM1 5274   1.691   0.646   9.188  0.0000  0.0000  0.0000
 5275OM     OM1 5275   1.497   0.506   9.327  0.0000  0.0000  0.0000
 5276OM     OM1 5276   1.460   0.582   9.088  0.0000  0.0000  0.0000
 5277OM     OM1 5277   6.058   9.071   0.631  0.0000  0.0000  0.0000
 5278OM     OM1 5278   6.166   9.155   0.417  0.0000  0.0000  0.0000
 5279OM     OM1 5279   6.310   9.039   0.610  0.0000  0.0000  0.0000
 5280OM     OM1 5280   6.215   9.285   0.645  0.0000  0.0000  0.0000
 5281OM     OM1 5281   1.100   6.352   0.448  0.0000  0.0000  0.0000
 5282OM     OM1 5282   0.973   6.567   0.523  0.0000  0.0000  0.0000
 5283OM     OM1 5283   0.958   6.467   0.264  0.0000  0.0000  0.0000
 5284OM     OM1 5284   0.841   6.360   0.463  0.0000  0.0000  0.0000
 5285OM     OM1 5285   5.323   3.871   9.215  0.0000  0.0000  0.0000
 5286OM     OM1 5286   5.344   4.091   9.355  0.0000  0.0000  0.0000
 5287OM     OM1 5287   2.738   2.199   8.437  0.0000  0.0000  0.0000
 5288OM     OM1 5288   2.774   1.955   8.385  0.0000  0.0000  0.0000
 5289OM     OM1 5289   7.056   6.943   0.257  0.0000  0.0000  0.0000
 5290OM     OM1 5290   7.101   7.087   0.476  0.0000  0.0000  0.0000
 5291OM     OM1 5291   7.190   6.840   0.458  0.0000  0.0000  0.0000
 5292OM     OM1 5292   5.757   6.493   0.203  0.0000  0.0000  0.0000
 5293OM     OM1 5293   5.752   6.759   0.252  0.0000  0.0000  0.0000
 5294OM     OM1 5294   5.968   6.611   0.298  0.0000  0.0000  0.0000
 5295OM     OM1 5295   5.918   7.169   0.873  0.0000  0.0000  0.0000
 5296OM     OM1 5296   5.850   7.290   1.090  0.0000  0.0000  0.0000
 5297OM     OM1 5297   6.082   7.153   1.085  0.0000  0.0000  0.0000
 5298OM     OM1 5298   3.813   6.259   8.458  0.0000  0.0000  0.0000
 5299OM     OM1 5299   3.728   6.309   8.221  0.0000  0.0000  0.0000
 5300OM     OM1 5300   0.233   4.655   9.128  0.0000  0.0000  0.0000
 5301OM     OM1 5301   0.386   4.541   9.307  0.0000  0.0000  0.0000
 5302OM     OM1 5302   0.148   4.456   9.295  0.0000  0.0000  0.0000
 5303OM     OM1 5303   0.424   5.248   8.870  0.0000  0.0000  0.0000
 5304OM     OM1 5304   0.618   5.418   8.912  0.0000  0.0000  0.0000
 5305OM     OM1 5305   4.327   3.063   0.997  0.0000  0.0000  0.0000
 5306OM     OM1 5306   4.572   3.012   0.894  0.0000  0.0000  0.0000
 5307OM     OM1 5307   4.487   2.887   1.107  0.0000  0.0000  0.0000
 5308OM     OM1 5308   6.359   7.730   9.189  0.0000  0.0000  0.0000
 5309OM     OM1 5309   6.259   7.978   9.154  0.0000  0.0000  0.0000
 5310OM     OM1 5310   6.125   7.757   9.090  0.0000  0.0000  0.0000
 5311OM     OM1 5311   6.177   7.828   9.346  0.0000  0.0000  0.0000
 5312OM     OM1 5312   8.120   0.170   8.739  0.0000  0.0000  0.0000
 5313OM     OM1 5313   3.985   3.543   0.829  0.0000  0.0000  0.0000
 5314OM     OM1 5314   4.180   3.702   0.741  0.0000  0.0000  0.0000
 5315OM     OM1 5315   3.949   3.801   0.796  0.0000  0.0000  0.0000
 5316OM     OM1 5316   3.967   3.662   0.587  0.0000  0.0000  0.0000
 5317OM     OM1 5317   3.144   4.748   0.745  0.0000  0.0000  0.0000
 5318OM     OM1 5318   3.011   4.663   0.951  0.0000  0.0000  0.0000
 5319OM     OM1 5319   3.044   4.512   0.733  0.0000  0.0000  0.0000
 5320OM     OM1 5320   3.241   4.551   0.892  0.0000  0.0000  0.0000
 5321OM     OM1 5321   2.865   0.247   8.497  0.0000  0.0000  0.0000
 5322OM     OM1 5322   2.676   0.416   8.456  0.0000  0.0000  0.0000
 5323OM     OM1 5323   2.888   0.490   8.603  0.0000  0.0000  0.0000
 5324OM     OM1 5324   7.320   1.027   1.341  0.0000  0.0000  0.0000
 5325OM     OM1 5325   7.485   1.153   1.193  0.0000  0.0000  0.0000
 5326OM     OM1 5326   4.292   5.212   8.855  0.0000  0.0000  0.0000
 5327OM     OM1 5327   4.243   4.986   8.999  0.0000  0.0000  0.0000
 5328OM     OM1 5328   4.388   5.178   9.092  0.0000  0.0000  0.0000
 5329OM     OM1 5329   6.400   1.854   0.708  0.0000  0.0000  0.0000
 5330OM     OM1 5330   3.993   6.741   0.534  0.0000  0.0000  0.0000
 5331OM     OM1 5331   3.887   6.819   0.759  0.0000  0.0000  0.0000
 5332OM     OM1 5332   4.029   6.989   0.606  0.0000  0.0000  0.0000
 5333OM     OM1 5333   1.809   4.801   1.272  0.0000  0.0000  0.0000
 5334OM     OM1 5334   1.682   4.856   1.066  0.0000  0.0000  0.0000
 5335OM     OM1 5335   5.434   6.837   8.911  0.0000  0.0000  0.0000
 5336OM     OM1 5336   5.427   6.782   9.263  0.0000  0.0000  0.0000
 5337OM     OM1 5337   5.239   6.811   9.085  0.0000  0.0000  0.0000
 5338OM     OM1 5338   5.331   6.607   8.973  0.0000  0.0000  0.0000
 5339OM     OM1 5339   6.524   7.576   9.040  0.0000  0.0000  0.0000
 5340OM     OM1 5340   6.545   7.572   9.300  0.0000  0.0000  0.0000
 5341OM     OM1 5341   6.607   7.785   9.163  0.0000  0.0000  0.0000
 5342OM     OM1 5342   9.572   5.931   9.376  0.0000  0.0000  0.0000
 5343OM     OM1 5343   9.392   5.774   9.486  0.0000  0.0000  0.0000
 5344OM     OM1 5344   3.786   4.421   8.256  0.0000  0.0000  0.0000
 5345OM     OM1 5345   7.165   5.601   0.001  0.0000  0.0000  0.0000
 5346OM     OM1 5346   7.010   5.667   0.212  0.0000  0.0000  0.0000
 5347OM     OM1 5347   6.934   5.484   0.040  0.0000  0.0000  0.0000
 5348OM     OM1 5348   2.594   8.355   8.425  0.0000  0.0000  0.0000
 5349OM     OM1 5349   2.447   8.237   8.599  0.0000  0.0000  0.0000
 5350OM     OM1 5350   2.509   8.495   8.623  0.0000  0.0000  0.0000
 5351OM     OM1 5351   5.954   9.515   8.429  0.0000  0.0000  0.0000
 5352OM     OM1 5352   3.637   1.240   1.421  0.0000  0.0000  0.0000
 5353OM     OM1 5353   5.818   6.109   1.157  0.0000  0.0000  0.0000
 5354OM     OM1 5354   2.307   6.619   8.568  0.0000  0.0000  0.0000
 5355OM     OM1 5355   2.504   6.756   8.484  0.0000  0.0000  0.0000
 5356OM     OM1 5356   8.636   6.311   1.373  0.0000  0.0000  0.0000
 5357OM     OM1 5357   7.218   1.774   0.521  0.0000  0.0000  0.0000
 5358OM     OM1 5358   7.438   1.891   0.630  0.0000  0.0000  0.0000
 5359OM     OM1 5359   7.441   1.640   0.543  0.0000  0.0000  0.0000
 5360OM     OM1 5360   7.315   1.708   0.754  0.0000  0.0000  0.0000
 5361OM     OM1 5361   4.421   5.360   8.373  0.0000  0.0000  0.0000
 5362OM     OM1 5362   4.604   5.205   8.479  0.0000  0.0000  0.0000
 5363OM     OM1 5363   4.409   5.304   8.631  0.0000  0.0000  0.0000
 5364OM     OM1 5364   6.158   8.610   9.498  0.0000  0.0000  0.0000
 5365OM     OM1 5365   5.945   8.763   9.456  0.0000  0.0000  0.0000
 5366OM     OM1 5366   7.643   6.672   0.998  0.0000  0.0000  0.0000
 5367OM     OM1 5367   7.505   6.615   0.775  0.0000  0.0000  0.0000
 5368OM     OM1 5368   7.750   6.570   0.790  0.0000  0.0000  0.0000
 5369OM     OM1 5369   1.516   7.252   0.559  0.0000  0.0000  0.0000
 5370OM     OM1 5370   1.383   7.234   0.793  0.0000  0.0000  0.0000
 5371OM     OM1 5371   1.289   7.133   0.567  0.0000  0.0000  0.0000
 5372OM     OM1 5372   9.428   8.581   0.389  0.0000  0.0000  0.0000
 5373OM     OM1 5373   2.311   7.603   8.322  0.0000  0.0000  0.0000
 5374OM     OM1 5374   2.058   7.507   8.336  0.0000  0.0000  0.0000
 5375OM     OM1 5375   1.003   6.765   1.018  0.0000  0.0000  0.0000
 5376OM     OM1 5376   0.987   6.687   0.769  0.0000  0.0000  0.0000
 5377OM     OM1 5377   1.054   7.079   0.639  0.0000  0.0000  0.0000
 5378OM     OM1 5378   0.863   7.158   0.802  0.0000  0.0000  0.0000
 5379OM     OM1 5379   1.165   2.666   8.810  0.0000  0.0000  0.0000
 5380OM     OM1 5380   1.281   2.466   8.895  0.0000  0.0000  0.0000
 5381OM     OM1 5381   7.381   9.120   0.961  0.0000  0.0000  0.0000
 5382OM     OM1 5382   4.252   5.463   8.767  0.0000  0.0000  0.0000
 5383OM     OM1 5383   4.265   5.684   8.903  0.0000  0.0000  0.0000
 5384OM     OM1 5384   4.339   5.686   8.659  0.0000  0.0000  0.0000
 5385OM     OM1 5385   3.378   0.685   0.461  0.0000  0.0000  0.0000
 5386OM     OM1 5386   3.366   0.897   0.613  0.0000  0.0000  0.0000
 5387OM     OM1 5387   3.148   0.790   0.524  0.0000  0.0000  0.0000
 5388OM     OM1 5388   6.427   7.370   0.902  0.0000  0.0000  0.0000
 5389OM     OM1 5389   6.330   7.526   0.688  0.0000  0.0000  0.0000
 5390OM     OM1 5390   6.564   7.547   0.767  0.0000  0.0000  0.0000
 5391OM     OM1 5391   4.463   1.931   1.227  0.0000  0.0000  0.0000
 5392OM     OM1 5392   4.593   2.157   1.252  0.0000  0.0000  0.0000
 5393OM     OM1 5393   6.119   0.926   1.167  0.0000  0.0000  0.0000
 5394OM     OM1 5394   6.247   1.108   1.292  0.0000  0.0000  0.0000
 5395OM     OM1 5395   1.482   5.168   0.800  0.0000  0.0000  0.0000
 5396OM     OM1 5396   1.513   5.076   0.573  0.0000  0.0000  0.0000
 5397OM     OM1 5397   1.267   5.111   0.657  0.0000  0.0000  0.0000
 5398OM     OM1 5398   1.402   4.927   0.771  0.0000  0.0000  0.0000
 5399OM     OM1 5399   3.402   5.364   8.742  0.0000  0.0000  0.0000
 5400OM     OM1 5400   3.666   5.434   8.677  0.0000  0.0000  0.0000
 5401OM     OM1 5401   3.474   5.602   8.685  0.0000  0.0000  0.0000
 5402OM     OM1 5402   3.552   5.470   8.907  0.0000  0.0000  0.0000
 5403OM     OM1 5403   1.420   0.837   9.088  0.0000  0.0000  0.0000
 5404OM     OM1 5404   1.227   0.679   9.166  0.0000  0.0000  0.0000
 5405OM     OM1 5405   1.286   0.685   8.921  0.0000  0.0000  0.0000
 5406OM     OM1 5406   8.787   3.303   8.695  0.0000  0.0000  0.0000
 5407OM     OM1 5407   8.985   3.448   8.672  0.0000  0.0000  0.0000
 5408OM     OM1 5408   8.924   3.380   8.910  0.0000  0.0000  0.0000
 5409OM     OM1 5409   9.408   7.125   8.611  0.0000  0.0000  0.0000
 5410OM     OM1 5410   0.057   7.152   8.538  0.0000  0.0000  0.0000
 5411OM     OM1 5411   4.094   4.842   0.712  0.0000  0.0000  0.0000
 5412OM     OM1 5412   4.215   4.741   0.506  0.0000  0.0000  0.0000
 5413OM     OM1 5413   9.276   4.427   8.366  0.0000  0.0000  0.0000
 5414OM     OM1 5414   9.116   4.224   8.389  0.0000  0.0000  0.0000
 5415OM     OM1 5415   5.085   7.210   8.394  0.0000  0.0000  0.0000
 5416OM     OM1 5416   5.091   7.486   8.410  0.0000  0.0000  0.0000
 5417OM     OM1 5417   1.317   7.224   1.060  0.0000  0.0000  0.0000
 5418OM     OM1 5418   1.322   7.020   0.911  0.0000  0.0000  0.0000
 5419OM     OM1 5419   1.138   7.201   0.855  0.0000  0.0000  0.0000
 5420OM     OM1 5420   0.803   6.102   9.251  0.0000  0.0000  0.0000
 5421OM     OM1 5421   1.057   6.106   9.270  0.0000  0.0000  0.0000
 5422OM     OM1 5422   0.926   5.888   9.342  0.0000  0.0000  0.0000
 5423OM     OM1 5423   0.916   6.102   9.491  0.0000  0.0000  0.0000
 5424OM     OM1 5424   1.182   6.184   8.501  0.0000  0.0000  0.0000
 5425OM     OM1 5425   0.953   6.221   8.597  0.0000  0.0000  0.0000
 5426OM     OM1 5426   1.146   6.395   8.659  0.0000  0.0000  0.0000
 5427OM     OM1 5427   0.481   7.452   1.289  0.0000  0.0000  0.0000
 5428OM     OM1 5428   0.587   7.230   1.348  0.0000  0.0000  0.0000
 5429OM     OM1 5429   3.319   6.538   0.549  0.0000  0.0000  0.0000
 5430OM     OM1 5430   3.484   6.428   0.379  0.0000  0.0000  0.0000
 5431OM     OM1 5431   1.907   8.216   9.384  0.0000  0.0000  0.0000
 5432OM     OM1 5432   1.720   8.054   9.406  0.0000  0.0000  0.0000
 5433OM     OM1 5433   1.954   7.952   9.422  0.0000  0.0000  0.0000
 5434OM     OM1 5434   5.133   8.541   8.619  0.0000  0.0000  0.0000
 5435OM     OM1 5435   5.222   8.510   8.860  0.0000  0.0000  0.0000
 5436OM     OM1 5436   4.977   8.598   8.823  0.0000  0.0000  0.0000
 5437OM     OM1 5437   7.093   8.481   1.171  0.0000  0.0000  0.0000
 5438OM     OM1 5438   6.860   8.505   1.036  0.0000  0.0000  0.0000
 5439OM     OM1 5439   7.084   8.462   0.898  0.0000  0.0000  0.0000
 5440OM     OM1 5440   6.594   8.790   1.192  0.0000  0.0000  0.0000
 5441OM     OM1 5441   9.011   5.229   8.428  0.0000  0.0000  0.0000
 5442OM     OM1 5442   9.093   4.978   8.452  0.0000  0.0000  0.0000
 5443OM     OM1 5443   9.254   5.183   8.523  0.0000  0.0000  0.0000
 5444OM     OM1 5444   4.295   2.373   8.367  0.0000  0.0000  0.0000
 5445OM     OM1 5445   9.366   1.784   0.442  0.0000  0.0000  0.0000
 5446OM     OM1 5446   9.418   1.543   0.503  0.0000  0.0000  0.0000
 5447OM     OM1 5447   9.358   1.292   0.471  0.0000  0.0000  0.0000
 5448OM     OM1 5448   3.048   4.735   1.203  0.0000  0.0000  0.0000
 5449OM     OM1 5449   2.895   4.532   1.146  0.0000  0.0000  0.0000
 5450OM     OM1 5450   0.595   8.043   8.709  0.0000  0.0000  0.0000
 5451OM     OM1 5451   0.320   8.132   9.044  0.0000  0.0000  0.0000
 5452OM     OM1 5452   0.529   8.251   9.157  0.0000  0.0000  0.0000
 5453OM     OM1 5453   1.854   4.930   0.265  0.0000  0.0000  0.0000
 5454OM     OM1 5454   2.078   4.880   0.137  0.0000  0.0000  0.0000
 5455OM     OM1 5455   2.081   4.953   0.386  0.0000  0.0000  0.0000
 5456OM     OM1 5456   2.739   2.037   0.461  0.0000  0.0000  0.0000
 5457OM     OM1 5457   2.804   1.768   0.421  0.0000  0.0000  0.0000
 5458OM     OM1 5458   2.987   1.938   0.487  0.0000  0.0000  0.0000
 5459OM     OM1 5459   2.792   1.883   0.649  0.0000  0.0000  0.0000
 5460OM     OM1 5460   2.241   7.825   1.367  0.0000  0.0000  0.0000
 5461OM     OM1 5461   2.171   7.748   1.128  0.0000  0.0000  0.0000
 5462OM     OM1 5462   2.279   7.585   1.285  0.0000  0.0000  0.0000
 5463OM     OM1 5463   2.428   7.783   1.191  0.0000  0.0000  0.0000
 5464OM     OM1 5464   0.989   0.987   9.223  0.0000  0.0000  0.0000
 5465OM     OM1 5465   1.036   0.620   9.335  0.0000  0.0000  0.0000
 5466OM     OM1 5466   0.986   0.752   9.111  0.0000  0.0000  0.0000
 5467OM     OM1 5467   2.176   6.094   1.349  0.0000  0.0000  0.0000
 5468OM     OM1 5468   2.154   6.333   1.242  0.0000  0.0000  0.0000
 5469OM     OM1 5469   1.975   6.144   1.188  0.0000  0.0000  0.0000
 5470OM     OM1 5470   6.692   6.400   9.205  0.0000  0.0000  0.0000
 5471OM     OM1 5471   6.520   6.267   9.063  0.0000  0.0000  0.0000
 5472OM     OM1 5472   4.487   0.839   1.349  0.0000  0.0000  0.0000
 5473OM     OM1 5473   4.546   0.601   1.250  0.0000  0.0000  0.0000
 5474OM     OM1 5474   1.257   8.831   8.671  0.0000  0.0000  0.0000
 5475OM     OM1 5475   1.151   8.977   8.880  0.0000  0.0000  0.0000
 5476OM     OM1 5476   0.415   9.052   8.807  0.0000  0.0000  0.0000
 5477OM     OM1 5477   6.698   3.937   0.512  0.0000  0.0000  0.0000
 5478OM     OM1 5478   6.888   3.948   0.331  0.0000  0.0000  0.0000
 5479OM     OM1 5479   4.131   8.517   0.282  0.0000  0.0000  0.0000
 5480OM     OM1 5480   4.353   8.383   0.295  0.0000  0.0000  0.0000
 5481OM     OM1 5481   4.135   8.283   0.184  0.0000  0.0000  0.0000
 5482OM     OM1 5482   4.277   8.452   0.058  0.0000  0.0000  0.0000
 5483OM     OM1 5483   8.385   4.453   0.636  0.0000  0.0000  0.0000
 5484OM     OM1 5484   8.237   4.656   0.594  0.0000  0.0000  0.0000
 5485OM     OM1 5485   8.440   4.609   0.441  0.0000  0.0000  0.0000
 5486OM     OM1 5486   8.408   4.754   8.400  0.0000  0.0000  0.0000
 5487OM     OM1 5487   8.570   4.923   8.505  0.0000  0.0000  0.0000
 5488OM     OM1 5488   4.732   1.084   9.019  0.0000  0.0000  0.0000
 5489OM     OM1 5489   4.900   1.274   8.995  0.0000  0.0000  0.0000
 5490OM     OM1 5490   4.771   1.187   8.780  0.0000  0.0000  0.0000
 5491OM     OM1 5491   0.605   6.568   0.532  0.0000  0.0000  0.0000
 5492OM     OM1 5492   0.658   6.322   0.633  0.0000  0.0000  0.0000
 5493OM     OM1 5493   0.444   6.445   0.702  0.0000  0.0000  0.0000
 5494OM     OM1 5494   0.140   9.295   0.335  0.0000  0.0000  0.0000
 5495OM     OM1 5495   0.252   9.239   0.095  0.0000  0.0000  0.0000
 5496OM     OM1 5496   7.040   4.447   1.078  0.0000  0.0000  0.0000
 5497OM     OM1 5497   6.824   4.302   1.132  0.0000  0.0000  0.0000
 5498OM     OM1 5498   7.054   4.260   1.246  0.0000  0.0000  0.0000
 5499OM     OM1 5499   0.111   6.513   9.318  0.0000  0.0000  0.0000
 5500OM     OM1 5500   0.176   6.760   9.283  0.0000  0.0000  0.0000
 5501OM     OM1 5501   2.123   0.324   8.261  0.0000  0.0000  0.0000
 5502OM     OM1 5502   2.169   0.493   8.466  0.0000  0.0000  0.0000
 5503OM     OM1 5503   1.936   0.471   8.355  0.0000  0.0000  0.0000
 5504OM     OM1 5504   1.542   0.016   1.249  0.0000  0.0000  0.0000
 5505OM     OM1 5505   1.438   0.166   1.059  0.0000  0.0000  0.0000
 5506OM     OM1 5506   1.627   0.258   1.208  0.0000  0.0000  0.0000
 5507OM     OM1 5507   6.966   1.719   0.452  0.0000  0.0000  0.0000
 5508OM     OM1 5508   7.133   1.843   0.293  0.0000  0.0000  0.0000
 5509OM     OM1 5509   7.164   1.580   0.358  0.0000  0.0000  0.0000
 5510OM     OM1 5510   4.721   0.913   0.262  0.0000  0.0000  0.0000
 5511OM     OM1 5511   4.887   0.720   0.195  0.0000  0.0000  0.0000
 5512OM     OM1 5512   5.773   4.164   0.614  0.0000  0.0000  0.0000
 5513OM     OM1 5513   5.914   4.382   0.636  0.0000  0.0000  0.0000
 5514OM     OM1 5514   5.757   4.351   0.435  0.0000  0.0000  0.0000
 5515OM     OM1 5515   5.980   4.205   0.464  0.0000  0.0000  0.0000
 5516OM     OM1 5516   2.409   0.563   1.127  0.0000  0.0000  0.0000
 5517OM     OM1 5517   2.832   2.276   0.467  0.0000  0.0000  0.0000
 5518OM     OM1 5518   2.862   2.483   0.318  0.0000  0.0000  0.0000
 5519OM     OM1 5519   3.050   2.431   0.505  0.0000  0.0000  0.0000
 5520OM     OM1 5520   2.758   6.405   9.046  0.0000  0.0000  0.0000
 5521OM     OM1 5521   2.786   6.651   9.128  0.0000  0.0000  0.0000
 5522OM     OM1 5522   2.837   6.573   8.878  0.0000  0.0000  0.0000
 5523OM     OM1 5523   8.941   6.283   8.898  0.0000  0.0000  0.0000
 5524OM     OM1 5524   8.869   6.534   8.938  0.0000  0.0000  0.0000
 5525OM     OM1 5525   7.209   8.522   0.668  0.0000  0.0000  0.0000
 5526OM     OM1 5526   2.153   3.330   1.200  0.0000  0.0000  0.0000
 5527OM     OM1 5527   2.381   3.355   1.336  0.0000  0.0000  0.0000
 5528OM     OM1 5528   5.268   4.233   0.485  0.0000  0.0000  0.0000
 5529OM     OM1 5529   5.254   4.462   0.368  0.0000  0.0000  0.0000
 5530OM     OM1 5530   5.067   4.265   0.324  0.0000  0.0000  0.0000
 5531OM     OM1 5531   5.316   4.254   0.234  0.0000  0.0000  0.0000
 5532OM     OM1 5532   5.936   1.379   0.729  0.0000  0.0000  0.0000
 5533OM     OM1 5533   5.936   1.639   0.754  0.0000  0.0000  0.0000
 5534OM     OM1 5534   5.712   1.516   0.736  0.0000  0.0000  0.0000
 5535OM     OM1 5535   7.656   4.608   0.554  0.0000  0.0000  0.0000
 5536OM     OM1 5536   7.520   4.776   0.706  0.0000  0.0000  0.0000
 5537OM     OM1 5537   2.279   8.318   0.562  0.0000  0.0000  0.0000
 5538OM     OM1 5538   2.261   8.546   0.677  0.0000  0.0000  0.0000
 5539OM     OM1 5539   2.123   8.507   0.462  0.0000  0.0000  0.0000
 5540OM     OM1 5540   3.251   6.435   1.392  0.0000  0.0000  0.0000
 5541OM     OM1 5541   3.249   6.229   1.234  0.0000  0.0000  0.0000
 5542OM     OM1 5542   5.988   0.533   8.322  0.0000  0.0000  0.0000
 5543OM     OM1 5543   5.736   0.483   8.393  0.0000  0.0000  0.0000
 5544OM     OM1 5544   8.591   8.402   8.904  0.0000  0.0000  0.0000
 5545OM     OM1 5545   8.279   8.037   8.974  0.0000  0.0000  0.0000
 5546OM     OM1 5546   8.517   8.241   8.710  0.0000  0.0000  0.0000
 5547OM     OM1 5547   8.508   8.151   8.953  0.0000  0.0000  0.0000
 5548OM     OM1 5548   3.830   7.000   9.332  0.0000  0.0000  0.0000
 5549OM     OM1 5549   3.575   6.985   9.273  0.0000  0.0000  0.0000
 5550OM     OM1 5550   3.811   6.943   8.824  0.0000  0.0000  0.0000
 5551OM     OM1 5551   9.181   9.362   8.379  0.0000  0.0000  0.0000
 5552OM     OM1 5552   9.443   9.352   8.387  0.0000  0.0000  0.0000
 5553OM     OM1 5553   0.490   9.276   8.720  0.0000  0.0000  0.0000
 5554OM     OM1 5554   0.732   9.191   8.806  0.0000  0.0000  0.0000
 5555OM     OM1 5555   0.717   9.413   8.694  0.0000  0.0000  0.0000
 5556OM     OM1 5556   0.599   9.380   8.929  0.0000  0.0000  0.0000
 5557OM     OM1 5557   3.692   0.423   0.030  0.0000  0.0000  0.0000
 5558OM     OM1 5558   3.800   0.636   9.534  0.0000  0.0000  0.0000
 5559OM     OM1 5559   3.599   0.661   0.084  0.0000  0.0000  0.0000
 5560OM     OM1 5560   4.730   2.434   8.630  0.0000  0.0000  0.0000
 5561OM     OM1 5561   4.696   2.549   8.397  0.0000  0.0000  0.0000
 5562OM     OM1 5562   6.978   7.461   8.992  0.0000  0.0000  0.0000
 5563OM     OM1 5563   7.074   7.556   9.225  0.0000  0.0000  0.0000
 5564OM     OM1 5564   6.969   7.327   9.224  0.0000  0.0000  0.0000
 5565OM     OM1 5565   4.596   7.583   8.629  0.0000  0.0000  0.0000
 5566OM     OM1 5566   4.562   7.401   8.440  0.0000  0.0000  0.0000
 5567OM     OM1 5567   4.693   7.341   8.652  0.0000  0.0000  0.0000
 5568OM     OM1 5568   4.278   0.661   9.112  0.0000  0.0000  0.0000
 5569OM     OM1 5569   4.389   0.554   9.321  0.0000  0.0000  0.0000
 5570OM     OM1 5570   4.362   0.414   9.098  0.0000  0.0000  0.0000
 5571OM     OM1 5571   4.535   4.419   0.282  0.0000  0.0000  0.0000
 5572OM     OM1 5572   0.493   8.018   8.358  0.0000  0.0000  0.0000
 5573OM     OM1 5573   0.355   8.221   8.463  0.0000  0.0000  0.0000
 5574OM     OM1 5574   9.090   0.866   8.952  0.0000  0.0000  0.0000
 5575OM     OM1 5575   9.161   0.622   8.845  0.0000  0.0000  0.0000
 5576OM     OM1 5576   9.200   0.683   9.090  0.0000  0.0000  0.0000
 5577OM     OM1 5577   8.562   6.942   8.654  0.0000  0.0000  0.0000
 5578OM     OM1 5578   8.622   6.947   8.396  0.0000  0.0000  0.0000
 5579OM     OM1 5579   1.433   0.401   1.296  0.0000  0.0000  0.0000
 5580OM     OM1 5580   1.906   0.597   1.235  0.0000  0.0000  0.0000
 5581OM     OM1 5581   1.677   0.494   1.316  0.0000  0.0000  0.0000
 5582OM     OM1 5582   1.418   5.878   1.087  0.0000  0.0000  0.0000
 5583OM     OM1 5583   1.210   5.773   0.968  0.0000  0.0000  0.0000
 5584OM     OM1 5584   1.324   5.974   0.857  0.0000  0.0000  0.0000
 5585OM     OM1 5585   2.369   5.296   8.787  0.0000  0.0000  0.0000
 5586OM     OM1 5586   2.559   5.270   8.963  0.0000  0.0000  0.0000
 5587OM     OM1 5587   2.475   4.427   9.343  0.0000  0.0000  0.0000
 5588OM     OM1 5588   2.466   4.199   9.234  0.0000  0.0000  0.0000
 5589OM     OM1 5589   2.517   4.183   9.478  0.0000  0.0000  0.0000
 5590OM     OM1 5590   2.695   4.295   9.334  0.0000  0.0000  0.0000
 5591OM     OM1 5591   4.381   1.148   8.830  0.0000  0.0000  0.0000
 5592OM     OM1 5592   4.346   1.155   8.579  0.0000  0.0000  0.0000
 5593OM     OM1 5593   4.573   1.069   8.664  0.0000  0.0000  0.0000
 5594OM     OM1 5594   0.630   4.633   0.404  0.0000  0.0000  0.0000
 5595OM     OM1 5595   0.607   4.812   0.598  0.0000  0.0000  0.0000
 5596OM     OM1 5596   0.846   4.715   0.533  0.0000  0.0000  0.0000
 5597OM     OM1 5597   0.683   4.575   0.664  0.0000  0.0000  0.0000
 5598OM     OM1 5598   3.712   0.335   9.120  0.0000  0.0000  0.0000
 5599OM     OM1 5599   3.941   0.392   8.999  0.0000  0.0000  0.0000
 5600OM     OM1 5600   0.846   4.076   8.962  0.0000  0.0000  0.0000
 5601OM     OM1 5601   0.579   4.082   8.970  0.0000  0.0000  0.0000
 5602OM     OM1 5602   8.754   5.826   8.738  0.0000  0.0000  0.0000
 5603OM     OM1 5603   8.880   6.039   8.825  0.0000  0.0000  0.0000
 5604OM     OM1 5604   8.659   6.066   8.699  0.0000  0.0000  0.0000
 5605OM     OM1 5605   2.141   9.279   9.197  0.0000  0.0000  0.0000
 5606OM     OM1 5606   1.963   9.343   8.999  0.0000  0.0000  0.0000
 5607OM     OM1 5607   1.960   9.463   9.220  0.0000  0.0000  0.0000
 5608OM     OM1 5608   2.161   9.500   9.059  0.0000  0.0000  0.0000
 5609OM     OM1 5609   4.701   8.336   0.810  0.0000  0.0000  0.0000
 5610OM     OM1 5610   4.533   8.469   0.969  0.0000  0.0000  0.0000
 5611OM     OM1 5611   4.646   8.234   1.056  0.0000  0.0000  0.0000
 5612OM     OM1 5612   7.237   0.156   9.299  0.0000  0.0000  0.0000
 5613OM     OM1 5613   7.435   0.293   9.438  0.0000  0.0000  0.0000
 5614OM     OM1 5614   7.272   0.400   9.263  0.0000  0.0000  0.0000
 5615OM     OM1 5615   4.385   0.304   8.861  0.0000  0.0000  0.0000
 5616OM     OM1 5616   4.558   0.482   8.952  0.0000  0.0000  0.0000
 5617OM     OM1 5617   4.533   0.224   9.055  0.0000  0.0000  0.0000
 5618OM     OM1 5618   7.994   6.883   8.755  0.0000  0.0000  0.0000
 5619OM     OM1 5619   8.044   6.980   9.000  0.0000  0.0000  0.0000
 5620OM     OM1 5620   8.098   7.110   8.776  0.0000  0.0000  0.0000
 5621OM     OM1 5621   7.855   7.090   8.862  0.0000  0.0000  0.0000
 5622OM     OM1 5622   7.866   7.018   9.489  0.0000  0.0000  0.0000
 5623OM     OM1 5623   7.835   7.219   9.316  0.0000  0.0000  0.0000
 5624OM     OM1 5624   8.050   7.199   9.461  0.0000  0.0000  0.0000
 5625OM     OM1 5625   8.005   7.036   9.262  0.0000  0.0000  0.0000
 5626OM     OM1 5626   8.601   5.088   9.178  0.0000  0.0000  0.0000
 5627OM     OM1 5627   6.599   1.878   1.198  0.0000  0.0000  0.0000
 5628OM     OM1 5628   6.788   1.797   1.026  0.0000  0.0000  0.0000
 5629OM     OM1 5629   3.784   2.851   9.397  0.0000  0.0000  0.0000
 5630OM     OM1 5630   3.544   3.060   1.107  0.0000  0.0000  0.0000
 5631OM     OM1 5631   0.205   2.590   9.209  0.0000  0.0000  0.0000
 5632OM     OM1 5632   0.302   2.225   8.896  0.0000  0.0000  0.0000
 5633OM     OM1 5633   0.217   2.345   9.106  0.0000  0.0000  0.0000
 5634OM     OM1 5634   0.340   2.411   9.336  0.0000  0.0000  0.0000
 5635OM     OM1 5635   7.426   0.900   8.767  0.0000  0.0000  0.0000
 5636OM     OM1 5636   7.379   0.998   8.530  0.0000  0.0000  0.0000
 5637OM     OM1 5637   7.451   0.750   8.571  0.0000  0.0000  0.0000
 5638OM     OM1 5638   7.206   0.834   8.628  0.0000  0.0000  0.0000
 5639OM     OM1 5639   5.274   2.897   0.219  0.0000  0.0000  0.0000
 5640OM     OM1 5640   5.246   3.105   0.400  0.0000  0.0000  0.0000
 5641OM     OM1 5641   5.058   3.045   0.231  0.0000  0.0000  0.0000
 5642OM     OM1 5642   7.664   7.235   0.658  0.0000  0.0000  0.0000
 5643OM     OM1 5643   7.847   7.099   0.799  0.0000  0.0000  0.0000
 5644OM     OM1 5644   7.672   7.237   0.923  0.0000  0.0000  0.0000
 5645OM     OM1 5645   7.843   7.367   0.776  0.0000  0.0000  0.0000
 5646OM     OM1 5646   1.781   9.112   8.654  0.0000  0.0000  0.0000
 5647OM     OM1 5647   1.807   9.078   8.916  0.0000  0.0000  0.0000
 5648OM     OM1 5648   1.775   9.311   8.814  0.0000  0.0000  0.0000
 5649OM     OM1 5649   3.910   4.199   9.261  0.0000  0.0000  0.0000
 5650OM     OM1 5650   3.770   4.415   9.264  0.0000  0.0000  0.0000
 5651OM     OM1 5651   3.842   4.296   9.492  0.0000  0.0000  0.0000
 5652OM     OM1 5652   4.028   4.412   9.356  0.0000  0.0000  0.0000
 5653OM     OM1 5653   8.988   9.119   9.314  0.0000  0.0000  0.0000
 5654OM     OM1 5654   9.132   9.311   9.240  0.0000  0.0000  0.0000
 5655OM     OM1 5655   9.311   9.128   9.203  0.0000  0.0000  0.0000
 5656OM     OM1 5656   2.137   1.056   9.341  0.0000  0.0000  0.0000
 5657OM     OM1 5657   2.034   1.188   9.130  0.0000  0.0000  0.0000
 5658OM     OM1 5658   2.194   1.305   9.295  0.0000  0.0000  0.0000
 5659OM     OM1 5659   2.288   1.099   9.146  0.0000  0.0000  0.0000
 5660OM     OM1 5660   1.109   5.369   1.025  0.0000  0.0000  0.0000
 5661OM     OM1 5661   1.612   6.026   9.469  0.0000  0.0000  0.0000
 5662OM     OM1 5662   1.647   6.260   9.394  0.0000  0.0000  0.0000
 5663OM     OM1 5663   1.457   6.149   9.282  0.0000  0.0000  0.0000
 5664OM     OM1 5664   0.311   6.674   8.667  0.0000  0.0000  0.0000
 5665OM     OM1 5665   0.311   6.423   8.761  0.0000  0.0000  0.0000
 5666OM     OM1 5666   0.311   6.468   8.505  0.0000  0.0000  0.0000
 5667OM     OM1 5667   2.275   7.811   0.506  0.0000  0.0000  0.0000
 5668OM     OM1 5668   2.254   8.068   0.493  0.0000  0.0000  0.0000
 5669OM     OM1 5669   2.176   7.950   0.703  0.0000  0.0000  0.0000
 5670OM     OM1 5670   4.243   0.163   8.657  0.0000  0.0000  0.0000
 5671OM     OM1 5671   4.240   0.028   8.432  0.0000  0.0000  0.0000
 5672OM     OM1 5672   4.021   0.082   8.549  0.0000  0.0000  0.0000
 5673OM     OM1 5673   4.176   0.273   8.428  0.0000  0.0000  0.0000
 5674OM     OM1 5674   0.154   2.726   9.413  0.0000  0.0000  0.0000
 5675OM     OM1 5675   9.512   2.713   9.475  0.0000  0.0000  0.0000
 5676OM     OM1 5676   0.070   2.865   0.010  0.0000  0.0000  0.0000
 5677OM     OM1 5677   0.083   2.604   0.031  0.0000  0.0000  0.0000
 5678OM     OM1 5678   1.991   1.011   0.209  0.0000  0.0000  0.0000
 5679OM     OM1 5679   2.082   0.966   9.575  0.0000  0.0000  0.0000
 5680OM     OM1 5680   2.058   1.212   0.058  0.0000  0.0000  0.0000
 5681OM     OM1 5681   1.854   0.249   0.149  0.0000  0.0000  0.0000
 5682OM     OM1 5682   1.972   0.031   0.222  0.0000  0.0000  0.0000
 5683OM     OM1 5683   2.037   5.565   9.533  0.0000  0.0000  0.0000
 5684OM     OM1 5684   2.166   5.346   9.475  0.0000  0.0000  0.0000
 5685OM     OM1 5685   2.243   5.498   0.072  0.0000  0.0000  0.0000
 5686OM     OM1 5686   7.330   1.241   0.661  0.0000  0.0000  0.0000
 5687OM     OM1 5687   7.579   1.156   0.663  0.0000  0.0000  0.0000
 5688OM     OM1 5688   7.469   1.283   0.875  0.0000  0.0000  0.0000
 5689OM     OM1 5689   2.786   6.872   9.264  0.0000  0.0000  0.0000
 5690OM     OM1 5690   2.962   6.829   9.074  0.0000  0.0000  0.0000
 5691OM     OM1 5691   1.526   5.300   0.425  0.0000  0.0000  0.0000
 5692OM     OM1 5692   1.414   5.091   0.347  0.0000  0.0000  0.0000
 5693OM     OM1 5693   1.683   5.086   0.386  0.0000  0.0000  0.0000
 5694OM     OM1 5694   4.047   8.974   1.063  0.0000  0.0000  0.0000
 5695OM     OM1 5695   4.128   8.766   0.917  0.0000  0.0000  0.0000
 5696OM     OM1 5696   1.250   2.272   9.588  0.0000  0.0000  0.0000
 5697OM     OM1 5697   1.370   2.455   0.128  0.0000  0.0000  0.0000
 5698OM     OM1 5698   1.423   2.201   0.149  0.0000  0.0000  0.0000
 5699OM     OM1 5699   1.189   2.291   0.239  0.0000  0.0000  0.0000
 5700OM     OM1 5700   3.166   4.986   0.840  0.0000  0.0000  0.0000
 5701OM     OM1 5701   2.954   4.916   0.710  0.0000  0.0000  0.0000
 5702OM     OM1 5702   3.179   4.942   0.571  0.0000  0.0000  0.0000
 5703OM     OM1 5703   6.385   0.553   8.875  0.0000  0.0000  0.0000
 5704OM     OM1 5704   6.532   0.705   8.722  0.0000  0.0000  0.0000
 5705OM     OM1 5705   6.274   0.695   8.690  0.0000  0.0000  0.0000
 5706OM     OM1 5706   5.431   0.363   0.926  0.0000  0.0000  0.0000
 5707OM     OM1 5707   5.717   0.615   0.658  0.0000  0.0000  0.0000
 5708OM     OM1 5708   5.664   0.437   0.846  0.0000  0.0000  0.0000
 5709OM     OM1 5709   1.695   5.722   1.199  0.0000  0.0000  0.0000
 5710OM     OM1 5710   1.841   5.522   1.127  0.0000  0.0000  0.0000
 5711OM     OM1 5711   3.778   3.740   8.867  0.0000  0.0000  0.0000
 5712OM     OM1 5712   3.723   3.758   9.120  0.0000  0.0000  0.0000
 5713OM     OM1 5713   7.721   5.377   8.566  0.0000  0.0000  0.0000
 5714OM     OM1 5714   7.768   5.599   8.426  0.0000  0.0000  0.0000
 5715OM     OM1 5715   1.916   7.987   8.431  0.0000  0.0000  0.0000
 5716OM     OM1 5716   1.782   8.201   8.485  0.0000  0.0000  0.0000
 5717OM     OM1 5717   2.022   8.205   8.370  0.0000  0.0000  0.0000
 5718OM     OM1 5718   2.195   6.262   0.238  0.0000  0.0000  0.0000
 5719OM     OM1 5719   2.234   6.477   0.381  0.0000  0.0000  0.0000
 5720OM     OM1 5720   2.169   6.247   0.493  0.0000  0.0000  0.0000
 5721OM     OM1 5721   2.402   6.274   0.390  0.0000  0.0000  0.0000
 5722OM     OM1 5722   1.755   8.687   0.449  0.0000  0.0000  0.0000
 5723OM     OM1 5723   1.860   8.920   0.494  0.0000  0.0000  0.0000
 5724OM     OM1 5724   2.010   8.731   0.389  0.0000  0.0000  0.0000
 5725OM     OM1 5725   7.877   6.685   1.098  0.0000  0.0000  0.0000
 5726OM     OM1 5726   8.025   6.479   1.181  0.0000  0.0000  0.0000
 5727OM     OM1 5727   7.774   6.497   1.246  0.0000  0.0000  0.0000
 5728OM     OM1 5728   0.963   2.262   8.728  0.0000  0.0000  0.0000
 5729OM     OM1 5729   0.917   2.180   8.978  0.0000  0.0000  0.0000
 5730OM     OM1 5730   0.763   2.354   8.874  0.0000  0.0000  0.0000
 5731OM     OM1 5731   9.504   6.371   9.270  0.0000  0.0000  0.0000
 5732OM     OM1 5732   9.517   6.269   9.025  0.0000  0.0000  0.0000
 5733OM     OM1 5733   3.040   6.983   0.683  0.0000  0.0000  0.0000
 5734OM     OM1 5734   3.176   7.179   0.789  0.0000  0.0000  0.0000
 5735OM     OM1 5735   5.419   2.090   8.325  0.0000  0.0000  0.0000
 5736OM     OM1 5736   5.385   1.828   8.270  0.0000  0.0000  0.0000
 5737OM     OM1 5737   0.648   8.639   8.320  0.0000  0.0000  0.0000
 5738OM     OM1 5738   2.336   4.619   0.549  0.0000  0.0000  0.0000
 5739OM     OM1 5739   2.171   4.470   0.694  0.0000  0.0000  0.0000
 5740OM     OM1 5740   2.341   4.358   0.529  0.0000  0.0000  0.0000
 5741OM     OM1 5741   2.136   4.500   0.437  0.0000  0.0000  0.0000
 5742OM     OM1 5742   4.966   2.477   0.619  0.0000  0.0000  0.0000
 5743OM     OM1 5743   4.866   2.410   0.391  0.0000  0.0000  0.0000
 5744OM     OM1 5744   5.241   2.481   0.627  0.0000  0.0000  0.0000
 5745OM     OM1 5745   5.575   1.625   0.000  0.0000  0.0000  0.0000
 5746OM     OM1 5746   5.420   1.570   9.396  0.0000  0.0000  0.0000
 5747OM     OM1 5747   4.542   5.798   8.527  0.0000  0.0000  0.0000
 5748OM     OM1 5748   4.511   5.827   8.781  0.0000  0.0000  0.0000
 5749OM     OM1 5749   8.570   3.069   0.042  0.0000  0.0000  0.0000
 5750OM     OM1 5750   8.478   3.115   9.409  0.0000  0.0000  0.0000
 5751OM     OM1 5751   6.739   3.460   8.512  0.0000  0.0000  0.0000
 5752OM     OM1 5752   6.958   3.411   8.369  0.0000  0.0000  0.0000
 5753OM     OM1 5753   8.135   8.049   0.296  0.0000  0.0000  0.0000
 5754OM     OM1 5754   8.075   8.252   0.137  0.0000  0.0000  0.0000
 5755OM     OM1 5755   7.890   8.084   0.183  0.0000  0.0000  0.0000
 5756OM     OM1 5756   9.069   3.319   9.586  0.0000  0.0000  0.0000
 5757OM     OM1 5757   9.101   3.484   9.385  0.0000  0.0000  0.0000
 5758OM     OM1 5758   9.099   3.562   0.027  0.0000  0.0000  0.0000
 5759OM     OM1 5759   6.649   7.903   8.508  0.0000  0.0000  0.0000
 5760OM     OM1 5760   6.879   7.803   8.521  0.0000  0.0000  0.0000
 5761OM     OM1 5761   5.129   0.673   8.560  0.0000  0.0000  0.0000
 5762OM     OM1 5762   5.210   0.557   8.340  0.0000  0.0000  0.0000
 5763OM     OM1 5763   4.952   0.648   8.365  0.0000  0.0000  0.0000
 5764OM     OM1 5764   5.038   0.556   8.758  0.0000  0.0000  0.0000
 5765OM     OM1 5765   6.769   7.572   0.905  0.0000  0.0000  0.0000
 5766OM     OM1 5766   6.994   7.461   0.850  0.0000  0.0000  0.0000
 5767OM     OM1 5767   8.163   3.033   9.517  0.0000  0.0000  0.0000
 5768OM     OM1 5768   8.019   3.100   9.318  0.0000  0.0000  0.0000
 5769OM     OM1 5769   8.098   3.292   9.472  0.0000  0.0000  0.0000
 5770OM     OM1 5770   8.263   3.167   9.306  0.0000  0.0000  0.0000
 5771OM     OM1 5771   2.936   9.473   8.978  0.0000  0.0000  0.0000
 5772OM     OM1 5772   2.432   7.500   8.518  0.0000  0.0000  0.0000
 5773OM     OM1 5773   2.285   7.373   8.687  0.0000  0.0000  0.0000
 5774OM     OM1 5774   8.156   4.714   8.416  0.0000  0.0000  0.0000
 5775OM     OM1 5775   8.135   4.973   8.428  0.0000  0.0000  0.0000
 5776OM     OM1 5776   7.921   4.815   8.418  0.0000  0.0000  0.0000
 5777OM     OM1 5777   8.104   0.512   0.289  0.0000  0.0000  0.0000
 5778OM     OM1 5778   8.021   0.633   0.064  0.0000  0.0000  0.0000
 5779OM     OM1 5779   8.243   0.487   0.070  0.0000  0.0000  0.0000
 5780OM     OM1 5780   0.213   2.564   0.251  0.0000  0.0000  0.0000
 5781OM     OM1 5781   0.041   2.387   0.169  0.0000  0.0000  0.0000
 5782OM     OM1 5782   9.562   2.626   0.253  0.0000  0.0000  0.0000
 5783OM     OM1 5783   3.565   8.108   0.093  0.0000  0.0000  0.0000
 5784OM     OM1 5784   3.719   8.068   0.296  0.0000  0.0000  0.0000
 5785OM     OM1 5785   3.608   8.304   0.265  0.0000  0.0000  0.0000
 5786OM     OM1 5786   6.262   8.137   8.618  0.0000  0.0000  0.0000
 5787OM     OM1 5787   4.352   3.229   0.740  0.0000  0.0000  0.0000
 5788OM     OM1 5788   4.595   3.280   0.649  0.0000  0.0000  0.0000
 5789OM     OM1 5789   4.387   3.418   0.570  0.0000  0.0000  0.0000
 5790OM     OM1 5790   4.477   3.451   0.814  0.0000  0.0000  0.0000
 5791OM     OM1 5791   4.008   5.668   0.763  0.0000  0.0000  0.0000
 5792OM     OM1 5792   3.920   5.845   0.935  0.0000  0.0000  0.0000
 5793OM     OM1 5793   3.710   5.937   0.826  0.0000  0.0000  0.0000
 5794OM     OM1 5794   7.012   2.643   0.993  0.0000  0.0000  0.0000
 5795OM     OM1 5795   6.887   2.566   0.619  0.0000  0.0000  0.0000
 5796OM     OM1 5796   7.083   2.714   0.528  0.0000  0.0000  0.0000
 5797OM     OM1 5797   6.982   2.757   0.767  0.0000  0.0000  0.0000
 5798OM     OM1 5798   0.312   5.027   8.779  0.0000  0.0000  0.0000
 5799OM     OM1 5799   0.245   4.800   8.899  0.0000  0.0000  0.0000
 5800OM     OM1 5800   0.300   4.799   8.644  0.0000  0.0000  0.0000
 5801OM     OM1 5801   0.490   4.842   8.818  0.0000  0.0000  0.0000
 5802OM     OM1 5802   8.480   0.980   0.535  0.0000  0.0000  0.0000
 5803OM     OM1 5803   7.324   0.800   9.171  0.0000  0.0000  0.0000
 5804OM     OM1 5804   7.219   0.938   8.980  0.0000  0.0000  0.0000
 5805OM     OM1 5805   7.485   0.919   9.009  0.0000  0.0000  0.0000
 5806OM     OM1 5806   4.753   3.131   0.485  0.0000  0.0000  0.0000
 5807OM     OM1 5807   4.686   2.875   0.446  0.0000  0.0000  0.0000
 5808OM     OM1 5808   4.563   3.079   0.332  0.0000  0.0000  0.0000
 5809OM     OM1 5809   4.806   3.009   0.254  0.0000  0.0000  0.0000
 5810OM     OM1 5810   9.348   8.595   8.642  0.0000  0.0000  0.0000
 5811OM     OM1 5811   9.584   8.483   8.638  0.0000  0.0000  0.0000
 5812OM     OM1 5812   4.040   4.140   0.493  0.0000  0.0000  0.0000
 5813OM     OM1 5813   3.925   4.055   0.719  0.0000  0.0000  0.0000
 5814OM     OM1 5814   3.802   4.220   0.560  0.0000  0.0000  0.0000
 5815OM     OM1 5815   7.056   8.006   8.573  0.0000  0.0000  0.0000
 5816OM     OM1 5816   7.094   8.271   8.640  0.0000  0.0000  0.0000
 5817OM     OM1 5817   7.024   8.103   8.811  0.0000  0.0000  0.0000
 5818OM     OM1 5818   5.358   7.256   0.330  0.0000  0.0000  0.0000
 5819OM     OM1 5819   5.207   7.436   0.225  0.0000  0.0000  0.0000
 5820OM     OM1 5820   3.748   0.562   9.017  0.0000  0.0000  0.0000
 5821OM     OM1 5821   4.126   0.248   8.871  0.0000  0.0000  0.0000
 5822OM     OM1 5822   1.303   4.094   0.792  0.0000  0.0000  0.0000
 5823OM     OM1 5823   1.285   4.277   0.607  0.0000  0.0000  0.0000
 5824OM     OM1 5824   6.571   1.005   9.081  0.0000  0.0000  0.0000
 5825OM     OM1 5825   6.796   1.027   9.212  0.0000  0.0000  0.0000
 5826OM     OM1 5826   7.015   1.051   9.083  0.0000  0.0000  0.0000
 5827OM     OM1 5827   6.934   1.255   9.227  0.0000  0.0000  0.0000
 5828OM     OM1 5828   0.546   5.689   1.124  0.0000  0.0000  0.0000
 5829OM     OM1 5829   0.372   5.643   1.304  0.0000  0.0000  0.0000
 5830OM     OM1 5830   9.018   4.700   1.326  0.0000  0.0000  0.0000
 5831OM     OM1 5831   8.001   0.508   0.529  0.0000  0.0000  0.0000
 5832OM     OM1 5832   3.900   7.541   1.103  0.0000  0.0000  0.0000
 5833OM     OM1 5833   3.741   7.628   1.291  0.0000  0.0000  0.0000
 5834OM     OM1 5834   3.981   7.711   1.291  0.0000  0.0000  0.0000
 5835OM     OM1 5835   5.485   5.666   9.325  0.0000  0.0000  0.0000
 5836OM     OM1 5836   5.493   5.916   9.262  0.0000  0.0000  0.0000
 5837OM     OM1 5837   5.477   6.055   9.034  0.0000  0.0000  0.0000
 5838OM     OM1 5838   5.681   6.083   9.182  0.0000  0.0000  0.0000
 5839OM     OM1 5839   1.336   3.468   1.286  0.0000  0.0000  0.0000
 5840OM     OM1 5840   1.457   3.698   1.283  0.0000  0.0000  0.0000
 5841OM     OM1 5841   1.215   3.676   1.185  0.0000  0.0000  0.0000
 5842OM     OM1 5842   1.396   3.547   1.065  0.0000  0.0000  0.0000
 5843OM     OM1 5843   5.619   0.404   1.106  0.0000  0.0000  0.0000
 5844OM     OM1 5844   5.857   0.599   0.883  0.0000  0.0000  0.0000
 5845OM     OM1 5845   6.172   3.862   8.296  0.0000  0.0000  0.0000
 5846OM     OM1 5846   6.411   3.734   8.257  0.0000  0.0000  0.0000
 5847OM     OM1 5847   7.674   0.609   8.576  0.0000  0.0000  0.0000
 5848OM     OM1 5848   7.642   0.806   8.400  0.0000  0.0000  0.0000
 5849OM     OM1 5849   7.509   0.597   8.377  0.0000  0.0000  0.0000
 5850OM     OM1 5850   6.489   9.208   0.324  0.0000  0.0000  0.0000
 5851OM     OM1 5851   6.554   9.449   0.247  0.0000  0.0000  0.0000
 5852OM     OM1 5852   6.342   9.419   0.390  0.0000  0.0000  0.0000
 5853OM     OM1 5853   7.092   5.892   0.294  0.0000  0.0000  0.0000
 5854OM     OM1 5854   8.839   3.426   1.159  0.0000  0.0000  0.0000
 5855OM     OM1 5855   9.007   3.484   0.973  0.0000  0.0000  0.0000
 5856OM     OM1 5856   8.974   3.655   1.177  0.0000  0.0000  0.0000
 5857OM     OM1 5857   8.789   3.632   0.998  0.0000  0.0000  0.0000
 5858OM     OM1 5858   7.495   0.118   0.238  0.0000  0.0000  0.0000
 5859OM     OM1 5859   7.248   0.066   0.282  0.0000  0.0000  0.0000
 5860OM     OM1 5860   2.856   8.821   8.442  0.0000  0.0000  0.0000
 5861OM     OM1 5861   2.811   8.915   8.674  0.0000  0.0000  0.0000
 5862OM     OM1 5862   5.962   2.841   8.686  0.0000  0.0000  0.0000
 5863OM     OM1 5863   5.824   2.893   9.122  0.0000  0.0000  0.0000
 5864OM     OM1 5864   5.818   2.794   8.899  0.0000  0.0000  0.0000
 5865OM     OM1 5865   1.609   4.926   8.625  0.0000  0.0000  0.0000
 5866OM     OM1 5866   1.389   5.059   8.562  0.0000  0.0000  0.0000
 5867OM     OM1 5867   1.462   5.029   8.810  0.0000  0.0000  0.0000
 5868OM     OM1 5868   0.776   6.458   0.076  0.0000  0.0000  0.0000
 5869OM     OM1 5869   0.940   6.249   0.108  0.0000  0.0000  0.0000
 5870OM     OM1 5870   3.912   2.789   0.880  0.0000  0.0000  0.0000
 5871OM     OM1 5871   3.714   2.883   1.024  0.0000  0.0000  0.0000
 5872OM     OM1 5872   3.694   2.886   0.761  0.0000  0.0000  0.0000
 5873OM     OM1 5873   6.097   5.920   0.349  0.0000  0.0000  0.0000
 5874OM     OM1 5874   6.179   6.170   0.401  0.0000  0.0000  0.0000
 5875OM     OM1 5875   6.112   6.098   0.159  0.0000  0.0000  0.0000
 5876OM     OM1 5876   2.063   7.497   9.523  0.0000  0.0000  0.0000
 5877OM     OM1 5877   1.919   7.640   0.070  0.0000  0.0000  0.0000
 5878OM     OM1 5878   2.096   7.763   9.521  0.0000  0.0000  0.0000
 5879OM     OM1 5879   2.184   7.619   0.110  0.0000  0.0000  0.0000
 5880OM     OM1 5880   5.645   7.710   8.963  0.0000  0.0000  0.0000
 5881OM     OM1 5881   5.635   7.944   9.049  0.0000  0.0000  0.0000
 5882OM     OM1 5882   5.748   7.754   9.202  0.0000  0.0000  0.0000
 5883OM     OM1 5883   5.861   7.865   8.977  0.0000  0.0000  0.0000
 5884OM     OM1 5884   2.306   1.500   0.826  0.0000  0.0000  0.0000
 5885OM     OM1 5885   2.364   1.474   0.564  0.0000  0.0000  0.0000
 5886OM     OM1 5886   2.362   1.713   0.676  0.0000  0.0000  0.0000
 5887OM     OM1 5887   2.109   3.060   8.645  0.0000  0.0000  0.0000
 5888OM     OM1 5888   2.025   2.804   8.623  0.0000  0.0000  0.0000
 5889OM     OM1 5889   1.819   3.827   9.582  0.0000  0.0000  0.0000
 5890OM     OM1 5890   1.936   3.976   0.162  0.0000  0.0000  0.0000
 5891OM     OM1 5891   1.817   3.747   0.222  0.0000  0.0000  0.0000
 5892OM     OM1 5892   1.205   9.482   1.070  0.0000  0.0000  0.0000
 5893OM     OM1 5893   1.137   9.238   1.076  0.0000  0.0000  0.0000
 5894OM     OM1 5894   1.395   9.300   1.108  0.0000  0.0000  0.0000
 5895OM     OM1 5895   5.154   5.664   9.115  0.0000  0.0000  0.0000
 5896OM     OM1 5896   5.176   5.452   8.965  0.0000  0.0000  0.0000
 5897OM     OM1 5897   5.002   5.449   9.154  0.0000  0.0000  0.0000
 5898OM     OM1 5898   6.574   5.539   1.047  0.0000  0.0000  0.0000
 5899OM     OM1 5899   6.749   5.607   0.869  0.0000  0.0000  0.0000
 5900OM     OM1 5900   6.574   5.783   0.931  0.0000  0.0000  0.0000
 5901OM     OM1 5901   3.239   5.838   0.287  0.0000  0.0000  0.0000
 5902OM     OM1 5902   3.234   5.708   0.065  0.0000  0.0000  0.0000
 5903OM     OM1 5903   3.471   5.773   0.169  0.0000  0.0000  0.0000
 5904OM     OM1 5904   9.290   3.939   8.870  0.0000  0.0000  0.0000
 5905OM     OM1 5905   9.175   3.721   8.963  0.0000  0.0000  0.0000
 5906OM     OM1 5906   9.027   3.894   8.843  0.0000  0.0000  0.0000
 5907OM     OM1 5907   9.193   3.763   8.698  0.0000  0.0000  0.0000
 5908OM     OM1 5908   0.465   0.106   8.896  0.0000  0.0000  0.0000
 5909OM     OM1 5909   0.280   9.520   8.894  0.0000  0.0000  0.0000
 5910OM     OM1 5910   0.290   0.077   9.090  0.0000  0.0000  0.0000
 5911OM     OM1 5911   2.242   5.136   9.313  0.0000  0.0000  0.0000
 5912OM     OM1 5912   2.426   5.114   9.121  0.0000  0.0000  0.0000
 5913OM     OM1 5913   2.374   4.908   9.254  0.0000  0.0000  0.0000
 5914OM     OM1 5914   2.224   4.072   8.705  0.0000  0.0000  0.0000
 5915OM     OM1 5915   2.129   4.017   8.931  0.0000  0.0000  0.0000
 5916OM     OM1 5916   2.109   3.838   8.735  0.0000  0.0000  0.0000
 5917OM     OM1 5917   5.564   8.790   8.880  0.0000  0.0000  0.0000
 5918OM     OM1 5918   5.726   8.941   9.006  0.0000  0.0000  0.0000
 5919OM     OM1 5919   3.924   4.761   1.412  0.0000  0.0000  0.0000
 5920OM     OM1 5920   6.622   0.926   9.595  0.0000  0.0000  0.0000
 5921OM     OM1 5921   6.598   0.911   9.329  0.0000  0.0000  0.0000
 5922OM     OM1 5922   6.553   1.136   9.451  0.0000  0.0000  0.0000
 5923OM     OM1 5923   3.023   5.300   9.513  0.0000  0.0000  0.0000
 5924OM     OM1 5924   3.199   5.363   0.081  0.0000  0.0000  0.0000
 5925OM     OM1 5925   3.120   5.542   9.514  0.0000  0.0000  0.0000
 5926OM     OM1 5926   0.887   7.625   0.525  0.0000  0.0000  0.0000
 5927OM     OM1 5927   1.199   7.626   0.659  0.0000  0.0000  0.0000
 5928OM     OM1 5928   1.835   6.280   1.013  0.0000  0.0000  0.0000
 5929OM     OM1 5929   2.073   6.199   0.961  0.0000  0.0000  0.0000
 5930OM     OM1 5930   9.522   2.129   0.413  0.0000  0.0000  0.0000
 5931OM     OM1 5931   9.428   1.950   0.257  0.0000  0.0000  0.0000
 5932OM     OM1 5932   9.501   2.177   0.154  0.0000  0.0000  0.0000
 5933OM     OM1 5933   9.288   2.173   0.299  0.0000  0.0000  0.0000
 5934OM     OM1 5934   1.555   5.405   0.704  0.0000  0.0000  0.0000
 5935OM     OM1 5935   8.485   7.130   9.204  0.0000  0.0000  0.0000
 5936OM     OM1 5936   8.285   7.205   9.360  0.0000  0.0000  0.0000
 5937OM     OM1 5937   9.194   4.383   9.105  0.0000  0.0000  0.0000
 5938OM     OM1 5938   9.305   4.177   8.976  0.0000  0.0000  0.0000
 5939OM     OM1 5939   1.515   8.622   0.881  0.0000  0.0000  0.0000
 5940OM     OM1 5940   1.573   8.679   1.119  0.0000  0.0000  0.0000
 5941OM     OM1 5941   1.769   8.616   0.946  0.0000  0.0000  0.0000
 5942OM     OM1 5942   1.616   8.433   1.030  0.0000  0.0000  0.0000
 5943OM     OM1 5943   5.197   2.083   0.373  0.0000  0.0000  0.0000
 5944OM     OM1 5944   5.377   2.268   0.418  0.0000  0.0000  0.0000
 5945OM     OM1 5945   5.112   2.312   0.396  0.0000  0.0000  0.0000
 5946OM     OM1 5946   0.481   8.570   0.831  0.0000  0.0000  0.0000
 5947OM     OM1 5947   0.438   8.442   0.609  0.0000  0.0000  0.0000
 5948OM     OM1 5948   0.241   8.468   0.785  0.0000  0.0000  0.0000
 5949OM     OM1 5949   1.389   7.644   0.403  0.0000  0.0000  0.0000
 5950OM     OM1 5950   1.418   7.901   0.386  0.0000  0.0000  0.0000
 5951OM     OM1 5951   1.618   7.740   0.453  0.0000  0.0000  0.0000
 5952OM     OM1 5952   1.412   7.775   0.619  0.0000  0.0000  0.0000
 5953OM     OM1 5953   4.763   9.464   0.250  0.0000  0.0000  0.0000
 5954OM     OM1 5954   4.896   0.079   0.318  0.0000  0.0000  0.0000
 5955OM     OM1 5955   4.799   9.540   0.492  0.0000  0.0000  0.0000
 5956OM     OM1 5956   4.629   0.061   0.340  0.0000  0.0000  0.0000
 5957OM     OM1 5957   7.968   0.294   9.465  0.0000  0.0000  0.0000
 5958OM     OM1 5958   7.887   0.348   0.092  0.0000  0.0000  0.0000
 5959OM     OM1 5959   7.854   0.522   9.507  0.0000  0.0000  0.0000
 5960OM     OM1 5960   7.700   0.319   9.508  0.0000  0.0000  0.0000
 5961OM     OM1 5961   3.485   5.876   1.120  0.0000  0.0000  0.0000
 5962OM     OM1 5962   3.396   5.693   0.960  0.0000  0.0000  0.0000
 5963OM     OM1 5963   2.588   6.859   1.112  0.0000  0.0000  0.0000
 5964OM     OM1 5964   2.704   7.161   1.196  0.0000  0.0000  0.0000
 5965OM     OM1 5965   2.760   6.932   1.287  0.0000  0.0000  0.0000
 5966OM     OM1 5966   3.897   1.638   0.193  0.0000  0.0000  0.0000
 5967OM     OM1 5967   4.055   1.649   0.405  0.0000  0.0000  0.0000
 5968OM     OM1 5968   8.084   3.912   1.067  0.0000  0.0000  0.0000
 5969OM     OM1 5969   8.212   3.703   1.182  0.0000  0.0000  0.0000
 5970OM     OM1 5970   3.401   4.669   8.696  0.0000  0.0000  0.0000
 5971OM     OM1 5971   3.531   4.467   8.813  0.0000  0.0000  0.0000
 5972OM     OM1 5972   3.325   4.415   8.669  0.0000  0.0000  0.0000
 5973OM     OM1 5973   3.445   4.802   8.898  0.0000  0.0000  0.0000
 5974OM     OM1 5974   5.592   9.026   1.411  0.0000  0.0000  0.0000
 5975OM     OM1 5975   5.821   9.107   1.314  0.0000  0.0000  0.0000
 5976OM     OM1 5976   3.561   5.599   0.782  0.0000  0.0000  0.0000
 5977OM     OM1 5977   3.790   5.627   0.901  0.0000  0.0000  0.0000
 5978OM     OM1 5978   4.680   4.764   0.864  0.0000  0.0000  0.0000
 5979OM     OM1 5979   4.787   5.167   1.064  0.0000  0.0000  0.0000
 5980OM     OM1 5980   4.826   4.911   1.013  0.0000  0.0000  0.0000
 5981OM     OM1 5981   4.616   4.802   1.118  0.0000  0.0000  0.0000
 5982OM     OM1 5982   1.820   8.908   1.079  0.0000  0.0000  0.0000
 5983OM     OM1 5983   1.963   9.085   0.942  0.0000  0.0000  0.0000
 5984OM     OM1 5984   3.560   4.199   0.454  0.0000  0.0000  0.0000
 5985OM     OM1 5985   3.727   4.368   0.356  0.0000  0.0000  0.0000
 5986OM     OM1 5986   3.634   4.411   0.602  0.0000  0.0000  0.0000
 5987OM     OM1 5987   6.700   3.662   8.999  0.0000  0.0000  0.0000
 5988OM     OM1 5988   6.739   3.908   9.067  0.0000  0.0000  0.0000
 5989OM     OM1 5989   7.040   7.611   0.630  0.0000  0.0000  0.0000
 5990OM     OM1 5990   7.137   7.764   0.449  0.0000  0.0000  0.0000
 5991OM     OM1 5991   6.152   2.945   1.190  0.0000  0.0000  0.0000
 5992OM     OM1 5992   6.377   3.071   1.141  0.0000  0.0000  0.0000
 5993OM     OM1 5993   1.237   5.609   9.134  0.0000  0.0000  0.0000
 5994OM     OM1 5994   1.106   5.535   8.922  0.0000  0.0000  0.0000
 5995OM     OM1 5995   1.364   5.481   8.948  0.0000  0.0000  0.0000
 5996OM     OM1 5996   1.294   5.726   8.906  0.0000  0.0000  0.0000
 5997OM     OM1 5997   5.776   3.271   1.425  0.0000  0.0000  0.0000
 5998OM     OM1 5998   5.837   3.013   1.431  0.0000  0.0000  0.0000
 5999OM     OM1 5999   4.824   6.816   0.233  0.0000  0.0000  0.0000
 6000OM     OM1 6000   2.641   3.422   1.347  0.0000  0.0000  0.0000
 6001OM     OM1 6001   2.461   3.598   1.296  0.0000  0.0000  0.0000
 6002OM     OM1 6002   5.855   0.826   9.034  0.0000  0.0000  0.0000
 6003OM     OM1 6003   5.642   0.943   9.132  0.0000  0.0000  0.0000
 6004OM     OM1 6004   5.648   0.687   9.109  0.0000  0.0000  0.0000
 6005OM     OM1 6005   3.952   7.087   8.428  0.0000  0.0000  0.0000
 6006OM     OM1 6006   3.932   6.821   8.440  0.0000  0.0000  0.0000
 6007OM     OM1 6007   4.921   3.311   9.455  0.0000  0.0000  0.0000
 6008OM     OM1 6008   4.942   3.455   0.070  0.0000  0.0000  0.0000
 6009OM     OM1 6009   4.886   3.205   0.099  0.0000  0.0000  0.0000
 6010OM     OM1 6010   5.115   3.266   0.016  0.0000  0.0000  0.0000
 6011OM     OM1 6011   9.373   4.174   9.508  0.0000  0.0000  0.0000
 6012OM     OM1 6012   9.340   3.924   9.562  0.0000  0.0000  0.0000
 6013OM     OM1 6013   8.421   9.472   8.435  0.0000  0.0000  0.0000
 6014OM     OM1 6014   8.674   9.399   8.438  0.0000  0.0000  0.0000
 6015OM     OM1 6015   8.503   9.303   8.610  0.0000  0.0000  0.0000
 6016OM     OM1 6016   5.286   4.688   0.801  0.0000  0.0000  0.0000
 6017OM     OM1 6017   5.290   4.422   0.771  0.0000  0.0000  0.0000
 6018OM     OM1 6018   5.353   4.584   0.571  0.0000  0.0000  0.0000
 6019OM     OM1 6019   5.106   4.555   0.656  0.0000  0.0000  0.0000
 6020OM     OM1 6020   6.948   8.662   9.023  0.0000  0.0000  0.0000
 6021OM     OM1 6021   7.136   8.749   9.186  0.0000  0.0000  0.0000
 6022OM     OM1 6022   2.614   2.373   9.523  0.0000  0.0000  0.0000
 6023OM     OM1 6023   2.512   2.606   9.553  0.0000  0.0000  0.0000
 6024OM     OM1 6024   2.728   2.531   0.084  0.0000  0.0000  0.0000
 6025OM     OM1 6025   2.731   2.573   9.417  0.0000  0.0000  0.0000
 6026OM     OM1 6026   4.262   5.531   8.258  0.0000  0.0000  0.0000
 6027OM     OM1 6027   4.362   5.741   8.367  0.0000  0.0000  0.0000
 6028OM     OM1 6028   4.309   0.969   1.002  0.0000  0.0000  0.0000
 6029OM     OM1 6029   4.193   0.926   0.776  0.0000  0.0000  0.0000
 6030OM     OM1 6030   4.431   0.821   0.829  0.0000  0.0000  0.0000
 6031OM     OM1 6031   7.405   3.657   1.294  0.0000  0.0000  0.0000
 6032OM     OM1 6032   7.586   3.818   1.268  0.0000  0.0000  0.0000
 6033OM     OM1 6033   2.693   2.770   0.609  0.0000  0.0000  0.0000
 6034OM     OM1 6034   2.905   2.646   0.669  0.0000  0.0000  0.0000
 6035OM     OM1 6035   3.303   5.684   9.282  0.0000  0.0000  0.0000
 6036OM     OM1 6036   3.546   5.740   9.361  0.0000  0.0000  0.0000
 6037OM     OM1 6037   3.511   5.595   9.145  0.0000  0.0000  0.0000
 6038OM     OM1 6038   4.904   8.413   8.278  0.0000  0.0000  0.0000
 6039OM     OM1 6039   6.995   9.371   8.602  0.0000  0.0000  0.0000
 6040OM     OM1 6040   6.963   9.511   8.813  0.0000  0.0000  0.0000
 6041OM     OM1 6041   7.056   9.275   8.844  0.0000  0.0000  0.0000
 6042OM     OM1 6042   6.812   9.292   8.781  0.0000  0.0000  0.0000
 6043OM     OM1 6043   4.985   1.290   0.067  0.0000  0.0000  0.0000
 6044OM     OM1 6044   4.801   1.319   9.473  0.0000  0.0000  0.0000
 6045OM     OM1 6045   4.836   1.499   0.041  0.0000  0.0000  0.0000
 6046OM     OM1 6046   4.729   1.260   0.109  0.0000  0.0000  0.0000
 6047OM     OM1 6047   4.763   6.040   0.286  0.0000  0.0000  0.0000
 6048OM     OM1 6048   4.831   5.862   0.120  0.0000  0.0000  0.0000
 6049OM     OM1 6049   4.720   5.798   0.351  0.0000  0.0000  0.0000
 6050OM     OM1 6050   1.503   9.496   9.147  0.0000  0.0000  0.0000
 6051OM     OM1 6051   4.383   1.053   1.241  0.0000  0.0000  0.0000
 6052OM     OM1 6052   6.681   6.020   0.851  0.0000  0.0000  0.0000
 6053OM     OM1 6053   6.782   6.262   0.900  0.0000  0.0000  0.0000
 6054OM     OM1 6054   6.932   6.048   0.903  0.0000  0.0000  0.0000
 6055OM     OM1 6055   6.627   8.607   8.657  0.0000  0.0000  0.0000
 6056OM     OM1 6056   6.769   8.634   8.460  0.0000  0.0000  0.0000
 6057OM     OM1 6057   6.528   8.709   8.428  0.0000  0.0000  0.0000
 6058OM     OM1 6058   0.977   7.274   9.511  0.0000  0.0000  0.0000
 6059OM     OM1 6059   0.969   7.513   9.407  0.0000  0.0000  0.0000
 6060OM     OM1 6060   0.757   7.353   9.395  0.0000  0.0000  0.0000
 6061OM     OM1 6061   2.455   9.355   0.089  0.0000  0.0000  0.0000
 6062OM     OM1 6062   3.824   8.179   0.499  0.0000  0.0000  0.0000
 6063OM     OM1 6063   4.005   8.248   0.666  0.0000  0.0000  0.0000
 6064OM     OM1 6064   3.967   8.399   0.456  0.0000  0.0000  0.0000
 6065OM     OM1 6065   7.482   7.694   9.190  0.0000  0.0000  0.0000
 6066OM     OM1 6066   7.496   7.941   9.118  0.0000  0.0000  0.0000
 6067OM     OM1 6067   7.583   7.866   9.356  0.0000  0.0000  0.0000
 6068OM     OM1 6068   7.072   5.165   0.056  0.0000  0.0000  0.0000
 6069OM     OM1 6069   7.216   5.363   9.535  0.0000  0.0000  0.0000
 6070OM     OM1 6070   4.550   7.842   8.570  0.0000  0.0000  0.0000
 6071OM     OM1 6071   4.351   7.995   8.576  0.0000  0.0000  0.0000
 6072OM     OM1 6072   4.571   8.052   8.714  0.0000  0.0000  0.0000
 6073OM     OM1 6073   4.566   8.083   8.456  0.0000  0.0000  0.0000
 6074OM     OM1 6074   6.278   2.691   9.070  0.0000  0.0000  0.0000
 6075OM     OM1 6075   6.063   2.816   9.049  0.0000  0.0000  0.0000
 6076OM     OM1 6076   7.086   3.175   0.946  0.0000  0.0000  0.0000
 6077OM     OM1 6077   6.851   3.226   1.029  0.0000  0.0000  0.0000
 6078OM     OM1 6078   6.975   3.422   0.895  0.0000  0.0000  0.0000
 6079OM     OM1 6079   2.686   6.402   1.161  0.0000  0.0000  0.0000
 6080OM     OM1 6080   2.910   6.558   1.188  0.0000  0.0000  0.0000
 6081OM     OM1 6081   0.357   4.873   0.625  0.0000  0.0000  0.0000
 6082OM     OM1 6082   0.526   4.954   0.809  0.0000  0.0000  0.0000
 6083OM     OM1 6083   0.535   5.053   0.561  0.0000  0.0000  0.0000
 6084OM     OM1 6084   0.404   2.685   0.120  0.0000  0.0000  0.0000
 6085OM     OM1 6085   0.651   2.705   0.044  0.0000  0.0000  0.0000
 6086OM     OM1 6086   0.474   2.531   9.533  0.0000  0.0000  0.0000
 6087OM     OM1 6087   0.477   2.786   9.486  0.0000  0.0000  0.0000
 6088OM     OM1 6088   4.756   9.244   1.282  0.0000  0.0000  0.0000
 6089OM     OM1 6089   4.919   9.018   1.295  0.0000  0.0000  0.0000
 6090OM     OM1 6090   9.489   2.799   9.040  0.0000  0.0000  0.0000
 6091OM     OM1 6091   0.031   3.000   8.973  0.0000  0.0000  0.0000
 6092OM     OM1 6092   0.098   2.832   9.177  0.0000  0.0000  0.0000
 6093OM     OM1 6093   0.129   2.765   8.935  0.0000  0.0000  0.0000
 6094OM     OM1 6094   3.195   8.691   9.247  0.0000  0.0000  0.0000
 6095OM     OM1 6095   3.452   8.714   9.173  0.0000  0.0000  0.0000
 6096OM     OM1 6096   3.310   8.520   9.088  0.0000  0.0000  0.0000
 6097OM     OM1 6097   2.368   1.421   8.606  0.0000  0.0000  0.0000
 6098OM     OM1 6098   2.212   1.296   8.779  0.0000  0.0000  0.0000
 6099OM     OM1 6099   6.944   9.101   1.297  0.0000  0.0000  0.0000
 6100OM     OM1 6100   6.776   9.307   1.291  0.0000  0.0000  0.0000
 6101OM     OM1 6101   7.031   9.339   1.261  0.0000  0.0000  0.0000
 6102OM     OM1 6102   5.660   0.686   9.371  0.0000  0.0000  0.0000
 6103OM     OM1 6103   5.714   0.472   9.252  0.0000  0.0000  0.0000
 6104OM     OM1 6104   2.843   5.271   9.329  0.0000  0.0000  0.0000
 6105OM     OM1 6105   2.605   5.276   9.221  0.0000  0.0000  0.0000
 6106OM     OM1 6106   2.794   5.402   9.111  0.0000  0.0000  0.0000
 6107OM     OM1 6107   2.713   5.493   9.344  0.0000  0.0000  0.0000
 6108OM     OM1 6108   0.336   2.902   8.312  0.0000  0.0000  0.0000
 6109OM     OM1 6109   0.245   3.063   8.494  0.0000  0.0000  0.0000
 6110OM     OM1 6110   0.472   3.117   8.369  0.0000  0.0000  0.0000
 6111OM     OM1 6111   8.088   1.987   0.313  0.0000  0.0000  0.0000
 6112OM     OM1 6112   8.497   2.225   0.456  0.0000  0.0000  0.0000
 6113OM     OM1 6113   8.296   2.062   0.463  0.0000  0.0000  0.0000
 6114OM     OM1 6114   8.528   5.255   0.757  0.0000  0.0000  0.0000
 6115OM     OM1 6115   8.687   5.581   0.542  0.0000  0.0000  0.0000
 6116OM     OM1 6116   7.784   7.787   8.293  0.0000  0.0000  0.0000
 6117OM     OM1 6117   7.590   7.918   8.425  0.0000  0.0000  0.0000
 6118OM     OM1 6118   3.643   4.839   9.448  0.0000  0.0000  0.0000
 6119OM     OM1 6119   3.219   1.703   0.838  0.0000  0.0000  0.0000
 6120OM     OM1 6120   3.391   1.520   0.912  0.0000  0.0000  0.0000
 6121OM     OM1 6121   3.478   1.748   0.828  0.0000  0.0000  0.0000
 6122OM     OM1 6122   1.465   1.634   1.214  0.0000  0.0000  0.0000
 6123OM     OM1 6123   1.484   1.375   1.211  0.0000  0.0000  0.0000
 6124OM     OM1 6124   3.940   6.853   1.000  0.0000  0.0000  0.0000
 6125OM     OM1 6125   3.935   6.608   1.065  0.0000  0.0000  0.0000
 6126OM     OM1 6126   4.011   6.785   1.237  0.0000  0.0000  0.0000
 6127OM     OM1 6127   4.165   6.706   1.034  0.0000  0.0000  0.0000
 6128OM     OM1 6128   9.593   3.057   9.459  0.0000  0.0000  0.0000
 6129OM     OM1 6129   4.664   6.807   0.961  0.0000  0.0000  0.0000
 6130OM     OM1 6130   4.807   6.873   1.189  0.0000  0.0000  0.0000
 6131OM     OM1 6131   4.558   6.866   1.186  0.0000  0.0000  0.0000
 6132OM     OM1 6132   1.028   9.375   9.211  0.0000  0.0000  0.0000
 6133OM     OM1 6133   0.893   9.217   9.369  0.0000  0.0000  0.0000
 6134OM     OM1 6134   1.147   9.182   9.346  0.0000  0.0000  0.0000
 6135OM     OM1 6135   0.948   9.118   8.949  0.0000  0.0000  0.0000
 6136OM     OM1 6136   0.810   9.431   9.074  0.0000  0.0000  0.0000
 6137OM     OM1 6137   5.441   8.595   0.656  0.0000  0.0000  0.0000
 6138OM     OM1 6138   5.302   8.680   0.853  0.0000  0.0000  0.0000
 6139OM     OM1 6139   5.397   8.853   0.680  0.0000  0.0000  0.0000
 6140OM     OM1 6140   5.202   8.693   0.612  0.0000  0.0000  0.0000
 6141OM     OM1 6141   6.106   1.176   0.706  0.0000  0.0000  0.0000
 6142OM     OM1 6142   6.180   1.413   0.652  0.0000  0.0000  0.0000
 6143OM     OM1 6143   6.004   1.300   0.488  0.0000  0.0000  0.0000
 6144OM     OM1 6144   6.735   5.146   8.507  0.0000  0.0000  0.0000
 6145OM     OM1 6145   4.064   8.510   8.459  0.0000  0.0000  0.0000
 6146OM     OM1 6146   4.155   8.423   8.687  0.0000  0.0000  0.0000
 6147OM     OM1 6147   4.325   8.441   8.494  0.0000  0.0000  0.0000
 6148OM     OM1 6148   8.325   7.634   1.262  0.0000  0.0000  0.0000
 6149OM     OM1 6149   8.200   7.419   1.220  0.0000  0.0000  0.0000
 6150OM     OM1 6150   7.485   6.974   1.181  0.0000  0.0000  0.0000
 6151OM     OM1 6151   7.415   6.727   1.214  0.0000  0.0000  0.0000
 6152OM     OM1 6152   7.235   6.918   1.170  0.0000  0.0000  0.0000
 6153OM     OM1 6153   7.385   6.854   0.976  0.0000  0.0000  0.0000
 6154OM     OM1 6154   0.411   6.243   8.927  0.0000  0.0000  0.0000
 6155OM     OM1 6155   8.075   9.324   9.496  0.0000  0.0000  0.0000
 6156OM     OM1 6156   7.878   9.326   9.336  0.0000  0.0000  0.0000
 6157OM     OM1 6157   8.095   9.193   9.258  0.0000  0.0000  0.0000
 6158OM     OM1 6158   6.876   4.399   0.146  0.0000  0.0000  0.0000
 6159OM     OM1 6159   6.673   4.345   9.587  0.0000  0.0000  0.0000
 6160OM     OM1 6160   8.669   0.152   9.181  0.0000  0.0000  0.0000
 6161OM     OM1 6161   8.720   9.472   9.217  0.0000  0.0000  0.0000
 6162OM     OM1 6162   8.938   9.562   9.135  0.0000  0.0000  0.0000
 6163OM     OM1 6163   4.576   3.437   8.447  0.0000  0.0000  0.0000
 6164OM     OM1 6164   4.317   3.416   8.490  0.0000  0.0000  0.0000
 6165OM     OM1 6165   0.895   0.965   8.977  0.0000  0.0000  0.0000
 6166OM     OM1 6166   0.764   0.870   9.178  0.0000  0.0000  0.0000
 6167OM     OM1 6167   4.619   9.300   0.832  0.0000  0.0000  0.0000
 6168OM     OM1 6168   4.393   0.071   0.994  0.0000  0.0000  0.0000
 6169OM     OM1 6169   4.211   9.564   0.831  0.0000  0.0000  0.0000
 6170OM     OM1 6170   4.443   9.473   0.836  0.0000  0.0000  0.0000
 6171OM     OM1 6171   3.910   9.498   8.695  0.0000  0.0000  0.0000
 6172OM     OM1 6172   3.843   9.521   8.440  0.0000  0.0000  0.0000
 6173OM     OM1 6173   4.755   8.202   8.321  0.0000  0.0000  0.0000
 6174OM     OM1 6174   5.004   8.230   8.430  0.0000  0.0000  0.0000
 6175OM     OM1 6175   1.242   9.569   0.399  0.0000  0.0000  0.0000
 6176OM     OM1 6176   1.243   9.531   9.602  0.0000  0.0000  0.0000
 6177OM     OM1 6177   1.436   0.112   0.003  0.0000  0.0000  0.0000
 6178OM     OM1 6178   1.069   0.132   0.427  0.0000  0.0000  0.0000
 6179OM     OM1 6179   8.812   7.319   8.713  0.0000  0.0000  0.0000
 6180OM     OM1 6180   8.980   7.508   8.751  0.0000  0.0000  0.0000
 6181OM     OM1 6181   3.983   3.461   9.329  0.0000  0.0000  0.0000
 6182OM     OM1 6182   4.194   3.524   9.198  0.0000  0.0000  0.0000
 6183OM     OM1 6183   4.043   3.341   9.094  0.0000  0.0000  0.0000
 6184OM     OM1 6184   4.176   3.284   9.311  0.0000  0.0000  0.0000
 6185OM     OM1 6185   9.156   4.383   1.207  0.0000  0.0000  0.0000
 6186OM     OM1 6186   9.365   4.528   1.261  0.0000  0.0000  0.0000
 6187OM     OM1 6187   9.319   4.298   1.385  0.0000  0.0000  0.0000
 6188OM     OM1 6188   4.781   4.670   0.382  0.0000  0.0000  0.0000
 6189OM     OM1 6189   4.844   4.601   0.624  0.0000  0.0000  0.0000
 6190OM     OM1 6190   4.654   4.766   0.599  0.0000  0.0000  0.0000
 6191OM     OM1 6191   4.612   4.525   0.510  0.0000  0.0000  0.0000
 6192OM     OM1 6192   8.771   8.858   8.416  0.0000  0.0000  0.0000
 6193OM     OM1 6193   7.392   4.709   8.988  0.0000  0.0000  0.0000
 6194OM     OM1 6194   7.580   4.864   8.920  0.0000  0.0000  0.0000
 6195OM     OM1 6195   7.327   4.927   8.856  0.0000  0.0000  0.0000
 6196OM     OM1 6196   7.402   4.953   9.098  0.0000  0.0000  0.0000
 6197OM     OM1 6197   0.217   2.675   8.257  0.0000  0.0000  0.0000
 6198OM     OM1 6198   0.137   2.496   8.429  0.0000  0.0000  0.0000
 6199OM     OM1 6199   9.568   5.924   8.428  0.0000  0.0000  0.0000
 6200OM     OM1 6200   0.015   7.538   8.566  0.0000  0.0000  0.0000
 6201OM     OM1 6201   0.178   7.603   8.377  0.0000  0.0000  0.0000
 6202OM     OM1 6202   0.072   7.778   8.562  0.0000  0.0000  0.0000
 6203OM     OM1 6203   6.288   2.379   0.291  0.0000  0.0000  0.0000
 6204OM     OM1 6204   6.214   2.506   0.519  0.0000  0.0000  0.0000
 6205OM     OM1 6205   7.786   8.147   9.282  0.0000  0.0000  0.0000
 6206OM     OM1 6206   7.791   8.171   9.558  0.0000  0.0000  0.0000
 6207OM     OM1 6207   7.640   8.315   9.398  0.0000  0.0000  0.0000
 6208OM     OM1 6208   3.700   8.770   0.046  0.0000  0.0000  0.0000
 6209OM     OM1 6209   3.784   8.822   9.402  0.0000  0.0000  0.0000
 6210OM     OM1 6210   6.349   4.195   9.153  0.0000  0.0000  0.0000
 6211OM     OM1 6211   6.241   4.251   9.386  0.0000  0.0000  0.0000
 6212OM     OM1 6212   6.097   4.239   9.164  0.0000  0.0000  0.0000
 6213OM     OM1 6213   6.190   4.020   9.257  0.0000  0.0000  0.0000
 6214OM     OM1 6214   3.609   1.482   1.030  0.0000  0.0000  0.0000
 6215OM     OM1 6215   2.680   4.569   0.604  0.0000  0.0000  0.0000
 6216OM     OM1 6216   2.912   4.458   0.523  0.0000  0.0000  0.0000
 6217OM     OM1 6217   2.775   4.360   0.718  0.0000  0.0000  0.0000
 6218OM     OM1 6218   2.428   4.034   8.548  0.0000  0.0000  0.0000
 6219OM     OM1 6219   2.528   3.973   8.309  0.0000  0.0000  0.0000
 6220OM     OM1 6220   0.688   0.010   8.940  0.0000  0.0000  0.0000
 6221OM     OM1 6221   8.993   7.761   0.258  0.0000  0.0000  0.0000
 6222OM     OM1 6222   9.168   7.573   0.279  0.0000  0.0000  0.0000
 6223OM     OM1 6223   8.183   2.534   8.548  0.0000  0.0000  0.0000
 6224OM     OM1 6224   8.044   2.660   8.346  0.0000  0.0000  0.0000
 6225OM     OM1 6225   8.297   2.696   8.368  0.0000  0.0000  0.0000
 6226OM     OM1 6226   1.151   5.207   9.390  0.0000  0.0000  0.0000
 6227OM     OM1 6227   1.158   4.956   9.461  0.0000  0.0000  0.0000
 6228OM     OM1 6228   1.303   5.113   9.587  0.0000  0.0000  0.0000
 6229OM     OM1 6229   7.184   4.035   1.302  0.0000  0.0000  0.0000
 6230OM     OM1 6230   7.961   5.550   1.215  0.0000  0.0000  0.0000
 6231OM     OM1 6231   7.996   5.787   1.116  0.0000  0.0000  0.0000
 6232OM     OM1 6232   7.757   5.714   1.190  0.0000  0.0000  0.0000
 6233OM     OM1 6233   0.105   3.638   8.269  0.0000  0.0000  0.0000
 6234OM     OM1 6234   8.171   9.324   8.804  0.0000  0.0000  0.0000
 6235OM     OM1 6235   8.211   0.032   8.415  0.0000  0.0000  0.0000
 6236OM     OM1 6236   0.223   1.869   8.609  0.0000  0.0000  0.0000
 6237OM     OM1 6237   0.378   1.918   8.817  0.0000  0.0000  0.0000
 6238OM     OM1 6238   0.367   2.077   8.592  0.0000  0.0000  0.0000
 6239OM     OM1 6239   7.149   8.534   8.599  0.0000  0.0000  0.0000
 6240OM     OM1 6240   7.326   8.477   8.763  0.0000  0.0000  0.0000
 6241OM     OM1 6241   7.384   8.629   8.541  0.0000  0.0000  0.0000
 6242OM     OM1 6242   7.254   8.723   8.744  0.0000  0.0000  0.0000
 6243OM     OM1 6243   5.413   8.006   1.015  0.0000  0.0000  0.0000
 6244OM     OM1 6244   5.581   7.816   0.942  0.0000  0.0000  0.0000
 6245OM     OM1 6245   7.485   5.840   0.699  0.0000  0.0000  0.0000
 6246OM     OM1 6246   6.477   4.532   8.807  0.0000  0.0000  0.0000
 6247OM     OM1 6247   6.717   4.509   8.884  0.0000  0.0000  0.0000
 6248OM     OM1 6248   3.808   3.547   9.503  0.0000  0.0000  0.0000
 6249OM     OM1 6249   3.668   3.355   9.401  0.0000  0.0000  0.0000
 6250OM     OM1 6250   3.659   3.393   0.053  0.0000  0.0000  0.0000
 6251OM     OM1 6251   5.707   1.123   1.282  0.0000  0.0000  0.0000
 6252OM     OM1 6252   4.945   8.684   0.515  0.0000  0.0000  0.0000
 6253OM     OM1 6253   4.725   8.774   0.629  0.0000  0.0000  0.0000
 6254OM     OM1 6254   4.783   8.524   0.637  0.0000  0.0000  0.0000
 6255OM     OM1 6255   9.392   3.321   0.662  0.0000  0.0000  0.0000
 6256OM     OM1 6256   9.571   3.556   0.512  0.0000  0.0000  0.0000
 6257OM     OM1 6257   9.464   3.284   0.414  0.0000  0.0000  0.0000
 6258OM     OM1 6258   0.035   3.330   0.603  0.0000  0.0000  0.0000
 6259OM     OM1 6259   5.470   8.791   0.035  0.0000  0.0000  0.0000
 6260OM     OM1 6260   5.531   8.754   9.385  0.0000  0.0000  0.0000
 6261OM     OM1 6261   5.716   8.844   9.555  0.0000  0.0000  0.0000
 6262OM     OM1 6262   0.975   3.567   1.130  0.0000  0.0000  0.0000
 6263OM     OM1 6263   0.737   3.622   1.216  0.0000  0.0000  0.0000
 6264OM     OM1 6264   0.760   3.426   1.047  0.0000  0.0000  0.0000
 6265OM     OM1 6265   2.584   9.208   1.137  0.0000  0.0000  0.0000
 6266OM     OM1 6266   9.217   7.298   8.552  0.0000  0.0000  0.0000
 6267OM     OM1 6267   7.152   5.462   8.283  0.0000  0.0000  0.0000
 6268OM     OM1 6268   7.665   2.360   0.319  0.0000  0.0000  0.0000
 6269OM     OM1 6269   7.406   2.388   0.293  0.0000  0.0000  0.0000
 6270OM     OM1 6270   7.516   2.345   0.526  0.0000  0.0000  0.0000
 6271OM     OM1 6271   7.503   2.151   0.339  0.0000  0.0000  0.0000
 6272OM     OM1 6272   5.351   0.236   8.601  0.0000  0.0000  0.0000
 6273OM     OM1 6273   5.215   0.086   8.760  0.0000  0.0000  0.0000
 6274OM     OM1 6274   5.105   0.315   8.667  0.0000  0.0000  0.0000
 6275OM     OM1 6275   4.910   0.349   8.832  0.0000  0.0000  0.0000
 6276OM     OM1 6276   8.332   5.874   8.563  0.0000  0.0000  0.0000
 6277OM     OM1 6277   8.517   6.031   8.481  0.0000  0.0000  0.0000
 6278OM     OM1 6278   1.508   2.119   9.341  0.0000  0.0000  0.0000
 6279OM     OM1 6279   1.569   2.264   9.128  0.0000  0.0000  0.0000
 6280OM     OM1 6280   1.571   1.996   9.131  0.0000  0.0000  0.0000
 6281OM     OM1 6281   1.356   2.131   9.113  0.0000  0.0000  0.0000
 6282OM     OM1 6282   9.483   9.057   0.704  0.0000  0.0000  0.0000
 6283OM     OM1 6283   4.080   4.014   0.260  0.0000  0.0000  0.0000
 6284OM     OM1 6284   4.038   3.889   0.485  0.0000  0.0000  0.0000
 6285OM     OM1 6285   4.266   4.012   0.445  0.0000  0.0000  0.0000
 6286OM     OM1 6286   5.977   7.121   9.146  0.0000  0.0000  0.0000
 6287OM     OM1 6287   6.221   7.220   9.134  0.0000  0.0000  0.0000
 6288OM     OM1 6288   5.601   6.830   0.437  0.0000  0.0000  0.0000
 6289OM     OM1 6289   5.522   6.888   0.201  0.0000  0.0000  0.0000
 6290OM     OM1 6290   6.321   7.504   0.084  0.0000  0.0000  0.0000
 6291OM     OM1 6291   6.138   7.337   0.177  0.0000  0.0000  0.0000
 6292OM     OM1 6292   6.242   5.721   0.423  0.0000  0.0000  0.0000
 6293OM     OM1 6293   6.170   5.755   0.175  0.0000  0.0000  0.0000
 6294OM     OM1 6294   5.996   5.672   0.363  0.0000  0.0000  0.0000
 6295OM     OM1 6295   4.694   3.485   0.156  0.0000  0.0000  0.0000
 6296OM     OM1 6296   4.878   3.587   0.298  0.0000  0.0000  0.0000
 6297OM     OM1 6297   7.611   4.182   0.375  0.0000  0.0000  0.0000
 6298OM     OM1 6298   7.717   4.014   0.198  0.0000  0.0000  0.0000
 6299OM     OM1 6299   7.571   4.211   0.122  0.0000  0.0000  0.0000
 6300OM     OM1 6300   7.814   4.251   0.227  0.0000  0.0000  0.0000
 6301OM     OM1 6301   5.833   1.931   1.006  0.0000  0.0000  0.0000
 6302OM     OM1 6302   5.705   2.071   1.186  0.0000  0.0000  0.0000
 6303OM     OM1 6303   5.807   1.854   1.260  0.0000  0.0000  0.0000
 6304OM     OM1 6304   9.152   8.384   9.502  0.0000  0.0000  0.0000
 6305OM     OM1 6305   8.951   8.287   0.042  0.0000  0.0000  0.0000
 6306OM     OM1 6306   5.269   1.222   1.121  0.0000  0.0000  0.0000
 6307OM     OM1 6307   5.484   1.379   1.139  0.0000  0.0000  0.0000
 6308OM     OM1 6308   5.459   1.157   0.981  0.0000  0.0000  0.0000
 6309OM     OM1 6309   2.136   3.406   8.503  0.0000  0.0000  0.0000
 6310OM     OM1 6310   2.215   3.267   8.293  0.0000  0.0000  0.0000
 6311OM     OM1 6311   6.691   7.167   0.017  0.0000  0.0000  0.0000
 6312OM     OM1 6312   6.815   7.197   9.389  0.0000  0.0000  0.0000
 6313OM     OM1 6313   6.623   7.365   9.455  0.0000  0.0000  0.0000
 6314OM     OM1 6314   6.269   5.874   1.338  0.0000  0.0000  0.0000
 6315OM     OM1 6315   6.431   6.066   1.298  0.0000  0.0000  0.0000
 6316OM     OM1 6316   5.330   6.721   0.140  0.0000  0.0000  0.0000
 6317OM     OM1 6317   5.325   6.501   0.003  0.0000  0.0000  0.0000
 6318OM     OM1 6318   5.508   6.532   0.165  0.0000  0.0000  0.0000
 6319OM     OM1 6319   4.337   8.239   9.116  0.0000  0.0000  0.0000
 6320OM     OM1 6320   4.483   8.398   8.953  0.0000  0.0000  0.0000
 6321OM     OM1 6321   4.262   8.273   8.872  0.0000  0.0000  0.0000
 6322OM     OM1 6322   4.488   8.143   8.935  0.0000  0.0000  0.0000
 6323OM     OM1 6323   9.475   2.470   9.429  0.0000  0.0000  0.0000
 6324OM     OM1 6324   9.423   2.641   9.233  0.0000  0.0000  0.0000
 6325OM     OM1 6325   8.100   8.238   0.768  0.0000  0.0000  0.0000
 6326OM     OM1 6326   7.949   8.068   0.641  0.0000  0.0000  0.0000
 6327OM     OM1 6327   8.171   8.124   0.535  0.0000  0.0000  0.0000
 6328OM     OM1 6328   2.608   7.729   0.941  0.0000  0.0000  0.0000
 6329OM     OM1 6329   2.447   7.579   0.800  0.0000  0.0000  0.0000
 6330OM     OM1 6330   2.688   7.502   0.823  0.0000  0.0000  0.0000
 6331OM     OM1 6331   8.092   8.957   9.562  0.0000  0.0000  0.0000
 6332OM     OM1 6332   8.126   8.769   9.392  0.0000  0.0000  0.0000
 6333OM     OM1 6333   8.337   8.879   9.528  0.0000  0.0000  0.0000
 6334OM     OM1 6334   8.232   8.995   9.339  0.0000  0.0000  0.0000
 6335OM     OM1 6335   2.003   5.849   8.273  0.0000  0.0000  0.0000
 6336OM     OM1 6336   6.161   1.754   0.682  0.0000  0.0000  0.0000
 6337OM     OM1 6337   6.362   1.602   0.630  0.0000  0.0000  0.0000
 6338OM     OM1 6338   5.564   1.725   0.696  0.0000  0.0000  0.0000
 6339OM     OM1 6339   5.576   1.552   0.503  0.0000  0.0000  0.0000
 6340OM     OM1 6340   9.587   5.991   0.797  0.0000  0.0000  0.0000
 6341OM     OM1 6341   9.430   5.971   1.009  0.0000  0.0000  0.0000
 6342OM     OM1 6342   9.572   5.761   0.922  0.0000  0.0000  0.0000
 6343OM     OM1 6343   1.142   3.987   8.718  0.0000  0.0000  0.0000
 6344OM     OM1 6344   1.114   4.127   8.928  0.0000  0.0000  0.0000
 6345OM     OM1 6345   1.066   3.773   8.850  0.0000  0.0000  0.0000
 6346OM     OM1 6346   2.177   1.297   0.522  0.0000  0.0000  0.0000
 6347OM     OM1 6347   2.057   1.083   0.455  0.0000  0.0000  0.0000
 6348OM     OM1 6348   2.117   1.119   0.705  0.0000  0.0000  0.0000
 6349OM     OM1 6349   1.925   1.264   0.600  0.0000  0.0000  0.0000
 6350OM     OM1 6350   7.589   8.398   8.238  0.0000  0.0000  0.0000
 6351OM     OM1 6351   7.507   8.634   8.314  0.0000  0.0000  0.0000
 6352OM     OM1 6352   6.873   5.554   9.033  0.0000  0.0000  0.0000
 6353OM     OM1 6353   6.995   5.329   8.982  0.0000  0.0000  0.0000
 6354OM     OM1 6354   6.819   9.500   9.345  0.0000  0.0000  0.0000
 6355OM     OM1 6355   6.761   9.260   9.422  0.0000  0.0000  0.0000
 6356OM     OM1 6356   6.797   9.122   8.978  0.0000  0.0000  0.0000
 6357OM     OM1 6357   5.235   8.881   0.096  0.0000  0.0000  0.0000
 6358OM     OM1 6358   1.706   7.634   0.224  0.0000  0.0000  0.0000
 6359OM     OM1 6359   1.826   7.581   0.456  0.0000  0.0000  0.0000
 6360OM     OM1 6360   0.931   4.315   8.952  0.0000  0.0000  0.0000
 6361OM     OM1 6361   0.890   4.283   8.645  0.0000  0.0000  0.0000
 6362OM     OM1 6362   1.046   4.540   8.932  0.0000  0.0000  0.0000
 6363OM     OM1 6363   0.830   4.486   8.784  0.0000  0.0000  0.0000
 6364OM     OM1 6364   6.122   5.047   8.396  0.0000  0.0000  0.0000
 6365OM     OM1 6365   5.920   5.155   8.533  0.0000  0.0000  0.0000
 6366OM     OM1 6366   5.889   4.921   8.431  0.0000  0.0000  0.0000
 6367OM     OM1 6367   6.059   4.940   8.619  0.0000  0.0000  0.0000
 6368OM     OM1 6368   3.619   7.991   8.665  0.0000  0.0000  0.0000
 6369OM     OM1 6369   3.691   8.226   8.615  0.0000  0.0000  0.0000
 6370OM     OM1 6370   3.768   8.111   8.853  0.0000  0.0000  0.0000
 6371OM     OM1 6371   7.386   6.831   9.057  0.0000  0.0000  0.0000
 6372OM     OM1 6372   7.569   7.019   9.038  0.0000  0.0000  0.0000
 6373OM     OM1 6373   7.484   6.886   8.825  0.0000  0.0000  0.0000
 6374OM     OM1 6374   6.526   7.586   9.559  0.0000  0.0000  0.0000
 6375OM     OM1 6375   6.762   7.581   9.455  0.0000  0.0000  0.0000
 6376OM     OM1 6376   3.349   5.152   0.897  0.0000  0.0000  0.0000
 6377OM     OM1 6377   3.103   5.228   0.857  0.0000  0.0000  0.0000
 6378OM     OM1 6378   7.151   8.361   8.416  0.0000  0.0000  0.0000
 6379OM     OM1 6379   7.220   8.522   8.228  0.0000  0.0000  0.0000
 6380OM     OM1 6380   7.349   8.296   8.262  0.0000  0.0000  0.0000
 6381OM     OM1 6381   4.555   1.112   0.242  0.0000  0.0000  0.0000
 6382OM     OM1 6382   5.472   0.508   8.376  0.0000  0.0000  0.0000
 6383OM     OM1 6383   1.749   5.432   8.275  0.0000  0.0000  0.0000
 6384OM     OM1 6384   1.943   5.603   8.289  0.0000  0.0000  0.0000
 6385OM     OM1 6385   7.200   3.499   8.312  0.0000  0.0000  0.0000
 6386OM     OM1 6386   7.268   3.735   8.232  0.0000  0.0000  0.0000
 6387OM     OM1 6387   4.259   2.493   0.252  0.0000  0.0000  0.0000
 6388OM     OM1 6388   4.311   2.335   0.052  0.0000  0.0000  0.0000
 6389OM     OM1 6389   4.500   2.499   0.121  0.0000  0.0000  0.0000
 6390OM     OM1 6390   4.434   2.302   0.275  0.0000  0.0000  0.0000
 6391OM     OM1 6391   9.371   1.004   0.034  0.0000  0.0000  0.0000
 6392OM     OM1 6392   9.551   0.890   9.501  0.0000  0.0000  0.0000
 6393OM     OM1 6393   9.450   1.107   9.405  0.0000  0.0000  0.0000
 6394OM     OM1 6394   9.294   0.902   9.412  0.0000  0.0000  0.0000
 6395OM     OM1 6395   5.087   0.609   1.134  0.0000  0.0000  0.0000
 6396OM     OM1 6396   5.269   0.549   1.296  0.0000  0.0000  0.0000
 6397OM     OM1 6397   5.140   0.354   1.179  0.0000  0.0000  0.0000
 6398OM     OM1 6398   1.453   5.840   9.547  0.0000  0.0000  0.0000
 6399OM     OM1 6399   1.667   5.781   9.414  0.0000  0.0000  0.0000
 6400OM     OM1 6400   1.266   5.653   0.005  0.0000  0.0000  0.0000
 6401OM     OM1 6401   8.578   8.650   8.826  0.0000  0.0000  0.0000
 6402OM     OM1 6402   8.195   8.553   8.960  0.0000  0.0000  0.0000
 6403OM     OM1 6403   8.185   8.624   8.725  0.0000  0.0000  0.0000
 6404OM     OM1 6404   7.496   8.857   8.462  0.0000  0.0000  0.0000
 6405OM     OM1 6405   7.519   9.122   8.513  0.0000  0.0000  0.0000
 6406OM     OM1 6406   7.726   8.961   8.512  0.0000  0.0000  0.0000
 6407OM     OM1 6407   1.789   3.470   8.645  0.0000  0.0000  0.0000
 6408OM     OM1 6408   1.586   3.308   8.667  0.0000  0.0000  0.0000
 6409OM     OM1 6409   0.053   0.822   0.125  0.0000  0.0000  0.0000
 6410OM     OM1 6410   5.850   8.919   0.557  0.0000  0.0000  0.0000
 6411OM     OM1 6411   5.664   8.882   0.380  0.0000  0.0000  0.0000
 6412OM     OM1 6412   7.203   2.322   8.957  0.0000  0.0000  0.0000
 6413OM     OM1 6413   7.223   2.440   8.724  0.0000  0.0000  0.0000
 6414OM     OM1 6414   7.439   2.400   8.866  0.0000  0.0000  0.0000
 6415OM     OM1 6415   7.646   2.378   8.417  0.0000  0.0000  0.0000
 6416OM     OM1 6416   2.050   0.567   1.016  0.0000  0.0000  0.0000
 6417OM     OM1 6417   2.333   0.314   1.184  0.0000  0.0000  0.0000
 6418OM     OM1 6418   2.269   0.428   0.965  0.0000  0.0000  0.0000
 6419OM     OM1 6419   0.870   1.566   0.059  0.0000  0.0000  0.0000
 6420OM     OM1 6420   0.804   1.671   9.425  0.0000  0.0000  0.0000
 6421OM     OM1 6421   0.991   3.755   9.396  0.0000  0.0000  0.0000
 6422OM     OM1 6422   1.243   3.755   9.352  0.0000  0.0000  0.0000
 6423OM     OM1 6423   2.226   4.956   8.431  0.0000  0.0000  0.0000
 6424OM     OM1 6424   6.303   2.369   1.041  0.0000  0.0000  0.0000
 6425OM     OM1 6425   6.070   2.397   1.156  0.0000  0.0000  0.0000
 6426OM     OM1 6426   6.085   2.233   0.960  0.0000  0.0000  0.0000
 6427OM     OM1 6427   6.211   2.189   1.196  0.0000  0.0000  0.0000
 6428OM     OM1 6428   2.649   9.221   9.291  0.0000  0.0000  0.0000
 6429OM     OM1 6429   2.697   9.025   9.442  0.0000  0.0000  0.0000
 6430OM     OM1 6430   8.099   7.645   0.343  0.0000  0.0000  0.0000
 6431OM     OM1 6431   8.209   7.859   0.463  0.0000  0.0000  0.0000
 6432OM     OM1 6432   3.500   9.045   0.171  0.0000  0.0000  0.0000
 6433OM     OM1 6433   3.321   9.231   0.169  0.0000  0.0000  0.0000
 6434OM     OM1 6434   7.800   8.782   8.684  0.0000  0.0000  0.0000
 6435OM     OM1 6435   7.975   8.949   8.595  0.0000  0.0000  0.0000
 6436OM     OM1 6436   7.779   9.040   8.748  0.0000  0.0000  0.0000
 6437OM     OM1 6437   8.236   8.934   8.542  0.0000  0.0000  0.0000
 6438OM     OM1 6438   6.010   5.174   9.346  0.0000  0.0000  0.0000
 6439OM     OM1 6439   5.910   5.384   9.227  0.0000  0.0000  0.0000
 6440OM     OM1 6440   7.077   2.791   8.262  0.0000  0.0000  0.0000
 6441OM     OM1 6441   7.180   2.991   8.402  0.0000  0.0000  0.0000
 6442OM     OM1 6442   6.994   2.850   8.503  0.0000  0.0000  0.0000
 6443OM     OM1 6443   6.199   8.420   1.000  0.0000  0.0000  0.0000
 6444OM     OM1 6444   6.146   8.612   0.821  0.0000  0.0000  0.0000
 6445OM     OM1 6445   6.232   8.362   0.750  0.0000  0.0000  0.0000
 6446OM     OM1 6446   5.995   8.404   0.832  0.0000  0.0000  0.0000
 6447OM     OM1 6447   1.291   6.391   1.001  0.0000  0.0000  0.0000
 6448OM     OM1 6448   1.138   6.409   1.207  0.0000  0.0000  0.0000
 6449OM     OM1 6449   1.400   6.338   1.218  0.0000  0.0000  0.0000
 6450OM     OM1 6450   6.403   3.130   0.894  0.0000  0.0000  0.0000
 6451OM     OM1 6451   6.598   3.190   1.069  0.0000  0.0000  0.0000
 6452OM     OM1 6452   6.386   3.323   1.067  0.0000  0.0000  0.0000
 6453OM     OM1 6453   3.360   5.849   8.878  0.0000  0.0000  0.0000
 6454OM     OM1 6454   3.402   6.091   8.839  0.0000  0.0000  0.0000
 6455OM     OM1 6455   3.612   5.947   8.886  0.0000  0.0000  0.0000
 6456OM     OM1 6456   1.746   2.325   0.447  0.0000  0.0000  0.0000
 6457OM     OM1 6457   1.722   2.590   0.486  0.0000  0.0000  0.0000
 6458OM     OM1 6458   1.523   2.416   0.535  0.0000  0.0000  0.0000
 6459OM     OM1 6459   1.744   2.427   0.682  0.0000  0.0000  0.0000
 6460OM     OM1 6460   4.027   0.841   8.712  0.0000  0.0000  0.0000
 6461OM     OM1 6461   3.894   0.719   8.882  0.0000  0.0000  0.0000
 6462OM     OM1 6462   4.140   0.813   8.949  0.0000  0.0000  0.0000
 6463OM     OM1 6463   4.108   0.607   8.802  0.0000  0.0000  0.0000
 6464OM     OM1 6464   3.160   2.612   0.664  0.0000  0.0000  0.0000
 6465OM     OM1 6465   3.314   2.453   0.498  0.0000  0.0000  0.0000
 6466OM     OM1 6466   3.168   2.642   0.420  0.0000  0.0000  0.0000
 6467OM     OM1 6467   7.694   3.654   8.451  0.0000  0.0000  0.0000
 6468OM     OM1 6468   7.053   3.151   9.292  0.0000  0.0000  0.0000
 6469OM     OM1 6469   6.950   2.865   9.069  0.0000  0.0000  0.0000
 6470OM     OM1 6470   7.135   2.974   9.465  0.0000  0.0000  0.0000
 6471OM     OM1 6471   7.121   6.432   9.108  0.0000  0.0000  0.0000
 6472OM     OM1 6472   6.932   6.296   9.227  0.0000  0.0000  0.0000
 6473OM     OM1 6473   3.706   7.309   0.708  0.0000  0.0000  0.0000
 6474OM     OM1 6474   3.859   7.432   0.870  0.0000  0.0000  0.0000
 6475OM     OM1 6475   3.593   7.467   0.894  0.0000  0.0000  0.0000
 6476OM     OM1 6476   4.991   2.759   9.466  0.0000  0.0000  0.0000
 6477OM     OM1 6477   4.810   2.921   9.394  0.0000  0.0000  0.0000
 6478OM     OM1 6478   4.936   2.973   0.016  0.0000  0.0000  0.0000
 6479OM     OM1 6479   2.833   6.590   9.522  0.0000  0.0000  0.0000
 6480OM     OM1 6480   3.035   9.530   1.042  0.0000  0.0000  0.0000
 6481OM     OM1 6481   3.056   9.272   1.058  0.0000  0.0000  0.0000
 6482OM     OM1 6482   2.922   9.367   0.864  0.0000  0.0000  0.0000
 6483OM     OM1 6483   1.678   6.531   9.267  0.0000  0.0000  0.0000
 6484OM     OM1 6484   1.864   6.359   9.277  0.0000  0.0000  0.0000
 6485OM     OM1 6485   1.916   6.624   9.237  0.0000  0.0000  0.0000
 6486OM     OM1 6486   1.462   8.415   1.303  0.0000  0.0000  0.0000
 6487OM     OM1 6487   1.413   8.285   1.085  0.0000  0.0000  0.0000
 6488OM     OM1 6488   1.643   8.183   1.124  0.0000  0.0000  0.0000
 6489OM     OM1 6489   6.567   6.605   8.416  0.0000  0.0000  0.0000
 6490OM     OM1 6490   5.094   2.246   0.989  0.0000  0.0000  0.0000
 6491OM     OM1 6491   4.854   2.343   0.949  0.0000  0.0000  0.0000
 6492OM     OM1 6492   4.947   1.998   1.301  0.0000  0.0000  0.0000
 6493OM     OM1 6493   7.546   3.611   0.812  0.0000  0.0000  0.0000
 6494OM     OM1 6494   7.503   3.698   1.052  0.0000  0.0000  0.0000
 6495OM     OM1 6495   7.660   3.836   0.911  0.0000  0.0000  0.0000
 6496OM     OM1 6496   7.742   3.608   0.993  0.0000  0.0000  0.0000
 6497OM     OM1 6497   3.451   8.795   8.478  0.0000  0.0000  0.0000
 6498OM     OM1 6498   3.608   8.993   8.552  0.0000  0.0000  0.0000
 6499OM     OM1 6499   3.402   8.903   8.703  0.0000  0.0000  0.0000
 6500OM     OM1 6500   3.367   9.048   8.491  0.0000  0.0000  0.0000
 6501OM     OM1 6501   6.752   0.855   8.766  0.0000  0.0000  0.0000
 6502OM     OM1 6502   6.515   0.932   8.838  0.0000  0.0000  0.0000
 6503OM     OM1 6503   4.922   9.065   0.511  0.0000  0.0000  0.0000
 6504OM     OM1 6504   5.108   8.890   0.471  0.0000  0.0000  0.0000
 6505OM     OM1 6505   7.314   4.636   9.433  0.0000  0.0000  0.0000
 6506OM     OM1 6506   7.554   4.733   9.353  0.0000  0.0000  0.0000
 6507OM     OM1 6507   8.220   0.381   8.607  0.0000  0.0000  0.0000
 6508OM     OM1 6508   0.720   2.463   9.099  0.0000  0.0000  0.0000
 6509OM     OM1 6509   0.830   2.338   9.296  0.0000  0.0000  0.0000
 6510OM     OM1 6510   0.602   2.459   9.327  0.0000  0.0000  0.0000
 6511OM     OM1 6511   0.830   2.595   9.305  0.0000  0.0000  0.0000
 6512OM     OM1 6512   3.980   8.110   0.307  0.0000  0.0000  0.0000
 6513OM     OM1 6513   1.927   9.318   0.844  0.0000  0.0000  0.0000
 6514OM     OM1 6514   2.159   9.259   0.971  0.0000  0.0000  0.0000
 6515OM     OM1 6515   5.134   6.061   1.128  0.0000  0.0000  0.0000
 6516OM     OM1 6516   5.105   6.048   0.880  0.0000  0.0000  0.0000
 6517OM     OM1 6517   2.213   1.133   8.357  0.0000  0.0000  0.0000
 6518OM     OM1 6518   2.100   1.268   8.551  0.0000  0.0000  0.0000
 6519OM     OM1 6519   2.462   1.110   8.289  0.0000  0.0000  0.0000
 6520OM     OM1 6520   6.656   6.656   0.132  0.0000  0.0000  0.0000
 6521OM     OM1 6521   6.786   6.676   9.516  0.0000  0.0000  0.0000
 6522OM     OM1 6522   7.098   2.387   1.047  0.0000  0.0000  0.0000
 6523OM     OM1 6523   7.108   2.141   0.924  0.0000  0.0000  0.0000
 6524OM     OM1 6524   6.906   2.298   0.909  0.0000  0.0000  0.0000
 6525OM     OM1 6525   0.702   4.673   8.369  0.0000  0.0000  0.0000
 6526OM     OM1 6526   6.953   0.374   1.157  0.0000  0.0000  0.0000
 6527OM     OM1 6527   0.813   5.667   9.256  0.0000  0.0000  0.0000
 6528OM     OM1 6528   0.698   5.631   9.024  0.0000  0.0000  0.0000
 6529OM     OM1 6529   0.621   5.821   9.172  0.0000  0.0000  0.0000
 6530OM     OM1 6530   6.646   5.660   9.075  0.0000  0.0000  0.0000
 6531OM     OM1 6531   6.491   5.860   9.102  0.0000  0.0000  0.0000
 6532OM     OM1 6532   6.778   2.382   8.538  0.0000  0.0000  0.0000
 6533OM     OM1 6533   6.869   2.164   8.442  0.0000  0.0000  0.0000
 6534OM     OM1 6534   6.956   2.234   8.672  0.0000  0.0000  0.0000
 6535OM     OM1 6535   7.025   2.374   8.461  0.0000  0.0000  0.0000
 6536OM     OM1 6536   0.219   1.641   0.589  0.0000  0.0000  0.0000
 6537OM     OM1 6537   0.172   1.426   0.739  0.0000  0.0000  0.0000
 6538OM     OM1 6538   8.794   4.837   1.301  0.0000  0.0000  0.0000
 6539OM     OM1 6539   8.849   4.636   1.139  0.0000  0.0000  0.0000
 6540OM     OM1 6540   3.311   3.162   9.444  0.0000  0.0000  0.0000
 6541OM     OM1 6541   3.242   3.214   9.195  0.0000  0.0000  0.0000
 6542OM     OM1 6542   3.501   3.208   9.267  0.0000  0.0000  0.0000
 6543OM     OM1 6543   3.349   3.402   9.331  0.0000  0.0000  0.0000
 6544OM     OM1 6544   0.092   3.793   0.668  0.0000  0.0000  0.0000
 6545OM     OM1 6545   0.061   3.998   0.530  0.0000  0.0000  0.0000
 6546OM     OM1 6546   0.279   4.010   0.663  0.0000  0.0000  0.0000
 6547OM     OM1 6547   4.984   7.663   8.581  0.0000  0.0000  0.0000
 6548OM     OM1 6548   4.776   7.776   8.676  0.0000  0.0000  0.0000
 6549OM     OM1 6549   5.002   7.919   8.638  0.0000  0.0000  0.0000
 6550OM     OM1 6550   5.060   5.992   0.110  0.0000  0.0000  0.0000
 6551OM     OM1 6551   5.175   6.199   0.203  0.0000  0.0000  0.0000
 6552OM     OM1 6552   4.973   6.182   0.368  0.0000  0.0000  0.0000
 6553OM     OM1 6553   3.129   5.790   9.440  0.0000  0.0000  0.0000
 6554OM     OM1 6554   2.974   5.719   0.040  0.0000  0.0000  0.0000
 6555OM     OM1 6555   0.138   8.667   0.671  0.0000  0.0000  0.0000
 6556OM     OM1 6556   6.299   0.394   1.029  0.0000  0.0000  0.0000
 6557OM     OM1 6557   6.116   0.205   1.098  0.0000  0.0000  0.0000
 6558OM     OM1 6558   8.047   1.047   1.317  0.0000  0.0000  0.0000
 6559OM     OM1 6559   7.423   8.542   0.803  0.0000  0.0000  0.0000
 6560OM     OM1 6560   7.466   8.602   1.052  0.0000  0.0000  0.0000
 6561OM     OM1 6561   7.472   8.349   0.986  0.0000  0.0000  0.0000
 6562OM     OM1 6562   7.660   8.509   0.905  0.0000  0.0000  0.0000
 6563OM     OM1 6563   2.076   3.036   0.847  0.0000  0.0000  0.0000
 6564OM     OM1 6564   2.319   2.951   0.793  0.0000  0.0000  0.0000
 6565OM     OM1 6565   2.114   2.835   0.685  0.0000  0.0000  0.0000
 6566OM     OM1 6566   2.532   3.230   8.526  0.0000  0.0000  0.0000
 6567OM     OM1 6567   2.675   3.053   8.388  0.0000  0.0000  0.0000
 6568OM     OM1 6568   2.414   3.108   8.330  0.0000  0.0000  0.0000
 6569OM     OM1 6569   2.429   1.643   1.200  0.0000  0.0000  0.0000
 6570OM     OM1 6570   2.678   1.722   1.131  0.0000  0.0000  0.0000
 6571OM     OM1 6571   6.322   1.119   0.861  0.0000  0.0000  0.0000
 6572OM     OM1 6572   1.445   7.415   8.292  0.0000  0.0000  0.0000
 6573OM     OM1 6573   1.421   7.253   8.506  0.0000  0.0000  0.0000
 6574OM     OM1 6574   1.594   7.645   8.347  0.0000  0.0000  0.0000
 6575OM     OM1 6575   2.548   9.482   0.540  0.0000  0.0000  0.0000
 6576OM     OM1 6576   2.484   0.019   0.329  0.0000  0.0000  0.0000
 6577OM     OM1 6577   2.704   0.068   0.452  0.0000  0.0000  0.0000
 6578OM     OM1 6578   9.542   5.138   8.918  0.0000  0.0000  0.0000
 6579OM     OM1 6579   0.002   5.362   9.025  0.0000  0.0000  0.0000
 6580OM     OM1 6580   0.181   5.200   8.923  0.0000  0.0000  0.0000
 6581OM     OM1 6581   7.918   8.229   8.339  0.0000  0.0000  0.0000
 6582OM     OM1 6582   8.550   9.160   8.826  0.0000  0.0000  0.0000
 6583OM     OM1 6583   8.702   9.077   9.019  0.0000  0.0000  0.0000
 6584OM     OM1 6584   8.766   9.015   8.784  0.0000  0.0000  0.0000
 6585OM     OM1 6585   8.556   8.903   8.881  0.0000  0.0000  0.0000
 6586OM     OM1 6586   4.529   6.197   0.193  0.0000  0.0000  0.0000
 6587OM     OM1 6587   4.726   6.283   0.345  0.0000  0.0000  0.0000
 6588OM     OM1 6588   6.034   5.553   0.588  0.0000  0.0000  0.0000
 6589OM     OM1 6589   6.177   5.615   0.792  0.0000  0.0000  0.0000
 6590OM     OM1 6590   6.014   5.650   0.983  0.0000  0.0000  0.0000
 6591OM     OM1 6591   6.143   5.860   0.903  0.0000  0.0000  0.0000
 6592OM     OM1 6592   2.355   8.968   0.738  0.0000  0.0000  0.0000
 6593OM     OM1 6593   2.361   8.735   0.835  0.0000  0.0000  0.0000
 6594OM     OM1 6594   0.259   0.641   1.202  0.0000  0.0000  0.0000
 6595OM     OM1 6595   0.015   0.556   1.214  0.0000  0.0000  0.0000
 6596OM     OM1 6596   0.177   0.475   1.017  0.0000  0.0000  0.0000
 6597OM     OM1 6597   0.920   4.356   0.037  0.0000  0.0000  0.0000
 6598OM     OM1 6598   0.910   4.627   0.049  0.0000  0.0000  0.0000
 6599OM     OM1 6599   1.030   4.495   0.225  0.0000  0.0000  0.0000
 6600OM     OM1 6600   7.346   8.822   1.143  0.0000  0.0000  0.0000
 6601OM     OM1 6601   7.605   8.805   1.141  0.0000  0.0000  0.0000
 6602OM     OM1 6602   3.611   1.785   9.435  0.0000  0.0000  0.0000
 6603OM     OM1 6603   3.677   1.660   0.039  0.0000  0.0000  0.0000
 6604OM     OM1 6604   3.439   1.769   0.029  0.0000  0.0000  0.0000
 6605OM     OM1 6605   3.500   1.555   9.489  0.0000  0.0000  0.0000
 6606OM     OM1 6606   2.936   6.830   0.501  0.0000  0.0000  0.0000
 6607OM     OM1 6607   2.822   7.071   0.573  0.0000  0.0000  0.0000
 6608OM     OM1 6608   3.737   1.041   9.078  0.0000  0.0000  0.0000
 6609OM     OM1 6609   3.634   0.850   9.234  0.0000  0.0000  0.0000
 6610OM     OM1 6610   3.872   0.827   9.145  0.0000  0.0000  0.0000
 6611OM     OM1 6611   3.676   0.807   8.982  0.0000  0.0000  0.0000
 6612OM     OM1 6612   0.872   2.603   0.767  0.0000  0.0000  0.0000
 6613OM     OM1 6613   0.979   2.427   0.928  0.0000  0.0000  0.0000
 6614OM     OM1 6614   1.072   2.653   0.940  0.0000  0.0000  0.0000
 6615OM     OM1 6615   6.142   5.687   1.247  0.0000  0.0000  0.0000
 6616OM     OM1 6616   6.269   5.670   1.033  0.0000  0.0000  0.0000
 6617OM     OM1 6617   6.215   5.455   1.171  0.0000  0.0000  0.0000
 6618OM     OM1 6618   9.169   6.846   0.178  0.0000  0.0000  0.0000
 6619OM     OM1 6619   9.082   7.081   0.233  0.0000  0.0000  0.0000
 6620OM     OM1 6620   0.730   0.876   8.789  0.0000  0.0000  0.0000
 6621OM     OM1 6621   0.715   0.926   8.529  0.0000  0.0000  0.0000
 6622OM     OM1 6622   0.657   1.068   8.930  0.0000  0.0000  0.0000
 6623OM     OM1 6623   7.179   7.210   0.692  0.0000  0.0000  0.0000
 6624OM     OM1 6624   7.162   7.336   0.456  0.0000  0.0000  0.0000
 6625OM     OM1 6625   7.809   3.852   9.010  0.0000  0.0000  0.0000
 6626OM     OM1 6626   7.917   4.089   8.976  0.0000  0.0000  0.0000
 6627OM     OM1 6627   7.681   4.045   8.881  0.0000  0.0000  0.0000
 6628OM     OM1 6628   7.714   4.063   9.137  0.0000  0.0000  0.0000
 6629OM     OM1 6629   3.784   3.293   0.257  0.0000  0.0000  0.0000
 6630OM     OM1 6630   3.688   3.135   0.088  0.0000  0.0000  0.0000
 6631OM     OM1 6631   3.240   5.714   8.696  0.0000  0.0000  0.0000
 6632OM     OM1 6632   3.311   5.573   8.487  0.0000  0.0000  0.0000
 6633OM     OM1 6633   2.566   9.236   8.803  0.0000  0.0000  0.0000
 6634OM     OM1 6634   2.583   8.982   8.773  0.0000  0.0000  0.0000
 6635OM     OM1 6635   2.479   9.066   8.992  0.0000  0.0000  0.0000
 6636OM     OM1 6636   4.409   6.697   1.072  0.0000  0.0000  0.0000
 6637OM     OM1 6637   4.298   6.505   0.926  0.0000  0.0000  0.0000
 6638OM     OM1 6638   4.254   6.515   1.182  0.0000  0.0000  0.0000
 6639OM     OM1 6639   1.069   6.732   8.290  0.0000  0.0000  0.0000
 6640OM     OM1 6640   4.362   3.542   1.026  0.0000  0.0000  0.0000
 6641OM     OM1 6641   4.245   3.306   1.057  0.0000  0.0000  0.0000
 6642OM     OM1 6642   4.288   3.469   1.267  0.0000  0.0000  0.0000
 6643OM     OM1 6643   1.265   6.037   8.306  0.0000  0.0000  0.0000
 6644OM     OM1 6644   4.899   0.020   8.449  0.0000  0.0000  0.0000
 6645OM     OM1 6645   5.129   0.116   8.518  0.0000  0.0000  0.0000
 6646OM     OM1 6646   4.971   0.243   8.339  0.0000  0.0000  0.0000
 6647OM     OM1 6647   6.171   9.559   1.085  0.0000  0.0000  0.0000
 6648OM     OM1 6648   4.616   1.519   8.435  0.0000  0.0000  0.0000
 6649OM     OM1 6649   4.384   1.602   8.375  0.0000  0.0000  0.0000
 6650OM     OM1 6650   4.583   1.756   8.311  0.0000  0.0000  0.0000
 6651OM     OM1 6651   2.518   2.812   0.436  0.0000  0.0000  0.0000
 6652OM     OM1 6652   2.630   2.601   0.320  0.0000  0.0000  0.0000
 6653OM     OM1 6653   2.376   2.601   0.377  0.0000  0.0000  0.0000
 6654OM     OM1 6654   2.473   2.756   0.189  0.0000  0.0000  0.0000
 6655OM     OM1 6655   3.288   2.950   8.575  0.0000  0.0000  0.0000
 6656OM     OM1 6656   3.265   2.704   8.664  0.0000  0.0000  0.0000
 6657OM     OM1 6657   3.324   2.910   8.824  0.0000  0.0000  0.0000
 6658OM     OM1 6658   1.522   5.324   8.272  0.0000  0.0000  0.0000
 6659OM     OM1 6659   6.724   2.132   0.111  0.0000  0.0000  0.0000
 6660OM     OM1 6660   6.518   2.287   0.184  0.0000  0.0000  0.0000
 6661OM     OM1 6661   6.691   2.203   0.353  0.0000  0.0000  0.0000
 6662OM     OM1 6662   5.188   3.305   0.266  0.0000  0.0000  0.0000
 6663OM     OM1 6663   5.184   3.327   0.546  0.0000  0.0000  0.0000
 6664OM     OM1 6664   7.093   2.531   8.261  0.0000  0.0000  0.0000
 6665OM     OM1 6665   7.242   2.507   8.475  0.0000  0.0000  0.0000
 6666OM     OM1 6666   3.493   6.272   8.338  0.0000  0.0000  0.0000
 6667OM     OM1 6667   3.444   6.200   8.596  0.0000  0.0000  0.0000
 6668OM     OM1 6668   2.730   1.601   9.134  0.0000  0.0000  0.0000
 6669OM     OM1 6669   2.945   1.648   9.275  0.0000  0.0000  0.0000
 6670OM     OM1 6670   2.913   1.762   9.044  0.0000  0.0000  0.0000
 6671OM     OM1 6671   1.675   2.834   0.554  0.0000  0.0000  0.0000
 6672OM     OM1 6672   1.920   2.769   0.519  0.0000  0.0000  0.0000
 6673OM     OM1 6673   1.034   5.244   0.681  0.0000  0.0000  0.0000
 6674OM     OM1 6674   1.236   5.298   0.824  0.0000  0.0000  0.0000
 6675OM     OM1 6675   1.106   5.064   0.857  0.0000  0.0000  0.0000
 6676OM     OM1 6676   8.643   4.534   0.305  0.0000  0.0000  0.0000
 6677OM     OM1 6677   8.618   4.267   0.294  0.0000  0.0000  0.0000
 6678OM     OM1 6678   8.786   4.410   0.138  0.0000  0.0000  0.0000
 6679OM     OM1 6679   3.238   6.680   8.649  0.0000  0.0000  0.0000
 6680OM     OM1 6680   3.488   6.637   8.671  0.0000  0.0000  0.0000
 6681OM     OM1 6681   3.313   6.557   8.860  0.0000  0.0000  0.0000
 6682OM     OM1 6682   3.378   6.806   8.832  0.0000  0.0000  0.0000
 6683OM     OM1 6683   3.742   3.526   0.912  0.0000  0.0000  0.0000
 6684OM     OM1 6684   0.871   8.969   9.456  0.0000  0.0000  0.0000
 6685OM     OM1 6685   7.690   3.615   8.974  0.0000  0.0000  0.0000
 6686OM     OM1 6686   7.608   3.412   9.097  0.0000  0.0000  0.0000
 6687OM     OM1 6687   0.365   0.127   9.334  0.0000  0.0000  0.0000
 6688OM     OM1 6688   4.529   7.877   9.411  0.0000  0.0000  0.0000
 6689OM     OM1 6689   4.363   7.744   9.258  0.0000  0.0000  0.0000
 6690OM     OM1 6690   4.388   8.009   9.241  0.0000  0.0000  0.0000
 6691OM     OM1 6691   9.058   9.479   1.120  0.0000  0.0000  0.0000
 6692OM     OM1 6692   8.935   9.324   0.957  0.0000  0.0000  0.0000
 6693OM     OM1 6693   9.000   9.579   0.891  0.0000  0.0000  0.0000
 6694OM     OM1 6694   8.799   9.513   1.042  0.0000  0.0000  0.0000
 6695OM     OM1 6695   2.404   4.751   0.998  0.0000  0.0000  0.0000
 6696OM     OM1 6696   2.535   4.605   0.823  0.0000  0.0000  0.0000
 6697OM     OM1 6697   2.289   4.531   0.907  0.0000  0.0000  0.0000
 6698OM     OM1 6698   2.495   4.515   1.063  0.0000  0.0000  0.0000
 6699OM     OM1 6699   1.166   0.813   0.508  0.0000  0.0000  0.0000
 6700OM     OM1 6700   0.911   0.803   0.447  0.0000  0.0000  0.0000
 6701OM     OM1 6701   1.021   1.020   0.559  0.0000  0.0000  0.0000
 6702OM     OM1 6702   0.977   0.810   0.697  0.0000  0.0000  0.0000
 6703OM     OM1 6703   3.293   7.373   0.062  0.0000  0.0000  0.0000
 6704OM     OM1 6704   3.338   7.579   0.213  0.0000  0.0000  0.0000
 6705OM     OM1 6705   3.437   2.199   0.962  0.0000  0.0000  0.0000
 6706OM     OM1 6706   3.215   2.194   0.823  0.0000  0.0000  0.0000
 6707OM     OM1 6707   3.185   4.509   0.519  0.0000  0.0000  0.0000
 6708OM     OM1 6708   3.087   4.286   0.618  0.0000  0.0000  0.0000
 6709OM     OM1 6709   0.677   3.190   1.094  0.0000  0.0000  0.0000
 6710OM     OM1 6710   0.562   2.979   1.022  0.0000  0.0000  0.0000
 6711OM     OM1 6711   7.353   2.386   9.356  0.0000  0.0000  0.0000
 6712OM     OM1 6712   9.210   2.314   8.962  0.0000  0.0000  0.0000
 6713OM     OM1 6713   9.046   2.445   9.116  0.0000  0.0000  0.0000
 6714OM     OM1 6714   9.002   2.196   9.082  0.0000  0.0000  0.0000
 6715OM     OM1 6715   9.212   2.265   9.223  0.0000  0.0000  0.0000
 6716OM     OM1 6716   7.453   3.632   0.060  0.0000  0.0000  0.0000
 6717OM     OM1 6717   6.501   0.385   0.456  0.0000  0.0000  0.0000
 6718OM     OM1 6718   6.727   0.377   0.586  0.0000  0.0000  0.0000
 6719OM     OM1 6719   6.594   0.157   0.554  0.0000  0.0000  0.0000
 6720OM     OM1 6720   6.716   0.274   0.352  0.0000  0.0000  0.0000
 6721OM     OM1 6721   4.889   4.776   8.412  0.0000  0.0000  0.0000
 6722OM     OM1 6722   4.692   4.957   8.411  0.0000  0.0000  0.0000
 6723OM     OM1 6723   4.682   4.734   8.559  0.0000  0.0000  0.0000
 6724OM     OM1 6724   2.524   8.610   0.675  0.0000  0.0000  0.0000
 6725OM     OM1 6725   7.325   7.492   8.386  0.0000  0.0000  0.0000
 6726OM     OM1 6726   3.095   7.778   8.375  0.0000  0.0000  0.0000
 6727OM     OM1 6727   4.684   6.074   9.321  0.0000  0.0000  0.0000
 6728OM     OM1 6728   4.812   5.872   9.420  0.0000  0.0000  0.0000
 6729OM     OM1 6729   2.742   1.566   0.582  0.0000  0.0000  0.0000
 6730OM     OM1 6730   2.599   1.373   0.704  0.0000  0.0000  0.0000
 6731OM     OM1 6731   2.833   1.326   0.616  0.0000  0.0000  0.0000
 6732OM     OM1 6732   3.320   0.948   0.866  0.0000  0.0000  0.0000
 6733OM     OM1 6733   3.155   0.921   1.074  0.0000  0.0000  0.0000
 6734OM     OM1 6734   6.894   6.057   8.443  0.0000  0.0000  0.0000
 6735OM     OM1 6735   7.096   5.904   8.344  0.0000  0.0000  0.0000
 6736OM     OM1 6736   3.877   8.796   0.988  0.0000  0.0000  0.0000
 6737OM     OM1 6737   4.082   9.079   1.292  0.0000  0.0000  0.0000
 6738OM     OM1 6738   8.267   1.220   0.167  0.0000  0.0000  0.0000
 6739OM     OM1 6739   8.516   1.286   0.166  0.0000  0.0000  0.0000
 6740OM     OM1 6740   8.420   1.212   9.548  0.0000  0.0000  0.0000
 6741OM     OM1 6741   1.566   5.925   1.296  0.0000  0.0000  0.0000
 6742OM     OM1 6742   1.507   6.120   1.125  0.0000  0.0000  0.0000
 6743OM     OM1 6743   3.147   7.430   0.740  0.0000  0.0000  0.0000
 6744OM     OM1 6744   3.374   7.347   0.827  0.0000  0.0000  0.0000
 6745OM     OM1 6745   3.297   7.281   0.581  0.0000  0.0000  0.0000
 6746OM     OM1 6746   7.162   2.601   1.184  0.0000  0.0000  0.0000
 6747OM     OM1 6747   7.242   2.555   0.920  0.0000  0.0000  0.0000
 6748OM     OM1 6748   1.774   6.968   0.818  0.0000  0.0000  0.0000
 6749OM     OM1 6749   1.735   6.728   0.760  0.0000  0.0000  0.0000
 6750OM     OM1 6750   1.751   6.789   1.010  0.0000  0.0000  0.0000
 6751OM     OM1 6751   1.535   6.863   0.888  0.0000  0.0000  0.0000
 6752OM     OM1 6752   0.099   5.154   0.326  0.0000  0.0000  0.0000
 6753OM     OM1 6753   0.082   5.213   0.585  0.0000  0.0000  0.0000
 6754OM     OM1 6754   0.135   5.399   0.409  0.0000  0.0000  0.0000
 6755OM     OM1 6755   9.507   5.295   0.407  0.0000  0.0000  0.0000
 6756OM     OM1 6756   8.383   4.462   1.146  0.0000  0.0000  0.0000
 6757OM     OM1 6757   8.636   4.480   1.125  0.0000  0.0000  0.0000
 6758OM     OM1 6758   6.551   7.751   0.909  0.0000  0.0000  0.0000
 6759OM     OM1 6759   6.997   9.452   1.030  0.0000  0.0000  0.0000
 6760OM     OM1 6760   6.849   9.425   0.828  0.0000  0.0000  0.0000
 6761OM     OM1 6761   6.989   0.043   0.849  0.0000  0.0000  0.0000
 6762OM     OM1 6762   1.582   7.138   9.243  0.0000  0.0000  0.0000
 6763OM     OM1 6763   1.490   6.915   9.124  0.0000  0.0000  0.0000
 6764OM     OM1 6764   1.382   7.009   9.449  0.0000  0.0000  0.0000
 6765OM     OM1 6765   1.851   3.668   8.801  0.0000  0.0000  0.0000
 6766OM     OM1 6766   2.304   3.750   8.869  0.0000  0.0000  0.0000
 6767OM     OM1 6767   2.073   3.643   8.909  0.0000  0.0000  0.0000
 6768OM     OM1 6768   3.619   4.550   0.831  0.0000  0.0000  0.0000
 6769OM     OM1 6769   3.419   4.545   0.638  0.0000  0.0000  0.0000
 6770OM     OM1 6770   3.634   4.672   0.598  0.0000  0.0000  0.0000
 6771OM     OM1 6771   1.762   6.813   8.928  0.0000  0.0000  0.0000
 6772OM     OM1 6772   1.619   6.816   8.716  0.0000  0.0000  0.0000
 6773OM     OM1 6773   1.516   6.735   8.946  0.0000  0.0000  0.0000
 6774OM     OM1 6774   2.216   7.096   0.622  0.0000  0.0000  0.0000
 6775OM     OM1 6775   2.044   7.006   0.800  0.0000  0.0000  0.0000
 6776OM     OM1 6776   2.254   6.865   0.760  0.0000  0.0000  0.0000
 6777OM     OM1 6777   1.407   5.776   0.184  0.0000  0.0000  0.0000
 6778OM     OM1 6778   1.694   5.864   0.054  0.0000  0.0000  0.0000
 6779OM     OM1 6779   1.515   5.603   0.014  0.0000  0.0000  0.0000
 6780OM     OM1 6780   5.161   6.520   9.149  0.0000  0.0000  0.0000
 6781OM     OM1 6781   5.214   6.378   8.942  0.0000  0.0000  0.0000
 6782OM     OM1 6782   5.066   6.173   8.994  0.0000  0.0000  0.0000
 6783OM     OM1 6783   1.089   1.986   1.176  0.0000  0.0000  0.0000
 6784OM     OM1 6784   1.286   1.818   1.178  0.0000  0.0000  0.0000
 6785OM     OM1 6785   0.860   9.269   0.238  0.0000  0.0000  0.0000
 6786OM     OM1 6786   0.599   9.433   0.314  0.0000  0.0000  0.0000
 6787OM     OM1 6787   0.985   9.489   0.359  0.0000  0.0000  0.0000
 6788OM     OM1 6788   7.790   9.146   0.161  0.0000  0.0000  0.0000
 6789OM     OM1 6789   7.647   9.272   0.334  0.0000  0.0000  0.0000
 6790OM     OM1 6790   7.598   9.019   0.292  0.0000  0.0000  0.0000
 6791OM     OM1 6791   8.042   7.037   0.350  0.0000  0.0000  0.0000
 6792OM     OM1 6792   7.865   6.981   0.150  0.0000  0.0000  0.0000
 6793OM     OM1 6793   8.037   6.811   0.219  0.0000  0.0000  0.0000
 6794OM     OM1 6794   2.472   0.409   0.573  0.0000  0.0000  0.0000
 6795OM     OM1 6795   2.519   0.360   0.998  0.0000  0.0000  0.0000
 6796OM     OM1 6796   1.365   1.519   0.237  0.0000  0.0000  0.0000
 6797OM     OM1 6797   1.257   1.728   0.328  0.0000  0.0000  0.0000
 6798OM     OM1 6798   1.472   6.870   0.578  0.0000  0.0000  0.0000
 6799OM     OM1 6799   1.679   6.801   0.423  0.0000  0.0000  0.0000
 6800OM     OM1 6800   1.619   7.048   0.452  0.0000  0.0000  0.0000
 6801OM     OM1 6801   4.124   6.616   9.062  0.0000  0.0000  0.0000
 6802OM     OM1 6802   4.216   6.835   8.947  0.0000  0.0000  0.0000
 6803OM     OM1 6803   4.167   6.826   9.204  0.0000  0.0000  0.0000
 6804OM     OM1 6804   5.450   8.567   8.950  0.0000  0.0000  0.0000
 6805OM     OM1 6805   5.457   8.780   9.118  0.0000  0.0000  0.0000
 6806OM     OM1 6806   5.661   8.639   9.076  0.0000  0.0000  0.0000
 6807OM     OM1 6807   9.143   4.479   0.353  0.0000  0.0000  0.0000
 6808OM     OM1 6808   9.260   4.709   0.421  0.0000  0.0000  0.0000
 6809OM     OM1 6809   9.060   4.695   0.248  0.0000  0.0000  0.0000
 6810OM     OM1 6810   6.215   9.466   8.444  0.0000  0.0000  0.0000
 6811OM     OM1 6811   1.677   1.357   0.618  0.0000  0.0000  0.0000
 6812OM     OM1 6812   2.233   5.118   8.645  0.0000  0.0000  0.0000
 6813OM     OM1 6813   2.039   7.791   8.568  0.0000  0.0000  0.0000
 6814OM     OM1 6814   2.145   7.591   8.700  0.0000  0.0000  0.0000
 6815OM     OM1 6815   5.263   0.694   9.394  0.0000  0.0000  0.0000
 6816OM     OM1 6816   5.099   0.590   9.569  0.0000  0.0000  0.0000
 6817OM     OM1 6817   6.740   0.130   9.466  0.0000  0.0000  0.0000
 6818OM     OM1 6818   6.973   0.092   9.340  0.0000  0.0000  0.0000
 6819OM     OM1 6819   5.475   5.851   0.152  0.0000  0.0000  0.0000
 6820OM     OM1 6820   5.417   5.851   9.503  0.0000  0.0000  0.0000
 6821OM     OM1 6821   5.559   6.050   0.002  0.0000  0.0000  0.0000
 6822OM     OM1 6822   5.304   6.034   0.045  0.0000  0.0000  0.0000
 6823OM     OM1 6823   5.558   9.052   8.476  0.0000  0.0000  0.0000
 6824OM     OM1 6824   5.510   8.802   8.450  0.0000  0.0000  0.0000
 6825OM     OM1 6825   1.384   5.529   8.370  0.0000  0.0000  0.0000
 6826OM     OM1 6826   1.196   5.529   8.541  0.0000  0.0000  0.0000
 6827OM     OM1 6827   1.157   5.638   8.309  0.0000  0.0000  0.0000
 6828OM     OM1 6828   6.750   3.626   9.366  0.0000  0.0000  0.0000
 6829OM     OM1 6829   6.615   3.470   9.513  0.0000  0.0000  0.0000
 6830OM     OM1 6830   6.639   3.407   9.270  0.0000  0.0000  0.0000
 6831OM     OM1 6831   0.636   3.441   9.164  0.0000  0.0000  0.0000
 6832OM     OM1 6832   0.885   3.340   9.176  0.0000  0.0000  0.0000
 6833OM     OM1 6833   6.327   0.978   9.018  0.0000  0.0000  0.0000
 6834OM     OM1 6834   6.450   1.170   8.896  0.0000  0.0000  0.0000
 6835OM     OM1 6835   3.632   1.660   1.235  0.0000  0.0000  0.0000
 6836OM     OM1 6836   3.981   1.568   1.343  0.0000  0.0000  0.0000
 6837OM     OM1 6837   3.840   1.586   1.131  0.0000  0.0000  0.0000
 6838OM     OM1 6838   3.316   0.214   0.932  0.0000  0.0000  0.0000
 6839OM     OM1 6839   3.449   0.295   0.726  0.0000  0.0000  0.0000
 6840OM     OM1 6840   6.537   4.870   9.340  0.0000  0.0000  0.0000
 6841OM     OM1 6841   4.143   6.700   8.743  0.0000  0.0000  0.0000
 6842OM     OM1 6842   4.374   6.800   8.743  0.0000  0.0000  0.0000
 6843OM     OM1 6843   9.045   3.357   8.418  0.0000  0.0000  0.0000
 6844OM     OM1 6844   9.156   3.567   8.526  0.0000  0.0000  0.0000
 6845OM     OM1 6845   2.523   5.076   0.498  0.0000  0.0000  0.0000
 6846OM     OM1 6846   2.402   5.314   0.516  0.0000  0.0000  0.0000
 6847OM     OM1 6847   2.280   5.110   0.422  0.0000  0.0000  0.0000
 6848OM     OM1 6848   2.489   5.224   0.292  0.0000  0.0000  0.0000
 6849OM     OM1 6849   6.857   7.447   0.053  0.0000  0.0000  0.0000
 6850OM     OM1 6850   6.979   7.372   0.269  0.0000  0.0000  0.0000
 6851OM     OM1 6851   6.721   7.302   0.227  0.0000  0.0000  0.0000
 6852OM     OM1 6852   9.183   1.834   0.839  0.0000  0.0000  0.0000
 6853OM     OM1 6853   9.008   1.815   0.637  0.0000  0.0000  0.0000
 6854OM     OM1 6854   8.493   3.820   1.334  0.0000  0.0000  0.0000
 6855OM     OM1 6855   8.580   3.741   1.097  0.0000  0.0000  0.0000
 6856OM     OM1 6856   4.816   1.751   0.105  0.0000  0.0000  0.0000
 6857OM     OM1 6857   5.017   1.855   0.239  0.0000  0.0000  0.0000
 6858OM     OM1 6858   4.798   1.978   0.238  0.0000  0.0000  0.0000
 6859OM     OM1 6859   4.818   1.744   0.367  0.0000  0.0000  0.0000
 6860OM     OM1 6860   3.358   6.202   9.559  0.0000  0.0000  0.0000
 6861OM     OM1 6861   3.841   6.097   9.589  0.0000  0.0000  0.0000
 6862OM     OM1 6862   3.516   6.312   9.375  0.0000  0.0000  0.0000
 6863OM     OM1 6863   4.789   4.893   0.257  0.0000  0.0000  0.0000
 6864OM     OM1 6864   9.122   1.091   9.102  0.0000  0.0000  0.0000
 6865OM     OM1 6865   9.215   1.324   9.019  0.0000  0.0000  0.0000
 6866OM     OM1 6866   9.366   1.177   9.171  0.0000  0.0000  0.0000
 6867OM     OM1 6867   7.782   8.704   0.793  0.0000  0.0000  0.0000
 6868OM     OM1 6868   7.788   8.998   1.156  0.0000  0.0000  0.0000
 6869OM     OM1 6869   7.758   8.931   0.913  0.0000  0.0000  0.0000
 6870OM     OM1 6870   1.196   3.295   0.443  0.0000  0.0000  0.0000
 6871OM     OM1 6871   1.230   3.026   0.359  0.0000  0.0000  0.0000
 6872OM     OM1 6872   9.006   3.295   9.138  0.0000  0.0000  0.0000
 6873OM     OM1 6873   9.154   3.463   9.004  0.0000  0.0000  0.0000
 6874OM     OM1 6874   9.130   3.214   8.927  0.0000  0.0000  0.0000
 6875OM     OM1 6875   2.328   4.455   0.005  0.0000  0.0000  0.0000
 6876OM     OM1 6876   2.278   4.577   9.380  0.0000  0.0000  0.0000
 6877OM     OM1 6877   2.165   4.656   0.010  0.0000  0.0000  0.0000
 6878OM     OM1 6878   3.657   1.878   9.210  0.0000  0.0000  0.0000
 6879OM     OM1 6879   3.543   2.069   9.093  0.0000  0.0000  0.0000
 6880OM     OM1 6880   7.007   8.749   8.783  0.0000  0.0000  0.0000
 6881OM     OM1 6881   6.837   8.550   8.806  0.0000  0.0000  0.0000
 6882OM     OM1 6882   7.092   8.516   8.874  0.0000  0.0000  0.0000
 6883OM     OM1 6883   0.307   3.719   0.811  0.0000  0.0000  0.0000
 6884OM     OM1 6884   0.168   3.550   0.673  0.0000  0.0000  0.0000
 6885OM     OM1 6885   4.691   3.530   9.293  0.0000  0.0000  0.0000
 6886OM     OM1 6886   4.449   3.507   9.215  0.0000  0.0000  0.0000
 6887OM     OM1 6887   2.392   6.638   0.506  0.0000  0.0000  0.0000
 6888OM     OM1 6888   9.278   9.273   0.354  0.0000  0.0000  0.0000
 6889OM     OM1 6889   9.578   6.697   8.371  0.0000  0.0000  0.0000
 6890OM     OM1 6890   0.169   6.829   8.524  0.0000  0.0000  0.0000
 6891OM     OM1 6891   2.698   7.306   0.986  0.0000  0.0000  0.0000
 6892OM     OM1 6892   2.570   7.382   1.203  0.0000  0.0000  0.0000
 6893OM     OM1 6893   1.418   2.420   0.767  0.0000  0.0000  0.0000
 6894OM     OM1 6894   1.227   2.311   0.890  0.0000  0.0000  0.0000
 6895OM     OM1 6895   5.018   0.082   9.520  0.0000  0.0000  0.0000
 6896OM     OM1 6896   5.217   0.156   0.054  0.0000  0.0000  0.0000
 6897OM     OM1 6897   5.146   0.147   0.307  0.0000  0.0000  0.0000
 6898OM     OM1 6898   5.049   0.337   9.570  0.0000  0.0000  0.0000
 6899OM     OM1 6899   0.515   1.212   8.256  0.0000  0.0000  0.0000
 6900OM     OM1 6900   0.438   1.115   8.485  0.0000  0.0000  0.0000
 6901OM     OM1 6901   2.755   8.350   1.319  0.0000  0.0000  0.0000
 6902OM     OM1 6902   6.592   1.232   0.079  0.0000  0.0000  0.0000
 6903OM     OM1 6903   6.734   1.327   9.492  0.0000  0.0000  0.0000
 6904OM     OM1 6904   6.478   1.387   9.508  0.0000  0.0000  0.0000
 6905OM     OM1 6905   1.794   8.454   9.386  0.0000  0.0000  0.0000
 6906OM     OM1 6906   3.920   1.327   8.736  0.0000  0.0000  0.0000
 6907OM     OM1 6907   3.719   1.435   8.600  0.0000  0.0000  0.0000
 6908OM     OM1 6908   3.784   1.524   8.831  0.0000  0.0000  0.0000
 6909OM     OM1 6909   3.941   1.571   8.628  0.0000  0.0000  0.0000
 6910OM     OM1 6910   2.166   4.294   0.899  0.0000  0.0000  0.0000
 6911OM     OM1 6911   3.562   7.750   8.670  0.0000  0.0000  0.0000
 6912OM     OM1 6912   3.424   7.908   8.502  0.0000  0.0000  0.0000
 6913OM     OM1 6913   5.444   7.621   8.404  0.0000  0.0000  0.0000
 6914OM     OM1 6914   5.383   7.473   8.601  0.0000  0.0000  0.0000
 6915OM     OM1 6915   5.514   7.351   8.409  0.0000  0.0000  0.0000
 6916OM     OM1 6916   1.713   3.709   8.568  0.0000  0.0000  0.0000
 6917OM     OM1 6917   1.656   3.919   8.419  0.0000  0.0000  0.0000
 6918OM     OM1 6918   5.167   2.575   9.419  0.0000  0.0000  0.0000
 6919OM     OM1 6919   4.919   2.550   9.329  0.0000  0.0000  0.0000
 6920OM     OM1 6920   5.090   2.731   9.229  0.0000  0.0000  0.0000
 6921OM     OM1 6921   1.875   6.207   8.284  0.0000  0.0000  0.0000
 6922OM     OM1 6922   0.042   7.988   8.711  0.0000  0.0000  0.0000
 6923OM     OM1 6923   0.269   7.846   8.696  0.0000  0.0000  0.0000
 6924OM     OM1 6924   0.380   7.812   8.464  0.0000  0.0000  0.0000
 6925OM     OM1 6925   0.578   0.148   9.457  0.0000  0.0000  0.0000
 6926OM     OM1 6926   6.284   0.909   8.367  0.0000  0.0000  0.0000
 6927OM     OM1 6927   4.230   2.444   1.093  0.0000  0.0000  0.0000
 6928OM     OM1 6928   4.428   2.277   1.089  0.0000  0.0000  0.0000
 6929OM     OM1 6929   4.204   2.214   0.962  0.0000  0.0000  0.0000
 6930OM     OM1 6930   7.070   8.791   9.534  0.0000  0.0000  0.0000
 6931OM     OM1 6931   3.786   5.174   8.342  0.0000  0.0000  0.0000
 6932OM     OM1 6932   3.571   5.322   8.322  0.0000  0.0000  0.0000
 6933OM     OM1 6933   0.396   3.549   9.111  0.0000  0.0000  0.0000
 6934OM     OM1 6934   0.556   3.459   8.918  0.0000  0.0000  0.0000
 6935OM     OM1 6935   1.710   8.134   8.726  0.0000  0.0000  0.0000
 6936OM     OM1 6936   1.579   8.327   8.600  0.0000  0.0000  0.0000
 6937OM     OM1 6937   1.826   8.356   8.692  0.0000  0.0000  0.0000
 6938OM     OM1 6938   3.143   3.136   8.473  0.0000  0.0000  0.0000
 6939OM     OM1 6939   3.296   2.968   8.319  0.0000  0.0000  0.0000
 6940OM     OM1 6940   3.418   3.140   8.466  0.0000  0.0000  0.0000
 6941OM     OM1 6941   0.064   5.627   0.061  0.0000  0.0000  0.0000
 6942OM     OM1 6942   9.452   5.535   9.567  0.0000  0.0000  0.0000
 6943OM     OM1 6943   9.511   5.461   0.204  0.0000  0.0000  0.0000
 6944OM     OM1 6944   2.183   7.954   9.327  0.0000  0.0000  0.0000
 6945OM     OM1 6945   2.067   7.737   9.277  0.0000  0.0000  0.0000
 6946OM     OM1 6946   0.778   3.249   0.856  0.0000  0.0000  0.0000
 6947OM     OM1 6947   0.827   3.356   0.619  0.0000  0.0000  0.0000
 6948OM     OM1 6948   7.524   9.486   8.843  0.0000  0.0000  0.0000
 6949OM     OM1 6949   7.669   9.287   8.752  0.0000  0.0000  0.0000
 6950OM     OM1 6950   7.665   9.514   8.615  0.0000  0.0000  0.0000
 6951OM     OM1 6951   9.306   7.288   0.975  0.0000  0.0000  0.0000
 6952OM     OM1 6952   9.441   7.094   0.882  0.0000  0.0000  0.0000
 6953OM     OM1 6953   9.249   7.205   0.732  0.0000  0.0000  0.0000
 6954OM     OM1 6954   9.473   7.325   0.764  0.0000  0.0000  0.0000
 6955OM     OM1 6955   9.538   6.617   0.470  0.0000  0.0000  0.0000
 6956OM     OM1 6956   9.362   6.745   0.319  0.0000  0.0000  0.0000
 6957OM     OM1 6957   9.368   6.784   0.567  0.0000  0.0000  0.0000
 6958OM     OM1 6958   6.626   8.988   0.270  0.0000  0.0000  0.0000
 6959OM     OM1 6959   6.601   9.098   9.558  0.0000  0.0000  0.0000
 6960OM     OM1 6960   0.373   5.503   1.078  0.0000  0.0000  0.0000
 6961OM     OM1 6961   0.214   6.645   8.360  0.0000  0.0000  0.0000
 6962OM     OM1 6962   6.623   1.224   0.339  0.0000  0.0000  0.0000
 6963OM     OM1 6963   6.800   1.047   0.393  0.0000  0.0000  0.0000
 6964OM     OM1 6964   6.677   0.850   0.504  0.0000  0.0000  0.0000
 6965OM     OM1 6965   5.453   3.423   9.388  0.0000  0.0000  0.0000
 6966OM     OM1 6966   5.656   3.807   9.189  0.0000  0.0000  0.0000
 6967OM     OM1 6967   5.606   3.629   9.369  0.0000  0.0000  0.0000
 6968OM     OM1 6968   8.756   2.510   1.094  0.0000  0.0000  0.0000
 6969OM     OM1 6969   8.878   2.366   0.914  0.0000  0.0000  0.0000
 6970OM     OM1 6970   6.345   6.515   0.068  0.0000  0.0000  0.0000
 6971OM     OM1 6971   6.302   6.111   9.586  0.0000  0.0000  0.0000
 6972OM     OM1 6972   2.934   8.395   0.450  0.0000  0.0000  0.0000
 6973OM     OM1 6973   2.695   8.315   0.495  0.0000  0.0000  0.0000
 6974OM     OM1 6974   2.761   8.555   0.570  0.0000  0.0000  0.0000
 6975OM     OM1 6975   3.349   8.442   8.837  0.0000  0.0000  0.0000
 6976OM     OM1 6976   3.125   8.394   8.943  0.0000  0.0000  0.0000
 6977OM     OM1 6977   3.325   8.269   9.048  0.0000  0.0000  0.0000
 6978OM     OM1 6978   6.700   7.691   8.361  0.0000  0.0000  0.0000
 6979OM     OM1 6979   8.465   1.237   0.603  0.0000  0.0000  0.0000
 6980OM     OM1 6980   8.266   1.070   0.659  0.0000  0.0000  0.0000
 6981OM     OM1 6981   8.330   1.140   0.411  0.0000  0.0000  0.0000
 6982OM     OM1 6982   0.870   5.692   9.504  0.0000  0.0000  0.0000
 6983OM     OM1 6983   1.064   5.664   9.325  0.0000  0.0000  0.0000
 6984OM     OM1 6984   9.334   5.004   0.040  0.0000  0.0000  0.0000
 6985OM     OM1 6985   9.325   5.210   9.480  0.0000  0.0000  0.0000
 6986OM     OM1 6986   9.105   5.104   9.581  0.0000  0.0000  0.0000
 6987OM     OM1 6987   6.868   5.363   8.459  0.0000  0.0000  0.0000
 6988OM     OM1 6988   6.930   5.581   8.335  0.0000  0.0000  0.0000
 6989OM     OM1 6989   8.480   4.725   0.219  0.0000  0.0000  0.0000
 6990OM     OM1 6990   8.644   4.773   0.419  0.0000  0.0000  0.0000
 6991OM     OM1 6991   1.077   7.454   8.815  0.0000  0.0000  0.0000
 6992OM     OM1 6992   0.894   7.305   8.716  0.0000  0.0000  0.0000
 6993OM     OM1 6993   9.096   8.195   0.219  0.0000  0.0000  0.0000
 6994OM     OM1 6994   9.364   8.181   0.194  0.0000  0.0000  0.0000
 6995OM     OM1 6995   3.028   4.825   9.419  0.0000  0.0000  0.0000
 6996OM     OM1 6996   3.132   4.914   0.048  0.0000  0.0000  0.0000
 6997OM     OM1 6997   9.248   9.360   1.258  0.0000  0.0000  0.0000
 6998OM     OM1 6998   7.305   0.285   0.891  0.0000  0.0000  0.0000
 6999OM     OM1 6999   7.189   0.149   0.708  0.0000  0.0000  0.0000
 7000OM     OM1 7000   0.735   1.490   0.913  0.0000  0.0000  0.0000
 7001OM     OM1 7001   9.160   2.527   8.475  0.0000  0.0000  0.0000
 7002OM     OM1 7002   9.222   3.342   0.328  0.0000  0.0000  0.0000
 7003OM     OM1 7003   7.192   9.172   0.436  0.0000  0.0000  0.0000
 7004OM     OM1 7004   6.948   9.120   0.503  0.0000  0.0000  0.0000
 7005OM     OM1 7005   7.079   8.933   0.383  0.0000  0.0000  0.0000
 7006OM     OM1 7006   3.278   1.126   0.675  0.0000  0.0000  0.0000
 7007OM     OM1 7007   2.034   5.614   0.988  0.0000  0.0000  0.0000
 7008OM     OM1 7008   2.067   5.607   1.246  0.0000  0.0000  0.0000
 7009OM     OM1 7009   2.064   5.383   1.111  0.0000  0.0000  0.0000
 7010OM     OM1 7010   3.703   2.511   9.043  0.0000  0.0000  0.0000
 7011OM     OM1 7011   3.698   2.261   8.981  0.0000  0.0000  0.0000
 7012OM     OM1 7012   3.883   2.432   8.892  0.0000  0.0000  0.0000
 7013OM     OM1 7013   7.107   2.110   0.269  0.0000  0.0000  0.0000
 7014OM     OM1 7014   6.937   2.273   0.390  0.0000  0.0000  0.0000
 7015OM     OM1 7015   6.950   2.259   0.134  0.0000  0.0000  0.0000
 7016OM     OM1 7016   7.150   2.373   0.265  0.0000  0.0000  0.0000
 7017OM     OM1 7017   7.105   5.675   9.235  0.0000  0.0000  0.0000
 7018OM     OM1 7018   6.860   5.751   9.202  0.0000  0.0000  0.0000
 7019OM     OM1 7019   5.936   8.918   1.159  0.0000  0.0000  0.0000
 7020OM     OM1 7020   6.081   9.117   1.259  0.0000  0.0000  0.0000
 7021OM     OM1 7021   8.212   7.089   0.754  0.0000  0.0000  0.0000
 7022OM     OM1 7022   8.224   7.166   0.508  0.0000  0.0000  0.0000
 7023OM     OM1 7023   8.398   7.257   0.711  0.0000  0.0000  0.0000
 7024OM     OM1 7024   2.050   3.967   0.592  0.0000  0.0000  0.0000
 7025OM     OM1 7025   2.138   4.045   0.837  0.0000  0.0000  0.0000
 7026OM     OM1 7026   2.199   4.174   0.625  0.0000  0.0000  0.0000
 7027OM     OM1 7027   1.953   4.171   0.710  0.0000  0.0000  0.0000
 7028OM     OM1 7028   2.154   6.577   0.602  0.0000  0.0000  0.0000
 7029OM     OM1 7029   2.092   6.400   0.793  0.0000  0.0000  0.0000
 7030OM     OM1 7030   2.237   6.615   0.841  0.0000  0.0000  0.0000
 7031OM     OM1 7031   1.986   6.649   0.779  0.0000  0.0000  0.0000
 7032OM     OM1 7032   3.224   4.147   0.121  0.0000  0.0000  0.0000
 7033OM     OM1 7033   3.146   4.113   0.356  0.0000  0.0000  0.0000
 7034OM     OM1 7034   3.026   4.292   0.224  0.0000  0.0000  0.0000
 7035OM     OM1 7035   5.283   3.408   8.541  0.0000  0.0000  0.0000
 7036OM     OM1 7036   5.215   3.598   8.377  0.0000  0.0000  0.0000
 7037OM     OM1 7037   5.247   3.335   8.293  0.0000  0.0000  0.0000
 7038OM     OM1 7038   8.741   8.579   9.025  0.0000  0.0000  0.0000
 7039OM     OM1 7039   8.937   8.417   9.051  0.0000  0.0000  0.0000
 7040OM     OM1 7040   8.902   8.560   8.835  0.0000  0.0000  0.0000
 7041OM     OM1 7041   8.975   8.690   9.045  0.0000  0.0000  0.0000
 7042OM     OM1 7042   3.197   4.835   8.914  0.0000  0.0000  0.0000
 7043OM     OM1 7043   3.280   4.596   8.988  0.0000  0.0000  0.0000
 7044OM     OM1 7044   3.792   5.053   8.916  0.0000  0.0000  0.0000
 7045OM     OM1 7045   3.851   4.863   8.737  0.0000  0.0000  0.0000
 7046OM     OM1 7046   4.006   4.917   8.939  0.0000  0.0000  0.0000
 7047OM     OM1 7047   5.904   3.196   9.315  0.0000  0.0000  0.0000
 7048OM     OM1 7048   6.127   3.119   9.429  0.0000  0.0000  0.0000
 7049OM     OM1 7049   6.052   3.037   9.186  0.0000  0.0000  0.0000
 7050OM     OM1 7050   6.131   3.284   9.230  0.0000  0.0000  0.0000
 7051OM     OM1 7051   7.718   1.068   9.461  0.0000  0.0000  0.0000
 7052OM     OM1 7052   2.508   0.589   8.370  0.0000  0.0000  0.0000
 7053OM     OM1 7053   4.911   4.154   0.498  0.0000  0.0000  0.0000
 7054OM     OM1 7054   5.040   4.006   0.337  0.0000  0.0000  0.0000
 7055OM     OM1 7055   0.737   3.934   0.898  0.0000  0.0000  0.0000
 7056OM     OM1 7056   8.867   4.649   0.072  0.0000  0.0000  0.0000
 7057OM     OM1 7057   8.671   4.522   9.534  0.0000  0.0000  0.0000
 7058OM     OM1 7058   5.566   2.316   0.251  0.0000  0.0000  0.0000
 7059OM     OM1 7059   5.652   2.384   0.023  0.0000  0.0000  0.0000
 7060OM     OM1 7060   5.647   2.565   0.215  0.0000  0.0000  0.0000
 7061OM     OM1 7061   3.345   4.050   1.014  0.0000  0.0000  0.0000
 7062OM     OM1 7062   3.573   4.033   0.915  0.0000  0.0000  0.0000
 7063OM     OM1 7063   3.324   4.313   0.971  0.0000  0.0000  0.0000
 7064OM     OM1 7064   3.539   4.097   1.174  0.0000  0.0000  0.0000
 7065OM     OM1 7065   8.240   1.664   8.359  0.0000  0.0000  0.0000
 7066OM     OM1 7066   8.032   1.626   8.221  0.0000  0.0000  0.0000
 7067OM     OM1 7067   5.540   3.925   8.685  0.0000  0.0000  0.0000
 7068OM     OM1 7068   5.556   3.660   8.728  0.0000  0.0000  0.0000
 7069OM     OM1 7069   5.570   3.818   8.927  0.0000  0.0000  0.0000
 7070OM     OM1 7070   5.341   3.792   8.786  0.0000  0.0000  0.0000
 7071OM     OM1 7071   9.311   5.408   8.648  0.0000  0.0000  0.0000
 7072OM     OM1 7072   9.473   5.204   8.670  0.0000  0.0000  0.0000
 7073OM     OM1 7073   9.442   5.339   8.442  0.0000  0.0000  0.0000
 7074OM     OM1 7074   2.324   3.579   0.549  0.0000  0.0000  0.0000
 7075OM     OM1 7075   2.282   3.603   0.800  0.0000  0.0000  0.0000
 7076OM     OM1 7076   2.116   3.721   0.632  0.0000  0.0000  0.0000
 7077OM     OM1 7077   7.664   7.575   9.043  0.0000  0.0000  0.0000
 7078OM     OM1 7078   7.469   7.712   8.934  0.0000  0.0000  0.0000
 7079OM     OM1 7079   0.455   4.716   9.564  0.0000  0.0000  0.0000
 7080OM     OM1 7080   0.705   4.704   9.531  0.0000  0.0000  0.0000
 7081OM     OM1 7081   0.565   4.495   9.486  0.0000  0.0000  0.0000
 7082OM     OM1 7082   0.928   4.848   9.526  0.0000  0.0000  0.0000
 7083OM     OM1 7083   7.663   5.528   8.853  0.0000  0.0000  0.0000
 7084OM     OM1 7084   7.843   5.563   9.023  0.0000  0.0000  0.0000
 7085OM     OM1 7085   5.086   0.562   0.880  0.0000  0.0000  0.0000
 7086OM     OM1 7086   5.053   0.812   0.945  0.0000  0.0000  0.0000
 7087OM     OM1 7087   2.727   4.035   9.443  0.0000  0.0000  0.0000
 7088OM     OM1 7088   2.519   3.911   9.505  0.0000  0.0000  0.0000
 7089OM     OM1 7089   2.618   4.079   0.078  0.0000  0.0000  0.0000
 7090OM     OM1 7090   2.572   4.650   8.907  0.0000  0.0000  0.0000
 7091OM     OM1 7091   2.687   5.069   9.091  0.0000  0.0000  0.0000
 7092OM     OM1 7092   2.745   4.819   9.014  0.0000  0.0000  0.0000
 7093OM     OM1 7093   2.813   4.629   8.837  0.0000  0.0000  0.0000
 7094OM     OM1 7094   2.361   1.348   8.358  0.0000  0.0000  0.0000
 7095OM     OM1 7095   3.893   5.211   0.716  0.0000  0.0000  0.0000
 7096OM     OM1 7096   3.901   4.970   0.821  0.0000  0.0000  0.0000
 7097OM     OM1 7097   4.082   5.149   0.884  0.0000  0.0000  0.0000
 7098OM     OM1 7098   1.338   5.274   8.435  0.0000  0.0000  0.0000
 7099OM     OM1 7099   6.469   9.490   8.400  0.0000  0.0000  0.0000
 7100OM     OM1 7100   6.383   9.445   8.647  0.0000  0.0000  0.0000
 7101OM     OM1 7101   5.342   4.361   8.953  0.0000  0.0000  0.0000
 7102OM     OM1 7102   5.149   4.529   8.965  0.0000  0.0000  0.0000
 7103OM     OM1 7103   4.710   1.986   9.182  0.0000  0.0000  0.0000
 7104OM     OM1 7104   4.963   2.024   9.176  0.0000  0.0000  0.0000
 7105OM     OM1 7105   4.925   5.982   8.922  0.0000  0.0000  0.0000
 7106OM     OM1 7106   4.762   5.875   8.744  0.0000  0.0000  0.0000
 7107OM     OM1 7107   4.744   6.127   8.809  0.0000  0.0000  0.0000
 7108OM     OM1 7108   8.807   1.156   8.706  0.0000  0.0000  0.0000
 7109OM     OM1 7109   8.588   1.139   8.573  0.0000  0.0000  0.0000
 7110OM     OM1 7110   8.647   0.959   8.747  0.0000  0.0000  0.0000
 7111OM     OM1 7111   8.583   1.209   8.830  0.0000  0.0000  0.0000
 7112OM     OM1 7112   7.171   3.043   1.149  0.0000  0.0000  0.0000
 7113OM     OM1 7113   6.988   3.073   1.333  0.0000  0.0000  0.0000
 7114OM     OM1 7114   7.074   2.837   1.263  0.0000  0.0000  0.0000
 7115OM     OM1 7115   1.968   7.249   9.564  0.0000  0.0000  0.0000
 7116OM     OM1 7116   1.971   7.359   9.326  0.0000  0.0000  0.0000
 7117OM     OM1 7117   2.194   7.287   9.449  0.0000  0.0000  0.0000
 7118OM     OM1 7118   1.474   8.204   0.039  0.0000  0.0000  0.0000
 7119OM     OM1 7119   1.505   8.283   0.289  0.0000  0.0000  0.0000
 7120OM     OM1 7120   1.613   8.418   0.106  0.0000  0.0000  0.0000
 7121OM     OM1 7121   7.228   9.403   0.314  0.0000  0.0000  0.0000
 7122OM     OM1 7122   7.049   9.542   0.176  0.0000  0.0000  0.0000
 7123OM     OM1 7123   7.299   9.513   0.089  0.0000  0.0000  0.0000
 7124OM     OM1 7124   1.015   9.561   0.905  0.0000  0.0000  0.0000
 7125OM     OM1 7125   1.248   0.076   0.908  0.0000  0.0000  0.0000
 7126OM     OM1 7126   0.786   9.549   1.031  0.0000  0.0000  0.0000
 7127OM     OM1 7127   1.400   7.551   1.067  0.0000  0.0000  0.0000
 7128OM     OM1 7128   1.529   7.544   0.841  0.0000  0.0000  0.0000
 7129OM     OM1 7129   1.335   7.716   0.861  0.0000  0.0000  0.0000
 7130OM     OM1 7130   1.560   7.743   0.995  0.0000  0.0000  0.0000
 7131OM     OM1 7131   4.909   7.323   8.804  0.0000  0.0000  0.0000
 7132OM     OM1 7132   4.852   7.124   8.651  0.0000  0.0000  0.0000
 7133OM     OM1 7133   8.472   8.110   0.888  0.0000  0.0000  0.0000
 7134OM     OM1 7134   8.273   8.247   0.957  0.0000  0.0000  0.0000
 7135OM     OM1 7135   2.370   8.671   8.739  0.0000  0.0000  0.0000
 7136OM     OM1 7136   2.173   8.588   8.590  0.0000  0.0000  0.0000
 7137OM     OM1 7137   2.227   8.462   8.809  0.0000  0.0000  0.0000
 7138OM     OM1 7138   3.938   6.572   8.821  0.0000  0.0000  0.0000
 7139OM     OM1 7139   3.711   6.470   8.882  0.0000  0.0000  0.0000
 7140OM     OM1 7140   3.737   6.646   8.692  0.0000  0.0000  0.0000
 7141OM     OM1 7141   6.785   0.543   8.292  0.0000  0.0000  0.0000
 7142OM     OM1 7142   6.637   0.322   8.305  0.0000  0.0000  0.0000
 7143OM     OM1 7143   1.167   6.589   0.932  0.0000  0.0000  0.0000
 7144OM     OM1 7144   1.023   6.983   0.880  0.0000  0.0000  0.0000
 7145OM     OM1 7145   0.908   6.532   0.959  0.0000  0.0000  0.0000
 7146OM     OM1 7146   3.804   6.280   8.722  0.0000  0.0000  0.0000
 7147OM     OM1 7147   3.847   6.049   8.607  0.0000  0.0000  0.0000
 7148OM     OM1 7148   4.030   6.245   8.582  0.0000  0.0000  0.0000
 7149OM     OM1 7149   5.133   7.690   0.626  0.0000  0.0000  0.0000
 7150OM     OM1 7150   5.220   7.648   0.865  0.0000  0.0000  0.0000
 7151OM     OM1 7151   5.318   7.850   0.722  0.0000  0.0000  0.0000
 7152OM     OM1 7152   6.065   2.719   0.486  0.0000  0.0000  0.0000
 7153OM     OM1 7153   6.985   0.637   1.187  0.0000  0.0000  0.0000
 7154OM     OM1 7154   7.152   0.826   1.270  0.0000  0.0000  0.0000
 7155OM     OM1 7155   2.720   5.345   0.231  0.0000  0.0000  0.0000
 7156OM     OM1 7156   2.895   5.529   0.192  0.0000  0.0000  0.0000
 7157OM     OM1 7157   2.995   5.296   0.226  0.0000  0.0000  0.0000
 7158OM     OM1 7158   7.578   1.412   8.660  0.0000  0.0000  0.0000
 7159OM     OM1 7159   7.701   1.290   8.458  0.0000  0.0000  0.0000
 7160OM     OM1 7160   7.444   1.242   8.521  0.0000  0.0000  0.0000
 7161OM     OM1 7161   7.649   1.165   8.678  0.0000  0.0000  0.0000
 7162OM     OM1 7162   1.829   6.534   0.618  0.0000  0.0000  0.0000
 7163OM     OM1 7163   1.897   6.769   0.554  0.0000  0.0000  0.0000
 7164OM     OM1 7164   2.719   8.796   0.661  0.0000  0.0000  0.0000
 7165OM     OM1 7165   2.949   8.918   0.618  0.0000  0.0000  0.0000
 7166OM     OM1 7166   2.744   9.057   0.685  0.0000  0.0000  0.0000
 7167OM     OM1 7167   7.119   0.634   0.426  0.0000  0.0000  0.0000
 7168OM     OM1 7168   7.394   4.490   1.089  0.0000  0.0000  0.0000
 7169OM     OM1 7169   7.446   4.234   1.096  0.0000  0.0000  0.0000
 7170OM     OM1 7170   7.589   4.403   1.228  0.0000  0.0000  0.0000
 7171OM     OM1 7171   7.279   6.966   8.420  0.0000  0.0000  0.0000
 7172OM     OM1 7172   4.333   6.138   9.060  0.0000  0.0000  0.0000
 7173OM     OM1 7173   4.271   5.884   9.060  0.0000  0.0000  0.0000
 7174OM     OM1 7174   4.087   6.068   9.065  0.0000  0.0000  0.0000
 7175OM     OM1 7175   7.006   5.060   9.167  0.0000  0.0000  0.0000
 7176OM     OM1 7176   7.082   5.009   8.917  0.0000  0.0000  0.0000
 7177OM     OM1 7177   6.904   4.861   9.048  0.0000  0.0000  0.0000
 7178OM     OM1 7178   7.830   4.561   0.360  0.0000  0.0000  0.0000
 7179OM     OM1 7179   7.960   4.457   0.172  0.0000  0.0000  0.0000
 7180OM     OM1 7180   3.737   2.647   8.283  0.0000  0.0000  0.0000
 7181OM     OM1 7181   5.407   8.527   1.043  0.0000  0.0000  0.0000
 7182OM     OM1 7182   5.409   8.267   1.061  0.0000  0.0000  0.0000
 7183OM     OM1 7183   0.506   2.276   9.493  0.0000  0.0000  0.0000
 7184OM     OM1 7184   2.371   9.358   1.120  0.0000  0.0000  0.0000
 7185OM     OM1 7185   2.591   9.454   1.034  0.0000  0.0000  0.0000
 7186OM     OM1 7186   5.388   8.032   9.004  0.0000  0.0000  0.0000
 7187OM     OM1 7187   5.210   7.963   8.806  0.0000  0.0000  0.0000
 7188OM     OM1 7188   5.430   7.828   8.861  0.0000  0.0000  0.0000
 7189OM     OM1 7189   5.440   8.074   8.761  0.0000  0.0000  0.0000
 7190OM     OM1 7190   8.394   3.494   9.073  0.0000  0.0000  0.0000
 7191OM     OM1 7191   8.223   3.294   8.988  0.0000  0.0000  0.0000
 7192OM     OM1 7192   8.137   3.497   9.108  0.0000  0.0000  0.0000
 7193OM     OM1 7193   8.243   3.536   8.874  0.0000  0.0000  0.0000
 7194OM     OM1 7194   3.737   5.949   1.084  0.0000  0.0000  0.0000
 7195OM     OM1 7195   3.546   6.107   1.029  0.0000  0.0000  0.0000
 7196OM     OM1 7196   3.547   6.559   9.266  0.0000  0.0000  0.0000
 7197OM     OM1 7197   3.745   6.568   9.421  0.0000  0.0000  0.0000
 7198OM     OM1 7198   4.296   6.974   8.339  0.0000  0.0000  0.0000
 7199OM     OM1 7199   5.539   1.305   8.611  0.0000  0.0000  0.0000
 7200OM     OM1 7200   5.342   1.383   8.450  0.0000  0.0000  0.0000
 7201OM     OM1 7201   3.029   7.799   9.154  0.0000  0.0000  0.0000
 7202OM     OM1 7202   2.932   7.950   9.349  0.0000  0.0000  0.0000
 7203OM     OM1 7203   6.270   8.830   0.759  0.0000  0.0000  0.0000
 7204OM     OM1 7204   6.093   8.825   0.962  0.0000  0.0000  0.0000
 7205OM     OM1 7205   2.413   1.227   0.602  0.0000  0.0000  0.0000
 7206OM     OM1 7206   2.380   1.318   0.354  0.0000  0.0000  0.0000
 7207OM     OM1 7207   5.866   4.714   9.221  0.0000  0.0000  0.0000
 7208OM     OM1 7208   5.966   4.753   8.988  0.0000  0.0000  0.0000
 7209OM     OM1 7209   2.680   6.902   8.371  0.0000  0.0000  0.0000
 7210OM     OM1 7210   7.180   9.603   9.485  0.0000  0.0000  0.0000
 7211OM     OM1 7211   7.442   9.559   9.472  0.0000  0.0000  0.0000
 7212OM     OM1 7212   7.258   9.366   9.482  0.0000  0.0000  0.0000
 7213OM     OM1 7213   1.584   3.819   9.480  0.0000  0.0000  0.0000
 7214OM     OM1 7214   5.952   3.840   0.038  0.0000  0.0000  0.0000
 7215OM     OM1 7215   6.225   3.836   0.113  0.0000  0.0000  0.0000
 7216OM     OM1 7216   6.054   3.883   9.419  0.0000  0.0000  0.0000
 7217OM     OM1 7217   5.638   2.952   1.281  0.0000  0.0000  0.0000
 7218OM     OM1 7218   6.072   5.784   8.467  0.0000  0.0000  0.0000
 7219OM     OM1 7219   5.861   5.656   8.420  0.0000  0.0000  0.0000
 7220OM     OM1 7220   5.841   5.910   8.492  0.0000  0.0000  0.0000
 7221OM     OM1 7221   5.899   5.737   8.669  0.0000  0.0000  0.0000
 7222OM     OM1 7222   1.183   0.242   1.097  0.0000  0.0000  0.0000
 7223OM     OM1 7223   1.176   0.407   1.289  0.0000  0.0000  0.0000
 7224OM     OM1 7224   2.484   6.030   8.624  0.0000  0.0000  0.0000
 7225OM     OM1 7225   2.666   5.857   8.693  0.0000  0.0000  0.0000
 7226OM     OM1 7226   2.920   5.837   8.638  0.0000  0.0000  0.0000
 7227OM     OM1 7227   1.015   1.664   0.255  0.0000  0.0000  0.0000
 7228OM     OM1 7228   1.356   8.074   0.786  0.0000  0.0000  0.0000
 7229OM     OM1 7229   1.127   7.985   0.920  0.0000  0.0000  0.0000
 7230OM     OM1 7230   1.111   8.144   0.734  0.0000  0.0000  0.0000
 7231OM     OM1 7231   1.201   7.887   0.703  0.0000  0.0000  0.0000
 7232OM     OM1 7232   7.597   2.608   8.542  0.0000  0.0000  0.0000
 7233OM     OM1 7233   7.596   2.594   8.807  0.0000  0.0000  0.0000
 7234OM     OM1 7234   7.379   2.631   8.667  0.0000  0.0000  0.0000
 7235OM     OM1 7235   2.898   1.325   9.428  0.0000  0.0000  0.0000
 7236OM     OM1 7236   3.030   1.136   9.525  0.0000  0.0000  0.0000
 7237OM     OM1 7237   3.057   1.321   0.296  0.0000  0.0000  0.0000
 7238OM     OM1 7238   7.398   2.399   0.759  0.0000  0.0000  0.0000
 7239OM     OM1 7239   7.371   2.648   0.699  0.0000  0.0000  0.0000
 7240OM     OM1 7240   0.764   1.779   9.183  0.0000  0.0000  0.0000
 7241OM     OM1 7241   0.570   1.756   9.341  0.0000  0.0000  0.0000
 7242OM     OM1 7242   0.334   1.807   9.442  0.0000  0.0000  0.0000
 7243OM     OM1 7243   7.065   2.119   8.882  0.0000  0.0000  0.0000
 7244OM     OM1 7244   6.851   2.025   8.775  0.0000  0.0000  0.0000
 7245OM     OM1 7245   4.701   9.112   0.975  0.0000  0.0000  0.0000
 7246OM     OM1 7246   4.694   8.888   0.858  0.0000  0.0000  0.0000
 7247OM     OM1 7247   3.102   4.304   8.607  0.0000  0.0000  0.0000
 7248OM     OM1 7248   2.868   4.354   8.519  0.0000  0.0000  0.0000
 7249OM     OM1 7249   2.991   4.537   8.657  0.0000  0.0000  0.0000
 7250OM     OM1 7250   3.080   4.478   8.415  0.0000  0.0000  0.0000
 7251OM     OM1 7251   1.975   1.174   8.757  0.0000  0.0000  0.0000
 7252OM     OM1 7252   1.845   1.111   8.963  0.0000  0.0000  0.0000
 7253OM     OM1 7253   8.328   3.743   8.725  0.0000  0.0000  0.0000
 7254OM     OM1 7254   1.052   0.844   0.941  0.0000  0.0000  0.0000
 7255OM     OM1 7255   9.593   9.360   8.595  0.0000  0.0000  0.0000
 7256OM     OM1 7256   9.440   9.488   8.753  0.0000  0.0000  0.0000
 7257OM     OM1 7257   6.425   2.067   1.284  0.0000  0.0000  0.0000
 7258OM     OM1 7258   2.216   0.110   8.920  0.0000  0.0000  0.0000
 7259OM     OM1 7259   2.263   0.096   9.179  0.0000  0.0000  0.0000
 7260OM     OM1 7260   9.513   4.097   8.845  0.0000  0.0000  0.0000
 7261OM     OM1 7261   9.464   3.977   9.062  0.0000  0.0000  0.0000
 7262OM     OM1 7262   4.951   5.388   8.424  0.0000  0.0000  0.0000
 7263OM     OM1 7263   4.821   5.182   8.337  0.0000  0.0000  0.0000
 7264OM     OM1 7264   5.070   5.150   8.399  0.0000  0.0000  0.0000
 7265OM     OM1 7265   7.423   5.530   0.420  0.0000  0.0000  0.0000
 7266OM     OM1 7266   7.393   5.389   0.631  0.0000  0.0000  0.0000
 7267OM     OM1 7267   2.299   4.260   8.553  0.0000  0.0000  0.0000
 7268OM     OM1 7268   0.038   8.923   1.315  0.0000  0.0000  0.0000
 7269OM     OM1 7269   6.637   2.571   0.571  0.0000  0.0000  0.0000
 7270OM     OM1 7270   6.504   2.462   0.382  0.0000  0.0000  0.0000
 7271OM     OM1 7271   7.999   5.383   9.148  0.0000  0.0000  0.0000
 7272OM     OM1 7272   8.099   5.192   9.001  0.0000  0.0000  0.0000
 7273OM     OM1 7273   8.140   5.181   9.249  0.0000  0.0000  0.0000
 7274OM     OM1 7274   8.247   5.386   9.113  0.0000  0.0000  0.0000
 7275OM     OM1 7275   9.012   1.303   0.143  0.0000  0.0000  0.0000
 7276OM     OM1 7276   9.239   1.216   0.073  0.0000  0.0000  0.0000
 7277OM     OM1 7277   8.108   0.881   0.739  0.0000  0.0000  0.0000
 7278OM     OM1 7278   7.941   0.843   1.176  0.0000  0.0000  0.0000
 7279OM     OM1 7279   8.049   0.762   0.959  0.0000  0.0000  0.0000
 7280OM     OM1 7280   7.789   0.802   0.967  0.0000  0.0000  0.0000
 7281OM     OM1 7281   1.124   9.031   9.139  0.0000  0.0000  0.0000
 7282OM     OM1 7282   1.180   8.921   9.371  0.0000  0.0000  0.0000
 7283OM     OM1 7283   1.059   9.401   9.467  0.0000  0.0000  0.0000
 7284OM     OM1 7284   0.123   9.038   1.099  0.0000  0.0000  0.0000
 7285OM     OM1 7285   0.287   8.970   1.295  0.0000  0.0000  0.0000
 7286OM     OM1 7286   0.106   9.169   1.329  0.0000  0.0000  0.0000
 7287OM     OM1 7287   1.321   0.634   1.321  0.0000  0.0000  0.0000
 7288OM     OM1 7288   1.188   0.829   1.426  0.0000  0.0000  0.0000
 7289OM     OM1 7289   4.506   0.020   8.706  0.0000  0.0000  0.0000
 7290OM     OM1 7290   4.395   9.415   8.820  0.0000  0.0000  0.0000
 7291OM     OM1 7291   4.440   9.495   8.491  0.0000  0.0000  0.0000
 7292OM     OM1 7292   8.927   3.678   9.395  0.0000  0.0000  0.0000
 7293OM     OM1 7293   8.703   3.784   9.375  0.0000  0.0000  0.0000
 7294OM     OM1 7294   8.846   3.862   9.582  0.0000  0.0000  0.0000
 7295OM     OM1 7295   5.472   0.406   0.325  0.0000  0.0000  0.0000
 7296OM     OM1 7296   5.544   0.620   0.459  0.0000  0.0000  0.0000
 7297OM     OM1 7297   5.291   0.566   0.425  0.0000  0.0000  0.0000
 7298OM     OM1 7298   4.334   7.356   9.571  0.0000  0.0000  0.0000
 7299OM     OM1 7299   4.142   7.444   0.118  0.0000  0.0000  0.0000
 7300OM     OM1 7300   4.222   7.206   0.166  0.0000  0.0000  0.0000
 7301OM     OM1 7301   5.292   1.587   8.292  0.0000  0.0000  0.0000
 7302OM     OM1 7302   5.151   1.770   8.170  0.0000  0.0000  0.0000
 7303OM     OM1 7303   0.512   2.096   8.925  0.0000  0.0000  0.0000
 7304OM     OM1 7304   0.570   1.851   9.002  0.0000  0.0000  0.0000
 7305OM     OM1 7305   0.345   1.948   9.076  0.0000  0.0000  0.0000
 7306OM     OM1 7306   0.633   4.579   9.238  0.0000  0.0000  0.0000
 7307OM     OM1 7307   0.616   4.695   8.996  0.0000  0.0000  0.0000
 7308OM     OM1 7308   0.804   4.523   9.039  0.0000  0.0000  0.0000
 7309OM     OM1 7309   5.428   2.367   8.326  0.0000  0.0000  0.0000
 7310OM     OM1 7310   5.292   2.588   8.340  0.0000  0.0000  0.0000
 7311OM     OM1 7311   5.553   2.583   8.255  0.0000  0.0000  0.0000
 7312OM     OM1 7312   5.490   2.561   8.499  0.0000  0.0000  0.0000
 7313OM     OM1 7313   5.560   7.951   0.729  0.0000  0.0000  0.0000
 7314OM     OM1 7314   5.469   7.853   0.512  0.0000  0.0000  0.0000
 7315OM     OM1 7315   6.102   7.643   0.691  0.0000  0.0000  0.0000
 7316OM     OM1 7316   6.329   7.764   0.763  0.0000  0.0000  0.0000
 7317OM     OM1 7317   3.178   9.061   0.969  0.0000  0.0000  0.0000
 7318OM     OM1 7318   3.299   8.924   0.776  0.0000  0.0000  0.0000
 7319OM     OM1 7319   0.596   4.369   0.788  0.0000  0.0000  0.0000
 7320OM     OM1 7320   0.404   4.188   0.785  0.0000  0.0000  0.0000
 7321OM     OM1 7321   5.803   1.529   8.957  0.0000  0.0000  0.0000
 7322OM     OM1 7322   5.581   1.434   9.022  0.0000  0.0000  0.0000
 7323OM     OM1 7323   0.405   6.981   0.746  0.0000  0.0000  0.0000
 7324OM     OM1 7324   0.253   7.042   0.539  0.0000  0.0000  0.0000
 7325OM     OM1 7325   0.535   6.806   0.604  0.0000  0.0000  0.0000
 7326OM     OM1 7326   7.742   4.306   9.229  0.0000  0.0000  0.0000
 7327OM     OM1 7327   7.590   4.638   9.123  0.0000  0.0000  0.0000
 7328OM     OM1 7328   7.753   4.564   9.298  0.0000  0.0000  0.0000
 7329OM     OM1 7329   1.039   9.413   0.120  0.0000  0.0000  0.0000
 7330OM     OM1 7330   5.471   1.902   0.059  0.0000  0.0000  0.0000
 7331OM     OM1 7331   4.126   1.206   8.846  0.0000  0.0000  0.0000
 7332OM     OM1 7332   3.895   1.217   8.973  0.0000  0.0000  0.0000
 7333OM     OM1 7333   3.913   1.065   8.762  0.0000  0.0000  0.0000
 7334OM     OM1 7334   6.996   7.629   8.788  0.0000  0.0000  0.0000
 7335OM     OM1 7335   7.160   7.489   8.655  0.0000  0.0000  0.0000
 7336OM     OM1 7336   7.116   7.750   8.584  0.0000  0.0000  0.0000
 7337OM     OM1 7337   7.259   7.685   8.784  0.0000  0.0000  0.0000
 7338OM     OM1 7338   3.105   2.329   9.171  0.0000  0.0000  0.0000
 7339OM     OM1 7339   3.294   2.303   8.984  0.0000  0.0000  0.0000
 7340OM     OM1 7340   3.076   2.174   8.957  0.0000  0.0000  0.0000
 7341OM     OM1 7341   4.948   3.147   8.352  0.0000  0.0000  0.0000
 7342OM     OM1 7342   4.760   3.319   8.308  0.0000  0.0000  0.0000
 7343OM     OM1 7343   4.768   3.576   8.334  0.0000  0.0000  0.0000
 7344OM     OM1 7344   4.818   3.423   8.540  0.0000  0.0000  0.0000
 7345OM     OM1 7345   8.286   6.844   0.825  0.0000  0.0000  0.0000
 7346OM     OM1 7346   8.146   6.725   0.653  0.0000  0.0000  0.0000
 7347OM     OM1 7347   8.405   6.741   0.623  0.0000  0.0000  0.0000
 7348OM     OM1 7348   0.213   9.255   1.002  0.0000  0.0000  0.0000
 7349OM     OM1 7349   0.092   9.096   0.829  0.0000  0.0000  0.0000
 7350OM     OM1 7350   0.315   9.024   0.925  0.0000  0.0000  0.0000
 7351OM     OM1 7351   4.610   1.668   9.236  0.0000  0.0000  0.0000
 7352OM     OM1 7352   4.663   1.429   9.262  0.0000  0.0000  0.0000
 7353OM     OM1 7353   4.515   1.498   9.052  0.0000  0.0000  0.0000
 7354OM     OM1 7354   2.788   7.931   0.230  0.0000  0.0000  0.0000
 7355OM     OM1 7355   2.974   7.974   0.411  0.0000  0.0000  0.0000
 7356OM     OM1 7356   2.724   8.064   0.438  0.0000  0.0000  0.0000
 7357OM     OM1 7357   1.590   7.321   9.443  0.0000  0.0000  0.0000
 7358OM     OM1 7358   1.213   7.187   9.546  0.0000  0.0000  0.0000
 7359OM     OM1 7359   1.368   7.240   9.338  0.0000  0.0000  0.0000
 7360OM     OM1 7360   4.233   8.062   0.254  0.0000  0.0000  0.0000
 7361OM     OM1 7361   4.453   8.047   0.410  0.0000  0.0000  0.0000
 7362OM     OM1 7362   4.220   7.958   0.488  0.0000  0.0000  0.0000
 7363OM     OM1 7363   1.514   8.660   1.367  0.0000  0.0000  0.0000
 7364OM     OM1 7364   1.318   8.676   1.204  0.0000  0.0000  0.0000
 7365OM     OM1 7365   1.452   8.884   1.236  0.0000  0.0000  0.0000
 7366OM     OM1 7366   0.392   5.437   0.405  0.0000  0.0000  0.0000
 7367OM     OM1 7367   5.253   2.515   9.093  0.0000  0.0000  0.0000
 7368OM     OM1 7368   5.244   2.869   8.806  0.0000  0.0000  0.0000
 7369OM     OM1 7369   0.137   9.116   8.390  0.0000  0.0000  0.0000
 7370OM     OM1 7370   2.670   3.106   9.541  0.0000  0.0000  0.0000
 7371OM     OM1 7371   2.364   3.344   9.485  0.0000  0.0000  0.0000
 7372OM     OM1 7372   2.468   2.970   0.043  0.0000  0.0000  0.0000
 7373OM     OM1 7373   0.614   9.209   0.436  0.0000  0.0000  0.0000
 7374OM     OM1 7374   0.810   9.465   0.772  0.0000  0.0000  0.0000
 7375OM     OM1 7375   8.882   5.877   8.524  0.0000  0.0000  0.0000
 7376OM     OM1 7376   9.083   5.981   8.389  0.0000  0.0000  0.0000
 7377OM     OM1 7377   0.879   8.292   0.409  0.0000  0.0000  0.0000
 7378OM     OM1 7378   0.952   8.313   0.157  0.0000  0.0000  0.0000
 7379OM     OM1 7379   0.975   8.082   0.284  0.0000  0.0000  0.0000
 7380OM     OM1 7380   0.739   8.176   0.225  0.0000  0.0000  0.0000
 7381OM     OM1 7381   6.770   5.312   0.515  0.0000  0.0000  0.0000
 7382OM     OM1 7382   6.587   5.300   0.338  0.0000  0.0000  0.0000
 7383OM     OM1 7383   6.310   8.121   0.795  0.0000  0.0000  0.0000
 7384OM     OM1 7384   2.225   3.142   9.377  0.0000  0.0000  0.0000
 7385OM     OM1 7385   2.268   2.898   9.277  0.0000  0.0000  0.0000
 7386OM     OM1 7386   2.149   3.082   9.138  0.0000  0.0000  0.0000
 7387OM     OM1 7387   2.031   2.963   9.340  0.0000  0.0000  0.0000
 7388OM     OM1 7388   1.463   8.591   9.318  0.0000  0.0000  0.0000
 7389OM     OM1 7389   1.673   8.735   9.225  0.0000  0.0000  0.0000
 7390OM     OM1 7390   8.301   7.015   0.321  0.0000  0.0000  0.0000
 7391OM     OM1 7391   8.176   7.238   0.256  0.0000  0.0000  0.0000
 7392OM     OM1 7392   0.980   3.304   8.772  0.0000  0.0000  0.0000
 7393OM     OM1 7393   1.072   3.071   8.826  0.0000  0.0000  0.0000
 7394OM     OM1 7394   0.849   5.527   8.843  0.0000  0.0000  0.0000
 7395OM     OM1 7395   0.954   5.320   8.953  0.0000  0.0000  0.0000
 7396OM     OM1 7396   1.038   5.399   8.713  0.0000  0.0000  0.0000
 7397OM     OM1 7397   5.617   2.169   0.463  0.0000  0.0000  0.0000
 7398OM     OM1 7398   5.602   1.921   0.534  0.0000  0.0000  0.0000
 7399OM     OM1 7399   9.085   0.494   8.350  0.0000  0.0000  0.0000
 7400OM     OM1 7400   8.877   0.547   8.504  0.0000  0.0000  0.0000
 7401OM     OM1 7401   7.456   3.804   9.227  0.0000  0.0000  0.0000
 7402OM     OM1 7402   7.541   3.558   9.302  0.0000  0.0000  0.0000
 7403OM     OM1 7403   7.578   3.753   9.455  0.0000  0.0000  0.0000
 7404OM     OM1 7404   7.701   3.732   9.210  0.0000  0.0000  0.0000
 7405OM     OM1 7405   5.321   8.128   9.388  0.0000  0.0000  0.0000
 7406OM     OM1 7406   5.542   8.267   9.404  0.0000  0.0000  0.0000
 7407OM     OM1 7407   5.309   8.372   9.357  0.0000  0.0000  0.0000
 7408OM     OM1 7408   2.839   0.478   1.064  0.0000  0.0000  0.0000
 7409OM     OM1 7409   2.984   0.141   0.813  0.0000  0.0000  0.0000
 7410OM     OM1 7410   2.861   0.522   0.802  0.0000  0.0000  0.0000
 7411OM     OM1 7411   0.993   0.403   9.469  0.0000  0.0000  0.0000
 7412OM     OM1 7412   1.238   0.467   9.381  0.0000  0.0000  0.0000
 7413OM     OM1 7413   1.135   0.593   9.576  0.0000  0.0000  0.0000
 7414OM     OM1 7414   8.130   3.304   0.664  0.0000  0.0000  0.0000
 7415OM     OM1 7415   7.080   8.138   9.060  0.0000  0.0000  0.0000
 7416OM     OM1 7416   6.836   8.195   8.990  0.0000  0.0000  0.0000
 7417OM     OM1 7417   8.462   3.643   8.526  0.0000  0.0000  0.0000
 7418OM     OM1 7418   3.537   6.662   0.510  0.0000  0.0000  0.0000
 7419OM     OM1 7419   3.749   6.792   0.515  0.0000  0.0000  0.0000
 7420OM     OM1 7420   3.537   6.920   0.445  0.0000  0.0000  0.0000
 7421OM     OM1 7421   7.287   5.556   9.371  0.0000  0.0000  0.0000
 7422OM     OM1 7422   7.412   5.542   9.603  0.0000  0.0000  0.0000
 7423OM     OM1 7423   3.064   5.724   9.191  0.0000  0.0000  0.0000
 7424OM     OM1 7424   3.009   9.535   0.683  0.0000  0.0000  0.0000
 7425OM     OM1 7425   3.226   0.026   0.791  0.0000  0.0000  0.0000
 7426OM     OM1 7426   3.112   0.157   0.592  0.0000  0.0000  0.0000
 7427OM     OM1 7427   1.307   6.752   8.382  0.0000  0.0000  0.0000
 7428OM     OM1 7428   1.112   6.880   8.499  0.0000  0.0000  0.0000
 7429OM     OM1 7429   1.140   6.619   8.521  0.0000  0.0000  0.0000
 7430OM     OM1 7430   2.806   4.700   8.589  0.0000  0.0000  0.0000
 7431OM     OM1 7431   3.176   4.941   8.667  0.0000  0.0000  0.0000
 7432OM     OM1 7432   2.995   4.784   8.755  0.0000  0.0000  0.0000
 7433OM     OM1 7433   5.724   7.457   1.262  0.0000  0.0000  0.0000
 7434OM     OM1 7434   8.578   6.222   0.511  0.0000  0.0000  0.0000
 7435OM     OM1 7435   8.569   6.479   0.582  0.0000  0.0000  0.0000
 7436OM     OM1 7436   8.554   6.289   0.752  0.0000  0.0000  0.0000
 7437OM     OM1 7437   5.514   4.690   9.580  0.0000  0.0000  0.0000
 7438OM     OM1 7438   5.611   4.926   9.548  0.0000  0.0000  0.0000
 7439OM     OM1 7439   5.474   4.859   0.162  0.0000  0.0000  0.0000
 7440OM     OM1 7440   5.040   2.668   8.401  0.0000  0.0000  0.0000
 7441OM     OM1 7441   5.090   2.424   8.338  0.0000  0.0000  0.0000
 7442OM     OM1 7442   5.225   8.698   1.099  0.0000  0.0000  0.0000
 7443OM     OM1 7443   0.603   6.248   9.322  0.0000  0.0000  0.0000
 7444OM     OM1 7444   0.366   6.236   9.432  0.0000  0.0000  0.0000
 7445OM     OM1 7445   0.567   6.359   9.559  0.0000  0.0000  0.0000
 7446OM     OM1 7446   2.202   3.598   8.680  0.0000  0.0000  0.0000
 7447OM     OM1 7447   3.039   2.636   8.765  0.0000  0.0000  0.0000
 7448OM     OM1 7448   3.244   2.477   8.794  0.0000  0.0000  0.0000
 7449OM     OM1 7449   3.299   8.071   8.304  0.0000  0.0000  0.0000
 7450OM     OM1 7450   3.241   8.083   8.553  0.0000  0.0000  0.0000
 7451OM     OM1 7451   8.903   9.376   9.362  0.0000  0.0000  0.0000
 7452OM     OM1 7452   8.782   9.499   8.946  0.0000  0.0000  0.0000
 7453OM     OM1 7453   8.832   9.299   9.088  0.0000  0.0000  0.0000
 7454OM     OM1 7454   2.952   2.168   0.800  0.0000  0.0000  0.0000
 7455OM     OM1 7455   3.114   1.983   0.707  0.0000  0.0000  0.0000
 7456OM     OM1 7456   3.076   2.026   0.970  0.0000  0.0000  0.0000
 7457OM     OM1 7457   5.078   4.011   1.247  0.0000  0.0000  0.0000
 7458OM     OM1 7458   4.990   4.048   1.008  0.0000  0.0000  0.0000
 7459OM     OM1 7459   0.236   1.158   8.638  0.0000  0.0000  0.0000
 7460OM     OM1 7460   0.104   1.382   8.604  0.0000  0.0000  0.0000
 7461OM     OM1 7461   9.592   1.195   8.720  0.0000  0.0000  0.0000
 7462OM     OM1 7462   5.598   0.841   0.592  0.0000  0.0000  0.0000
 7463OM     OM1 7463   5.570   1.021   0.785  0.0000  0.0000  0.0000
 7464OM     OM1 7464   6.634   2.175   8.752  0.0000  0.0000  0.0000
 7465OM     OM1 7465   6.588   2.424   8.706  0.0000  0.0000  0.0000
 7466OM     OM1 7466   6.381   2.276   8.760  0.0000  0.0000  0.0000
 7467OM     OM1 7467   0.417   0.355   9.440  0.0000  0.0000  0.0000
 7468OM     OM1 7468   0.516   0.295   9.214  0.0000  0.0000  0.0000
 7469OM     OM1 7469   6.019   8.831   0.723  0.0000  0.0000  0.0000
 7470OM     OM1 7470   7.866   1.449   8.327  0.0000  0.0000  0.0000
 7471OM     OM1 7471   1.577   1.039   9.094  0.0000  0.0000  0.0000
 7472OM     OM1 7472   2.169   6.820   1.274  0.0000  0.0000  0.0000
 7473OM     OM1 7473   7.763   5.319   9.093  0.0000  0.0000  0.0000
 7474OM     OM1 7474   0.980   0.501   8.569  0.0000  0.0000  0.0000
 7475OM     OM1 7475   1.084   0.640   8.753  0.0000  0.0000  0.0000
 7476OM     OM1 7476   1.087   0.747   8.531  0.0000  0.0000  0.0000
 7477OM     OM1 7477   0.851   0.725   8.626  0.0000  0.0000  0.0000
 7478OM     OM1 7478   8.384   8.032   0.402  0.0000  0.0000  0.0000
 7479OM     OM1 7479   0.586   4.196   0.127  0.0000  0.0000  0.0000
 7480OM     OM1 7480   0.547   3.935   0.063  0.0000  0.0000  0.0000
 7481OM     OM1 7481   1.163   5.926   0.662  0.0000  0.0000  0.0000
 7482OM     OM1 7482   1.020   5.760   0.792  0.0000  0.0000  0.0000
 7483OM     OM1 7483   0.898   5.870   0.600  0.0000  0.0000  0.0000
 7484OM     OM1 7484   4.359   4.525   0.437  0.0000  0.0000  0.0000
 7485OM     OM1 7485   3.012   2.039   8.449  0.0000  0.0000  0.0000
 7486OM     OM1 7486   2.940   1.790   8.490  0.0000  0.0000  0.0000
 7487OM     OM1 7487   2.139   6.620   8.853  0.0000  0.0000  0.0000
 7488OM     OM1 7488   2.060   6.589   8.615  0.0000  0.0000  0.0000
 7489OM     OM1 7489   2.184   6.392   8.745  0.0000  0.0000  0.0000
 7490OM     OM1 7490   9.257   0.686   8.351  0.0000  0.0000  0.0000
 7491OM     OM1 7491   9.258   0.625   8.606  0.0000  0.0000  0.0000
 7492OM     OM1 7492   9.218   0.874   8.529  0.0000  0.0000  0.0000
 7493OM     OM1 7493   3.284   8.786   1.276  0.0000  0.0000  0.0000
 7494OM     OM1 7494   3.261   8.682   1.032  0.0000  0.0000  0.0000
 7495OM     OM1 7495   1.375   6.502   0.781  0.0000  0.0000  0.0000
 7496OM     OM1 7496   1.131   6.401   0.779  0.0000  0.0000  0.0000
 7497OM     OM1 7497   6.845   4.859   0.988  0.0000  0.0000  0.0000
 7498OM     OM1 7498   3.171   9.605   9.595  0.0000  0.0000  0.0000
 7499OM     OM1 7499   3.195   0.208   0.161  0.0000  0.0000  0.0000
 7500OM     OM1 7500   3.392   0.142   0.004  0.0000  0.0000  0.0000
 7501OM     OM1 7501   3.167   0.242   9.510  0.0000  0.0000  0.0000
 7502OM     OM1 7502   5.951   2.570   9.315  0.0000  0.0000  0.0000
 7503OM     OM1 7503   6.196   2.678   9.314  0.0000  0.0000  0.0000
 7504OM     OM1 7504   5.991   2.820   9.300  0.0000  0.0000  0.0000
 7505OM     OM1 7505   9.564   7.524   8.821  0.0000  0.0000  0.0000
 7506OM     OM1 7506   0.070   7.749   8.828  0.0000  0.0000  0.0000
 7507OM     OM1 7507   6.016   7.379   8.816  0.0000  0.0000  0.0000
 7508OM     OM1 7508   6.229   7.442   8.689  0.0000  0.0000  0.0000
 7509OM     OM1 7509   6.307   7.314   8.473  0.0000  0.0000  0.0000
 7510OM     OM1 7510   4.153   7.857   1.436  0.0000  0.0000  0.0000
 7511OM     OM1 7511   6.424   3.219   0.661  0.0000  0.0000  0.0000
 7512OM     OM1 7512   6.277   2.993   0.723  0.0000  0.0000  0.0000
 7513OM     OM1 7513   8.502   5.017   0.727  0.0000  0.0000  0.0000
 7514OM     OM1 7514   8.313   4.901   0.588  0.0000  0.0000  0.0000
 7515OM     OM1 7515   8.338   4.918   1.056  0.0000  0.0000  0.0000
 7516OM     OM1 7516   8.365   6.137   0.808  0.0000  0.0000  0.0000
 7517OM     OM1 7517   8.567   6.160   0.982  0.0000  0.0000  0.0000
 7518OM     OM1 7518   3.122   9.393   0.132  0.0000  0.0000  0.0000
 7519OM     OM1 7519   3.164   9.292   0.382  0.0000  0.0000  0.0000
 7520OM     OM1 7520   4.584   6.497   9.356  0.0000  0.0000  0.0000
 7521OM     OM1 7521   4.444   6.323   9.217  0.0000  0.0000  0.0000
 7522OM     OM1 7522   4.207   6.359   9.098  0.0000  0.0000  0.0000
 7523OM     OM1 7523   7.189   0.646   8.799  0.0000  0.0000  0.0000
 7524OM     OM1 7524   6.970   0.723   8.694  0.0000  0.0000  0.0000
 7525OM     OM1 7525   7.154   0.600   8.543  0.0000  0.0000  0.0000
 7526OM     OM1 7526   6.048   6.163   9.517  0.0000  0.0000  0.0000
 7527OM     OM1 7527   6.120   5.917   9.584  0.0000  0.0000  0.0000
 7528OM     OM1 7528   6.628   8.126   8.369  0.0000  0.0000  0.0000
 7529OM     OM1 7529   6.715   8.374   8.385  0.0000  0.0000  0.0000
 7530OM     OM1 7530   8.664   5.229   9.465  0.0000  0.0000  0.0000
 7531OM     OM1 7531   8.475   5.424   9.474  0.0000  0.0000  0.0000
 7532OM     OM1 7532   8.612   5.349   0.076  0.0000  0.0000  0.0000
 7533OM     OM1 7533   5.788   8.460   0.960  0.0000  0.0000  0.0000
 7534OM     OM1 7534   5.934   8.657   1.074  0.0000  0.0000  0.0000
 7535OM     OM1 7535   0.016   2.733   0.479  0.0000  0.0000  0.0000
 7536OM     OM1 7536   3.205   8.246   9.285  0.0000  0.0000  0.0000
 7537OM     OM1 7537   3.462   8.228   9.264  0.0000  0.0000  0.0000
 7538OM     OM1 7538   8.360   4.891   0.060  0.0000  0.0000  0.0000
 7539OM     OM1 7539   6.973   4.623   0.916  0.0000  0.0000  0.0000
 7540OM     OM1 7540   6.889   4.763   0.737  0.0000  0.0000  0.0000
 7541OM     OM1 7541   5.692   3.325   9.408  0.0000  0.0000  0.0000
 7542OM     OM1 7542   5.497   3.204   9.521  0.0000  0.0000  0.0000
 7543OM     OM1 7543   5.513   3.203   9.261  0.0000  0.0000  0.0000
 7544OM     OM1 7544   7.178   9.359   9.055  0.0000  0.0000  0.0000
 7545OM     OM1 7545   2.548   2.988   0.914  0.0000  0.0000  0.0000
 7546OM     OM1 7546   2.793   3.061   0.903  0.0000  0.0000  0.0000
 7547OM     OM1 7547   9.389   3.614   8.646  0.0000  0.0000  0.0000
 7548OM     OM1 7548   3.777   6.292   0.442  0.0000  0.0000  0.0000
 7549OM     OM1 7549   3.832   6.537   0.528  0.0000  0.0000  0.0000
 7550OM     OM1 7550   3.937   6.333   0.646  0.0000  0.0000  0.0000
 7551OM     OM1 7551   8.300   5.141   8.317  0.0000  0.0000  0.0000
 7552OM     OM1 7552   8.348   5.060   8.551  0.0000  0.0000  0.0000
 7553OM     OM1 7553   1.444   6.525   9.412  0.0000  0.0000  0.0000
 7554OM     OM1 7554   1.418   6.757   9.522  0.0000  0.0000  0.0000
 7555OM     OM1 7555   6.396   8.693   8.929  0.0000  0.0000  0.0000
 7556OM     OM1 7556   0.690   5.843   0.746  0.0000  0.0000  0.0000
 7557OM     OM1 7557   0.794   5.633   0.624  0.0000  0.0000  0.0000
 7558OM     OM1 7558   0.658   5.802   0.489  0.0000  0.0000  0.0000
 7559OM     OM1 7559   5.908   3.835   8.338  0.0000  0.0000  0.0000
 7560OM     OM1 7560   1.027   4.898   0.545  0.0000  0.0000  0.0000
 7561OM     OM1 7561   0.959   5.148   0.464  0.0000  0.0000  0.0000
 7562OM     OM1 7562   0.910   4.940   0.323  0.0000  0.0000  0.0000
 7563OM     OM1 7563   1.159   5.016   0.358  0.0000  0.0000  0.0000
 7564OM     OM1 7564   9.514   7.641   0.241  0.0000  0.0000  0.0000
 7565OM     OM1 7565   0.058   7.846   0.200  0.0000  0.0000  0.0000
 7566OM     OM1 7566   7.657   3.777   0.098  0.0000  0.0000  0.0000
 7567OM     OM1 7567   1.660   7.370   0.982  0.0000  0.0000  0.0000
 7568OM     OM1 7568   1.545   7.250   1.183  0.0000  0.0000  0.0000
 7569OM     OM1 7569   1.709   7.380   0.725  0.0000  0.0000  0.0000
 7570OM     OM1 7570   6.341   9.402   9.321  0.0000  0.0000  0.0000
 7571OM     OM1 7571   6.087   9.394   9.389  0.0000  0.0000  0.0000
 7572OM     OM1 7572   5.985   9.430   9.156  0.0000  0.0000  0.0000
 7573OM     OM1 7573   1.534   4.714   0.834  0.0000  0.0000  0.0000
 7574OM     OM1 7574   1.535   4.753   0.581  0.0000  0.0000  0.0000
 7575OM     OM1 7575   1.762   4.696   0.685  0.0000  0.0000  0.0000
 7576OM     OM1 7576   8.888   1.556   9.095  0.0000  0.0000  0.0000
 7577OM     OM1 7577   8.754   1.358   9.194  0.0000  0.0000  0.0000
 7578OM     OM1 7578   4.398   3.092   0.537  0.0000  0.0000  0.0000
 7579OM     OM1 7579   1.936   9.280   8.537  0.0000  0.0000  0.0000
 7580OM     OM1 7580   1.816   9.117   8.381  0.0000  0.0000  0.0000
 7581OM     OM1 7581   1.990   9.019   8.546  0.0000  0.0000  0.0000
 7582OM     OM1 7582   2.627   8.725   8.715  0.0000  0.0000  0.0000
 7583OM     OM1 7583   2.528   1.471   9.232  0.0000  0.0000  0.0000
 7584OM     OM1 7584   0.414   5.840   0.566  0.0000  0.0000  0.0000
 7585OM     OM1 7585   0.173   5.919   0.566  0.0000  0.0000  0.0000
 7586OM     OM1 7586   5.532   8.256   8.601  0.0000  0.0000  0.0000
 7587OM     OM1 7587   5.413   8.329   8.834  0.0000  0.0000  0.0000
 7588OM     OM1 7588   4.762   1.673   9.461  0.0000  0.0000  0.0000
 7589OM     OM1 7589   4.507   1.641   9.474  0.0000  0.0000  0.0000
 7590OM     OM1 7590   4.600   1.870   9.388  0.0000  0.0000  0.0000
 7591OM     OM1 7591   8.114   5.133   9.493  0.0000  0.0000  0.0000
 7592OM     OM1 7592   8.229   5.373   9.547  0.0000  0.0000  0.0000
 7593OM     OM1 7593   8.342   5.147   9.601  0.0000  0.0000  0.0000
 7594OM     OM1 7594   7.789   7.269   8.677  0.0000  0.0000  0.0000
 7595OM     OM1 7595   7.624   7.199   8.867  0.0000  0.0000  0.0000
 7596OM     OM1 7596   7.713   7.030   8.665  0.0000  0.0000  0.0000
 7597OM     OM1 7597   5.207   6.696   8.454  0.0000  0.0000  0.0000
 7598OM     OM1 7598   4.946   6.599   8.408  0.0000  0.0000  0.0000
 7599OM     OM1 7599   2.540   2.974   0.651  0.0000  0.0000  0.0000
 7600OM     OM1 7600   2.710   2.987   0.445  0.0000  0.0000  0.0000
 7601OM     OM1 7601   7.396   6.687   0.528  0.0000  0.0000  0.0000
 7602OM     OM1 7602   7.425   6.919   0.400  0.0000  0.0000  0.0000
 7603OM     OM1 7603   4.098   3.192   8.877  0.0000  0.0000  0.0000
 7604OM     OM1 7604   4.297   3.515   8.731  0.0000  0.0000  0.0000
 7605OM     OM1 7605   4.289   3.252   8.703  0.0000  0.0000  0.0000
 7606OM     OM1 7606   4.092   3.388   8.641  0.0000  0.0000  0.0000
 7607OM     OM1 7607   9.243   6.870   9.078  0.0000  0.0000  0.0000
 7608OM     OM1 7608   3.008   0.334   8.958  0.0000  0.0000  0.0000
 7609OM     OM1 7609   3.247   0.422   8.932  0.0000  0.0000  0.0000
 7610OM     OM1 7610   7.315   6.783   0.741  0.0000  0.0000  0.0000
 7611OM     OM1 7611   1.540   4.359   1.106  0.0000  0.0000  0.0000
 7612OM     OM1 7612   3.081   3.486   0.773  0.0000  0.0000  0.0000
 7613OM     OM1 7613   3.102   3.360   1.024  0.0000  0.0000  0.0000
 7614OM     OM1 7614   3.330   3.323   1.129  0.0000  0.0000  0.0000
 7615OM     OM1 7615   3.594   7.083   8.804  0.0000  0.0000  0.0000
 7616OM     OM1 7616   3.460   7.306   8.847  0.0000  0.0000  0.0000
 7617OM     OM1 7617   3.347   7.062   8.863  0.0000  0.0000  0.0000
 7618OM     OM1 7618   3.510   3.233   8.686  0.0000  0.0000  0.0000
 7619OM     OM1 7619   3.382   3.160   8.893  0.0000  0.0000  0.0000
 7620OM     OM1 7620   3.358   3.408   8.815  0.0000  0.0000  0.0000
 7621OM     OM1 7621   7.801   0.258   0.560  0.0000  0.0000  0.0000
 7622OM     OM1 7622   7.648   0.278   0.759  0.0000  0.0000  0.0000
 7623OM     OM1 7623   7.772   0.499   0.653  0.0000  0.0000  0.0000
 7624OM     OM1 7624   2.656   0.961   8.195  0.0000  0.0000  0.0000
 7625OM     OM1 7625   2.876   0.839   8.279  0.0000  0.0000  0.0000
 7626OM     OM1 7626   2.788   1.058   8.395  0.0000  0.0000  0.0000
 7627OM     OM1 7627   2.933   6.888   8.298  0.0000  0.0000  0.0000
 7628OM     OM1 7628   2.818   6.677   8.383  0.0000  0.0000  0.0000
 7629OM     OM1 7629   4.818   2.379   9.164  0.0000  0.0000  0.0000
 7630OM     OM1 7630   4.776   2.612   9.056  0.0000  0.0000  0.0000
 7631OM     OM1 7631   4.787   2.418   8.891  0.0000  0.0000  0.0000
 7632OM     OM1 7632   2.701   4.302   8.814  0.0000  0.0000  0.0000
 7633OM     OM1 7633   2.461   4.204   8.744  0.0000  0.0000  0.0000
 7634OM     OM1 7634   2.513   4.462   8.740  0.0000  0.0000  0.0000
 7635OM     OM1 7635   2.625   4.291   8.570  0.0000  0.0000  0.0000
 7636OM     OM1 7636   6.244   6.618   1.253  0.0000  0.0000  0.0000
 7637OM     OM1 7637   7.482   7.284   1.099  0.0000  0.0000  0.0000
 7638OM     OM1 7638   7.683   7.143   1.169  0.0000  0.0000  0.0000
 7639OM     OM1 7639   7.721   7.406   1.103  0.0000  0.0000  0.0000
 7640OM     OM1 7640   5.464   1.972   0.742  0.0000  0.0000  0.0000
 7641OM     OM1 7641   5.719   1.926   0.769  0.0000  0.0000  0.0000
 7642OM     OM1 7642   2.325   0.941   9.493  0.0000  0.0000  0.0000
 7643OM     OM1 7643   2.128   0.797   9.380  0.0000  0.0000  0.0000
 7644OM     OM1 7644   7.762   5.145   8.672  0.0000  0.0000  0.0000
 7645OM     OM1 7645   7.802   4.913   8.781  0.0000  0.0000  0.0000
 7646OM     OM1 7646   7.627   4.744   8.701  0.0000  0.0000  0.0000
 7647OM     OM1 7647   8.037   3.525   9.572  0.0000  0.0000  0.0000
 7648OM     OM1 7648   8.250   3.672   9.567  0.0000  0.0000  0.0000
 7649OM     OM1 7649   5.567   2.768   0.374  0.0000  0.0000  0.0000
 7650OM     OM1 7650   5.557   2.918   0.593  0.0000  0.0000  0.0000
 7651OM     OM1 7651   7.971   2.015   0.080  0.0000  0.0000  0.0000
 7652OM     OM1 7652   7.995   2.144   9.461  0.0000  0.0000  0.0000
 7653OM     OM1 7653   7.968   2.280   0.075  0.0000  0.0000  0.0000
 7654OM     OM1 7654   6.941   3.318   0.535  0.0000  0.0000  0.0000
 7655OM     OM1 7655   0.706   4.155   9.173  0.0000  0.0000  0.0000
 7656OM     OM1 7656   0.362   3.960   8.888  0.0000  0.0000  0.0000
 7657OM     OM1 7657   1.318   1.260   8.476  0.0000  0.0000  0.0000
 7658OM     OM1 7658   1.240   0.913   8.675  0.0000  0.0000  0.0000
 7659OM     OM1 7659   8.303   0.812   8.761  0.0000  0.0000  0.0000
 7660OM     OM1 7660   8.061   0.904   8.815  0.0000  0.0000  0.0000
 7661OM     OM1 7661   0.887   7.673   8.311  0.0000  0.0000  0.0000
 7662OM     OM1 7662   0.637   7.609   8.370  0.0000  0.0000  0.0000
 7663OM     OM1 7663   1.122   7.783   8.328  0.0000  0.0000  0.0000
 7664OM     OM1 7664   8.811   1.045   1.266  0.0000  0.0000  0.0000
 7665OM     OM1 7665   1.779   7.787   8.481  0.0000  0.0000  0.0000
 7666OM     OM1 7666   1.843   7.636   8.290  0.0000  0.0000  0.0000
 7667OM     OM1 7667   5.166   1.727   8.756  0.0000  0.0000  0.0000
 7668OM     OM1 7668   0.471   1.094   8.750  0.0000  0.0000  0.0000
 7669OM     OM1 7669   0.260   0.844   8.795  0.0000  0.0000  0.0000
 7670OM     OM1 7670   3.766   5.430   0.747  0.0000  0.0000  0.0000
 7671OM     OM1 7671   3.329   5.502   0.783  0.0000  0.0000  0.0000
 7672OM     OM1 7672   3.461   5.299   0.717  0.0000  0.0000  0.0000
 7673OM     OM1 7673   3.961   3.595   8.745  0.0000  0.0000  0.0000
 7674OM     OM1 7674   0.076   2.378   9.313  0.0000  0.0000  0.0000
 7675OM     OM1 7675   9.350   5.334   9.246  0.0000  0.0000  0.0000
 7676OM     OM1 7676   9.338   5.574   9.331  0.0000  0.0000  0.0000
 7677OM     OM1 7677   9.415   5.527   9.086  0.0000  0.0000  0.0000
 7678OM     OM1 7678   3.018   6.955   8.842  0.0000  0.0000  0.0000
 7679OM     OM1 7679   3.073   6.866   8.596  0.0000  0.0000  0.0000
 7680OM     OM1 7680   2.959   7.092   8.616  0.0000  0.0000  0.0000
 7681OM     OM1 7681   3.202   6.502   0.796  0.0000  0.0000  0.0000
 7682OM     OM1 7682   3.123   6.682   0.615  0.0000  0.0000  0.0000
 7683OM     OM1 7683   2.175   9.562   0.074  0.0000  0.0000  0.0000
 7684OM     OM1 7684   2.423   9.586   9.592  0.0000  0.0000  0.0000
 7685OM     OM1 7685   2.229   0.054   9.438  0.0000  0.0000  0.0000
 7686OM     OM1 7686   7.165   8.775   8.309  0.0000  0.0000  0.0000
 7687OM     OM1 7687   7.118   9.487   8.388  0.0000  0.0000  0.0000
 7688OM     OM1 7688   7.285   0.047   8.491  0.0000  0.0000  0.0000
 7689OM     OM1 7689   6.386   2.986   0.418  0.0000  0.0000  0.0000
 7690OM     OM1 7690   6.647   2.928   0.435  0.0000  0.0000  0.0000
 7691OM     OM1 7691   2.520   4.774   0.632  0.0000  0.0000  0.0000
 7692OM     OM1 7692   2.742   4.766   0.764  0.0000  0.0000  0.0000
 7693OM     OM1 7693   6.673   8.040   9.120  0.0000  0.0000  0.0000
 7694OM     OM1 7694   6.359   8.230   9.154  0.0000  0.0000  0.0000
 7695OM     OM1 7695   6.607   8.289   9.107  0.0000  0.0000  0.0000
 7696OM     OM1 7696   6.497   8.399   9.317  0.0000  0.0000  0.0000
 7697OM     OM1 7697   8.072   6.544   9.114  0.0000  0.0000  0.0000
 7698OM     OM1 7698   7.862   6.451   9.234  0.0000  0.0000  0.0000
 7699OM     OM1 7699   8.095   6.805   9.182  0.0000  0.0000  0.0000
 7700OM     OM1 7700   7.903   3.174   0.243  0.0000  0.0000  0.0000
 7701OM     OM1 7701   8.081   2.989   0.155  0.0000  0.0000  0.0000
 7702OM     OM1 7702   0.816   4.240   0.239  0.0000  0.0000  0.0000
 7703OM     OM1 7703   0.619   4.393   0.304  0.0000  0.0000  0.0000
 7704OM     OM1 7704   5.154   3.776   0.316  0.0000  0.0000  0.0000
 7705OM     OM1 7705   4.923   3.797   0.440  0.0000  0.0000  0.0000
 7706OM     OM1 7706   9.405   0.668   8.821  0.0000  0.0000  0.0000
 7707OM     OM1 7707   9.326   0.425   8.757  0.0000  0.0000  0.0000
 7708OM     OM1 7708   6.248   8.347   1.255  0.0000  0.0000  0.0000
 7709OM     OM1 7709   6.307   8.187   1.043  0.0000  0.0000  0.0000
 7710OM     OM1 7710   6.068   8.231   1.109  0.0000  0.0000  0.0000
 7711OM     OM1 7711   5.385   7.886   8.368  0.0000  0.0000  0.0000
 7712OM     OM1 7712   5.226   8.096   8.384  0.0000  0.0000  0.0000
 7713OM     OM1 7713   0.286   3.270   0.893  0.0000  0.0000  0.0000
 7714OM     OM1 7714   0.369   3.341   1.134  0.0000  0.0000  0.0000
 7715OM     OM1 7715   6.298   3.640   0.540  0.0000  0.0000  0.0000
 7716OM     OM1 7716   6.297   3.877   0.443  0.0000  0.0000  0.0000
 7717OM     OM1 7717   6.252   3.846   0.696  0.0000  0.0000  0.0000
 7718OM     OM1 7718   3.894   3.942   9.200  0.0000  0.0000  0.0000
 7719OM     OM1 7719   3.696   3.878   9.356  0.0000  0.0000  0.0000
 7720OM     OM1 7720   3.885   3.704   9.314  0.0000  0.0000  0.0000
 7721OM     OM1 7721   9.370   0.153   8.767  0.0000  0.0000  0.0000
 7722OM     OM1 7722   6.602   2.503   9.447  0.0000  0.0000  0.0000
 7723OM     OM1 7723   6.769   2.341   9.574  0.0000  0.0000  0.0000
 7724OM     OM1 7724   6.867   2.540   9.443  0.0000  0.0000  0.0000
 7725OM     OM1 7725   6.733   2.582   0.057  0.0000  0.0000  0.0000
 7726OM     OM1 7726   8.692   1.059   1.041  0.0000  0.0000  0.0000
 7727OM     OM1 7727   8.455   1.152   1.000  0.0000  0.0000  0.0000
 7728OM     OM1 7728   8.614   1.071   0.805  0.0000  0.0000  0.0000
 7729OM     OM1 7729   4.401   1.213   1.040  0.0000  0.0000  0.0000
 7730OM     OM1 7730   4.166   1.152   1.118  0.0000  0.0000  0.0000
 7731OM     OM1 7731   9.514   9.306   0.445  0.0000  0.0000  0.0000
 7732OM     OM1 7732   9.008   7.548   1.340  0.0000  0.0000  0.0000
 7733OM     OM1 7733   9.210   7.630   1.208  0.0000  0.0000  0.0000
 7734OM     OM1 7734   9.148   7.377   1.178  0.0000  0.0000  0.0000
 7735OM     OM1 7735   6.353   1.401   0.465  0.0000  0.0000  0.0000
 7736OM     OM1 7736   6.404   1.320   0.229  0.0000  0.0000  0.0000
 7737OM     OM1 7737   6.512   1.540   0.317  0.0000  0.0000  0.0000
 7738OM     OM1 7738   6.909   0.804   0.395  0.0000  0.0000  0.0000
 7739OM     OM1 7739   6.877   1.264   0.290  0.0000  0.0000  0.0000
 7740OM     OM1 7740   6.703   0.860   0.243  0.0000  0.0000  0.0000
 7741OM     OM1 7741   3.664   2.225   8.668  0.0000  0.0000  0.0000
 7742OM     OM1 7742   3.472   2.062   8.601  0.0000  0.0000  0.0000
 7743OM     OM1 7743   3.419   2.284   8.753  0.0000  0.0000  0.0000
 7744OM     OM1 7744   3.554   2.088   8.844  0.0000  0.0000  0.0000
 7745OM     OM1 7745   4.478   5.220   9.336  0.0000  0.0000  0.0000
 7746OM     OM1 7746   3.564   1.339   0.313  0.0000  0.0000  0.0000
 7747OM     OM1 7747   3.731   1.430   0.485  0.0000  0.0000  0.0000
 7748OM     OM1 7748   3.474   1.535   0.458  0.0000  0.0000  0.0000
 7749OM     OM1 7749   3.664   1.573   0.282  0.0000  0.0000  0.0000
 7750OM     OM1 7750   2.314   2.766   9.587  0.0000  0.0000  0.0000
 7751OM     OM1 7751   2.379   2.678   9.348  0.0000  0.0000  0.0000
 7752OM     OM1 7752   4.382   1.900   0.478  0.0000  0.0000  0.0000
 7753OM     OM1 7753   4.574   1.790   0.353  0.0000  0.0000  0.0000
 7754OM     OM1 7754   4.481   2.036   0.287  0.0000  0.0000  0.0000
 7755OM     OM1 7755   9.199   5.508   0.811  0.0000  0.0000  0.0000
 7756OM     OM1 7756   9.449   5.537   0.904  0.0000  0.0000  0.0000
 7757OM     OM1 7757   9.269   5.728   0.910  0.0000  0.0000  0.0000
 7758OM     OM1 7758   5.297   7.104   0.830  0.0000  0.0000  0.0000
 7759OM     OM1 7759   5.132   7.416   0.965  0.0000  0.0000  0.0000
 7760OM     OM1 7760   7.426   9.279   0.451  0.0000  0.0000  0.0000
 7761OM     OM1 7761   7.696   9.560   0.180  0.0000  0.0000  0.0000
 7762OM     OM1 7762   1.116   8.805   1.107  0.0000  0.0000  0.0000
 7763OM     OM1 7763   1.081   8.600   1.263  0.0000  0.0000  0.0000
 7764OM     OM1 7764   0.903   8.717   1.004  0.0000  0.0000  0.0000
 7765OM     OM1 7765   8.880   0.594   8.760  0.0000  0.0000  0.0000
 7766OM     OM1 7766   8.877   0.206   8.756  0.0000  0.0000  0.0000
 7767OM     OM1 7767   9.133   0.265   8.780  0.0000  0.0000  0.0000
 7768OM     OM1 7768   5.292   2.349   9.287  0.0000  0.0000  0.0000
 7769OM     OM1 7769   6.335   4.897   8.395  0.0000  0.0000  0.0000
 7770OM     OM1 7770   6.317   5.112   8.231  0.0000  0.0000  0.0000
 7771OM     OM1 7771   3.893   0.872   1.238  0.0000  0.0000  0.0000
 7772OM     OM1 7772   3.831   0.627   1.276  0.0000  0.0000  0.0000
 7773OM     OM1 7773   3.852   0.712   1.035  0.0000  0.0000  0.0000
 7774OM     OM1 7774   9.003   7.125   0.665  0.0000  0.0000  0.0000
 7775OM     OM1 7775   9.154   6.814   0.443  0.0000  0.0000  0.0000
 7776OM     OM1 7776   9.211   6.969   0.651  0.0000  0.0000  0.0000
 7777OM     OM1 7777   8.144   6.017   0.735  0.0000  0.0000  0.0000
 7778OM     OM1 7778   2.361   8.855   0.495  0.0000  0.0000  0.0000
 7779OM     OM1 7779   2.519   9.052   0.555  0.0000  0.0000  0.0000
 7780OM     OM1 7780   7.964   4.413   9.307  0.0000  0.0000  0.0000
 7781OM     OM1 7781   7.773   4.817   9.230  0.0000  0.0000  0.0000
 7782OM     OM1 7782   7.853   4.489   9.075  0.0000  0.0000  0.0000
 7783OM     OM1 7783   1.212   8.386   1.223  0.0000  0.0000  0.0000
 7784OM     OM1 7784   0.946   8.152   0.996  0.0000  0.0000  0.0000
 7785OM     OM1 7785   0.964   8.371   1.159  0.0000  0.0000  0.0000
 7786OM     OM1 7786   7.368   4.076   0.907  0.0000  0.0000  0.0000
 7787OM     OM1 7787   7.626   4.092   0.949  0.0000  0.0000  0.0000
 7788OM     OM1 7788   8.993   0.944   8.404  0.0000  0.0000  0.0000
 7789OM     OM1 7789   9.019   1.010   8.654  0.0000  0.0000  0.0000
 7790OM     OM1 7790   9.000   0.760   8.587  0.0000  0.0000  0.0000
 7791OM     OM1 7791   2.827   2.725   0.214  0.0000  0.0000  0.0000
 7792OM     OM1 7792   8.570   9.276   9.104  0.0000  0.0000  0.0000
 7793OM     OM1 7793   9.005   4.917   9.432  0.0000  0.0000  0.0000
 7794OM     OM1 7794   8.994   4.884   0.076  0.0000  0.0000  0.0000
 7795OM     OM1 7795   8.844   5.069   9.580  0.0000  0.0000  0.0000
 7796OM     OM1 7796   1.496   5.541   0.478  0.0000  0.0000  0.0000
 7797OM     OM1 7797   1.734   5.469   0.521  0.0000  0.0000  0.0000
 7798OM     OM1 7798   5.451   7.898   9.213  0.0000  0.0000  0.0000
 7799OM     OM1 7799   5.559   8.140   9.187  0.0000  0.0000  0.0000
 7800OM     OM1 7800   8.875   3.177   1.249  0.0000  0.0000  0.0000
 7801OM     OM1 7801   9.497   5.134   0.748  0.0000  0.0000  0.0000
 7802OM     OM1 7802   0.044   4.965   0.640  0.0000  0.0000  0.0000
 7803OM     OM1 7803   7.825   4.415   0.589  0.0000  0.0000  0.0000
 7804OM     OM1 7804   6.621   4.787   0.597  0.0000  0.0000  0.0000
 7805OM     OM1 7805   8.412   9.197   1.450  0.0000  0.0000  0.0000
 7806OM     OM1 7806   8.360   8.981   1.326  0.0000  0.0000  0.0000
 7807OM     OM1 7807   8.308   4.543   8.285  0.0000  0.0000  0.0000
 7808OM     OM1 7808   2.568   0.653   9.333  0.0000  0.0000  0.0000
 7809OM     OM1 7809   2.586   0.439   9.175  0.0000  0.0000  0.0000
 7810OM     OM1 7810   2.489   0.664   9.084  0.0000  0.0000  0.0000
 7811OM     OM1 7811   2.353   0.525   9.258  0.0000  0.0000  0.0000
 7812OM     OM1 7812   1.332   4.354   1.259  0.0000  0.0000  0.0000
 7813OM     OM1 7813   1.409   4.568   1.383  0.0000  0.0000  0.0000
 7814OM     OM1 7814   0.079   1.351   8.913  0.0000  0.0000  0.0000
 7815OM     OM1 7815   0.299   1.469   8.836  0.0000  0.0000  0.0000
 7816OM     OM1 7816   2.343   8.075   8.761  0.0000  0.0000  0.0000
 7817OM     OM1 7817   2.187   8.221   8.902  0.0000  0.0000  0.0000
 7818OM     OM1 7818   4.091   6.370   1.311  0.0000  0.0000  0.0000
 7819OM     OM1 7819   3.929   6.359   1.106  0.0000  0.0000  0.0000
 7820OM     OM1 7820   5.339   3.623   0.204  0.0000  0.0000  0.0000
 7821OM     OM1 7821   2.219   3.872   9.391  0.0000  0.0000  0.0000
 7822OM     OM1 7822   2.175   4.039   9.184  0.0000  0.0000  0.0000
 7823OM     OM1 7823   0.134   7.906   9.578  0.0000  0.0000  0.0000
 7824OM     OM1 7824   0.229   7.685   0.092  0.0000  0.0000  0.0000
 7825OM     OM1 7825   0.309   7.927   0.168  0.0000  0.0000  0.0000
 7826OM     OM1 7826   0.374   2.729   0.371  0.0000  0.0000  0.0000
 7827OM     OM1 7827   0.466   2.491   0.278  0.0000  0.0000  0.0000
 7828OM     OM1 7828   7.893   0.206   0.321  0.0000  0.0000  0.0000
 7829OM     OM1 7829   7.885   0.099   0.086  0.0000  0.0000  0.0000
 7830OM     OM1 7830   2.186   3.129   8.879  0.0000  0.0000  0.0000
 7831OM     OM1 7831   2.214   3.319   9.056  0.0000  0.0000  0.0000
 7832OM     OM1 7832   5.808   2.901   0.823  0.0000  0.0000  0.0000
 7833OM     OM1 7833   5.764   3.069   0.638  0.0000  0.0000  0.0000
 7834OM     OM1 7834   4.368   5.412   1.124  0.0000  0.0000  0.0000
 7835OM     OM1 7835   4.205   5.608   1.194  0.0000  0.0000  0.0000
 7836OM     OM1 7836   4.464   5.649   1.192  0.0000  0.0000  0.0000
 7837OM     OM1 7837   6.225   6.850   9.216  0.0000  0.0000  0.0000
 7838OM     OM1 7838   6.347   6.865   9.445  0.0000  0.0000  0.0000
 7839OM     OM1 7839   4.231   5.636   9.147  0.0000  0.0000  0.0000
 7840OM     OM1 7840   4.041   0.722   0.008  0.0000  0.0000  0.0000
 7841OM     OM1 7841   4.049   0.831   0.245  0.0000  0.0000  0.0000
 7842OM     OM1 7842   6.469   0.120   8.293  0.0000  0.0000  0.0000
 7843OM     OM1 7843   0.947   7.329   8.280  0.0000  0.0000  0.0000
 7844OM     OM1 7844   0.679   7.361   8.346  0.0000  0.0000  0.0000
 7845OM     OM1 7845   0.845   7.207   8.476  0.0000  0.0000  0.0000
 7846OM     OM1 7846   9.568   1.062   1.006  0.0000  0.0000  0.0000
 7847OM     OM1 7847   0.134   1.189   0.853  0.0000  0.0000  0.0000
 7848OM     OM1 7848   9.561   1.378   0.864  0.0000  0.0000  0.0000
 7849OM     OM1 7849   0.186   1.391   1.000  0.0000  0.0000  0.0000
 7850OM     OM1 7850   0.126   4.098   8.706  0.0000  0.0000  0.0000
 7851OM     OM1 7851   0.023   4.148   8.345  0.0000  0.0000  0.0000
 7852OM     OM1 7852   0.117   3.955   8.482  0.0000  0.0000  0.0000
 7853OM     OM1 7853   6.839   7.084   0.214  0.0000  0.0000  0.0000
 7854OM     OM1 7854   3.866   7.681   0.885  0.0000  0.0000  0.0000
 7855OM     OM1 7855   4.033   7.858   0.940  0.0000  0.0000  0.0000
 7856OM     OM1 7856   1.751   6.287   0.591  0.0000  0.0000  0.0000
 7857OM     OM1 7857   1.576   6.481   0.614  0.0000  0.0000  0.0000
 7858OM     OM1 7858   1.724   6.416   0.820  0.0000  0.0000  0.0000
 7859OM     OM1 7859   5.136   3.174   1.326  0.0000  0.0000  0.0000
 7860OM     OM1 7860   4.958   7.692   8.333  0.0000  0.0000  0.0000
 7861OM     OM1 7861   5.203   7.719   8.456  0.0000  0.0000  0.0000
 7862OM     OM1 7862   0.630   9.383   1.139  0.0000  0.0000  0.0000
 7863OM     OM1 7863   0.635   9.152   1.269  0.0000  0.0000  0.0000
 7864OM     OM1 7864   0.431   9.233   1.129  0.0000  0.0000  0.0000
 7865OM     OM1 7865   2.180   0.614   0.802  0.0000  0.0000  0.0000
 7866OM     OM1 7866   2.309   0.739   0.606  0.0000  0.0000  0.0000
 7867OM     OM1 7867   2.065   0.644   0.577  0.0000  0.0000  0.0000
 7868OM     OM1 7868   2.117   0.859   0.728  0.0000  0.0000  0.0000
 7869OM     OM1 7869   3.119   7.761   8.910  0.0000  0.0000  0.0000
 7870OM     OM1 7870   3.138   7.569   9.099  0.0000  0.0000  0.0000
 7871OM     OM1 7871   4.681   4.521   9.233  0.0000  0.0000  0.0000
 7872OM     OM1 7872   4.705   4.779   9.243  0.0000  0.0000  0.0000
 7873OM     OM1 7873   8.439   6.178   8.686  0.0000  0.0000  0.0000
 7874OM     OM1 7874   8.614   6.271   8.523  0.0000  0.0000  0.0000
 7875OM     OM1 7875   9.401   7.778   0.812  0.0000  0.0000  0.0000
 7876OM     OM1 7876   9.399   8.029   0.904  0.0000  0.0000  0.0000
 7877OM     OM1 7877   9.309   7.830   1.053  0.0000  0.0000  0.0000
 7878OM     OM1 7878   3.674   1.729   0.985  0.0000  0.0000  0.0000
 7879OM     OM1 7879   3.556   1.964   0.947  0.0000  0.0000  0.0000
 7880OM     OM1 7880   3.705   1.867   0.760  0.0000  0.0000  0.0000
 7881OM     OM1 7881   3.690   5.800   0.312  0.0000  0.0000  0.0000
 7882OM     OM1 7882   3.688   5.643   0.096  0.0000  0.0000  0.0000
 7883OM     OM1 7883   2.202   2.263   8.991  0.0000  0.0000  0.0000
 7884OM     OM1 7884   2.079   2.086   8.841  0.0000  0.0000  0.0000
 7885OM     OM1 7885   2.240   2.004   9.024  0.0000  0.0000  0.0000
 7886OM     OM1 7886   4.683   3.739   0.357  0.0000  0.0000  0.0000
 7887OM     OM1 7887   4.517   3.669   0.175  0.0000  0.0000  0.0000
 7888OM     OM1 7888   4.440   3.832   0.374  0.0000  0.0000  0.0000
 7889OM     OM1 7889   5.562   1.191   9.125  0.0000  0.0000  0.0000
 7890OM     OM1 7890   5.551   1.058   9.353  0.0000  0.0000  0.0000
 7891OM     OM1 7891   5.390   1.004   9.146  0.0000  0.0000  0.0000
 7892OM     OM1 7892   5.529   6.675   8.733  0.0000  0.0000  0.0000
 7893OM     OM1 7893   5.550   6.931   8.700  0.0000  0.0000  0.0000
 7894OM     OM1 7894   5.698   6.811   8.878  0.0000  0.0000  0.0000
 7895OM     OM1 7895   1.980   6.718   1.121  0.0000  0.0000  0.0000
 7896OM     OM1 7896   1.796   6.539   1.043  0.0000  0.0000  0.0000
 7897OM     OM1 7897   1.767   6.681   1.258  0.0000  0.0000  0.0000
 7898OM     OM1 7898   8.656   8.532   0.598  0.0000  0.0000  0.0000
 7899OM     OM1 7899   8.559   8.312   0.725  0.0000  0.0000  0.0000
 7900OM     OM1 7900   8.710   8.290   0.519  0.0000  0.0000  0.0000
 7901OM     OM1 7901   2.944   0.632   0.592  0.0000  0.0000  0.0000
 7902OM     OM1 7902   8.496   4.099   9.516  0.0000  0.0000  0.0000
 7903OM     OM1 7903   8.581   4.315   9.400  0.0000  0.0000  0.0000
 7904OM     OM1 7904   9.373   0.603   9.262  0.0000  0.0000  0.0000
 7905OM     OM1 7905   9.527   0.628   9.049  0.0000  0.0000  0.0000
 7906OM     OM1 7906   8.004   9.005   0.193  0.0000  0.0000  0.0000
 7907OM     OM1 7907   8.027   9.266   0.142  0.0000  0.0000  0.0000
 7908OM     OM1 7908   3.322   7.167   1.347  0.0000  0.0000  0.0000
 7909OM     OM1 7909   2.014   8.521   8.385  0.0000  0.0000  0.0000
 7910OM     OM1 7910   2.208   8.366   8.450  0.0000  0.0000  0.0000
 7911OM     OM1 7911   7.934   2.698   0.619  0.0000  0.0000  0.0000
 7912OM     OM1 7912   7.810   2.874   0.770  0.0000  0.0000  0.0000
 7913OM     OM1 7913   4.281   7.953   0.969  0.0000  0.0000  0.0000
 7914OM     OM1 7914   4.097   8.070   0.834  0.0000  0.0000  0.0000
 7915OM     OM1 7915   4.201   7.851   0.737  0.0000  0.0000  0.0000
 7916OM     OM1 7916   5.517   4.164   0.573  0.0000  0.0000  0.0000
 7917OM     OM1 7917   5.385   4.015   0.414  0.0000  0.0000  0.0000
 7918OM     OM1 7918   2.924   0.213   0.418  0.0000  0.0000  0.0000
 7919OM     OM1 7919   2.978   0.381   0.602  0.0000  0.0000  0.0000
 7920OM     OM1 7920   3.150   0.331   0.398  0.0000  0.0000  0.0000
 7921OM     OM1 7921   0.007   3.632   8.792  0.0000  0.0000  0.0000
 7922OM     OM1 7922   9.460   3.423   8.815  0.0000  0.0000  0.0000
 7923OM     OM1 7923   6.274   1.506   9.383  0.0000  0.0000  0.0000
 7924OM     OM1 7924   6.143   1.716   9.289  0.0000  0.0000  0.0000
 7925OM     OM1 7925   6.047   1.463   9.261  0.0000  0.0000  0.0000
 7926OM     OM1 7926   1.558   7.544   8.699  0.0000  0.0000  0.0000
 7927OM     OM1 7927   2.815   6.134   0.919  0.0000  0.0000  0.0000
 7928OM     OM1 7928   2.561   6.169   0.836  0.0000  0.0000  0.0000
 7929OM     OM1 7929   0.106   6.796   9.532  0.0000  0.0000  0.0000
 7930OM     OM1 7930   0.297   6.677   0.047  0.0000  0.0000  0.0000
 7931OM     OM1 7931   0.049   6.588   0.081  0.0000  0.0000  0.0000
 7932OM     OM1 7932   6.991   4.717   8.545  0.0000  0.0000  0.0000
 7933OM     OM1 7933   6.847   4.593   8.366  0.0000  0.0000  0.0000
 7934OM     OM1 7934   5.000   2.043   0.560  0.0000  0.0000  0.0000
 7935OM     OM1 7935   4.753   2.117   0.635  0.0000  0.0000  0.0000
 7936OM     OM1 7936   4.862   1.907   0.736  0.0000  0.0000  0.0000
 7937OM     OM1 7937   5.900   6.937   8.974  0.0000  0.0000  0.0000
 7938OM     OM1 7938   5.879   6.918   8.722  0.0000  0.0000  0.0000
 7939OM     OM1 7939   5.941   6.705   8.863  0.0000  0.0000  0.0000
 7940OM     OM1 7940   2.221   0.288   8.731  0.0000  0.0000  0.0000
 7941OM     OM1 7941   2.367   0.470   8.627  0.0000  0.0000  0.0000
 7942OM     OM1 7942   8.369   5.891   0.786  0.0000  0.0000  0.0000
 7943OM     OM1 7943   7.321   2.808   0.503  0.0000  0.0000  0.0000
 7944OM     OM1 7944   7.432   2.896   0.731  0.0000  0.0000  0.0000
 7945OM     OM1 7945   2.918   6.434   8.413  0.0000  0.0000  0.0000
 7946OM     OM1 7946   6.714   2.727   8.887  0.0000  0.0000  0.0000
 7947OM     OM1 7947   6.924   2.807   8.746  0.0000  0.0000  0.0000
 7948OM     OM1 7948   6.782   2.599   8.676  0.0000  0.0000  0.0000
 7949OM     OM1 7949   8.488   7.903   9.050  0.0000  0.0000  0.0000
 7950OM     OM1 7950   3.672   0.667   8.764  0.0000  0.0000  0.0000
 7951OM     OM1 7951   8.321   8.436   9.148  0.0000  0.0000  0.0000
 7952OM     OM1 7952   8.109   8.322   9.021  0.0000  0.0000  0.0000
 7953OM     OM1 7953   8.347   8.342   8.908  0.0000  0.0000  0.0000
 7954OM     OM1 7954   4.666   1.295   8.570  0.0000  0.0000  0.0000
 7955OM     OM1 7955   6.307   7.732   9.551  0.0000  0.0000  0.0000
 7956OM     OM1 7956   5.048   6.314   1.102  0.0000  0.0000  0.0000
 7957OM     OM1 7957   5.624   4.838   0.604  0.0000  0.0000  0.0000
 7958OM     OM1 7958   5.697   4.594   0.526  0.0000  0.0000  0.0000
 7959OM     OM1 7959   5.858   4.802   0.498  0.0000  0.0000  0.0000
 7960OM     OM1 7960   8.334   6.073   9.414  0.0000  0.0000  0.0000
 7961OM     OM1 7961   8.312   6.125   9.164  0.0000  0.0000  0.0000
 7962OM     OM1 7962   4.225   4.570   9.429  0.0000  0.0000  0.0000
 7963OM     OM1 7963   4.791   6.095   0.532  0.0000  0.0000  0.0000
 7964OM     OM1 7964   4.862   6.025   0.767  0.0000  0.0000  0.0000
 7965OM     OM1 7965   4.602   5.996   0.669  0.0000  0.0000  0.0000
 7966OM     OM1 7966   4.795   5.842   0.589  0.0000  0.0000  0.0000
 7967OM     OM1 7967   1.611   7.278   0.325  0.0000  0.0000  0.0000
 7968OM     OM1 7968   1.782   7.234   0.531  0.0000  0.0000  0.0000
 7969OM     OM1 7969   8.252   4.468   9.015  0.0000  0.0000  0.0000
 7970OM     OM1 7970   8.205   4.370   9.253  0.0000  0.0000  0.0000
 7971OM     OM1 7971   8.104   4.264   9.028  0.0000  0.0000  0.0000
 7972OM     OM1 7972   8.227   1.541   9.077  0.0000  0.0000  0.0000
 7973OM     OM1 7973   8.092   1.746   9.153  0.0000  0.0000  0.0000
 7974OM     OM1 7974   8.290   1.665   9.298  0.0000  0.0000  0.0000
 7975OM     OM1 7975   6.211   4.735   9.078  0.0000  0.0000  0.0000
 7976OM     OM1 7976   6.165   4.817   8.831  0.0000  0.0000  0.0000
 7977OM     OM1 7977   3.019   7.333   9.115  0.0000  0.0000  0.0000
 7978OM     OM1 7978   2.327   5.612   1.270  0.0000  0.0000  0.0000
 7979OM     OM1 7979   2.590   5.610   1.293  0.0000  0.0000  0.0000
 7980OM     OM1 7980   2.450   5.402   1.373  0.0000  0.0000  0.0000
 7981OM     OM1 7981   1.500   1.115   1.197  0.0000  0.0000  0.0000
 7982OM     OM1 7982   3.325   1.094   9.318  0.0000  0.0000  0.0000
 7983OM     OM1 7983   3.395   1.315   9.445  0.0000  0.0000  0.0000
 7984OM     OM1 7984   6.324   2.987   9.553  0.0000  0.0000  0.0000
 7985OM     OM1 7985   6.356   3.114   9.326  0.0000  0.0000  0.0000
 7986OM     OM1 7986   1.691   8.610   9.567  0.0000  0.0000  0.0000
 7987OM     OM1 7987   1.919   8.478   0.001  0.0000  0.0000  0.0000
 7988OM     OM1 7988   1.907   8.690   9.461  0.0000  0.0000  0.0000
 7989OM     OM1 7989   9.261   6.256   0.907  0.0000  0.0000  0.0000
 7990OM     OM1 7990   9.261   6.139   1.130  0.0000  0.0000  0.0000
 7991OM     OM1 7991   9.289   6.402   1.125  0.0000  0.0000  0.0000
 7992OM     OM1 7992   1.934   0.862   0.414  0.0000  0.0000  0.0000
 7993OM     OM1 7993   1.846   0.628   0.442  0.0000  0.0000  0.0000
 7994OM     OM1 7994   5.643   7.555   9.361  0.0000  0.0000  0.0000
 7995OM     OM1 7995   4.823   8.134   0.305  0.0000  0.0000  0.0000
 7996OM     OM1 7996   4.690   8.079   0.524  0.0000  0.0000  0.0000
 7997OM     OM1 7997   4.807   7.884   0.410  0.0000  0.0000  0.0000
 7998OM     OM1 7998   2.445   3.183   0.776  0.0000  0.0000  0.0000
 7999OM     OM1 7999   2.443   3.424   0.883  0.0000  0.0000  0.0000
 8000OM     OM1 8000   2.668   3.314   0.782  0.0000  0.0000  0.0000
 8001OM     OM1 8001   5.340   9.319   9.154  0.0000  0.0000  0.0000
 8002OM     OM1 8002   5.178   9.311   9.353  0.0000  0.0000  0.0000
 8003OM     OM1 8003   5.432   9.244   9.398  0.0000  0.0000  0.0000
 8004OM     OM1 8004   4.195   8.024   9.075  0.0000  0.0000  0.0000
 8005OM     OM1 8005   4.200   7.836   8.897  0.0000  0.0000  0.0000
 8006OM     OM1 8006   4.066   7.798   9.117  0.0000  0.0000  0.0000
 8007OM     OM1 8007   3.975   7.973   8.946  0.0000  0.0000  0.0000
 8008OM     OM1 8008   0.432   1.324   8.656  0.0000  0.0000  0.0000
 8009OM     OM1 8009   0.564   1.457   8.839  0.0000  0.0000  0.0000
 8010OM     OM1 8010   7.320   1.490   0.891  0.0000  0.0000  0.0000
 8011OM     OM1 8011   7.263   1.717   1.010  0.0000  0.0000  0.0000
 8012OM     OM1 8012   9.212   0.226   8.294  0.0000  0.0000  0.0000
 8013OM     OM1 8013   9.112   9.600   8.300  0.0000  0.0000  0.0000
 8014OM     OM1 8014   8.289   4.790   0.818  0.0000  0.0000  0.0000
 8015OM     OM1 8015   6.658   2.027   8.962  0.0000  0.0000  0.0000
 8016OM     OM1 8016   6.398   2.038   8.988  0.0000  0.0000  0.0000
 8017OM     OM1 8017   6.532   2.005   9.206  0.0000  0.0000  0.0000
 8018OM     OM1 8018   6.530   1.819   9.017  0.0000  0.0000  0.0000
 8019OM     OM1 8019   0.114   3.092   0.775  0.0000  0.0000  0.0000
 8020OM     OM1 8020   0.018   2.871   0.693  0.0000  0.0000  0.0000
 8021OM     OM1 8021   9.467   3.036   0.838  0.0000  0.0000  0.0000
 8022OM     OM1 8022   9.524   3.101   0.599  0.0000  0.0000  0.0000
 8023OM     OM1 8023   3.389   8.472   0.926  0.0000  0.0000  0.0000
 8024OM     OM1 8024   3.643   8.469   0.976  0.0000  0.0000  0.0000
 8025OM     OM1 8025   6.669   5.089   0.211  0.0000  0.0000  0.0000
 8026OM     OM1 8026   6.912   5.016   0.224  0.0000  0.0000  0.0000
 8027OM     OM1 8027   6.715   4.892   0.374  0.0000  0.0000  0.0000
 8028OM     OM1 8028   3.946   3.548   1.084  0.0000  0.0000  0.0000
 8029OM     OM1 8029   2.692   4.180   0.895  0.0000  0.0000  0.0000
 8030OM     OM1 8030   2.493   4.070   1.041  0.0000  0.0000  0.0000
 8031OM     OM1 8031   2.570   3.983   0.800  0.0000  0.0000  0.0000
 8032OM     OM1 8032   2.715   3.944   1.012  0.0000  0.0000  0.0000
 8033OM     OM1 8033   6.957   2.725   9.289  0.0000  0.0000  0.0000
 8034OM     OM1 8034   6.734   2.747   9.146  0.0000  0.0000  0.0000
 8035OM     OM1 8035   6.822   2.943   9.294  0.0000  0.0000  0.0000
 8036OM     OM1 8036   8.501   4.665   9.057  0.0000  0.0000  0.0000
 8037OM     OM1 8037   8.747   4.609   9.117  0.0000  0.0000  0.0000
 8038OM     OM1 8038   4.296   2.527   0.498  0.0000  0.0000  0.0000
 8039OM     OM1 8039   4.070   2.606   0.396  0.0000  0.0000  0.0000
 8040OM     OM1 8040   1.360   4.849   0.407  0.0000  0.0000  0.0000
 8041OM     OM1 8041   1.329   4.946   0.168  0.0000  0.0000  0.0000
 8042OM     OM1 8042   7.634   5.590   0.132  0.0000  0.0000  0.0000
 8043OM     OM1 8043   4.859   0.402   8.163  0.0000  0.0000  0.0000
 8044OM     OM1 8044   4.728   0.596   8.235  0.0000  0.0000  0.0000
 8045OM     OM1 8045   0.948   4.377   8.230  0.0000  0.0000  0.0000
 8046OM     OM1 8046   9.570   1.961   0.614  0.0000  0.0000  0.0000
 8047OM     OM1 8047   3.625   5.702   8.928  0.0000  0.0000  0.0000
 8048OM     OM1 8048   3.754   5.517   9.054  0.0000  0.0000  0.0000
 8049OM     OM1 8049   2.191   5.770   0.857  0.0000  0.0000  0.0000
 8050OM     OM1 8050   2.371   5.902   1.009  0.0000  0.0000  0.0000
 8051OM     OM1 8051   6.032   1.195   9.278  0.0000  0.0000  0.0000
 8052OM     OM1 8052   5.948   1.339   9.060  0.0000  0.0000  0.0000
 8053OM     OM1 8053   5.445   4.882   8.642  0.0000  0.0000  0.0000
 8054OM     OM1 8054   5.691   4.809   8.573  0.0000  0.0000  0.0000
 8055OM     OM1 8055   1.866   2.099   0.381  0.0000  0.0000  0.0000
 8056OM     OM1 8056   1.765   2.250   0.199  0.0000  0.0000  0.0000
 8057OM     OM1 8057   1.603   2.118   0.374  0.0000  0.0000  0.0000
 8058OM     OM1 8058   0.281   7.567   1.171  0.0000  0.0000  0.0000
 8059OM     OM1 8059   0.469   7.733   1.111  0.0000  0.0000  0.0000
 8060OM     OM1 8060   9.200   2.385   8.703  0.0000  0.0000  0.0000
 8061OM     OM1 8061   9.031   2.301   8.525  0.0000  0.0000  0.0000
 8062OM     OM1 8062   5.461   7.577   8.818  0.0000  0.0000  0.0000
 8063OM     OM1 8063   5.484   9.018   0.504  0.0000  0.0000  0.0000
 8064OM     OM1 8064   0.975   2.142   0.224  0.0000  0.0000  0.0000
 8065OM     OM1 8065   0.833   1.934   0.298  0.0000  0.0000  0.0000
 8066OM     OM1 8066   1.081   1.909   0.218  0.0000  0.0000  0.0000
 8067OM     OM1 8067   5.597   6.750   1.418  0.0000  0.0000  0.0000
 8068OM     OM1 8068   0.391   6.596   0.977  0.0000  0.0000  0.0000
 8069OM     OM1 8069   0.236   6.432   0.868  0.0000  0.0000  0.0000
 8070OM     OM1 8070   3.881   0.814   0.450  0.0000  0.0000  0.0000
 8071OM     OM1 8071   3.803   0.769   0.210  0.0000  0.0000  0.0000
 8072OM     OM1 8072   4.714   6.710   9.337  0.0000  0.0000  0.0000
 8073OM     OM1 8073   3.155   3.535   9.228  0.0000  0.0000  0.0000
 8074OM     OM1 8074   9.600   6.396   9.525  0.0000  0.0000  0.0000
 8075OM     OM1 8075   8.174   7.521   8.921  0.0000  0.0000  0.0000
 8076OM     OM1 8076   8.427   7.442   8.921  0.0000  0.0000  0.0000
 8077OM     OM1 8077   8.281   7.456   9.146  0.0000  0.0000  0.0000
 8078OM     OM1 8078   5.649   7.548   0.547  0.0000  0.0000  0.0000
 8079OM     OM1 8079   5.711   7.736   0.726  0.0000  0.0000  0.0000
 8080OM     OM1 8080   5.863   7.526   0.700  0.0000  0.0000  0.0000
 8081OM     OM1 8081   7.533   6.519   1.340  0.0000  0.0000  0.0000
 8082OM     OM1 8082   0.809   0.928   0.857  0.0000  0.0000  0.0000
 8083OM     OM1 8083   0.859   0.673   0.878  0.0000  0.0000  0.0000
 8084OM     OM1 8084   1.116   0.836   1.188  0.0000  0.0000  0.0000
 8085OM     OM1 8085   2.270   1.785   9.162  0.0000  0.0000  0.0000
 8086OM     OM1 8086   2.478   1.931   9.068  0.0000  0.0000  0.0000
 8087OM     OM1 8087   8.730   0.000   8.719  0.0000  0.0000  0.0000
 8088OM     OM1 8088   8.715   9.345   8.755  0.0000  0.0000  0.0000
 8089OM     OM1 8089   3.064   2.777   0.836  0.0000  0.0000  0.0000
 8090OM     OM1 8090   3.278   2.682   0.941  0.0000  0.0000  0.0000
 8091OM     OM1 8091   8.653   0.240   1.271  0.0000  0.0000  0.0000
 8092OM     OM1 8092   8.618   0.008   1.176  0.0000  0.0000  0.0000
 8093OM     OM1 8093   8.868   0.103   1.245  0.0000  0.0000  0.0000
 8094OM     OM1 8094   5.470   6.693   8.488  0.0000  0.0000  0.0000
 8095OM     OM1 8095   5.368   6.850   8.302  0.0000  0.0000  0.0000
 8096OM     OM1 8096   7.219   6.522   8.449  0.0000  0.0000  0.0000
 8097OM     OM1 8097   7.367   6.323   8.359  0.0000  0.0000  0.0000
 8098OM     OM1 8098   0.014   0.100   0.024  0.0000  0.0000  0.0000
 8099OM     OM1 8099   0.080   0.406   0.401  0.0000  0.0000  0.0000
 8100OM     OM1 8100   0.192   0.287   9.544  0.0000  0.0000  0.0000
 8101OM     OM1 8101   0.095   0.290   0.173  0.0000  0.0000  0.0000
 8102OM     OM1 8102   7.440   8.472   9.456  0.0000  0.0000  0.0000
 8103OM     OM1 8103   7.268   8.463   0.041  0.0000  0.0000  0.0000
 8104OM     OM1 8104   7.306   8.686   9.527  0.0000  0.0000  0.0000
 8105OM     OM1 8105   0.894   9.123   8.444  0.0000  0.0000  0.0000
 8106OM     OM1 8106   1.123   9.020   8.495  0.0000  0.0000  0.0000
 8107OM     OM1 8107   7.657   0.474   8.793  0.0000  0.0000  0.0000
 8108OM     OM1 8108   0.842   3.651   0.206  0.0000  0.0000  0.0000
 8109OM     OM1 8109   0.897   3.540   0.436  0.0000  0.0000  0.0000
 8110OM     OM1 8110   0.838   3.799   0.421  0.0000  0.0000  0.0000
 8111OM     OM1 8111   6.118   5.933   1.145  0.0000  0.0000  0.0000
 8112OM     OM1 8112   5.912   5.914   1.011  0.0000  0.0000  0.0000
 8113OM     OM1 8113   9.247   5.027   0.773  0.0000  0.0000  0.0000
 8114OM     OM1 8114   9.229   4.935   0.541  0.0000  0.0000  0.0000
 8115OM     OM1 8115   8.868   5.203   0.483  0.0000  0.0000  0.0000
 8116OM     OM1 8116   0.409   6.914   8.581  0.0000  0.0000  0.0000
 8117OM     OM1 8117   0.662   0.707   9.356  0.0000  0.0000  0.0000
 8118OM     OM1 8118   0.512   0.791   9.174  0.0000  0.0000  0.0000
 8119OM     OM1 8119   8.520   4.301   0.794  0.0000  0.0000  0.0000
 8120OM     OM1 8120   8.628   4.059   0.802  0.0000  0.0000  0.0000
 8121OM     OM1 8121   8.394   4.099   0.685  0.0000  0.0000  0.0000
 8122OM     OM1 8122   6.033   3.909   0.279  0.0000  0.0000  0.0000
 8123OM     OM1 8123   1.838   1.354   9.042  0.0000  0.0000  0.0000
 8124OM     OM1 8124   1.787   1.153   9.205  0.0000  0.0000  0.0000
 8125OM     OM1 8125   0.332   3.465   9.344  0.0000  0.0000  0.0000
 8126OM     OM1 8126   0.285   3.505   9.596  0.0000  0.0000  0.0000
 8127OM     OM1 8127   1.795   8.905   9.380  0.0000  0.0000  0.0000
 8128OM     OM1 8128   1.848   8.914   9.123  0.0000  0.0000  0.0000
 8129OM     OM1 8129   1.613   8.986   9.209  0.0000  0.0000  0.0000
 8130OM     OM1 8130   9.474   4.842   0.493  0.0000  0.0000  0.0000
 8131OM     OM1 8131   9.316   4.926   0.295  0.0000  0.0000  0.0000
 8132OM     OM1 8132   1.837   4.501   9.066  0.0000  0.0000  0.0000
 8133OM     OM1 8133   1.943   4.473   8.823  0.0000  0.0000  0.0000
 8134OM     OM1 8134   4.948   3.234   1.150  0.0000  0.0000  0.0000
 8135OM     OM1 8135   5.186   3.227   1.072  0.0000  0.0000  0.0000
 8136OM     OM1 8136   1.165   7.907   0.313  0.0000  0.0000  0.0000
 8137OM     OM1 8137   1.335   8.028   0.163  0.0000  0.0000  0.0000
 8138OM     OM1 8138   1.278   8.122   0.403  0.0000  0.0000  0.0000
 8139OM     OM1 8139   1.158   4.426   0.435  0.0000  0.0000  0.0000
 8140OM     OM1 8140   1.078   4.671   0.420  0.0000  0.0000  0.0000
 8141OM     OM1 8141   1.266   4.587   0.249  0.0000  0.0000  0.0000
 8142OM     OM1 8142   6.925   8.434   8.522  0.0000  0.0000  0.0000
 8143OM     OM1 8143   9.439   8.022   8.556  0.0000  0.0000  0.0000
 8144OM     OM1 8144   9.559   8.228   8.653  0.0000  0.0000  0.0000
 8145OM     OM1 8145   1.707   7.499   0.000  0.0000  0.0000  0.0000
 8146OM     OM1 8146   2.089   1.708   0.170  0.0000  0.0000  0.0000
 8147OM     OM1 8147   2.060   1.450   0.181  0.0000  0.0000  0.0000
 8148OM     OM1 8148   5.799   6.230   0.912  0.0000  0.0000  0.0000
 8149OM     OM1 8149   5.697   6.111   0.718  0.0000  0.0000  0.0000
 8150OM     OM1 8150   1.051   8.881   0.861  0.0000  0.0000  0.0000
 8151OM     OM1 8151   1.364   3.874   0.017  0.0000  0.0000  0.0000
 8152OM     OM1 8152   1.391   3.959   9.373  0.0000  0.0000  0.0000
 8153OM     OM1 8153   6.081   4.682   1.230  0.0000  0.0000  0.0000
 8154OM     OM1 8154   4.236   2.633   9.555  0.0000  0.0000  0.0000
 8155OM     OM1 8155   4.278   2.827   0.139  0.0000  0.0000  0.0000
 8156OM     OM1 8156   4.356   2.536   9.350  0.0000  0.0000  0.0000
 8157OM     OM1 8157   4.367   2.843   9.493  0.0000  0.0000  0.0000
 8158OM     OM1 8158   5.851   3.836   8.599  0.0000  0.0000  0.0000
 8159OM     OM1 8159   6.022   3.677   8.491  0.0000  0.0000  0.0000
 8160OM     OM1 8160   8.440   2.773   0.442  0.0000  0.0000  0.0000
 8161OM     OM1 8161   8.413   2.854   0.765  0.0000  0.0000  0.0000
 8162OM     OM1 8162   8.290   2.673   0.626  0.0000  0.0000  0.0000
 8163OM     OM1 8163   6.042   1.509   8.872  0.0000  0.0000  0.0000
 8164OM     OM1 8164   5.876   1.323   8.804  0.0000  0.0000  0.0000
 8165OM     OM1 8165   3.219   3.223   0.065  0.0000  0.0000  0.0000
 8166OM     OM1 8166   3.036   3.368   0.413  0.0000  0.0000  0.0000
 8167OM     OM1 8167   5.616   6.297   0.091  0.0000  0.0000  0.0000
 8168OM     OM1 8168   0.750   4.825   8.808  0.0000  0.0000  0.0000
 8169OM     OM1 8169   5.606   5.617   0.134  0.0000  0.0000  0.0000
 8170OM     OM1 8170   5.675   5.390   0.254  0.0000  0.0000  0.0000
 8171OM     OM1 8171   5.601   5.392   0.005  0.0000  0.0000  0.0000
 8172OM     OM1 8172   4.537   5.937   8.307  0.0000  0.0000  0.0000
 8173OM     OM1 8173   4.709   6.096   8.195  0.0000  0.0000  0.0000
 8174OM     OM1 8174   4.588   6.188   8.391  0.0000  0.0000  0.0000
 8175OM     OM1 8175   1.011   6.207   0.901  0.0000  0.0000  0.0000
 8176OM     OM1 8176   0.781   6.314   0.908  0.0000  0.0000  0.0000
 8177OM     OM1 8177   0.808   6.049   0.864  0.0000  0.0000  0.0000
 8178OM     OM1 8178   0.845   6.151   1.098  0.0000  0.0000  0.0000
 8179OM     OM1 8179   3.847   1.532   9.087  0.0000  0.0000  0.0000
 8180OM     OM1 8180   3.800   1.675   9.291  0.0000  0.0000  0.0000
 8181OM     OM1 8181   3.883   1.438   9.331  0.0000  0.0000  0.0000
 8182OM     OM1 8182   4.050   1.617   9.232  0.0000  0.0000  0.0000
 8183OM     OM1 8183   6.427   4.379   9.513  0.0000  0.0000  0.0000
 8184OM     OM1 8184   6.610   4.362   9.326  0.0000  0.0000  0.0000
 8185OM     OM1 8185   8.927   3.162   9.345  0.0000  0.0000  0.0000
 8186OM     OM1 8186   8.225   3.875   9.409  0.0000  0.0000  0.0000
 8187OM     OM1 8187   8.382   3.893   0.014  0.0000  0.0000  0.0000
 8188OM     OM1 8188   8.450   3.740   9.419  0.0000  0.0000  0.0000
 8189OM     OM1 8189   1.571   4.293   8.924  0.0000  0.0000  0.0000
 8190OM     OM1 8190   1.388   4.416   8.791  0.0000  0.0000  0.0000
 8191OM     OM1 8191   1.512   4.550   8.984  0.0000  0.0000  0.0000
 8192OM     OM1 8192   5.439   7.233   9.232  0.0000  0.0000  0.0000
 8193OM     OM1 8193   5.333   7.011   9.208  0.0000  0.0000  0.0000
 8194OM     OM1 8194   5.317   7.164   9.000  0.0000  0.0000  0.0000
 8195OM     OM1 8195   0.990   7.883   0.115  0.0000  0.0000  0.0000
 8196OM     OM1 8196   0.918   7.836   0.362  0.0000  0.0000  0.0000
 8197OM     OM1 8197   2.182   6.735   0.383  0.0000  0.0000  0.0000
 8198OM     OM1 8198   4.857   2.425   8.229  0.0000  0.0000  0.0000
 8199OM     OM1 8199   6.896   0.160   0.186  0.0000  0.0000  0.0000
 8200OM     OM1 8200   6.667   0.218   0.106  0.0000  0.0000  0.0000
 8201OM     OM1 8201   6.832   0.412   0.158  0.0000  0.0000  0.0000
 8202OM     OM1 8202   3.657   0.167   0.018  0.0000  0.0000  0.0000
 8203OM     OM1 8203   8.168   3.111   8.822  0.0000  0.0000  0.0000
 8204OM     OM1 8204   8.059   3.089   9.063  0.0000  0.0000  0.0000
 8205OM     OM1 8205   4.278   4.228   9.032  0.0000  0.0000  0.0000
 8206OM     OM1 8206   4.043   4.111   9.057  0.0000  0.0000  0.0000
 8207OM     OM1 8207   4.261   3.986   9.121  0.0000  0.0000  0.0000
 8208OM     OM1 8208   2.894   4.926   9.205  0.0000  0.0000  0.0000
 8209OM     OM1 8209   2.996   5.073   9.389  0.0000  0.0000  0.0000
 8210OM     OM1 8210   3.208   8.707   8.450  0.0000  0.0000  0.0000
 8211OM     OM1 8211   5.111   0.565   0.621  0.0000  0.0000  0.0000
 8212OM     OM1 8212   5.715   4.221   8.369  0.0000  0.0000  0.0000
 8213OM     OM1 8213   5.826   4.675   8.395  0.0000  0.0000  0.0000
 8214OM     OM1 8214   3.250   3.007   9.055  0.0000  0.0000  0.0000
 8215OM     OM1 8215   3.509   2.969   8.992  0.0000  0.0000  0.0000
 8216OM     OM1 8216   7.346   8.145   9.105  0.0000  0.0000  0.0000
 8217OM     OM1 8217   7.229   8.304   8.944  0.0000  0.0000  0.0000
 8218OM     OM1 8218   8.659   3.088   8.688  0.0000  0.0000  0.0000
 8219OM     OM1 8219   8.909   3.088   8.596  0.0000  0.0000  0.0000
 8220OM     OM1 8220   7.821   1.573   9.012  0.0000  0.0000  0.0000
 8221OM     OM1 8221   2.231   8.118   8.520  0.0000  0.0000  0.0000
 8222OM     OM1 8222   4.722   7.701   8.439  0.0000  0.0000  0.0000
 8223OM     OM1 8223   0.242   2.652   8.717  0.0000  0.0000  0.0000
 8224OM     OM1 8224   0.001   2.745   8.720  0.0000  0.0000  0.0000
 8225OM     OM1 8225   0.046   2.530   8.855  0.0000  0.0000  0.0000
 8226OM     OM1 8226   4.345   9.226   0.141  0.0000  0.0000  0.0000
 8227OM     OM1 8227   4.424   9.025   9.596  0.0000  0.0000  0.0000
 8228OM     OM1 8228   4.528   9.051   0.230  0.0000  0.0000  0.0000
 8229OM     OM1 8229   4.531   1.760   8.713  0.0000  0.0000  0.0000
 8230OM     OM1 8230   4.377   1.635   8.879  0.0000  0.0000  0.0000
 8231OM     OM1 8231   4.296   1.861   8.761  0.0000  0.0000  0.0000
 8232OM     OM1 8232   4.320   1.639   8.625  0.0000  0.0000  0.0000
 8233OM     OM1 8233   8.820   8.224   1.005  0.0000  0.0000  0.0000
 8234OM     OM1 8234   8.936   8.263   1.236  0.0000  0.0000  0.0000
 8235OM     OM1 8235   1.377   7.991   8.748  0.0000  0.0000  0.0000
 8236OM     OM1 8236   1.157   7.939   8.889  0.0000  0.0000  0.0000
 8237OM     OM1 8237   3.881   1.329   1.436  0.0000  0.0000  0.0000
 8238OM     OM1 8238   8.169   9.002   9.089  0.0000  0.0000  0.0000
 8239OM     OM1 8239   8.343   9.180   9.190  0.0000  0.0000  0.0000
 8240OM     OM1 8240   2.075   0.554   8.945  0.0000  0.0000  0.0000
 8241OM     OM1 8241   1.821   0.759   8.985  0.0000  0.0000  0.0000
 8242OM     OM1 8242   2.047   0.792   8.858  0.0000  0.0000  0.0000
 8243OM     OM1 8243   0.123   7.971   9.158  0.0000  0.0000  0.0000
 8244OM     OM1 8244   9.600   7.994   9.380  0.0000  0.0000  0.0000
 8245OM     OM1 8245   9.469   7.963   9.157  0.0000  0.0000  0.0000
 8246OM     OM1 8246   0.894   6.329   1.281  0.0000  0.0000  0.0000
 8247OM     OM1 8247   8.639   3.255   1.164  0.0000  0.0000  0.0000
 8248OM     OM1 8248   6.778   9.538   0.133  0.0000  0.0000  0.0000
 8249OM     OM1 8249   6.094   6.537   0.774  0.0000  0.0000  0.0000
 8250OM     OM1 8250   6.257   6.732   0.699  0.0000  0.0000  0.0000
 8251OM     OM1 8251   6.101   6.634   0.522  0.0000  0.0000  0.0000
 8252OM     OM1 8252   5.999   6.764   0.734  0.0000  0.0000  0.0000
 8253OM     OM1 8253   9.041   3.270   0.812  0.0000  0.0000  0.0000
 8254OM     OM1 8254   9.210   3.458   0.801  0.0000  0.0000  0.0000
 8255OM     OM1 8255   8.959   3.494   0.719  0.0000  0.0000  0.0000
 8256OM     OM1 8256   0.401   7.093   0.337  0.0000  0.0000  0.0000
 8257OM     OM1 8257   0.624   7.194   0.430  0.0000  0.0000  0.0000
 8258OM     OM1 8258   0.632   7.010   0.242  0.0000  0.0000  0.0000
 8259OM     OM1 8259   4.694   7.732   1.214  0.0000  0.0000  0.0000
 8260OM     OM1 8260   6.006   5.185   0.006  0.0000  0.0000  0.0000
 8261OM     OM1 8261   5.827   5.051   9.480  0.0000  0.0000  0.0000
 8262OM     OM1 8262   1.652   2.940   8.214  0.0000  0.0000  0.0000
 8263OM     OM1 8263   5.541   4.338   0.115  0.0000  0.0000  0.0000
 8264OM     OM1 8264   5.542   4.453   9.483  0.0000  0.0000  0.0000
 8265OM     OM1 8265   0.711   3.120   8.251  0.0000  0.0000  0.0000
 8266OM     OM1 8266   2.541   1.897   0.724  0.0000  0.0000  0.0000
 8267OM     OM1 8267   2.723   1.788   0.882  0.0000  0.0000  0.0000
 8268OM     OM1 8268   2.728   2.047   0.831  0.0000  0.0000  0.0000
 8269OM     OM1 8269   0.432   3.433   0.479  0.0000  0.0000  0.0000
 8270OM     OM1 8270   0.346   3.515   0.240  0.0000  0.0000  0.0000
 8271OM     OM1 8271   0.187   3.443   0.429  0.0000  0.0000  0.0000
 8272OM     OM1 8272   7.902   5.588   0.142  0.0000  0.0000  0.0000
 8273OM     OM1 8273   8.937   7.989   8.836  0.0000  0.0000  0.0000
 8274OM     OM1 8274   2.800   3.071   9.313  0.0000  0.0000  0.0000
 8275OM     OM1 8275   8.177   6.259   1.169  0.0000  0.0000  0.0000
 8276OM     OM1 8276   4.776   9.427   8.344  0.0000  0.0000  0.0000
 8277OM     OM1 8277   9.489   3.925   0.730  0.0000  0.0000  0.0000
 8278OM     OM1 8278   0.270   4.127   0.428  0.0000  0.0000  0.0000
 8279OM     OM1 8279   9.500   3.798   0.502  0.0000  0.0000  0.0000
 8280OM     OM1 8280   0.782   4.485   8.529  0.0000  0.0000  0.0000
 8281OM     OM1 8281   6.398   2.636   9.532  0.0000  0.0000  0.0000
 8282OM     OM1 8282   6.447   2.644   9.280  0.0000  0.0000  0.0000
 8283OM     OM1 8283   6.344   2.878   9.232  0.0000  0.0000  0.0000
 8284OM     OM1 8284   5.004   1.681   9.550  0.0000  0.0000  0.0000
 8285OM     OM1 8285   5.178   1.665   9.356  0.0000  0.0000  0.0000
 8286OM     OM1 8286   5.234   1.813   9.560  0.0000  0.0000  0.0000
 8287OM     OM1 8287   5.047   1.890   9.392  0.0000  0.0000  0.0000
 8288OM     OM1 8288   1.425   8.423   8.415  0.0000  0.0000  0.0000
 8289OM     OM1 8289   1.547   8.616   8.288  0.0000  0.0000  0.0000
 8290OM     OM1 8290   5.753   2.762   8.244  0.0000  0.0000  0.0000
 8291OM     OM1 8291   5.776   2.948   8.420  0.0000  0.0000  0.0000
 8292OM     OM1 8292   6.891   3.354   9.296  0.0000  0.0000  0.0000
 8293OM     OM1 8293   7.039   3.304   9.501  0.0000  0.0000  0.0000
 8294OM     OM1 8294   5.018   9.244   1.343  0.0000  0.0000  0.0000
 8295OM     OM1 8295   1.597   6.365   1.044  0.0000  0.0000  0.0000
 8296OM     OM1 8296   1.638   6.276   1.280  0.0000  0.0000  0.0000
 8297OM     OM1 8297   7.920   1.337   0.044  0.0000  0.0000  0.0000
 8298OM     OM1 8298   3.590   6.507   8.293  0.0000  0.0000  0.0000
 8299OM     OM1 8299   8.393   2.810   1.091  0.0000  0.0000  0.0000
 8300OM     OM1 8300   8.589   2.889   0.948  0.0000  0.0000  0.0000
 8301OM     OM1 8301   8.480   3.060   1.106  0.0000  0.0000  0.0000
 8302OM     OM1 8302   7.174   5.041   8.672  0.0000  0.0000  0.0000
 8303OM     OM1 8303   7.064   5.260   8.729  0.0000  0.0000  0.0000
 8304OM     OM1 8304   7.000   5.150   8.501  0.0000  0.0000  0.0000
 8305OM     OM1 8305   1.781   9.368   0.626  0.0000  0.0000  0.0000
 8306OM     OM1 8306   1.764   9.174   0.453  0.0000  0.0000  0.0000
 8307OM     OM1 8307   3.862   3.975   0.961  0.0000  0.0000  0.0000
 8308OM     OM1 8308   3.970   3.808   1.126  0.0000  0.0000  0.0000
 8309OM     OM1 8309   4.843   5.622   9.471  0.0000  0.0000  0.0000
 8310OM     OM1 8310   4.683   5.460   0.012  0.0000  0.0000  0.0000
 8311OM     OM1 8311   4.875   5.362   9.467  0.0000  0.0000  0.0000
 8312OM     OM1 8312   7.040   2.911   0.968  0.0000  0.0000  0.0000
 8313OM     OM1 8313   6.805   2.800   0.963  0.0000  0.0000  0.0000
 8314OM     OM1 8314   6.846   2.816   0.558  0.0000  0.0000  0.0000
 8315OM     OM1 8315   6.750   2.997   1.120  0.0000  0.0000  0.0000
 8316OM     OM1 8316   0.765   8.749   9.558  0.0000  0.0000  0.0000
 8317OM     OM1 8317   0.819   8.767   0.203  0.0000  0.0000  0.0000
 8318OM     OM1 8318   0.628   8.593   0.119  0.0000  0.0000  0.0000
 8319OM     OM1 8319   0.870   8.544   0.074  0.0000  0.0000  0.0000
 8320OM     OM1 8320   2.813   0.485   9.058  0.0000  0.0000  0.0000
 8321OM     OM1 8321   2.863   4.348   0.968  0.0000  0.0000  0.0000
 8322OM     OM1 8322   2.933   4.168   0.782  0.0000  0.0000  0.0000
 8323OM     OM1 8323   4.923   9.480   0.053  0.0000  0.0000  0.0000
 8324OM     OM1 8324   4.740   9.305   0.035  0.0000  0.0000  0.0000
 8325OM     OM1 8325   7.969   3.906   9.351  0.0000  0.0000  0.0000
 8326OM     OM1 8326   8.099   3.700   9.266  0.0000  0.0000  0.0000
 8327OM     OM1 8327   2.887   5.297   8.468  0.0000  0.0000  0.0000
 8328OM     OM1 8328   3.136   5.373   8.516  0.0000  0.0000  0.0000
 8329OM     OM1 8329   2.985   5.241   8.697  0.0000  0.0000  0.0000
 8330OM     OM1 8330   3.089   5.121   8.501  0.0000  0.0000  0.0000
 8331OM     OM1 8331   2.632   7.639   1.247  0.0000  0.0000  0.0000
 8332OM     OM1 8332   2.668   7.878   1.132  0.0000  0.0000  0.0000
 8333OM     OM1 8333   8.535   1.459   8.912  0.0000  0.0000  0.0000
 8334OM     OM1 8334   8.736   1.620   8.898  0.0000  0.0000  0.0000
 8335OM     OM1 8335   8.580   1.582   8.689  0.0000  0.0000  0.0000
 8336OM     OM1 8336   9.055   3.645   0.530  0.0000  0.0000  0.0000
 8337OM     OM1 8337   9.193   3.841   0.433  0.0000  0.0000  0.0000
 8338OM     OM1 8338   9.127   3.637   0.282  0.0000  0.0000  0.0000
 8339OM     OM1 8339   9.317   3.621   0.458  0.0000  0.0000  0.0000
 8340OM     OM1 8340   7.066   6.676   0.873  0.0000  0.0000  0.0000
 8341OM     OM1 8341   7.149   6.918   0.890  0.0000  0.0000  0.0000
 8342OM     OM1 8342   9.096   9.264   9.494  0.0000  0.0000  0.0000
 8343OM     OM1 8343   5.447   9.344   0.228  0.0000  0.0000  0.0000
 8344OM     OM1 8344   5.576   9.117   0.281  0.0000  0.0000  0.0000
 8345OM     OM1 8345   5.554   9.208   0.038  0.0000  0.0000  0.0000
 8346OM     OM1 8346   5.835   5.470   0.438  0.0000  0.0000  0.0000
 8347OM     OM1 8347   5.804   5.701   0.533  0.0000  0.0000  0.0000
 8348OM     OM1 8348   1.790   8.827   8.892  0.0000  0.0000  0.0000
 8349OM     OM1 8349   1.705   8.769   8.654  0.0000  0.0000  0.0000
 8350OM     OM1 8350   1.811   8.580   8.816  0.0000  0.0000  0.0000
 8351OM     OM1 8351   6.835   1.507   9.218  0.0000  0.0000  0.0000
 8352OM     OM1 8352   7.085   1.471   9.206  0.0000  0.0000  0.0000
 8353OM     OM1 8353   6.963   1.418   9.426  0.0000  0.0000  0.0000
 8354OM     OM1 8354   5.863   2.811   1.270  0.0000  0.0000  0.0000
 8355OM     OM1 8355   5.285   2.374   0.856  0.0000  0.0000  0.0000
 8356OM     OM1 8356   5.289   2.117   0.876  0.0000  0.0000  0.0000
 8357OM     OM1 8357   4.894   0.531   9.023  0.0000  0.0000  0.0000
 8358OM     OM1 8358   5.092   0.373   9.014  0.0000  0.0000  0.0000
 8359OM     OM1 8359   2.554   6.607   1.085  0.0000  0.0000  0.0000
 8360OM     OM1 8360   2.509   6.378   0.970  0.0000  0.0000  0.0000
 8361OM     OM1 8361   2.408   6.427   1.197  0.0000  0.0000  0.0000
 8362OM     OM1 8362   6.601   2.571   8.491  0.0000  0.0000  0.0000
 8363OM     OM1 8363   7.961   3.907   1.283  0.0000  0.0000  0.0000
 8364OM     OM1 8364   7.834   3.977   1.057  0.0000  0.0000  0.0000
 8365OM     OM1 8365   8.008   4.143   1.170  0.0000  0.0000  0.0000
 8366OM     OM1 8366   8.500   8.662   0.433  0.0000  0.0000  0.0000
 8367OM     OM1 8367   8.599   8.798   0.237  0.0000  0.0000  0.0000
 8368OM     OM1 8368   7.543   7.976   1.344  0.0000  0.0000  0.0000
 8369OM     OM1 8369   7.305   8.048   1.283  0.0000  0.0000  0.0000
 8370OM     OM1 8370   7.497   8.112   1.120  0.0000  0.0000  0.0000
 8371OM     OM1 8371   6.250   5.948   8.374  0.0000  0.0000  0.0000
 8372OM     OM1 8372   7.063   9.238   8.396  0.0000  0.0000  0.0000
 8373OM     OM1 8373   3.828   1.133   1.270  0.0000  0.0000  0.0000
 8374OM     OM1 8374   6.491   7.122   0.954  0.0000  0.0000  0.0000
 8375OM     OM1 8375   6.326   7.238   1.116  0.0000  0.0000  0.0000
 8376OM     OM1 8376   9.460   0.078   1.003  0.0000  0.0000  0.0000
 8377OM     OM1 8377   9.125   0.384   0.947  0.0000  0.0000  0.0000
 8378OM     OM1 8378   8.411   2.973   9.200  0.0000  0.0000  0.0000
 8379OM     OM1 8379   3.317   2.695   0.206  0.0000  0.0000  0.0000
 8380OM     OM1 8380   3.279   2.580   9.585  0.0000  0.0000  0.0000
 8381OM     OM1 8381   5.915   5.411   8.474  0.0000  0.0000  0.0000
 8382OM     OM1 8382   1.266   7.746   9.398  0.0000  0.0000  0.0000
 8383OM     OM1 8383   1.270   7.529   9.533  0.0000  0.0000  0.0000
 8384OM     OM1 8384   6.352   1.324   8.692  0.0000  0.0000  0.0000
 8385OM     OM1 8385   7.236   1.259   0.994  0.0000  0.0000  0.0000
 8386OM     OM1 8386   5.745   8.080   0.268  0.0000  0.0000  0.0000
 8387OM     OM1 8387   5.619   8.044   0.054  0.0000  0.0000  0.0000
 8388OM     OM1 8388   5.530   7.926   0.273  0.0000  0.0000  0.0000
 8389OM     OM1 8389   9.543   9.584   8.462  0.0000  0.0000  0.0000
 8390OM     OM1 8390   7.925   9.241   8.782  0.0000  0.0000  0.0000
 8391OM     OM1 8391   8.114   9.154   8.614  0.0000  0.0000  0.0000
 8392OM     OM1 8392   6.173   7.557   8.921  0.0000  0.0000  0.0000
 8393OM     OM1 8393   6.044   7.771   8.842  0.0000  0.0000  0.0000
 8394OM     OM1 8394   8.293   2.557   9.528  0.0000  0.0000  0.0000
 8395OM     OM1 8395   8.453   2.478   0.116  0.0000  0.0000  0.0000
 8396OM     OM1 8396   8.462   2.349   9.489  0.0000  0.0000  0.0000
 8397OM     OM1 8397   6.734   2.467   0.800  0.0000  0.0000  0.0000
 8398OM     OM1 8398   6.764   2.427   1.068  0.0000  0.0000  0.0000
 8399OM     OM1 8399   7.312   6.452   8.938  0.0000  0.0000  0.0000
 8400OM     OM1 8400   7.189   6.668   9.010  0.0000  0.0000  0.0000
 8401OM     OM1 8401   6.684   3.550   8.758  0.0000  0.0000  0.0000
 8402OM     OM1 8402   6.496   3.477   8.600  0.0000  0.0000  0.0000
 8403OM     OM1 8403   0.875   0.460   0.087  0.0000  0.0000  0.0000
 8404OM     OM1 8404   8.340   9.289   1.228  0.0000  0.0000  0.0000
 8405OM     OM1 8405   8.256   9.437   1.423  0.0000  0.0000  0.0000
 8406OM     OM1 8406   4.458   8.070   1.132  0.0000  0.0000  0.0000
 8407OM     OM1 8407   4.284   7.913   1.224  0.0000  0.0000  0.0000
 8408OM     OM1 8408   7.543   6.648   9.523  0.0000  0.0000  0.0000
 8409OM     OM1 8409   7.735   6.818   9.595  0.0000  0.0000  0.0000
 8410OM     OM1 8410   7.771   6.585   9.449  0.0000  0.0000  0.0000
 8411OM     OM1 8411   4.499   3.486   0.343  0.0000  0.0000  0.0000
 8412OM     OM1 8412   0.022   7.897   1.334  0.0000  0.0000  0.0000
 8413OM     OM1 8413   9.431   8.375   1.273  0.0000  0.0000  0.0000
 8414OM     OM1 8414   9.425   8.245   1.051  0.0000  0.0000  0.0000
 8415OM     OM1 8415   1.988   5.523   8.577  0.0000  0.0000  0.0000
 8416OM     OM1 8416   2.214   5.612   8.663  0.0000  0.0000  0.0000
 8417OM     OM1 8417   2.139   5.357   8.701  0.0000  0.0000  0.0000
 8418OM     OM1 8418   1.300   7.037   8.583  0.0000  0.0000  0.0000
 8419OM     OM1 8419   1.139   6.904   8.747  0.0000  0.0000  0.0000
 8420OM     OM1 8420   1.054   7.116   8.611  0.0000  0.0000  0.0000
 8421OM     OM1 8421   4.285   9.370   0.455  0.0000  0.0000  0.0000
 8422OM     OM1 8422   3.888   0.104   0.465  0.0000  0.0000  0.0000
 8423OM     OM1 8423   8.734   9.015   0.243  0.0000  0.0000  0.0000
 8424OM     OM1 8424   8.760   8.844   0.042  0.0000  0.0000  0.0000
 8425OM     OM1 8425   8.535   8.970   0.069  0.0000  0.0000  0.0000
 8426OM     OM1 8426   1.396   3.943   1.248  0.0000  0.0000  0.0000
 8427OM     OM1 8427   1.374   4.155   1.099  0.0000  0.0000  0.0000
 8428OM     OM1 8428   1.296   3.929   0.997  0.0000  0.0000  0.0000
 8429OM     OM1 8429   5.302   9.051   8.448  0.0000  0.0000  0.0000
 8430OM     OM1 8430   5.202   9.378   8.584  0.0000  0.0000  0.0000
 8431OM     OM1 8431   5.411   9.281   8.451  0.0000  0.0000  0.0000
 8432OM     OM1 8432   1.886   7.201   0.774  0.0000  0.0000  0.0000
 8433OM     OM1 8433   1.938   7.421   0.630  0.0000  0.0000  0.0000
 8434OM     OM1 8434   2.817   3.210   0.350  0.0000  0.0000  0.0000
 8435OM     OM1 8435   2.884   2.973   0.248  0.0000  0.0000  0.0000
 8436OM     OM1 8436   3.006   3.118   0.480  0.0000  0.0000  0.0000
 8437OM     OM1 8437   7.291   8.045   0.834  0.0000  0.0000  0.0000
 8438OM     OM1 8438   7.168   8.266   1.290  0.0000  0.0000  0.0000
 8439OM     OM1 8439   7.220   8.145   1.066  0.0000  0.0000  0.0000
 8440OM     OM1 8440   1.242   9.002   0.752  0.0000  0.0000  0.0000
 8441OM     OM1 8441   1.439   8.839   0.750  0.0000  0.0000  0.0000
 8442OM     OM1 8442   6.170   8.171   9.312  0.0000  0.0000  0.0000
 8443OM     OM1 8443   1.210   3.965   0.217  0.0000  0.0000  0.0000
 8444OM     OM1 8444   1.938   8.973   1.296  0.0000  0.0000  0.0000
 8445OM     OM1 8445   5.789   7.656   0.364  0.0000  0.0000  0.0000
 8446OM     OM1 8446   5.946   7.499   0.229  0.0000  0.0000  0.0000
 8447OM     OM1 8447   6.041   7.722   0.331  0.0000  0.0000  0.0000
 8448OM     OM1 8448   8.546   9.044   0.687  0.0000  0.0000  0.0000
 8449OM     OM1 8449   8.359   9.244   0.743  0.0000  0.0000  0.0000
 8450OM     OM1 8450   8.366   9.515   0.777  0.0000  0.0000  0.0000
 8451OM     OM1 8451   5.719   2.227   9.019  0.0000  0.0000  0.0000
 8452OM     OM1 8452   5.964   2.305   9.059  0.0000  0.0000  0.0000
 8453OM     OM1 8453   5.785   2.394   9.216  0.0000  0.0000  0.0000
 8454OM     OM1 8454   5.773   2.395   8.833  0.0000  0.0000  0.0000
 8455OM     OM1 8455   3.445   6.928   9.062  0.0000  0.0000  0.0000
 8456OM     OM1 8456   5.189   6.782   8.830  0.0000  0.0000  0.0000
 8457OM     OM1 8457   0.687   0.665   0.411  0.0000  0.0000  0.0000
 8458OM     OM1 8458   0.562   0.656   0.632  0.0000  0.0000  0.0000
 8459OM     OM1 8459   3.269   0.345   1.259  0.0000  0.0000  0.0000
 8460OM     OM1 8460   2.578   9.520   0.793  0.0000  0.0000  0.0000
 8461OM     OM1 8461   2.577   9.268   0.690  0.0000  0.0000  0.0000
 8462OM     OM1 8462   3.928   0.962   9.350  0.0000  0.0000  0.0000
 8463OM     OM1 8463   3.871   1.199   9.428  0.0000  0.0000  0.0000
 8464OM     OM1 8464   4.104   1.069   9.488  0.0000  0.0000  0.0000
 8465OM     OM1 8465   9.315   4.540   9.286  0.0000  0.0000  0.0000
 8466OM     OM1 8466   9.351   4.281   9.276  0.0000  0.0000  0.0000
 8467OM     OM1 8467   7.697   8.107   0.649  0.0000  0.0000  0.0000
 8468OM     OM1 8468   1.917   7.676   0.679  0.0000  0.0000  0.0000
 8469OM     OM1 8469   1.788   7.568   0.872  0.0000  0.0000  0.0000
 8470OM     OM1 8470   1.782   7.820   0.875  0.0000  0.0000  0.0000
 8471OM     OM1 8471   2.013   7.703   0.918  0.0000  0.0000  0.0000
 8472OM     OM1 8472   4.719   4.584   8.778  0.0000  0.0000  0.0000
 8473OM     OM1 8473   2.483   9.091   8.446  0.0000  0.0000  0.0000
 8474OM     OM1 8474   2.608   8.896   8.526  0.0000  0.0000  0.0000
 8475OM     OM1 8475   3.636   3.300   8.471  0.0000  0.0000  0.0000
 8476OM     OM1 8476   6.715   1.663   0.209  0.0000  0.0000  0.0000
 8477OM     OM1 8477   6.704   1.669   0.464  0.0000  0.0000  0.0000
 8478OM     OM1 8478   0.957   2.126   9.227  0.0000  0.0000  0.0000
 8479OM     OM1 8479   1.012   1.946   9.040  0.0000  0.0000  0.0000
 8480OM     OM1 8480   0.766   2.004   9.088  0.0000  0.0000  0.0000
 8481OM     OM1 8481   7.515   0.139   0.931  0.0000  0.0000  0.0000
 8482OM     OM1 8482   7.468   0.350   1.081  0.0000  0.0000  0.0000
 8483OM     OM1 8483   5.448   9.581   1.087  0.0000  0.0000  0.0000
 8484OM     OM1 8484   1.252   6.254   9.162  0.0000  0.0000  0.0000
 8485OM     OM1 8485   1.472   6.391   9.188  0.0000  0.0000  0.0000
 8486OM     OM1 8486   6.499   7.888   0.356  0.0000  0.0000  0.0000
 8487OM     OM1 8487   6.251   7.867   0.286  0.0000  0.0000  0.0000
 8488OM     OM1 8488   6.436   7.731   0.161  0.0000  0.0000  0.0000
 8489OM     OM1 8489   3.886   8.498   1.055  0.0000  0.0000  0.0000
 8490OM     OM1 8490   4.143   8.523   0.984  0.0000  0.0000  0.0000
 8491OM     OM1 8491   4.021   8.311   0.920  0.0000  0.0000  0.0000
 8492OM     OM1 8492   3.726   7.545   8.511  0.0000  0.0000  0.0000
 8493OM     OM1 8493   7.004   0.660   8.351  0.0000  0.0000  0.0000
 8494OM     OM1 8494   7.268   0.624   8.304  0.0000  0.0000  0.0000
 8495OM     OM1 8495   0.366   3.734   0.088  0.0000  0.0000  0.0000
 8496OM     OM1 8496   0.613   3.682   0.103  0.0000  0.0000  0.0000
 8497OM     OM1 8497   7.345   7.671   1.237  0.0000  0.0000  0.0000
 8498OM     OM1 8498   7.244   7.186   1.173  0.0000  0.0000  0.0000
 8499OM     OM1 8499   7.142   7.660   1.083  0.0000  0.0000  0.0000
 8500OM     OM1 8500   7.292   7.451   1.107  0.0000  0.0000  0.0000
 8501OM     OM1 8501   2.518   5.174   1.269  0.0000  0.0000  0.0000
 8502OM     OM1 8502   4.211   7.288   9.358  0.0000  0.0000  0.0000
 8503OM     OM1 8503   4.369   7.492   9.338  0.0000  0.0000  0.0000
 8504OM     OM1 8504   4.462   7.252   9.361  0.0000  0.0000  0.0000
 8505OM     OM1 8505   3.317   0.880   8.863  0.0000  0.0000  0.0000
 8506OM     OM1 8506   3.163   1.086   8.868  0.0000  0.0000  0.0000
 8507OM     OM1 8507   0.644   7.229   0.691  0.0000  0.0000  0.0000
 8508OM     OM1 8508   8.655   6.005   0.633  0.0000  0.0000  0.0000
 8509OM     OM1 8509   8.706   5.965   0.890  0.0000  0.0000  0.0000
 8510OM     OM1 8510   8.897   5.976   0.715  0.0000  0.0000  0.0000
 8511OM     OM1 8511   8.961   7.016   1.220  0.0000  0.0000  0.0000
 8512OM     OM1 8512   9.183   7.124   1.144  0.0000  0.0000  0.0000
 8513OM     OM1 8513   2.737   8.424   9.334  0.0000  0.0000  0.0000
 8514OM     OM1 8514   1.236   8.374   0.325  0.0000  0.0000  0.0000
 8515OM     OM1 8515   1.303   8.622   0.288  0.0000  0.0000  0.0000
 8516OM     OM1 8516   1.118   8.511   0.137  0.0000  0.0000  0.0000
 8517OM     OM1 8517   9.469   1.622   9.369  0.0000  0.0000  0.0000
 8518OM     OM1 8518   1.897   2.495   1.161  0.0000  0.0000  0.0000
 8519OM     OM1 8519   5.528   7.669   0.345  0.0000  0.0000  0.0000
 8520OM     OM1 8520   8.267   5.318   8.125  0.0000  0.0000  0.0000
 8521OM     OM1 8521   0.462   2.980   8.877  0.0000  0.0000  0.0000
 8522OM     OM1 8522   0.256   3.116   8.979  0.0000  0.0000  0.0000
 8523OM     OM1 8523   6.183   1.513   8.657  0.0000  0.0000  0.0000
 8524OM     OM1 8524   6.082   1.743   8.740  0.0000  0.0000  0.0000
 8525OM     OM1 8525   6.018   0.618   0.434  0.0000  0.0000  0.0000
 8526OM     OM1 8526   6.259   0.510   0.479  0.0000  0.0000  0.0000
 8527OM     OM1 8527   6.125   0.606   0.679  0.0000  0.0000  0.0000
 8528OM     OM1 8528   6.847   1.501   0.044  0.0000  0.0000  0.0000
 8529OM     OM1 8529   6.942   1.262   0.037  0.0000  0.0000  0.0000
 8530OM     OM1 8530   8.984   5.716   8.709  0.0000  0.0000  0.0000
 8531OM     OM1 8531   9.230   5.645   8.736  0.0000  0.0000  0.0000
 8532OM     OM1 8532   2.984   2.284   9.404  0.0000  0.0000  0.0000
 8533OM     OM1 8533   2.810   2.231   9.596  0.0000  0.0000  0.0000
 8534OM     OM1 8534   3.017   2.076   9.572  0.0000  0.0000  0.0000
 8535OM     OM1 8535   3.732   8.749   8.748  0.0000  0.0000  0.0000
 8536OM     OM1 8536   3.555   8.554   8.740  0.0000  0.0000  0.0000
 8537OM     OM1 8537   3.616   8.660   8.966  0.0000  0.0000  0.0000
 8538OM     OM1 8538   3.025   1.038   9.092  0.0000  0.0000  0.0000
 8539OM     OM1 8539   2.906   1.018   8.863  0.0000  0.0000  0.0000
 8540OM     OM1 8540   0.634   7.352   8.968  0.0000  0.0000  0.0000
 8541OM     OM1 8541   0.503   7.150   9.082  0.0000  0.0000  0.0000
 8542OM     OM1 8542   0.681   7.101   8.905  0.0000  0.0000  0.0000
 8543OM     OM1 8543   6.162   6.822   8.843  0.0000  0.0000  0.0000
 8544OM     OM1 8544   6.247   7.049   8.940  0.0000  0.0000  0.0000
 8545OM     OM1 8545   6.104   7.040   8.721  0.0000  0.0000  0.0000
 8546OM     OM1 8546   5.270   9.545   0.203  0.0000  0.0000  0.0000
 8547OM     OM1 8547   8.488   9.424   8.841  0.0000  0.0000  0.0000
 8548OM     OM1 8548   8.359   9.407   9.061  0.0000  0.0000  0.0000
 8549OM     OM1 8549   8.500   0.021   9.012  0.0000  0.0000  0.0000
 8550OM     OM1 8550   0.954   4.561   1.282  0.0000  0.0000  0.0000
 8551OM     OM1 8551   2.651   2.416   9.217  0.0000  0.0000  0.0000
 8552OM     OM1 8552   2.436   2.354   9.076  0.0000  0.0000  0.0000
 8553OM     OM1 8553   2.592   2.157   9.151  0.0000  0.0000  0.0000
 8554OM     OM1 8554   2.363   3.616   1.056  0.0000  0.0000  0.0000
 8555OM     OM1 8555   2.194   3.440   0.974  0.0000  0.0000  0.0000
 8556OM     OM1 8556   3.741   7.947   9.054  0.0000  0.0000  0.0000
 8557OM     OM1 8557   3.873   8.164   9.093  0.0000  0.0000  0.0000
 8558OM     OM1 8558   5.363   2.621   0.817  0.0000  0.0000  0.0000
 8559OM     OM1 8559   5.574   2.772   0.870  0.0000  0.0000  0.0000
 8560OM     OM1 8560   9.288   3.711   0.088  0.0000  0.0000  0.0000
 8561OM     OM1 8561   9.051   3.810   0.109  0.0000  0.0000  0.0000
 8562OM     OM1 8562   0.180   1.586   1.162  0.0000  0.0000  0.0000
 8563OM     OM1 8563   9.205   8.199   0.908  0.0000  0.0000  0.0000
 8564OM     OM1 8564   6.544   2.375   1.164  0.0000  0.0000  0.0000
 8565OM     OM1 8565   6.460   2.583   1.018  0.0000  0.0000  0.0000
 8566OM     OM1 8566   3.308   4.736   0.490  0.0000  0.0000  0.0000
 8567OM     OM1 8567   5.593   5.172   9.475  0.0000  0.0000  0.0000
 8568OM     OM1 8568   7.145   3.413   8.550  0.0000  0.0000  0.0000
 8569OM     OM1 8569   7.170   3.244   8.360  0.0000  0.0000  0.0000
 8570OM     OM1 8570   3.162   6.376   1.034  0.0000  0.0000  0.0000
 8571OM     OM1 8571   3.042   6.153   1.069  0.0000  0.0000  0.0000
 8572OM     OM1 8572   3.298   6.172   0.989  0.0000  0.0000  0.0000
 8573OM     OM1 8573   6.838   8.887   1.195  0.0000  0.0000  0.0000
 8574OM     OM1 8574   6.651   9.000   1.051  0.0000  0.0000  0.0000
 8575OM     OM1 8575   0.597   8.330   0.073  0.0000  0.0000  0.0000
 8576OM     OM1 8576   4.956   7.469   0.160  0.0000  0.0000  0.0000
 8577OM     OM1 8577   4.838   7.344   9.556  0.0000  0.0000  0.0000
 8578OM     OM1 8578   4.844   7.602   9.575  0.0000  0.0000  0.0000
 8579OM     OM1 8579   4.698   7.475   0.142  0.0000  0.0000  0.0000
 8580OM     OM1 8580   4.014   5.501   9.049  0.0000  0.0000  0.0000
 8581OM     OM1 8581   3.995   5.731   9.154  0.0000  0.0000  0.0000
 8582OM     OM1 8582   8.200   5.797   0.951  0.0000  0.0000  0.0000
 8583OM     OM1 8583   6.608   9.008   0.786  0.0000  0.0000  0.0000
 8584OM     OM1 8584   6.493   8.847   0.621  0.0000  0.0000  0.0000
 8585OM     OM1 8585   6.761   8.893   0.614  0.0000  0.0000  0.0000
 8586OM     OM1 8586   4.340   0.921   9.087  0.0000  0.0000  0.0000
 8587OM     OM1 8587   4.123   0.849   9.199  0.0000  0.0000  0.0000
 8588OM     OM1 8588   6.071   5.233   1.143  0.0000  0.0000  0.0000
 8589OM     OM1 8589   6.031   5.052   0.966  0.0000  0.0000  0.0000
 8590OM     OM1 8590   4.680   3.845   8.794  0.0000  0.0000  0.0000
 8591OM     OM1 8591   4.500   3.660   8.796  0.0000  0.0000  0.0000
 8592OM     OM1 8592   4.733   3.608   8.693  0.0000  0.0000  0.0000
 8593OM     OM1 8593   9.350   1.408   0.707  0.0000  0.0000  0.0000
 8594OM     OM1 8594   0.016   1.719   0.456  0.0000  0.0000  0.0000
 8595OM     OM1 8595   9.498   1.725   0.673  0.0000  0.0000  0.0000
 8596OM     OM1 8596   8.406   2.444   8.653  0.0000  0.0000  0.0000
 8597OM     OM1 8597   8.641   2.450   8.774  0.0000  0.0000  0.0000
 8598OM     OM1 8598   8.607   2.290   8.579  0.0000  0.0000  0.0000
 8599OM     OM1 8599   0.648   6.552   0.929  0.0000  0.0000  0.0000
 8600OM     OM1 8600   0.540   6.782   0.859  0.0000  0.0000  0.0000
 8601OM     OM1 8601   0.564   6.719   1.113  0.0000  0.0000  0.0000
 8602OM     OM1 8602   0.156   8.152   9.518  0.0000  0.0000  0.0000
 8603OM     OM1 8603   9.542   8.084   0.023  0.0000  0.0000  0.0000
 8604OM     OM1 8604   2.468   4.665   9.222  0.0000  0.0000  0.0000
 8605OM     OM1 8605   8.816   2.521   0.393  0.0000  0.0000  0.0000
 8606OM     OM1 8606   8.948   2.492   0.617  0.0000  0.0000  0.0000
 8607OM     OM1 8607   8.781   2.306   0.559  0.0000  0.0000  0.0000
 8608OM     OM1 8608   8.700   2.553   0.612  0.0000  0.0000  0.0000
 8609OM     OM1 8609   1.844   0.932   8.780  0.0000  0.0000  0.0000
 8610OM     OM1 8610   8.603   0.168   0.210  0.0000  0.0000  0.0000
 8611OM     OM1 8611   8.381   0.044   0.116  0.0000  0.0000  0.0000
 8612OM     OM1 8612   8.209   0.043   0.354  0.0000  0.0000  0.0000
 8613OM     OM1 8613   7.893   9.454   0.030  0.0000  0.0000  0.0000
 8614OM     OM1 8614   8.147   9.500   0.069  0.0000  0.0000  0.0000
 8615OM     OM1 8615   1.460   4.886   9.572  0.0000  0.0000  0.0000
 8616OM     OM1 8616   1.544   5.103   0.082  0.0000  0.0000  0.0000
 8617OM     OM1 8617   1.780   5.048   1.358  0.0000  0.0000  0.0000
 8618OM     OM1 8618   1.943   5.228   1.274  0.0000  0.0000  0.0000
 8619OM     OM1 8619   1.965   3.482   1.109  0.0000  0.0000  0.0000
 8620OM     OM1 8620   2.016   3.255   0.984  0.0000  0.0000  0.0000
 8621OM     OM1 8621   9.273   3.262   8.327  0.0000  0.0000  0.0000
 8622OM     OM1 8622   5.547   4.222   8.905  0.0000  0.0000  0.0000
 8623OM     OM1 8623   5.861   4.273   9.068  0.0000  0.0000  0.0000
 8624OM     OM1 8624   5.762   4.464   9.224  0.0000  0.0000  0.0000
 8625OM     OM1 8625   0.539   4.959   9.499  0.0000  0.0000  0.0000
 8626OM     OM1 8626   6.491   1.637   9.445  0.0000  0.0000  0.0000
 8627OM     OM1 8627   6.578   1.886   9.433  0.0000  0.0000  0.0000
 8628OM     OM1 8628   6.714   1.698   9.558  0.0000  0.0000  0.0000
 8629OM     OM1 8629   6.701   1.708   9.298  0.0000  0.0000  0.0000
 8630OM     OM1 8630   7.196   9.276   1.071  0.0000  0.0000  0.0000
 8631OM     OM1 8631   0.162   6.245   8.982  0.0000  0.0000  0.0000
 8632OM     OM1 8632   0.313   6.199   9.185  0.0000  0.0000  0.0000
 8633OM     OM1 8633   0.286   6.024   8.992  0.0000  0.0000  0.0000
 8634OM     OM1 8634   3.594   1.888   1.348  0.0000  0.0000  0.0000
 8635OM     OM1 8635   3.443   2.085   1.402  0.0000  0.0000  0.0000
 8636OM     OM1 8636   3.561   2.087   1.170  0.0000  0.0000  0.0000
 8637OM     OM1 8637   8.559   7.295   8.723  0.0000  0.0000  0.0000
 8638OM     OM1 8638   8.514   7.200   8.956  0.0000  0.0000  0.0000
 8639OM     OM1 8639   8.314   7.256   8.795  0.0000  0.0000  0.0000
 8640OM     OM1 8640   2.283   8.156   9.443  0.0000  0.0000  0.0000
 8641OM     OM1 8641   5.640   5.628   9.118  0.0000  0.0000  0.0000
 8642OM     OM1 8642   5.719   5.530   9.343  0.0000  0.0000  0.0000
 8643OM     OM1 8643   4.282   1.641   9.349  0.0000  0.0000  0.0000
 8644OM     OM1 8644   4.322   1.475   9.551  0.0000  0.0000  0.0000
 8645OM     OM1 8645   2.310   1.305   1.003  0.0000  0.0000  0.0000
 8646OM     OM1 8646   2.492   1.201   0.860  0.0000  0.0000  0.0000
 8647OM     OM1 8647   0.705   1.365   8.381  0.0000  0.0000  0.0000
 8648OM     OM1 8648   0.734   1.123   8.332  0.0000  0.0000  0.0000
 8649OM     OM1 8649   0.050   5.897   0.334  0.0000  0.0000  0.0000
 8650OM     OM1 8650   0.035   5.888   0.074  0.0000  0.0000  0.0000
 8651OM     OM1 8651   7.257   2.592   0.372  0.0000  0.0000  0.0000
 8652OM     OM1 8652   5.891   8.290   0.226  0.0000  0.0000  0.0000
 8653OM     OM1 8653   1.597   8.092   0.659  0.0000  0.0000  0.0000
 8654OM     OM1 8654   1.668   8.264   0.485  0.0000  0.0000  0.0000
 8655OM     OM1 8655   4.359   3.857   0.627  0.0000  0.0000  0.0000
 8656OM     OM1 8656   4.424   3.708   0.835  0.0000  0.0000  0.0000
 8657OM     OM1 8657   7.800   2.599   8.389  0.0000  0.0000  0.0000
 8658OM     OM1 8658   7.856   2.852   8.316  0.0000  0.0000  0.0000
 8659OM     OM1 8659   4.375   2.103   8.711  0.0000  0.0000  0.0000
 8660OM     OM1 8660   1.027   3.135   9.083  0.0000  0.0000  0.0000
 8661OM     OM1 8661   1.044   3.221   9.337  0.0000  0.0000  0.0000
 8662OM     OM1 8662   1.773   5.395   8.668  0.0000  0.0000  0.0000
 8663OM     OM1 8663   1.542   5.384   8.783  0.0000  0.0000  0.0000
 8664OM     OM1 8664   1.605   5.181   8.643  0.0000  0.0000  0.0000
 8665OM     OM1 8665   1.551   5.398   8.521  0.0000  0.0000  0.0000
 8666OM     OM1 8666   5.543   3.281   9.024  0.0000  0.0000  0.0000
 8667OM     OM1 8667   5.295   3.188   9.128  0.0000  0.0000  0.0000
 8668OM     OM1 8668   5.349   3.194   8.666  0.0000  0.0000  0.0000
 8669OM     OM1 8669   2.921   0.217   9.431  0.0000  0.0000  0.0000
 8670OM     OM1 8670   9.424   4.643   9.001  0.0000  0.0000  0.0000
 8671OM     OM1 8671   9.481   4.734   8.768  0.0000  0.0000  0.0000
 8672OM     OM1 8672   5.019   2.926   8.469  0.0000  0.0000  0.0000
 8673OM     OM1 8673   1.634   2.277   8.747  0.0000  0.0000  0.0000
 8674OM     OM1 8674   1.830   2.409   8.846  0.0000  0.0000  0.0000
 8675OM     OM1 8675   3.241   3.688   0.741  0.0000  0.0000  0.0000
 8676OM     OM1 8676   3.050   3.663   0.571  0.0000  0.0000  0.0000
 8677OM     OM1 8677   2.965   3.714   0.801  0.0000  0.0000  0.0000
 8678OM     OM1 8678   0.250   1.697   0.336  0.0000  0.0000  0.0000
 8679OM     OM1 8679   5.298   6.833   0.584  0.0000  0.0000  0.0000
 8680OM     OM1 8680   5.087   6.966   0.475  0.0000  0.0000  0.0000
 8681OM     OM1 8681   1.292   2.806   9.404  0.0000  0.0000  0.0000
 8682OM     OM1 8682   1.263   2.605   9.556  0.0000  0.0000  0.0000
 8683OM     OM1 8683   1.236   2.578   9.305  0.0000  0.0000  0.0000
 8684OM     OM1 8684   1.046   2.705   9.418  0.0000  0.0000  0.0000
 8685OM     OM1 8685   0.151   2.150   0.125  0.0000  0.0000  0.0000
 8686OM     OM1 8686   1.618   7.900   8.744  0.0000  0.0000  0.0000
 8687OM     OM1 8687   1.787   7.974   8.931  0.0000  0.0000  0.0000
 8688OM     OM1 8688   3.211   6.670   0.126  0.0000  0.0000  0.0000
 8689OM     OM1 8689   3.255   6.427   0.036  0.0000  0.0000  0.0000
 8690OM     OM1 8690   5.654   8.032   9.403  0.0000  0.0000  0.0000
 8691OM     OM1 8691   9.059   2.675   0.480  0.0000  0.0000  0.0000
 8692OM     OM1 8692   9.016   2.913   0.418  0.0000  0.0000  0.0000
 8693OM     OM1 8693   8.920   2.716   0.268  0.0000  0.0000  0.0000
 8694OM     OM1 8694   9.167   2.777   0.253  0.0000  0.0000  0.0000
 8695OM     OM1 8695   5.043   0.639   0.385  0.0000  0.0000  0.0000
 8696OM     OM1 8696   8.132   7.887   8.813  0.0000  0.0000  0.0000
 8697OM     OM1 8697   0.622   5.648   8.775  0.0000  0.0000  0.0000
 8698OM     OM1 8698   8.612   1.316   0.406  0.0000  0.0000  0.0000
 8699OM     OM1 8699   8.772   1.363   0.214  0.0000  0.0000  0.0000
 8700OM     OM1 8700   7.302   9.078   1.202  0.0000  0.0000  0.0000
 8701OM     OM1 8701   7.107   8.911   1.218  0.0000  0.0000  0.0000
 8702OM     OM1 8702   7.530   7.427   0.530  0.0000  0.0000  0.0000
 8703OM     OM1 8703   7.342   7.610   0.483  0.0000  0.0000  0.0000
 8704OM     OM1 8704   5.966   1.109   0.312  0.0000  0.0000  0.0000
 8705OM     OM1 8705   5.931   1.351   0.226  0.0000  0.0000  0.0000
 8706OM     OM1 8706   4.714   7.269   9.330  0.0000  0.0000  0.0000
 8707OM     OM1 8707   7.935   6.455   8.484  0.0000  0.0000  0.0000
 8708OM     OM1 8708   7.919   6.679   8.602  0.0000  0.0000  0.0000
 8709OM     OM1 8709   7.866   6.673   8.343  0.0000  0.0000  0.0000
 8710OM     OM1 8710   9.516   0.867   8.970  0.0000  0.0000  0.0000
 8711OM     OM1 8711   0.052   0.709   8.822  0.0000  0.0000  0.0000
 8712OM     OM1 8712   6.388   3.998   0.239  0.0000  0.0000  0.0000
 8713OM     OM1 8713   0.636   4.642   1.160  0.0000  0.0000  0.0000
 8714OM     OM1 8714   0.501   4.836   1.046  0.0000  0.0000  0.0000
 8715OM     OM1 8715   2.241   4.123   1.073  0.0000  0.0000  0.0000
 8716OM     OM1 8716   5.129   8.500   9.212  0.0000  0.0000  0.0000
 8717OM     OM1 8717   4.871   8.467   9.247  0.0000  0.0000  0.0000
 8718OM     OM1 8718   4.972   8.696   9.148  0.0000  0.0000  0.0000
 8719OM     OM1 8719   3.745   4.242   0.124  0.0000  0.0000  0.0000
 8720OM     OM1 8720   3.741   4.500   0.123  0.0000  0.0000  0.0000
 8721OM     OM1 8721   1.341   6.388   0.555  0.0000  0.0000  0.0000
 8722OM     OM1 8722   1.308   6.187   0.409  0.0000  0.0000  0.0000
 8723OM     OM1 8723   8.920   7.484   0.965  0.0000  0.0000  0.0000
 8724OM     OM1 8724   8.807   7.706   0.912  0.0000  0.0000  0.0000
 8725OM     OM1 8725   8.909   7.676   1.150  0.0000  0.0000  0.0000
 8726OM     OM1 8726   4.642   9.102   9.504  0.0000  0.0000  0.0000
 8727OM     OM1 8727   4.473   8.962   9.348  0.0000  0.0000  0.0000
 8728OM     OM1 8728   9.285   4.281   0.437  0.0000  0.0000  0.0000
 8729OM     OM1 8729   9.502   4.175   0.348  0.0000  0.0000  0.0000
 8730OM     OM1 8730   9.330   4.051   0.519  0.0000  0.0000  0.0000
 8731OM     OM1 8731   0.435   8.696   8.446  0.0000  0.0000  0.0000
 8732OM     OM1 8732   0.355   8.463   8.528  0.0000  0.0000  0.0000
 8733OM     OM1 8733   5.165   2.116   9.327  0.0000  0.0000  0.0000
 8734OM     OM1 8734   7.804   8.930   0.666  0.0000  0.0000  0.0000
 8735OM     OM1 8735   7.773   9.184   0.967  0.0000  0.0000  0.0000
 8736OM     OM1 8736   4.732   7.645   0.337  0.0000  0.0000  0.0000
 8737OM     OM1 8737   6.208   9.197   9.267  0.0000  0.0000  0.0000
 8738OM     OM1 8738   6.477   3.442   0.543  0.0000  0.0000  0.0000
 8739OM     OM1 8739   6.678   3.286   0.594  0.0000  0.0000  0.0000
 8740OM     OM1 8740   6.550   3.417   0.787  0.0000  0.0000  0.0000
 8741OM     OM1 8741   8.282   5.156   0.602  0.0000  0.0000  0.0000
 8742OM     OM1 8742   2.399   3.693   9.469  0.0000  0.0000  0.0000
 8743OM     OM1 8743   2.590   3.763   9.303  0.0000  0.0000  0.0000
 8744OM     OM1 8744   1.898   5.586   0.365  0.0000  0.0000  0.0000
 8745OM     OM1 8745   1.978   5.410   0.541  0.0000  0.0000  0.0000
 8746OM     OM1 8746   1.049   6.776   8.964  0.0000  0.0000  0.0000
 8747OM     OM1 8747   0.803   1.150   0.527  0.0000  0.0000  0.0000
 8748OM     OM1 8748   0.572   1.073   0.448  0.0000  0.0000  0.0000
 8749OM     OM1 8749   0.642   1.073   0.712  0.0000  0.0000  0.0000
 8750OM     OM1 8750   1.945   2.724   9.421  0.0000  0.0000  0.0000
 8751OM     OM1 8751   0.688   1.114   0.215  0.0000  0.0000  0.0000
 8752OM     OM1 8752   0.139   9.145   9.489  0.0000  0.0000  0.0000
 8753OM     OM1 8753   9.508   9.179   9.365  0.0000  0.0000  0.0000
 8754OM     OM1 8754   3.506   4.407   9.280  0.0000  0.0000  0.0000
 8755OM     OM1 8755   3.615   4.510   9.068  0.0000  0.0000  0.0000
 8756OM     OM1 8756   3.644   4.632   9.300  0.0000  0.0000  0.0000
 8757OM     OM1 8757   0.266   8.988   0.040  0.0000  0.0000  0.0000
 8758OM     OM1 8758   2.715   0.364   9.485  0.0000  0.0000  0.0000
 8759OM     OM1 8759   2.741   0.631   9.517  0.0000  0.0000  0.0000
 8760OM     OM1 8760   3.452   5.550   8.202  0.0000  0.0000  0.0000
 8761OM     OM1 8761   3.324   5.366   8.324  0.0000  0.0000  0.0000
 8762OM     OM1 8762   2.454   4.128   0.621  0.0000  0.0000  0.0000
 8763OM     OM1 8763   5.891   7.184   8.708  0.0000  0.0000  0.0000
 8764OM     OM1 8764   0.930   6.248   0.670  0.0000  0.0000  0.0000
 8765OM     OM1 8765   1.188   6.165   0.719  0.0000  0.0000  0.0000
 8766OM     OM1 8766   1.293   2.541   0.566  0.0000  0.0000  0.0000
 8767OM     OM1 8767   1.295   2.281   0.590  0.0000  0.0000  0.0000
 8768OM     OM1 8768   0.364   8.629   9.039  0.0000  0.0000  0.0000
 8769OM     OM1 8769   0.591   8.688   9.162  0.0000  0.0000  0.0000
 8770OM     OM1 8770   5.018   5.789   9.561  0.0000  0.0000  0.0000
 8771OM     OM1 8771   5.031   5.754   0.223  0.0000  0.0000  0.0000
 8772OM     OM1 8772   0.746   6.127   0.505  0.0000  0.0000  0.0000
 8773OM     OM1 8773   4.661   7.280   0.928  0.0000  0.0000  0.0000
 8774OM     OM1 8774   4.439   7.148   0.870  0.0000  0.0000  0.0000
 8775OM     OM1 8775   8.532   6.365   0.095  0.0000  0.0000  0.0000
 8776OM     OM1 8776   8.445   6.119   0.034  0.0000  0.0000  0.0000
 8777OM     OM1 8777   2.418   5.007   1.086  0.0000  0.0000  0.0000
 8778OM     OM1 8778   7.929   3.382   0.802  0.0000  0.0000  0.0000
 8779OM     OM1 8779   7.955   3.493   0.571  0.0000  0.0000  0.0000
 8780OM     OM1 8780   8.875   3.993   0.756  0.0000  0.0000  0.0000
 8781OM     OM1 8781   9.069   4.017   0.576  0.0000  0.0000  0.0000
 8782OM     OM1 8782   8.838   3.915   0.502  0.0000  0.0000  0.0000
 8783OM     OM1 8783   1.714   9.421   9.293  0.0000  0.0000  0.0000
 8784OM     OM1 8784   1.909   9.347   9.447  0.0000  0.0000  0.0000
 8785OM     OM1 8785   4.110   3.101   1.136  0.0000  0.0000  0.0000
 8786OM     OM1 8786   3.756   9.263   9.340  0.0000  0.0000  0.0000
 8787OM     OM1 8787   3.901   9.177   9.533  0.0000  0.0000  0.0000
 8788OM     OM1 8788   1.686   2.485   9.053  0.0000  0.0000  0.0000
 8789OM     OM1 8789   1.931   2.573   9.020  0.0000  0.0000  0.0000
 8790OM     OM1 8790   4.348   1.456   0.718  0.0000  0.0000  0.0000
 8791OM     OM1 8791   4.266   1.515   0.486  0.0000  0.0000  0.0000
 8792OM     OM1 8792   4.477   1.361   0.523  0.0000  0.0000  0.0000
 8793OM     OM1 8793   3.009   1.174   8.466  0.0000  0.0000  0.0000
 8794OM     OM1 8794   3.261   1.188   8.412  0.0000  0.0000  0.0000
 8795OM     OM1 8795   0.340   2.822   9.272  0.0000  0.0000  0.0000
 8796OM     OM1 8796   6.829   6.679   9.266  0.0000  0.0000  0.0000
 8797OM     OM1 8797   6.864   6.463   9.399  0.0000  0.0000  0.0000
 8798OM     OM1 8798   5.159   1.043   0.960  0.0000  0.0000  0.0000
 8799OM     OM1 8799   5.286   0.969   1.185  0.0000  0.0000  0.0000
 8800OM     OM1 8800   6.585   8.680   9.113  0.0000  0.0000  0.0000
 8801OM     OM1 8801   6.428   8.478   9.084  0.0000  0.0000  0.0000
 8802OM     OM1 8802   6.599   8.531   8.899  0.0000  0.0000  0.0000
 8803OM     OM1 8803   7.582   5.130   9.100  0.0000  0.0000  0.0000
 8804OM     OM1 8804   7.348   5.217   9.138  0.0000  0.0000  0.0000
 8805OM     OM1 8805   3.997   2.010   9.567  0.0000  0.0000  0.0000
 8806OM     OM1 8806   4.205   2.093   0.084  0.0000  0.0000  0.0000
 8807OM     OM1 8807   3.972   2.065   0.222  0.0000  0.0000  0.0000
 8808OM     OM1 8808   4.229   0.410   8.693  0.0000  0.0000  0.0000
 8809OM     OM1 8809   7.242   5.305   8.919  0.0000  0.0000  0.0000
 8810OM     OM1 8810   7.462   5.411   8.992  0.0000  0.0000  0.0000
 8811OM     OM1 8811   7.247   5.464   9.130  0.0000  0.0000  0.0000
 8812OM     OM1 8812   4.665   9.071   0.466  0.0000  0.0000  0.0000
 8813OM     OM1 8813   6.302   5.681   8.403  0.0000  0.0000  0.0000
 8814OM     OM1 8814   6.489   9.534   0.571  0.0000  0.0000  0.0000
 8815OM     OM1 8815   2.335   6.345   8.406  0.0000  0.0000  0.0000
 8816OM     OM1 8816   2.426   6.274   8.695  0.0000  0.0000  0.0000
 8817OM     OM1 8817   5.388   6.404   9.142  0.0000  0.0000  0.0000
 8818OM     OM1 8818   3.787   6.035   0.369  0.0000  0.0000  0.0000
 8819OM     OM1 8819   3.780   6.229   0.189  0.0000  0.0000  0.0000
 8820OM     OM1 8820   1.418   0.357   9.531  0.0000  0.0000  0.0000
 8821OM     OM1 8821   1.345   2.286   8.386  0.0000  0.0000  0.0000
 8822OM     OM1 8822   9.453   9.218   1.330  0.0000  0.0000  0.0000
 8823OM     OM1 8823   3.153   8.235   8.744  0.0000  0.0000  0.0000
 8824OM     OM1 8824   3.009   8.031   8.690  0.0000  0.0000  0.0000
 8825OM     OM1 8825   3.714   3.905   0.750  0.0000  0.0000  0.0000
 8826OM     OM1 8826   5.662   3.439   8.846  0.0000  0.0000  0.0000
 8827OM     OM1 8827   2.672   9.285   8.574  0.0000  0.0000  0.0000
 8828OM     OM1 8828   2.855   9.348   8.388  0.0000  0.0000  0.0000
 8829OM     OM1 8829   2.739   9.103   8.416  0.0000  0.0000  0.0000
 8830OM     OM1 8830   5.431   8.904   0.270  0.0000  0.0000  0.0000
 8831OM     OM1 8831   7.368   2.612   9.491  0.0000  0.0000  0.0000
 8832OM     OM1 8832   7.287   2.555   0.124  0.0000  0.0000  0.0000
 8833OM     OM1 8833   7.474   2.733   0.107  0.0000  0.0000  0.0000
 8834OM     OM1 8834   7.239   2.795   0.014  0.0000  0.0000  0.0000
 8835OM     OM1 8835   2.957   0.559   8.848  0.0000  0.0000  0.0000
 8836OM     OM1 8836   2.295   6.720   9.273  0.0000  0.0000  0.0000
 8837OM     OM1 8837   8.228   0.286   9.516  0.0000  0.0000  0.0000
 8838OM     OM1 8838   8.582   9.257   0.080  0.0000  0.0000  0.0000
 8839OM     OM1 8839   8.382   9.137   9.584  0.0000  0.0000  0.0000
 8840OM     OM1 8840   8.366   9.385   0.081  0.0000  0.0000  0.0000
 8841OM     OM1 8841   4.315   6.831   1.270  0.0000  0.0000  0.0000
 8842OM     OM1 8842   4.369   6.956   1.039  0.0000  0.0000  0.0000
 8843OM     OM1 8843   5.718   6.612   8.573  0.0000  0.0000  0.0000
 8844OM     OM1 8844   5.495   6.456   8.582  0.0000  0.0000  0.0000
 8845OM     OM1 8845   4.115   6.487   9.286  0.0000  0.0000  0.0000
 8846OM     OM1 8846   3.992   6.553   9.496  0.0000  0.0000  0.0000
 8847OM     OM1 8847   4.418   9.278   0.657  0.0000  0.0000  0.0000
 8848OM     OM1 8848   4.409   0.096   0.729  0.0000  0.0000  0.0000
 8849OM     OM1 8849   9.043   2.242   0.357  0.0000  0.0000  0.0000
 8850OM     OM1 8850   9.120   5.706   0.162  0.0000  0.0000  0.0000
 8851OM     OM1 8851   0.831   4.171   8.316  0.0000  0.0000  0.0000
 8852OM     OM1 8852   3.729   9.066   8.892  0.0000  0.0000  0.0000
 8853OM     OM1 8853   3.754   9.078   9.147  0.0000  0.0000  0.0000
 8854OM     OM1 8854   3.605   8.899   9.053  0.0000  0.0000  0.0000
 8855OM     OM1 8855   3.885   2.643   9.302  0.0000  0.0000  0.0000
 8856OM     OM1 8856   3.635   2.899   9.203  0.0000  0.0000  0.0000
 8857OM     OM1 8857   3.732   3.110   9.321  0.0000  0.0000  0.0000
 8858OM     OM1 8858   7.124   4.400   0.241  0.0000  0.0000  0.0000
 8859OM     OM1 8859   7.332   4.316   0.115  0.0000  0.0000  0.0000
 8860OM     OM1 8860   7.212   4.539   0.043  0.0000  0.0000  0.0000
 8861OM     OM1 8861   7.854   5.359   0.755  0.0000  0.0000  0.0000
 8862OM     OM1 8862   7.852   5.159   0.587  0.0000  0.0000  0.0000
 8863OM     OM1 8863   8.063   5.312   0.579  0.0000  0.0000  0.0000
 8864OM     OM1 8864   0.818   1.809   8.508  0.0000  0.0000  0.0000
 8865OM     OM1 8865   0.783   2.044   8.367  0.0000  0.0000  0.0000
 8866OM     OM1 8866   6.337   1.434   8.449  0.0000  0.0000  0.0000
 8867OM     OM1 8867   6.123   1.316   8.381  0.0000  0.0000  0.0000
 8868OM     OM1 8868   5.868   2.132   0.849  0.0000  0.0000  0.0000
 8869OM     OM1 8869   3.172   9.488   1.259  0.0000  0.0000  0.0000
 8870OM     OM1 8870   0.787   6.732   0.587  0.0000  0.0000  0.0000
 8871OM     OM1 8871   0.639   6.779   0.370  0.0000  0.0000  0.0000
 8872OM     OM1 8872   8.541   5.923   9.505  0.0000  0.0000  0.0000
 8873OM     OM1 8873   9.202   7.931   8.508  0.0000  0.0000  0.0000
 8874OM     OM1 8874   9.097   8.131   8.385  0.0000  0.0000  0.0000
 8875OM     OM1 8875   8.961   7.908   8.423  0.0000  0.0000  0.0000
 8876OM     OM1 8876   6.343   4.666   1.225  0.0000  0.0000  0.0000
 8877OM     OM1 8877   4.345   2.673   1.131  0.0000  0.0000  0.0000
 8878OM     OM1 8878   3.823   8.529   8.349  0.0000  0.0000  0.0000
 8879OM     OM1 8879   3.848   8.287   8.273  0.0000  0.0000  0.0000
 8880OM     OM1 8880   6.938   1.753   9.208  0.0000  0.0000  0.0000
 8881OM     OM1 8881   8.591   0.704   8.796  0.0000  0.0000  0.0000
 8882OM     OM1 8882   8.567   0.715   9.052  0.0000  0.0000  0.0000
 8883OM     OM1 8883   4.926   8.431   0.844  0.0000  0.0000  0.0000
 8884OM     OM1 8884   4.912   4.225   9.366  0.0000  0.0000  0.0000
 8885OM     OM1 8885   5.155   4.238   9.473  0.0000  0.0000  0.0000
 8886OM     OM1 8886   3.734   5.285   0.288  0.0000  0.0000  0.0000
 8887OM     OM1 8887   3.571   5.170   0.457  0.0000  0.0000  0.0000
 8888OM     OM1 8888   3.284   8.777   0.548  0.0000  0.0000  0.0000
 8889OM     OM1 8889   3.362   8.902   0.340  0.0000  0.0000  0.0000
 8890OM     OM1 8890   3.104   8.868   0.401  0.0000  0.0000  0.0000
 8891OM     OM1 8891   2.157   6.881   8.821  0.0000  0.0000  0.0000
 8892OM     OM1 8892   2.173   6.783   9.053  0.0000  0.0000  0.0000
 8893OM     OM1 8893   5.807   3.793   9.412  0.0000  0.0000  0.0000
 8894OM     OM1 8894   5.582   3.867   0.346  0.0000  0.0000  0.0000
 8895OM     OM1 8895   4.785   4.958   0.713  0.0000  0.0000  0.0000
 8896OM     OM1 8896   7.919   7.569   8.952  0.0000  0.0000  0.0000
 8897OM     OM1 8897   8.054   7.653   8.736  0.0000  0.0000  0.0000
 8898OM     OM1 8898   7.979   7.415   8.760  0.0000  0.0000  0.0000
 8899OM     OM1 8899   9.597   6.069   8.875  0.0000  0.0000  0.0000
 8900OM     OM1 8900   4.918   4.361   0.653  0.0000  0.0000  0.0000
 8901OM     OM1 8901   4.930   4.132   0.762  0.0000  0.0000  0.0000
 8902OM     OM1 8902   0.033   3.251   8.905  0.0000  0.0000  0.0000
 8903OM     OM1 8903   9.387   3.216   8.959  0.0000  0.0000  0.0000
 8904OM     OM1 8904   7.876   2.479   0.216  0.0000  0.0000  0.0000
 8905OM     OM1 8905   8.065   2.527   0.039  0.0000  0.0000  0.0000
 8906OM     OM1 8906   8.111   2.405   0.265  0.0000  0.0000  0.0000
 8907OM     OM1 8907   0.268   9.172   8.622  0.0000  0.0000  0.0000
 8908OM     OM1 8908   4.049   1.346   1.245  0.0000  0.0000  0.0000
 8909OM     OM1 8909   3.883   2.694   8.829  0.0000  0.0000  0.0000
 8910OM     OM1 8910   3.753   2.868   8.972  0.0000  0.0000  0.0000
 8911OM     OM1 8911   8.950   1.474   8.849  0.0000  0.0000  0.0000
 8912OM     OM1 8912   8.978   1.720   8.911  0.0000  0.0000  0.0000
 8913OM     OM1 8913   3.132   4.184   1.074  0.0000  0.0000  0.0000
 8914OM     OM1 8914   3.588   4.274   8.982  0.0000  0.0000  0.0000
 8915OM     OM1 8915   3.780   4.427   8.888  0.0000  0.0000  0.0000
 8916OM     OM1 8916   2.037   1.301   8.299  0.0000  0.0000  0.0000
 8917OM     OM1 8917   1.905   4.229   0.218  0.0000  0.0000  0.0000
 8918OM     OM1 8918   2.200   1.908   0.042  0.0000  0.0000  0.0000
 8919OM     OM1 8919   2.107   2.063   9.464  0.0000  0.0000  0.0000
 8920OM     OM1 8920   2.178   1.819   9.398  0.0000  0.0000  0.0000
 8921OM     OM1 8921   7.638   9.434   9.349  0.0000  0.0000  0.0000
 8922OM     OM1 8922   7.679   9.206   9.227  0.0000  0.0000  0.0000
 8923OM     OM1 8923   3.393   6.662   1.348  0.0000  0.0000  0.0000
 8924OM     OM1 8924   7.863   8.231   9.045  0.0000  0.0000  0.0000
 8925OM     OM1 8925   7.620   8.150   9.079  0.0000  0.0000  0.0000
 8926OM     OM1 8926   7.828   7.976   9.105  0.0000  0.0000  0.0000
 8927OM     OM1 8927   4.316   7.682   1.336  0.0000  0.0000  0.0000
 8928OM     OM1 8928   9.179   1.220   8.238  0.0000  0.0000  0.0000
 8929OM     OM1 8929   8.480   8.586   9.307  0.0000  0.0000  0.0000
 8930OM     OM1 8930   8.448   2.775   8.884  0.0000  0.0000  0.0000
 8931OM     OM1 8931   8.637   2.939   8.897  0.0000  0.0000  0.0000
 8932OM     OM1 8932   8.685   2.672   8.902  0.0000  0.0000  0.0000
 8933OM     OM1 8933   8.574   2.797   9.106  0.0000  0.0000  0.0000
 8934OM     OM1 8934   3.401   0.842   9.356  0.0000  0.0000  0.0000
 8935OM     OM1 8935   3.422   0.843   9.097  0.0000  0.0000  0.0000
 8936OM     OM1 8936   5.517   4.467   0.400  0.0000  0.0000  0.0000
 8937OM     OM1 8937   0.720   5.847   1.008  0.0000  0.0000  0.0000
 8938OM     OM1 8938   0.659   5.884   1.263  0.0000  0.0000  0.0000
 8939OM     OM1 8939   8.565   4.548   9.289  0.0000  0.0000  0.0000
 8940OM     OM1 8940   0.537   6.004   0.405  0.0000  0.0000  0.0000
 8941OM     OM1 8941   3.644   4.717   8.747  0.0000  0.0000  0.0000
 8942OM     OM1 8942   2.168   3.011   8.283  0.0000  0.0000  0.0000
 8943OM     OM1 8943   2.902   2.853   9.206  0.0000  0.0000  0.0000
 8944OM     OM1 8944   2.736   2.660   9.162  0.0000  0.0000  0.0000
 8945OM     OM1 8945   2.708   2.905   9.054  0.0000  0.0000  0.0000
 8946OM     OM1 8946   2.893   2.737   8.970  0.0000  0.0000  0.0000
 8947OM     OM1 8947   8.608   4.540   0.739  0.0000  0.0000  0.0000
 8948OM     OM1 8948   8.790   4.514   0.913  0.0000  0.0000  0.0000
 8949OM     OM1 8949   2.472   2.019   0.267  0.0000  0.0000  0.0000
 8950OM     OM1 8950   2.347   2.248   0.264  0.0000  0.0000  0.0000
 8951OM     OM1 8951   2.567   2.211   0.113  0.0000  0.0000  0.0000
 8952OM     OM1 8952   2.591   2.227   0.364  0.0000  0.0000  0.0000
 8953OM     OM1 8953   4.244   6.176   9.293  0.0000  0.0000  0.0000
 8954OM     OM1 8954   1.789   3.686   1.134  0.0000  0.0000  0.0000
 8955OM     OM1 8955   1.590   3.799   1.023  0.0000  0.0000  0.0000
 8956OM     OM1 8956   1.645   3.865   1.269  0.0000  0.0000  0.0000
 8957OM     OM1 8957   9.229   6.309   0.660  0.0000  0.0000  0.0000
 8958OM     OM1 8958   9.385   6.120   0.718  0.0000  0.0000  0.0000
 8959OM     OM1 8959   9.132   6.081   0.771  0.0000  0.0000  0.0000
 8960OM     OM1 8960   9.116   6.601   9.484  0.0000  0.0000  0.0000
 8961OM     OM1 8961   0.924   0.892   1.354  0.0000  0.0000  0.0000
 8962OM     OM1 8962   8.773   5.191   8.318  0.0000  0.0000  0.0000
 8963OM     OM1 8963   6.636   9.345   0.029  0.0000  0.0000  0.0000
 8964OM     OM1 8964   1.363   9.066   9.252  0.0000  0.0000  0.0000
 8965OM     OM1 8965   1.553   9.242   9.198  0.0000  0.0000  0.0000
 8966OM     OM1 8966   1.552   9.109   9.426  0.0000  0.0000  0.0000
 8967OM     OM1 8967   9.273   6.792   9.393  0.0000  0.0000  0.0000
 8968OM     OM1 8968   2.411   5.789   8.692  0.0000  0.0000  0.0000
 8969OM     OM1 8969   2.502   5.957   8.870  0.0000  0.0000  0.0000
 8970OM     OM1 8970   7.663   5.451   0.914  0.0000  0.0000  0.0000
 8971OM     OM1 8971   6.121   4.285   0.761  0.0000  0.0000  0.0000
 8972OM     OM1 8972   6.361   4.296   0.885  0.0000  0.0000  0.0000
 8973OM     OM1 8973   6.244   4.066   0.838  0.0000  0.0000  0.0000
 8974OM     OM1 8974   5.194   5.341   1.200  0.0000  0.0000  0.0000
 8975OM     OM1 8975   4.550   8.502   1.233  0.0000  0.0000  0.0000
 8976OM     OM1 8976   2.808   7.193   9.040  0.0000  0.0000  0.0000
 8977OM     OM1 8977   2.731   7.603   8.776  0.0000  0.0000  0.0000
 8978OM     OM1 8978   2.761   7.448   8.581  0.0000  0.0000  0.0000
 8979OM     OM1 8979   7.186   1.045   1.132  0.0000  0.0000  0.0000
 8980OM     OM1 8980   7.018   1.250   1.143  0.0000  0.0000  0.0000
 8981OM     OM1 8981   7.023   1.096   0.942  0.0000  0.0000  0.0000
 8982OM     OM1 8982   8.170   7.425   9.394  0.0000  0.0000  0.0000
 8983OM     OM1 8983   8.245   7.291   0.006  0.0000  0.0000  0.0000
 8984OM     OM1 8984   0.059   4.757   8.583  0.0000  0.0000  0.0000
 8985OM     OM1 8985   0.227   4.845   8.403  0.0000  0.0000  0.0000
 8986OM     OM1 8986   0.697   8.841   0.409  0.0000  0.0000  0.0000
 8987OM     OM1 8987   6.187   1.951   8.854  0.0000  0.0000  0.0000
 8988OM     OM1 8988   6.213   1.911   9.114  0.0000  0.0000  0.0000
 8989OM     OM1 8989   6.166   2.153   9.014  0.0000  0.0000  0.0000
 8990OM     OM1 8990   1.707   7.936   1.103  0.0000  0.0000  0.0000
 8991OM     OM1 8991   3.583   3.934   0.454  0.0000  0.0000  0.0000
 8992OM     OM1 8992   3.806   3.793   0.413  0.0000  0.0000  0.0000
 8993OM     OM1 8993   6.332   0.520   0.818  0.0000  0.0000  0.0000
 8994OM     OM1 8994   6.105   0.622   0.937  0.0000  0.0000  0.0000
 8995OM     OM1 8995   8.673   0.177   8.907  0.0000  0.0000  0.0000
 8996OM     OM1 8996   2.478   8.185   0.442  0.0000  0.0000  0.0000
 8997OM     OM1 8997   2.606   8.123   0.658  0.0000  0.0000  0.0000
 8998OM     OM1 8998   6.347   2.434   9.372  0.0000  0.0000  0.0000
 8999OM     OM1 8999   0.679   7.737   0.416  0.0000  0.0000  0.0000
 9000OM     OM1 9000   0.809   7.864   0.594  0.0000  0.0000  0.0000
 9001OM     OM1 9001   3.171   8.505   8.314  0.0000  0.0000  0.0000
 9002OM     OM1 9002   0.975   9.445   8.639  0.0000  0.0000  0.0000
 9003OM     OM1 9003   0.796   9.601   8.538  0.0000  0.0000  0.0000
 9004OM     OM1 9004   0.803   9.352   8.460  0.0000  0.0000  0.0000
 9005OM     OM1 9005   3.487   7.630   1.231  0.0000  0.0000  0.0000
 9006OM     OM1 9006   7.641   8.773   0.381  0.0000  0.0000  0.0000
 9007OM     OM1 9007   7.668   8.755   0.134  0.0000  0.0000  0.0000
 9008OM     OM1 9008   7.682   8.533   0.266  0.0000  0.0000  0.0000
 9009OM     OM1 9009   2.407   9.272   8.603  0.0000  0.0000  0.0000
 9010OM     OM1 9010   1.047   8.028   8.352  0.0000  0.0000  0.0000
 9011OM     OM1 9011   5.180   9.437   1.285  0.0000  0.0000  0.0000
 9012OM     OM1 9012   5.144   0.086   1.184  0.0000  0.0000  0.0000
 9013OM     OM1 9013   2.986   5.541   9.019  0.0000  0.0000  0.0000
 9014OM     OM1 9014   2.972   5.283   8.951  0.0000  0.0000  0.0000
 9015OM     OM1 9015   5.848   6.974   0.726  0.0000  0.0000  0.0000
 9016OM     OM1 9016   5.744   7.205   0.675  0.0000  0.0000  0.0000
 9017OM     OM1 9017   5.777   6.751   0.609  0.0000  0.0000  0.0000
 9018OM     OM1 9018   7.898   4.424   0.840  0.0000  0.0000  0.0000
 9019OM     OM1 9019   4.311   3.059   9.367  0.0000  0.0000  0.0000
 9020OM     OM1 9020   3.227   8.044   0.856  0.0000  0.0000  0.0000
 9021OM     OM1 9021   3.096   8.076   1.092  0.0000  0.0000  0.0000
 9022OM     OM1 9022   3.606   0.916   0.112  0.0000  0.0000  0.0000
 9023OM     OM1 9023   3.580   0.770   0.327  0.0000  0.0000  0.0000
 9024OM     OM1 9024   3.856   4.291   8.478  0.0000  0.0000  0.0000
 9025OM     OM1 9025   4.035   4.395   8.316  0.0000  0.0000  0.0000
 9026OM     OM1 9026   4.775   1.667   0.799  0.0000  0.0000  0.0000
 9027OM     OM1 9027   4.687   1.790   0.589  0.0000  0.0000  0.0000
 9028OM     OM1 9028   4.617   1.880   0.826  0.0000  0.0000  0.0000
 9029OM     OM1 9029   3.786   4.737   8.523  0.0000  0.0000  0.0000
 9030OM     OM1 9030   3.878   4.601   8.729  0.0000  0.0000  0.0000
 9031OM     OM1 9031   7.651   0.521   1.142  0.0000  0.0000  0.0000
 9032OM     OM1 9032   7.847   0.435   1.287  0.0000  0.0000  0.0000
 9033OM     OM1 9033   7.892   0.597   1.087  0.0000  0.0000  0.0000
 9034OM     OM1 9034   0.079   1.651   8.588  0.0000  0.0000  0.0000
 9035OM     OM1 9035   1.649   8.824   8.400  0.0000  0.0000  0.0000
 9036OM     OM1 9036   6.045   0.018   0.045  0.0000  0.0000  0.0000
 9037OM     OM1 9037   6.250   0.132   0.140  0.0000  0.0000  0.0000
 9038OM     OM1 9038   0.593   5.454   0.240  0.0000  0.0000  0.0000
 9039OM     OM1 9039   0.657   5.592   0.025  0.0000  0.0000  0.0000
 9040OM     OM1 9040   1.841   6.863   9.169  0.0000  0.0000  0.0000
 9041OM     OM1 9041   1.842   7.009   9.588  0.0000  0.0000  0.0000
 9042OM     OM1 9042   1.856   6.800   9.426  0.0000  0.0000  0.0000
 9043OM     OM1 9043   2.068   6.838   9.282  0.0000  0.0000  0.0000
 9044OM     OM1 9044   3.782   9.116   0.565  0.0000  0.0000  0.0000
 9045OM     OM1 9045   4.318   2.183   9.455  0.0000  0.0000  0.0000
 9046OM     OM1 9046   2.306   6.266   0.844  0.0000  0.0000  0.0000
 9047OM     OM1 9047   2.410   6.150   1.048  0.0000  0.0000  0.0000
 9048OM     OM1 9048   9.182   8.297   1.302  0.0000  0.0000  0.0000
 9049OM     OM1 9049   5.913   5.997   9.118  0.0000  0.0000  0.0000
 9050OM     OM1 9050   5.889   6.183   9.303  0.0000  0.0000  0.0000
 9051OM     OM1 9051   5.733   5.318   8.634  0.0000  0.0000  0.0000
 9052OM     OM1 9052   5.996   5.324   8.701  0.0000  0.0000  0.0000
 9053OM     OM1 9053   5.183   3.759   8.578  0.0000  0.0000  0.0000
 9054OM     OM1 9054   7.665   7.765   1.291  0.0000  0.0000  0.0000
 9055OM     OM1 9055   7.843   7.640   1.164  0.0000  0.0000  0.0000
 9056OM     OM1 9056   8.774   5.646   8.554  0.0000  0.0000  0.0000
 9057OM     OM1 9057   7.947   6.566   0.224  0.0000  0.0000  0.0000
 9058OM     OM1 9058   8.202   6.626   0.153  0.0000  0.0000  0.0000
 9059OM     OM1 9059   8.104   6.652   0.404  0.0000  0.0000  0.0000
 9060OM     OM1 9060   3.188   4.148   0.820  0.0000  0.0000  0.0000
 9061OM     OM1 9061   3.513   3.852   1.090  0.0000  0.0000  0.0000
 9062OM     OM1 9062   2.597   4.434   0.020  0.0000  0.0000  0.0000
 9063OM     OM1 9063   2.465   4.283   0.170  0.0000  0.0000  0.0000
 9064OM     OM1 9064   2.458   4.552   0.201  0.0000  0.0000  0.0000
 9065OM     OM1 9065   0.806   3.676   9.546  0.0000  0.0000  0.0000
 9066OM     OM1 9066   2.213   7.332   0.496  0.0000  0.0000  0.0000
 9067OM     OM1 9067   3.761   3.448   8.314  0.0000  0.0000  0.0000
 9068OM     OM1 9068   5.254   2.714   0.016  0.0000  0.0000  0.0000
 9069OM     OM1 9069   5.235   2.645   0.243  0.0000  0.0000  0.0000
 9070OM     OM1 9070   3.381   7.728   0.002  0.0000  0.0000  0.0000
 9071OM     OM1 9071   3.550   7.902   9.534  0.0000  0.0000  0.0000
 9072OM     OM1 9072   6.015   6.377   0.979  0.0000  0.0000  0.0000
 9073OM     OM1 9073   6.218   6.329   0.605  0.0000  0.0000  0.0000
 9074OM     OM1 9074   3.043   5.838   0.465  0.0000  0.0000  0.0000
 9075OM     OM1 9075   3.283   5.929   0.523  0.0000  0.0000  0.0000
 9076OM     OM1 9076   0.646   2.657   0.651  0.0000  0.0000  0.0000
 9077OM     OM1 9077   0.581   2.874   0.787  0.0000  0.0000  0.0000
 9078OM     OM1 9078   0.756   2.879   0.587  0.0000  0.0000  0.0000
 9079OM     OM1 9079   0.501   2.860   0.547  0.0000  0.0000  0.0000
 9080OM     OM1 9080   3.221   9.049   9.115  0.0000  0.0000  0.0000
 9081OM     OM1 9081   3.205   8.958   8.875  0.0000  0.0000  0.0000
 9082OM     OM1 9082   3.316   9.349   8.801  0.0000  0.0000  0.0000
 9083OM     OM1 9083   3.141   9.208   8.923  0.0000  0.0000  0.0000
 9084OM     OM1 9084   6.760   2.340   0.572  0.0000  0.0000  0.0000
 9085OM     OM1 9085   5.971   1.898   0.786  0.0000  0.0000  0.0000
 9086OM     OM1 9086   0.855   1.099   8.754  0.0000  0.0000  0.0000
 9087OM     OM1 9087   6.867   5.503   0.661  0.0000  0.0000  0.0000
 9088OM     OM1 9088   4.402   1.419   1.200  0.0000  0.0000  0.0000
 9089OM     OM1 9089   4.388   1.681   1.208  0.0000  0.0000  0.0000
 9090OM     OM1 9090   4.577   1.548   1.328  0.0000  0.0000  0.0000
 9091OM     OM1 9091   8.715   7.848   8.489  0.0000  0.0000  0.0000
 9092OM     OM1 9092   8.517   7.844   8.329  0.0000  0.0000  0.0000
 9093OM     OM1 9093   8.561   8.055   8.513  0.0000  0.0000  0.0000
 9094OM     OM1 9094   8.687   8.287   8.513  0.0000  0.0000  0.0000
 9095OM     OM1 9095   8.740   8.116   8.695  0.0000  0.0000  0.0000
 9096OM     OM1 9096   3.399   8.796   8.938  0.0000  0.0000  0.0000
 9097OM     OM1 9097   3.216   8.724   8.772  0.0000  0.0000  0.0000
 9098OM     OM1 9098   4.866   6.036   8.398  0.0000  0.0000  0.0000
 9099OM     OM1 9099   8.970   8.781   0.162  0.0000  0.0000  0.0000
 9100OM     OM1 9100   8.964   8.711   9.521  0.0000  0.0000  0.0000
 9101OM     OM1 9101   7.065   7.165   9.417  0.0000  0.0000  0.0000
 9102OM     OM1 9102   6.968   7.077   9.194  0.0000  0.0000  0.0000
 9103OM     OM1 9103   4.521   0.147   1.223  0.0000  0.0000  0.0000
 9104OM     OM1 9104   4.669   0.368   1.240  0.0000  0.0000  0.0000
 9105OM     OM1 9105   2.830   8.013   9.582  0.0000  0.0000  0.0000
 9106OM     OM1 9106   3.059   8.131   9.479  0.0000  0.0000  0.0000
 9107OM     OM1 9107   3.035   7.886   9.581  0.0000  0.0000  0.0000
 9108OM     OM1 9108   2.925   9.537   0.027  0.0000  0.0000  0.0000
 9109OM     OM1 9109   3.103   4.031   0.603  0.0000  0.0000  0.0000
 9110OM     OM1 9110   5.234   8.340   8.487  0.0000  0.0000  0.0000
 9111OM     OM1 9111   5.472   8.140   8.371  0.0000  0.0000  0.0000
 9112OM     OM1 9112   5.147   8.136   8.627  0.0000  0.0000  0.0000
 9113OM     OM1 9113   1.556   8.225   0.877  0.0000  0.0000  0.0000
 9114OM     OM1 9114   0.567   7.721   0.190  0.0000  0.0000  0.0000
 9115OM     OM1 9115   0.817   7.693   0.108  0.0000  0.0000  0.0000
 9116OM     OM1 9116   0.626   7.666   9.546  0.0000  0.0000  0.0000
 9117OM     OM1 9117   7.204   3.872   0.854  0.0000  0.0000  0.0000
 9118OM     OM1 9118   7.160   4.026   1.048  0.0000  0.0000  0.0000
 9119OM     OM1 9119   7.071   3.822   1.182  0.0000  0.0000  0.0000
 9120OM     OM1 9120   7.145   4.124   0.795  0.0000  0.0000  0.0000
 9121OM     OM1 9121   7.134   2.545   9.394  0.0000  0.0000  0.0000
 9122OM     OM1 9122   6.959   2.486   9.209  0.0000  0.0000  0.0000
 9123OM     OM1 9123   7.152   0.395   8.798  0.0000  0.0000  0.0000
 9124OM     OM1 9124   7.288   0.238   8.653  0.0000  0.0000  0.0000
 9125OM     OM1 9125   7.068   0.148   8.785  0.0000  0.0000  0.0000
 9126OM     OM1 9126   7.126   9.604   8.990  0.0000  0.0000  0.0000
 9127OM     OM1 9127   3.177   7.761   0.147  0.0000  0.0000  0.0000
 9128OM     OM1 9128   2.936   7.682   0.143  0.0000  0.0000  0.0000
 9129OM     OM1 9129   6.408   9.203   9.097  0.0000  0.0000  0.0000
 9130OM     OM1 9130   2.779   4.572   9.081  0.0000  0.0000  0.0000
 9131OM     OM1 9131   2.847   4.331   9.033  0.0000  0.0000  0.0000
 9132OM     OM1 9132   3.043   4.509   9.067  0.0000  0.0000  0.0000
 9133OM     OM1 9133   2.904   4.425   9.268  0.0000  0.0000  0.0000
 9134OM     OM1 9134   0.833   0.234   9.578  0.0000  0.0000  0.0000
 9135OM     OM1 9135   6.186   4.587   0.240  0.0000  0.0000  0.0000
 9136OM     OM1 9136   6.170   4.374   0.390  0.0000  0.0000  0.0000
 9137OM     OM1 9137   3.550   2.718   9.027  0.0000  0.0000  0.0000
 9138OM     OM1 9138   3.471   2.484   8.922  0.0000  0.0000  0.0000
 9139OM     OM1 9139   4.077   0.730   8.333  0.0000  0.0000  0.0000
 9140OM     OM1 9140   4.141   0.979   8.320  0.0000  0.0000  0.0000
 9141OM     OM1 9141   2.279   1.338   0.117  0.0000  0.0000  0.0000
 9142OM     OM1 9142   4.561   2.967   9.362  0.0000  0.0000  0.0000
 9143OM     OM1 9143   7.305   4.944   1.200  0.0000  0.0000  0.0000
 9144OM     OM1 9144   7.244   4.700   1.120  0.0000  0.0000  0.0000
 9145OM     OM1 9145   8.578   8.782   0.653  0.0000  0.0000  0.0000
 9146OM     OM1 9146   9.197   8.828   9.561  0.0000  0.0000  0.0000
 9147OM     OM1 9147   9.182   9.076   0.048  0.0000  0.0000  0.0000
 9148OM     OM1 9148   9.328   9.017   9.447  0.0000  0.0000  0.0000
 9149OM     OM1 9149   2.208   9.108   9.399  0.0000  0.0000  0.0000
 9150OM     OM1 9150   2.388   9.258   9.291  0.0000  0.0000  0.0000
 9151OM     OM1 9151   2.278   9.067   9.151  0.0000  0.0000  0.0000
 9152OM     OM1 9152   3.659   7.060   0.268  0.0000  0.0000  0.0000
 9153OM     OM1 9153   3.653   7.148   0.509  0.0000  0.0000  0.0000
 9154OM     OM1 9154   3.434   7.157   0.384  0.0000  0.0000  0.0000
 9155OM     OM1 9155   6.755   7.565   8.901  0.0000  0.0000  0.0000
 9156OM     OM1 9156   7.002   8.314   0.239  0.0000  0.0000  0.0000
 9157OM     OM1 9157   7.264   8.332   0.260  0.0000  0.0000  0.0000
 9158OM     OM1 9158   6.713   8.482   0.831  0.0000  0.0000  0.0000
 9159OM     OM1 9159   6.973   8.285   1.044  0.0000  0.0000  0.0000
 9160OM     OM1 9160   3.207   1.510   0.385  0.0000  0.0000  0.0000
 9161OM     OM1 9161   3.261   1.566   0.626  0.0000  0.0000  0.0000
 9162OM     OM1 9162   3.332   1.337   0.528  0.0000  0.0000  0.0000
 9163OM     OM1 9163   0.926   2.341   8.489  0.0000  0.0000  0.0000
 9164OM     OM1 9164   0.746   2.299   8.315  0.0000  0.0000  0.0000
 9165OM     OM1 9165   0.675   2.403   8.548  0.0000  0.0000  0.0000
 9166OM     OM1 9166   0.759   6.793   0.144  0.0000  0.0000  0.0000
 9167OM     OM1 9167   0.500   6.811   0.145  0.0000  0.0000  0.0000
 9168OM     OM1 9168   4.533   8.329   8.373  0.0000  0.0000  0.0000
 9169OM     OM1 9169   4.756   1.775   8.585  0.0000  0.0000  0.0000
 9170OM     OM1 9170   8.516   2.472   0.377  0.0000  0.0000  0.0000
 9171OM     OM1 9171   8.672   2.596   0.203  0.0000  0.0000  0.0000
 9172OM     OM1 9172   3.493   2.822   8.403  0.0000  0.0000  0.0000
 9173OM     OM1 9173   8.585   8.270   0.291  0.0000  0.0000  0.0000
 9174OM     OM1 9174   8.781   7.896   0.219  0.0000  0.0000  0.0000
 9175OM     OM1 9175   8.651   8.064   0.419  0.0000  0.0000  0.0000
 9176OM     OM1 9176   4.573   8.671   0.818  0.0000  0.0000  0.0000
 9177OM     OM1 9177   4.489   8.869   0.684  0.0000  0.0000  0.0000
 9178OM     OM1 9178   1.359   6.646   0.573  0.0000  0.0000  0.0000
 9179OM     OM1 9179   0.958   9.124   8.691  0.0000  0.0000  0.0000
 9180OM     OM1 9180   1.313   8.882   8.419  0.0000  0.0000  0.0000
 9181OM     OM1 9181   1.102   9.267   8.530  0.0000  0.0000  0.0000
 9182OM     OM1 9182   7.045   7.711   0.861  0.0000  0.0000  0.0000
 9183OM     OM1 9183   9.334   6.050   8.425  0.0000  0.0000  0.0000
 9184OM     OM1 9184   9.479   6.032   8.645  0.0000  0.0000  0.0000
 9185OM     OM1 9185   4.190   7.578   9.164  0.0000  0.0000  0.0000
 9186OM     OM1 9186   4.371   8.442   9.418  0.0000  0.0000  0.0000
 9187OM     OM1 9187   7.591   5.296   8.790  0.0000  0.0000  0.0000
 9188OM     OM1 9188   1.393   6.050   0.613  0.0000  0.0000  0.0000
 9189OM     OM1 9189   8.281   5.480   1.349  0.0000  0.0000  0.0000
 9190OM     OM1 9190   8.275   5.241   1.240  0.0000  0.0000  0.0000
 9191OM     OM1 9191   8.477   5.320   1.384  0.0000  0.0000  0.0000
 9192OM     OM1 9192   2.826   1.129   8.643  0.0000  0.0000  0.0000
 9193OM     OM1 9193   1.994   1.134   1.295  0.0000  0.0000  0.0000
 9194OM     OM1 9194   9.335   5.109   1.367  0.0000  0.0000  0.0000
 9195OM     OM1 9195   7.558   8.149   0.857  0.0000  0.0000  0.0000
 9196OM     OM1 9196   5.512   4.089   0.206  0.0000  0.0000  0.0000
 9197OM     OM1 9197   5.380   4.179   9.602  0.0000  0.0000  0.0000
 9198OM     OM1 9198   3.807   0.301   0.928  0.0000  0.0000  0.0000
 9199OM     OM1 9199   3.917   0.077   0.869  0.0000  0.0000  0.0000
 9200OM     OM1 9200   4.042   0.310   0.806  0.0000  0.0000  0.0000
 9201OM     OM1 9201   0.817   6.940   1.025  0.0000  0.0000  0.0000
 9202OM     OM1 9202   1.044   6.983   1.144  0.0000  0.0000  0.0000
 9203OM     OM1 9203   6.924   3.526   9.536  0.0000  0.0000  0.0000
 9204OM     OM1 9204   6.881   3.327   0.108  0.0000  0.0000  0.0000
 9205OM     OM1 9205   2.933   3.956   8.733  0.0000  0.0000  0.0000
 9206OM     OM1 9206   2.816   4.093   8.920  0.0000  0.0000  0.0000
 9207OM     OM1 9207   3.956   5.012   9.383  0.0000  0.0000  0.0000
 9208OM     OM1 9208   3.861   4.786   9.306  0.0000  0.0000  0.0000
 9209OM     OM1 9209   4.081   4.886   9.189  0.0000  0.0000  0.0000
 9210OM     OM1 9210   9.037   5.393   1.090  0.0000  0.0000  0.0000
 9211OM     OM1 9211   9.036   5.304   0.852  0.0000  0.0000  0.0000
 9212OM     OM1 9212   8.829   5.260   1.016  0.0000  0.0000  0.0000
 9213OM     OM1 9213   2.002   5.249   9.300  0.0000  0.0000  0.0000
 9214OM     OM1 9214   9.313   7.357   9.066  0.0000  0.0000  0.0000
 9215OM     OM1 9215   9.187   4.431   0.953  0.0000  0.0000  0.0000
 9216OM     OM1 9216   8.856   4.367   1.112  0.0000  0.0000  0.0000
 9217OM     OM1 9217   2.804   4.966   0.917  0.0000  0.0000  0.0000
 9218OM     OM1 9218   2.662   5.000   1.132  0.0000  0.0000  0.0000
 9219OM     OM1 9219   9.350   3.259   0.903  0.0000  0.0000  0.0000
 9220OM     OM1 9220   3.649   8.571   0.224  0.0000  0.0000  0.0000
 9221OM     OM1 9221   3.599   8.823   0.278  0.0000  0.0000  0.0000
 9222OM     OM1 9222   4.155   6.472   0.718  0.0000  0.0000  0.0000
 9223OM     OM1 9223   7.730   1.806   0.479  0.0000  0.0000  0.0000
 9224OM     OM1 9224   7.854   1.825   0.707  0.0000  0.0000  0.0000
 9225OM     OM1 9225   1.437   5.966   0.370  0.0000  0.0000  0.0000
 9226OM     OM1 9226   5.968   0.952   9.231  0.0000  0.0000  0.0000
 9227OM     OM1 9227   5.887   1.053   9.463  0.0000  0.0000  0.0000
 9228OM     OM1 9228   1.179   1.722   0.072  0.0000  0.0000  0.0000
 9229OM     OM1 9229   2.044   7.150   1.206  0.0000  0.0000  0.0000
 9230OM     OM1 9230   1.804   7.248   1.162  0.0000  0.0000  0.0000
 9231OM     OM1 9231   1.900   7.068   1.010  0.0000  0.0000  0.0000
 9232OM     OM1 9232   3.853   4.790   0.639  0.0000  0.0000  0.0000
 9233OM     OM1 9233   3.653   4.929   0.538  0.0000  0.0000  0.0000
 9234OM     OM1 9234   2.253   7.809   0.897  0.0000  0.0000  0.0000
 9235OM     OM1 9235   2.420   7.990   0.786  0.0000  0.0000  0.0000
 9236OM     OM1 9236   1.644   2.083   0.073  0.0000  0.0000  0.0000
 9237OM     OM1 9237   1.887   2.164   9.580  0.0000  0.0000  0.0000
 9238OM     OM1 9238   7.671   0.945   0.781  0.0000  0.0000  0.0000
 9239OM     OM1 9239   7.701   0.943   0.524  0.0000  0.0000  0.0000
 9240OM     OM1 9240   9.389   2.883   8.659  0.0000  0.0000  0.0000
 9241OM     OM1 9241   9.146   2.972   8.620  0.0000  0.0000  0.0000
 9242OM     OM1 9242   9.270   3.011   8.853  0.0000  0.0000  0.0000
 9243OM     OM1 9243   2.639   1.379   9.443  0.0000  0.0000  0.0000
 9244OM     OM1 9244   2.713   1.142   9.367  0.0000  0.0000  0.0000
 9245OM     OM1 9245   5.852   5.208   0.863  0.0000  0.0000  0.0000
 9246OM     OM1 9246   5.838   5.470   0.910  0.0000  0.0000  0.0000
 9247OM     OM1 9247   5.676   5.313   1.022  0.0000  0.0000  0.0000
 9248OM     OM1 9248   9.074   8.610   8.657  0.0000  0.0000  0.0000
 9249OM     OM1 9249   8.851   8.728   8.627  0.0000  0.0000  0.0000
 9250OM     OM1 9250   8.854   8.474   8.593  0.0000  0.0000  0.0000
 9251OM     OM1 9251   5.779   0.727   0.431  0.0000  0.0000  0.0000
 9252OM     OM1 9252   5.980   0.844   0.309  0.0000  0.0000  0.0000
 9253OM     OM1 9253   3.152   6.773   0.368  0.0000  0.0000  0.0000
 9254OM     OM1 9254   7.561   8.166   8.358  0.0000  0.0000  0.0000
 9255OM     OM1 9255   4.907   1.374   9.243  0.0000  0.0000  0.0000
 9256OM     OM1 9256   4.733   1.186   9.256  0.0000  0.0000  0.0000
 9257OM     OM1 9257   8.744   6.770   8.962  0.0000  0.0000  0.0000
 9258OM     OM1 9258   8.622   6.559   8.890  0.0000  0.0000  0.0000
 9259OM     OM1 9259   8.872   3.430   9.297  0.0000  0.0000  0.0000
 9260OM     OM1 9260   9.026   3.608   9.165  0.0000  0.0000  0.0000
 9261OM     OM1 9261   1.093   0.292   8.680  0.0000  0.0000  0.0000
 9262OM     OM1 9262   1.230   0.446   8.829  0.0000  0.0000  0.0000
 9263OM     OM1 9263   2.563   7.525   8.297  0.0000  0.0000  0.0000
 9264OM     OM1 9264   2.811   7.453   8.329  0.0000  0.0000  0.0000
 9265OM     OM1 9265   8.940   8.963   8.608  0.0000  0.0000  0.0000
 9266OM     OM1 9266   5.139   1.643   0.309  0.0000  0.0000  0.0000
 9267OM     OM1 9267   5.274   1.842   0.209  0.0000  0.0000  0.0000
 9268OM     OM1 9268   5.162   1.856   0.457  0.0000  0.0000  0.0000
 9269OM     OM1 9269   5.548   7.333   1.397  0.0000  0.0000  0.0000
 9270OM     OM1 9270   5.360   0.205   1.181  0.0000  0.0000  0.0000
 9271OM     OM1 9271   5.611   0.154   1.187  0.0000  0.0000  0.0000
 9272OM     OM1 9272   3.852   5.290   8.997  0.0000  0.0000  0.0000
 9273OM     OM1 9273   3.621   5.177   9.077  0.0000  0.0000  0.0000
 9274OM     OM1 9274   3.850   5.111   9.174  0.0000  0.0000  0.0000
 9275OM     OM1 9275   5.608   5.850   8.976  0.0000  0.0000  0.0000
 9276OM     OM1 9276   0.515   6.509   1.252  0.0000  0.0000  0.0000
 9277OM     OM1 9277   5.761   3.534   0.716  0.0000  0.0000  0.0000
 9278OM     OM1 9278   5.935   0.076   9.098  0.0000  0.0000  0.0000
 9279OM     OM1 9279   8.329   2.731   9.178  0.0000  0.0000  0.0000
 9280OM     OM1 9280   8.118   2.884   9.200  0.0000  0.0000  0.0000
 9281OM     OM1 9281   8.205   2.794   8.965  0.0000  0.0000  0.0000
 9282OM     OM1 9282   6.883   6.860   9.094  0.0000  0.0000  0.0000
 9283OM     OM1 9283   1.399   1.582   8.522  0.0000  0.0000  0.0000
 9284OM     OM1 9284   1.202   1.312   8.248  0.0000  0.0000  0.0000
 9285OM     OM1 9285   7.293   3.632   0.760  0.0000  0.0000  0.0000
 9286OM     OM1 9286   9.452   0.205   8.382  0.0000  0.0000  0.0000
 9287OM     OM1 9287   3.776   0.866   8.639  0.0000  0.0000  0.0000
 9288OM     OM1 9288   3.969   1.003   8.518  0.0000  0.0000  0.0000
 9289OM     OM1 9289   0.925   3.486   8.599  0.0000  0.0000  0.0000
 9290OM     OM1 9290   1.144   3.494   8.738  0.0000  0.0000  0.0000
 9291OM     OM1 9291   0.936   3.553   8.863  0.0000  0.0000  0.0000
 9292OM     OM1 9292   1.796   5.351   9.165  0.0000  0.0000  0.0000
 9293OM     OM1 9293   1.786   5.104   9.240  0.0000  0.0000  0.0000
 9294OM     OM1 9294   7.326   7.312   8.583  0.0000  0.0000  0.0000
 9295OM     OM1 9295   7.558   9.349   9.052  0.0000  0.0000  0.0000
 9296OM     OM1 9296   7.368   9.529   9.062  0.0000  0.0000  0.0000
 9297OM     OM1 9297   2.025   0.105   8.746  0.0000  0.0000  0.0000
 9298OM     OM1 9298   1.880   9.529   8.622  0.0000  0.0000  0.0000
 9299OM     OM1 9299   1.861   9.548   8.877  0.0000  0.0000  0.0000
 9300OM     OM1 9300   2.547   8.825   9.395  0.0000  0.0000  0.0000
 9301OM     OM1 9301   2.721   8.829   9.602  0.0000  0.0000  0.0000
 9302OM     OM1 9302   5.527   7.337   9.451  0.0000  0.0000  0.0000
 9303OM     OM1 9303   5.603   7.093   9.379  0.0000  0.0000  0.0000
 9304OM     OM1 9304   7.869   2.931   9.193  0.0000  0.0000  0.0000
 9305OM     OM1 9305   6.707   4.056   1.128  0.0000  0.0000  0.0000
 9306OM     OM1 9306   6.638   3.866   0.969  0.0000  0.0000  0.0000
 9307OM     OM1 9307   6.810   3.811   1.155  0.0000  0.0000  0.0000
 9308OM     OM1 9308   3.139   9.088   0.537  0.0000  0.0000  0.0000
 9309OM     OM1 9309   7.814   3.366   0.400  0.0000  0.0000  0.0000
 9310OM     OM1 9310   0.657   5.000   0.331  0.0000  0.0000  0.0000
 9311OM     OM1 9311   0.572   5.246   0.390  0.0000  0.0000  0.0000
 9312OM     OM1 9312   0.999   4.868   8.750  0.0000  0.0000  0.0000
 9313OM     OM1 9313   0.847   4.731   8.576  0.0000  0.0000  0.0000
 9314OM     OM1 9314   0.808   4.982   8.606  0.0000  0.0000  0.0000
 9315OM     OM1 9315   5.002   0.487   0.177  0.0000  0.0000  0.0000
 9316OM     OM1 9316   4.807   0.528   0.348  0.0000  0.0000  0.0000
 9317OM     OM1 9317   1.605   1.020   9.345  0.0000  0.0000  0.0000
 9318OM     OM1 9318   0.808   2.795   9.463  0.0000  0.0000  0.0000
 9319OM     OM1 9319   0.894   2.795   0.104  0.0000  0.0000  0.0000
 9320OM     OM1 9320   0.716   2.965   0.029  0.0000  0.0000  0.0000
 9321OM     OM1 9321   0.262   4.027   0.927  0.0000  0.0000  0.0000
 9322OM     OM1 9322   0.489   3.950   0.817  0.0000  0.0000  0.0000
 9323OM     OM1 9323   9.126   6.100   8.857  0.0000  0.0000  0.0000
 9324OM     OM1 9324   2.161   7.133   8.899  0.0000  0.0000  0.0000
 9325OM     OM1 9325   1.956   6.981   8.960  0.0000  0.0000  0.0000
 9326OM     OM1 9326   6.784   8.357   0.373  0.0000  0.0000  0.0000
 9327OM     OM1 9327   6.719   8.516   0.572  0.0000  0.0000  0.0000
 9328OM     OM1 9328   7.684   1.609   8.794  0.0000  0.0000  0.0000
 9329OM     OM1 9329   7.271   1.600   8.495  0.0000  0.0000  0.0000
 9330OM     OM1 9330   3.047   2.850   0.587  0.0000  0.0000  0.0000
 9331OM     OM1 9331   2.690   0.874   9.387  0.0000  0.0000  0.0000
 9332OM     OM1 9332   2.780   0.987   9.176  0.0000  0.0000  0.0000
 9333OM     OM1 9333   2.523   1.010   9.236  0.0000  0.0000  0.0000
 9334OM     OM1 9334   0.409   4.537   0.285  0.0000  0.0000  0.0000
 9335OM     OM1 9335   0.606   4.587   0.133  0.0000  0.0000  0.0000
 9336OM     OM1 9336   8.289   4.698   8.907  0.0000  0.0000  0.0000
 9337OM     OM1 9337   6.206   2.387   9.124  0.0000  0.0000  0.0000
 9338OM     OM1 9338   6.152   2.358   8.866  0.0000  0.0000  0.0000
 9339OM     OM1 9339   9.174   0.380   0.688  0.0000  0.0000  0.0000
 9340OM     OM1 9340   2.166   2.195   0.701  0.0000  0.0000  0.0000
 9341OM     OM1 9341   1.961   2.322   0.797  0.0000  0.0000  0.0000
 9342OM     OM1 9342   7.273   1.563   9.367  0.0000  0.0000  0.0000
 9343OM     OM1 9343   7.409   1.773   9.448  0.0000  0.0000  0.0000
 9344OM     OM1 9344   0.099   9.536   1.059  0.0000  0.0000  0.0000
 9345OM     OM1 9345   0.023   0.033   0.835  0.0000  0.0000  0.0000
 9346OM     OM1 9346   2.926   4.081   0.124  0.0000  0.0000  0.0000
 9347OM     OM1 9347   7.399   4.455   9.079  0.0000  0.0000  0.0000
 9348OM     OM1 9348   7.456   7.753   1.453  0.0000  0.0000  0.0000
 9349OM     OM1 9349   2.431   8.861   9.153  0.0000  0.0000  0.0000
 9350OM     OM1 9350   3.028   7.073   9.078  0.0000  0.0000  0.0000
 9351OM     OM1 9351   2.531   6.935   9.276  0.0000  0.0000  0.0000
 9352OM     OM1 9352   2.701   7.071   9.407  0.0000  0.0000  0.0000
 9353OM     OM1 9353   1.784   5.773   8.415  0.0000  0.0000  0.0000
 9354OM     OM1 9354   1.784   7.930   9.187  0.0000  0.0000  0.0000
 9355OM     OM1 9355   5.982   4.036   9.050  0.0000  0.0000  0.0000
 9356OM     OM1 9356   6.068   4.234   8.906  0.0000  0.0000  0.0000
 9357OM     OM1 9357   9.583   0.884   0.369  0.0000  0.0000  0.0000
 9358OM     OM1 9358   8.019   1.140   0.680  0.0000  0.0000  0.0000
 9359OM     OM1 9359   8.268   1.313   0.937  0.0000  0.0000  0.0000
 9360OM     OM1 9360   8.141   1.093   0.894  0.0000  0.0000  0.0000
 9361OM     OM1 9361   3.099   8.185   0.485  0.0000  0.0000  0.0000
 9362OM     OM1 9362   9.044   4.221   1.035  0.0000  0.0000  0.0000
 9363OM     OM1 9363   4.629   5.026   9.262  0.0000  0.0000  0.0000
 9364OM     OM1 9364   4.863   4.972   9.171  0.0000  0.0000  0.0000
 9365OM     OM1 9365   3.184   5.127   0.199  0.0000  0.0000  0.0000
 9366OM     OM1 9366   2.968   4.987   0.240  0.0000  0.0000  0.0000
 9367OM     OM1 9367   3.198   4.893   0.308  0.0000  0.0000  0.0000
 9368OM     OM1 9368   3.125   5.929   8.773  0.0000  0.0000  0.0000
 9369OM     OM1 9369   3.135   5.737   8.942  0.0000  0.0000  0.0000
 9370OM     OM1 9370   2.731   0.469   0.576  0.0000  0.0000  0.0000
 9371OM     OM1 9371   6.658   0.828   0.769  0.0000  0.0000  0.0000
 9372OM     OM1 9372   6.656   0.624   0.613  0.0000  0.0000  0.0000
 9373OM     OM1 9373   2.199   5.382   0.674  0.0000  0.0000  0.0000
 9374OM     OM1 9374   2.187   9.510   0.993  0.0000  0.0000  0.0000
 9375OM     OM1 9375   1.747   0.631   8.316  0.0000  0.0000  0.0000
 9376OM     OM1 9376   9.310   3.989   0.910  0.0000  0.0000  0.0000
 9377OM     OM1 9377   9.251   3.865   0.687  0.0000  0.0000  0.0000
 9378OM     OM1 9378   1.567   2.949   0.147  0.0000  0.0000  0.0000
 9379OM     OM1 9379   1.370   2.830   0.281  0.0000  0.0000  0.0000
 9380OM     OM1 9380   1.213   2.087   9.392  0.0000  0.0000  0.0000
 9381OM     OM1 9381   1.384   1.903   9.356  0.0000  0.0000  0.0000
 9382OM     OM1 9382   1.534   5.451   0.216  0.0000  0.0000  0.0000
 9383OM     OM1 9383   1.603   5.340   9.595  0.0000  0.0000  0.0000
 9384OM     OM1 9384   1.863   7.936   8.681  0.0000  0.0000  0.0000
 9385OM     OM1 9385   8.273   2.894   8.731  0.0000  0.0000  0.0000
 9386OM     OM1 9386   8.293   3.116   8.586  0.0000  0.0000  0.0000
 9387OM     OM1 9387   8.429   3.078   8.807  0.0000  0.0000  0.0000
 9388OM     OM1 9388   7.595   5.908   1.123  0.0000  0.0000  0.0000
 9389OM     OM1 9389   4.716   0.696   8.961  0.0000  0.0000  0.0000
 9390OM     OM1 9390   4.823   0.711   9.200  0.0000  0.0000  0.0000
 9391OM     OM1 9391   3.266   7.349   0.322  0.0000  0.0000  0.0000
 9392OM     OM1 9392   1.565   8.647   0.629  0.0000  0.0000  0.0000
 9393OM     OM1 9393   5.750   4.062   8.624  0.0000  0.0000  0.0000
 9394OM     OM1 9394   5.525   4.157   8.530  0.0000  0.0000  0.0000
 9395OM     OM1 9395   5.602   3.945   8.430  0.0000  0.0000  0.0000
 9396OM     OM1 9396   6.740   6.219   9.385  0.0000  0.0000  0.0000
 9397OM     OM1 9397   8.559   2.476   9.016  0.0000  0.0000  0.0000
 9398OM     OM1 9398   8.508   2.336   9.233  0.0000  0.0000  0.0000
 9399OM     OM1 9399   8.318   2.367   9.032  0.0000  0.0000  0.0000
 9400OM     OM1 9400   4.592   0.717   9.326  0.0000  0.0000  0.0000
 9401OM     OM1 9401   7.831   1.915   0.268  0.0000  0.0000  0.0000
 9402OM     OM1 9402   1.032   8.131   1.236  0.0000  0.0000  0.0000
 9403OM     OM1 9403   0.784   8.181   1.188  0.0000  0.0000  0.0000
 9404OM     OM1 9404   7.629   0.013   0.731  0.0000  0.0000  0.0000
 9405OM     OM1 9405   3.864   9.211   1.366  0.0000  0.0000  0.0000
 9406OM     OM1 9406   5.394   0.165   0.248  0.0000  0.0000  0.0000
 9407OM     OM1 9407   5.235   1.873   0.791  0.0000  0.0000  0.0000
 9408OM     OM1 9408   5.246   2.057   0.621  0.0000  0.0000  0.0000
 9409OM     OM1 9409   8.715   1.194   0.603  0.0000  0.0000  0.0000
 9410OM     OM1 9410   7.272   6.227   0.451  0.0000  0.0000  0.0000
 9411OM     OM1 9411   7.316   6.015   0.596  0.0000  0.0000  0.0000
 9412OM     OM1 9412   6.928   7.049   8.931  0.0000  0.0000  0.0000
 9413OM     OM1 9413   6.690   7.127   8.881  0.0000  0.0000  0.0000
 9414OM     OM1 9414   5.270   9.477   8.932  0.0000  0.0000  0.0000
 9415OM     OM1 9415   9.233   8.125   8.676  0.0000  0.0000  0.0000
 9416OM     OM1 9416   9.193   8.391   8.682  0.0000  0.0000  0.0000
 9417OM     OM1 9417   9.152   8.255   8.887  0.0000  0.0000  0.0000
 9418OM     OM1 9418   8.989   8.207   8.701  0.0000  0.0000  0.0000
 9419OM     OM1 9419   6.135   6.670   9.043  0.0000  0.0000  0.0000
 9420OM     OM1 9420   5.082   5.930   9.127  0.0000  0.0000  0.0000
 9421OM     OM1 9421   5.262   5.812   9.291  0.0000  0.0000  0.0000
 9422OM     OM1 9422   5.007   5.755   9.303  0.0000  0.0000  0.0000
 9423OM     OM1 9423   8.807   1.516   8.436  0.0000  0.0000  0.0000
 9424OM     OM1 9424   8.977   1.327   8.368  0.0000  0.0000  0.0000
 9425OM     OM1 9425   9.014   1.465   8.594  0.0000  0.0000  0.0000
 9426OM     OM1 9426   1.956   9.413   0.084  0.0000  0.0000  0.0000
 9427OM     OM1 9427   6.464   5.843   0.371  0.0000  0.0000  0.0000
 9428OM     OM1 9428   2.550   0.655   0.554  0.0000  0.0000  0.0000
 9429OM     OM1 9429   2.519   0.903   0.595  0.0000  0.0000  0.0000
 9430OM     OM1 9430   1.608   9.367   1.234  0.0000  0.0000  0.0000
 9431OM     OM1 9431   6.251   7.303   8.901  0.0000  0.0000  0.0000
 9432OM     OM1 9432   2.635   5.723   9.459  0.0000  0.0000  0.0000
 9433OM     OM1 9433   2.714   5.689   0.094  0.0000  0.0000  0.0000
 9434OM     OM1 9434   2.171   3.231   0.010  0.0000  0.0000  0.0000
 9435OM     OM1 9435   8.538   6.768   9.130  0.0000  0.0000  0.0000
 9436OM     OM1 9436   8.304   6.660   9.212  0.0000  0.0000  0.0000
 9437OM     OM1 9437   6.108   0.140   0.359  0.0000  0.0000  0.0000
 9438OM     OM1 9438   9.440   4.777   0.119  0.0000  0.0000  0.0000
 9439OM     OM1 9439   9.538   5.002   0.196  0.0000  0.0000  0.0000
 9440OM     OM1 9440   0.554   6.608   0.004  0.0000  0.0000  0.0000
 9441OM     OM1 9441   8.920   8.326   8.392  0.0000  0.0000  0.0000
 9442OM     OM1 9442   3.958   5.430   0.271  0.0000  0.0000  0.0000
 9443OM     OM1 9443   3.844   5.365   0.501  0.0000  0.0000  0.0000
 9444OM     OM1 9444   8.899   1.230   1.101  0.0000  0.0000  0.0000
 9445OM     OM1 9445   5.715   1.011   0.075  0.0000  0.0000  0.0000
 9446OM     OM1 9446   5.967   0.971   0.090  0.0000  0.0000  0.0000
 9447OM     OM1 9447   5.800   0.820   9.546  0.0000  0.0000  0.0000
 9448OM     OM1 9448   3.225   7.573   8.490  0.0000  0.0000  0.0000
 9449OM     OM1 9449   2.966   7.594   8.499  0.0000  0.0000  0.0000
 9450OM     OM1 9450   3.132   7.759   8.641  0.0000  0.0000  0.0000
 9451OM     OM1 9451   7.629   6.383   9.326  0.0000  0.0000  0.0000
 9452OM     OM1 9452   7.723   6.578   0.098  0.0000  0.0000  0.0000
 9453OM     OM1 9453   3.641   1.249   8.955  0.0000  0.0000  0.0000
 9454OM     OM1 9454   3.753   1.263   9.200  0.0000  0.0000  0.0000
 9455OM     OM1 9455   3.979   0.717   9.363  0.0000  0.0000  0.0000
 9456OM     OM1 9456   4.870   9.134   8.315  0.0000  0.0000  0.0000
 9457OM     OM1 9457   7.133   6.924   9.049  0.0000  0.0000  0.0000
 9458OM     OM1 9458   6.941   1.950   8.324  0.0000  0.0000  0.0000
 9459OM     OM1 9459   6.902   6.490   0.955  0.0000  0.0000  0.0000
 9460OM     OM1 9460   7.110   6.570   1.105  0.0000  0.0000  0.0000
 9461OM     OM1 9461   5.851   3.034   0.173  0.0000  0.0000  0.0000
 9462OM     OM1 9462   5.735   2.804   0.177  0.0000  0.0000  0.0000
 9463OM     OM1 9463   5.887   2.875   0.378  0.0000  0.0000  0.0000
 9464OM     OM1 9464   6.313   4.637   8.362  0.0000  0.0000  0.0000
 9465OM     OM1 9465   2.823   4.784   1.093  0.0000  0.0000  0.0000
 9466OM     OM1 9466   1.474   3.905   0.822  0.0000  0.0000  0.0000
 9467OM     OM1 9467   8.864   7.299   0.778  0.0000  0.0000  0.0000
 9468OM     OM1 9468   8.777   7.191   0.550  0.0000  0.0000  0.0000
 9469OM     OM1 9469   4.479   0.537   0.945  0.0000  0.0000  0.0000
 9470OM     OM1 9470   4.655   0.686   0.834  0.0000  0.0000  0.0000
 9471OM     OM1 9471   4.713   0.554   1.062  0.0000  0.0000  0.0000
 9472OM     OM1 9472   8.820   2.471   8.981  0.0000  0.0000  0.0000
 9473OM     OM1 9473   4.975   5.197   9.107  0.0000  0.0000  0.0000
 9474OM     OM1 9474   4.956   5.133   9.350  0.0000  0.0000  0.0000
 9475OM     OM1 9475   4.732   8.502   8.909  0.0000  0.0000  0.0000
 9476OM     OM1 9476   4.581   8.587   9.104  0.0000  0.0000  0.0000
 9477OM     OM1 9477   4.684   8.351   9.110  0.0000  0.0000  0.0000
 9478OM     OM1 9478   2.875   1.884   1.060  0.0000  0.0000  0.0000
 9479OM     OM1 9479   7.012   1.677   1.074  0.0000  0.0000  0.0000
 9480OM     OM1 9480   6.866   1.575   0.892  0.0000  0.0000  0.0000
 9481OM     OM1 9481   3.695   8.679   1.111  0.0000  0.0000  0.0000
 9482OM     OM1 9482   7.129   2.679   8.640  0.0000  0.0000  0.0000
 9483OM     OM1 9483   3.104   3.425   8.836  0.0000  0.0000  0.0000
 9484OM     OM1 9484   1.674   5.118   9.470  0.0000  0.0000  0.0000
 9485OM     OM1 9485   1.355   5.420   0.017  0.0000  0.0000  0.0000
 9486OM     OM1 9486   5.253   0.057   9.212  0.0000  0.0000  0.0000
 9487OM     OM1 9487   4.968   9.463   9.405  0.0000  0.0000  0.0000
 9488OM     OM1 9488   9.443   6.471   0.663  0.0000  0.0000  0.0000
 9489OM     OM1 9489   9.232   6.521   0.523  0.0000  0.0000  0.0000
 9490OM     OM1 9490   7.698   1.216   0.071  0.0000  0.0000  0.0000
 9491OM     OM1 9491   7.868   1.159   0.243  0.0000  0.0000  0.0000
 9492OM     OM1 9492   5.326   7.226   1.320  0.0000  0.0000  0.0000
 9493OM     OM1 9493   4.185   7.078   0.913  0.0000  0.0000  0.0000
 9494OM     OM1 9494   7.733   6.437   0.324  0.0000  0.0000  0.0000
 9495OM     OM1 9495   0.426   0.542   9.167  0.0000  0.0000  0.0000
 9496OM     OM1 9496   7.996   4.965   9.318  0.0000  0.0000  0.0000
 9497OM     OM1 9497   0.217   6.021   9.358  0.0000  0.0000  0.0000
 9498OM     OM1 9498   0.119   6.257   9.347  0.0000  0.0000  0.0000
 9499OM     OM1 9499   4.094   1.615   1.116  0.0000  0.0000  0.0000
 9500OM     OM1 9500   5.198   4.498   1.262  0.0000  0.0000  0.0000
 9501OM     OM1 9501   4.696   0.932   9.229  0.0000  0.0000  0.0000
 9502OM     OM1 9502   4.509   1.104   9.157  0.0000  0.0000  0.0000
 9503OM     OM1 9503   7.660   7.257   9.124  0.0000  0.0000  0.0000
 9504OM     OM1 9504   8.992   4.729   8.487  0.0000  0.0000  0.0000
 9505OM     OM1 9505   1.342   7.379   1.260  0.0000  0.0000  0.0000
 9506OM     OM1 9506   1.165   7.546   1.166  0.0000  0.0000  0.0000
 9507OM     OM1 9507   0.968   0.241   0.703  0.0000  0.0000  0.0000
 9508OM     OM1 9508   0.882   0.010   0.592  0.0000  0.0000  0.0000
 9509OM     OM1 9509   1.422   4.854   1.018  0.0000  0.0000  0.0000
 9510OM     OM1 9510   4.563   0.121   8.462  0.0000  0.0000  0.0000
 9511OM     OM1 9511   4.872   0.445   8.596  0.0000  0.0000  0.0000
 9512OM     OM1 9512   4.687   0.549   8.744  0.0000  0.0000  0.0000
 9513OM     OM1 9513   1.726   4.686   9.227  0.0000  0.0000  0.0000
 9514OM     OM1 9514   1.577   4.697   9.447  0.0000  0.0000  0.0000
 9515OM     OM1 9515   1.478   4.712   9.198  0.0000  0.0000  0.0000
 9516OM     OM1 9516   1.619   4.911   9.308  0.0000  0.0000  0.0000
 9517OM     OM1 9517   3.942   7.152   1.017  0.0000  0.0000  0.0000
 9518OM     OM1 9518   6.954   2.288   9.041  0.0000  0.0000  0.0000
 9519OM     OM1 9519   0.877   5.010   0.973  0.0000  0.0000  0.0000
 9520OM     OM1 9520   5.101   1.461   8.425  0.0000  0.0000  0.0000
 9521OM     OM1 9521   3.852   1.412   0.711  0.0000  0.0000  0.0000
 9522OM     OM1 9522   8.540   2.881   0.225  0.0000  0.0000  0.0000
 9523OM     OM1 9523   2.785   1.729   9.465  0.0000  0.0000  0.0000
 9524OM     OM1 9524   3.017   1.852   9.435  0.0000  0.0000  0.0000
 9525OM     OM1 9525   8.659   2.803   0.714  0.0000  0.0000  0.0000
 9526OM     OM1 9526   7.091   1.881   0.921  0.0000  0.0000  0.0000
 9527OM     OM1 9527   8.767   6.676   1.007  0.0000  0.0000  0.0000
 9528OM     OM1 9528   8.720   6.554   0.784  0.0000  0.0000  0.0000
 9529OM     OM1 9529   1.464   2.717   0.633  0.0000  0.0000  0.0000
 9530OM     OM1 9530   1.246   2.798   0.504  0.0000  0.0000  0.0000
 9531OM     OM1 9531   1.247   2.706   0.760  0.0000  0.0000  0.0000
 9532OM     OM1 9532   3.119   3.912   0.097  0.0000  0.0000  0.0000
 9533OM     OM1 9533   2.949   3.945   9.511  0.0000  0.0000  0.0000
 9534OM     OM1 9534   2.922   4.183   9.382  0.0000  0.0000  0.0000
 9535OM     OM1 9535   1.880   9.160   0.037  0.0000  0.0000  0.0000
 9536OM     OM1 9536   7.635   8.057   0.128  0.0000  0.0000  0.0000
 9537OM     OM1 9537   7.703   7.861   9.586  0.0000  0.0000  0.0000
 9538OM     OM1 9538   6.373   9.390   8.912  0.0000  0.0000  0.0000
 9539OM     OM1 9539   6.408   0.025   8.836  0.0000  0.0000  0.0000
 9540OM     OM1 9540   0.770   4.842   0.133  0.0000  0.0000  0.0000
 9541OM     OM1 9541   6.549   9.307   1.156  0.0000  0.0000  0.0000
 9542OM     OM1 9542   6.326   9.176   1.181  0.0000  0.0000  0.0000
 9543OM     OM1 9543   6.465   9.152   0.961  0.0000  0.0000  0.0000
 9544OM     OM1 9544   6.348   9.382   1.014  0.0000  0.0000  0.0000
 9545OM     OM1 9545   8.065   1.957   9.295  0.0000  0.0000  0.0000
 9546OM     OM1 9546   1.901   5.813   0.232  0.0000  0.0000  0.0000
 9547OM     OM1 9547   6.795   9.080   8.521  0.0000  0.0000  0.0000
 9548OM     OM1 9548   6.988   8.964   8.390  0.0000  0.0000  0.0000
 9549OM     OM1 9549   1.938   8.944   8.241  0.0000  0.0000  0.0000
 9550OM     OM1 9550   4.793   2.869   0.869  0.0000  0.0000  0.0000
 9551OM     OM1 9551   4.867   2.614   0.899  0.0000  0.0000  0.0000
 9552OM     OM1 9552   0.676   1.337   9.041  0.0000  0.0000  0.0000
 9553OM     OM1 9553   0.792   1.552   8.938  0.0000  0.0000  0.0000
 9554OM     OM1 9554   0.792   1.337   8.801  0.0000  0.0000  0.0000
 9555OM     OM1 9555   5.990   7.162   0.612  0.0000  0.0000  0.0000
 9556OM     OM1 9556   6.558   6.351   8.503  0.0000  0.0000  0.0000
 9557OM     OM1 9557   6.635   6.102   8.511  0.0000  0.0000  0.0000
 9558OM     OM1 9558   7.788   3.801   1.438  0.0000  0.0000  0.0000
 9559OM     OM1 9559   3.427   6.363   9.141  0.0000  0.0000  0.0000
 9560OM     OM1 9560   3.693   6.364   9.189  0.0000  0.0000  0.0000
 9561OM     OM1 9561   8.266   6.908   8.318  0.0000  0.0000  0.0000
 9562OM     OM1 9562   8.262   6.644   8.379  0.0000  0.0000  0.0000
 9563OM     OM1 9563   2.152   7.360   1.308  0.0000  0.0000  0.0000
 9564OM     OM1 9564   3.080   8.502   8.722  0.0000  0.0000  0.0000
 9565OM     OM1 9565   7.221   4.550   0.912  0.0000  0.0000  0.0000
 9566OM     OM1 9566   7.414   4.724   0.936  0.0000  0.0000  0.0000
 9567OM     OM1 9567   2.456   5.660   0.033  0.0000  0.0000  0.0000
 9568OM     OM1 9568   5.999   2.883   8.300  0.0000  0.0000  0.0000
 9569OM     OM1 9569   9.356   5.977   8.874  0.0000  0.0000  0.0000
 9570OM     OM1 9570   9.544   5.820   8.783  0.0000  0.0000  0.0000
 9571OM     OM1 9571   1.851   9.030   0.259  0.0000  0.0000  0.0000
 9572OM     OM1 9572   1.654   4.441   9.240  0.0000  0.0000  0.0000
 9573OM     OM1 9573   3.891   8.676   8.556  0.0000  0.0000  0.0000
 9574OM     OM1 9574   4.125   1.625   8.459  0.0000  0.0000  0.0000
 9575OM     OM1 9575   4.279   1.408   8.503  0.0000  0.0000  0.0000
 9576OM     OM1 9576   2.735   2.837   8.524  0.0000  0.0000  0.0000
 9577OM     OM1 9577   2.786   2.698   8.740  0.0000  0.0000  0.0000
 9578OM     OM1 9578   1.586   4.177   8.456  0.0000  0.0000  0.0000
 9579OM     OM1 9579   4.331   9.292   9.038  0.0000  0.0000  0.0000
 9580OM     OM1 9580   7.867   8.859   0.028  0.0000  0.0000  0.0000
 9581OM     OM1 9581   6.305   3.530   1.191  0.0000  0.0000  0.0000
 9582OM     OM1 9582   6.115   3.611   1.040  0.0000  0.0000  0.0000
 9583OM     OM1 9583   6.111   3.665   1.294  0.0000  0.0000  0.0000
 9584OM     OM1 9584   7.075   3.426   8.797  0.0000  0.0000  0.0000
 9585OM     OM1 9585   7.045   3.632   8.617  0.0000  0.0000  0.0000
 9586OM     OM1 9586   4.151   7.231   0.596  0.0000  0.0000  0.0000
 9587OM     OM1 9587   7.811   7.572   0.916  0.0000  0.0000  0.0000
 9588OM     OM1 9588   0.629   7.999   0.731  0.0000  0.0000  0.0000
 9589OM     OM1 9589   0.880   7.989   0.807  0.0000  0.0000  0.0000
 9590OM     OM1 9590   0.801   8.126   0.590  0.0000  0.0000  0.0000
 9591OM     OM1 9591   6.233   9.541   0.592  0.0000  0.0000  0.0000
 9592OM     OM1 9592   6.179   9.468   0.835  0.0000  0.0000  0.0000
 9593OM     OM1 9593   6.123   3.841   0.916  0.0000  0.0000  0.0000
 9594OM     OM1 9594   6.388   3.864   0.909  0.0000  0.0000  0.0000
 9595OM     OM1 9595   3.829   9.562   0.659  0.0000  0.0000  0.0000
 9596OM     OM1 9596   3.673   0.166   0.624  0.0000  0.0000  0.0000
 9597OM     OM1 9597   3.719   9.502   0.874  0.0000  0.0000  0.0000
 9598OM     OM1 9598   9.064   2.045   8.549  0.0000  0.0000  0.0000
 9599OM     OM1 9599   8.825   2.148   8.603  0.0000  0.0000  0.0000
 9600OM     OM1 9600   7.669   5.063   0.729  0.0000  0.0000  0.0000
 9601OM     OM1 9601   7.782   3.047   8.477  0.0000  0.0000  0.0000
 9602OM     OM1 9602   7.972   3.090   8.309  0.0000  0.0000  0.0000
 9603OM     OM1 9603   9.515   1.492   8.469  0.0000  0.0000  0.0000
 9604OM     OM1 9604   6.340   0.026   9.185  0.0000  0.0000  0.0000
 9605OM     OM1 9605   6.509   9.438   9.128  0.0000  0.0000  0.0000
 9606OM     OM1 9606   9.334   0.439   8.367  0.0000  0.0000  0.0000
 9607OM     OM1 9607   9.539   7.567   0.726  0.0000  0.0000  0.0000
 9608OM     OM1 9608   9.284   7.600   0.668  0.0000  0.0000  0.0000
 9609OM     OM1 9609   5.105   8.036   9.492  0.0000  0.0000  0.0000
 9610OM     OM1 9610   5.208   7.933   9.274  0.0000  0.0000  0.0000
 9611OM     OM1 9611   5.077   8.157   9.270  0.0000  0.0000  0.0000
 9612OM     OM1 9612   4.599   1.366   0.301  0.0000  0.0000  0.0000
 9613OM     OM1 9613   4.646   1.562   0.469  0.0000  0.0000  0.0000
 9614OM     OM1 9614   7.622   3.837   8.623  0.0000  0.0000  0.0000
 9615OM     OM1 9615   7.604   4.093   8.637  0.0000  0.0000  0.0000
 9616OM     OM1 9616   0.452   2.799   8.684  0.0000  0.0000  0.0000
 9617OM     OM1 9617   0.672   2.827   8.806  0.0000  0.0000  0.0000
 9618OM     OM1 9618   9.017   3.081   0.623  0.0000  0.0000  0.0000
 9619OM     OM1 9619   6.437   5.135   9.218  0.0000  0.0000  0.0000
 9620OM     OM1 9620   3.774   4.112   9.056  0.0000  0.0000  0.0000
 9621OM     OM1 9621   6.544   9.067   8.505  0.0000  0.0000  0.0000
 9622OM     OM1 9622   8.075   0.156   8.224  0.0000  0.0000  0.0000
 9623OM     OM1 9623   0.678   8.721   8.557  0.0000  0.0000  0.0000
 9624OM     OM1 9624   0.792   8.493   8.637  0.0000  0.0000  0.0000
 9625OM     OM1 9625   0.942   8.685   8.586  0.0000  0.0000  0.0000
 9626OM     OM1 9626   5.868   5.234   0.362  0.0000  0.0000  0.0000
 9627OM     OM1 9627   6.097   5.207   0.249  0.0000  0.0000  0.0000
 9628OM     OM1 9628   5.998   5.015   0.409  0.0000  0.0000  0.0000
 9629OM     OM1 9629   6.096   5.232   0.507  0.0000  0.0000  0.0000
 9630OM     OM1 9630   8.393   4.508   0.894  0.0000  0.0000  0.0000
 9631OM     OM1 9631   8.447   4.698   1.077  0.0000  0.0000  0.0000
 9632OM     OM1 9632   8.367   6.556   8.832  0.0000  0.0000  0.0000
 9633OM     OM1 9633   8.486   6.327   8.884  0.0000  0.0000  0.0000
 9634OM     OM1 9634   8.216   6.707   8.980  0.0000  0.0000  0.0000
 9635OM     OM1 9635   1.828   3.108   0.889  0.0000  0.0000  0.0000
 9636OM     OM1 9636   1.569   3.111   0.920  0.0000  0.0000  0.0000
 9637OM     OM1 9637   3.653   1.350   9.428  0.0000  0.0000  0.0000
 9638OM     OM1 9638   2.660   7.980   0.882  0.0000  0.0000  0.0000
 9639OM     OM1 9639   2.533   8.199   0.897  0.0000  0.0000  0.0000
 9640OM     OM1 9640   0.138   4.047   8.957  0.0000  0.0000  0.0000
 9641OM     OM1 9641   7.168   7.547   0.305  0.0000  0.0000  0.0000
 9642OM     OM1 9642   4.127   1.202   8.455  0.0000  0.0000  0.0000
 9643OM     OM1 9643   3.931   1.128   8.300  0.0000  0.0000  0.0000
 9644OM     OM1 9644   3.991   5.001   1.326  0.0000  0.0000  0.0000
 9645OM     OM1 9645   3.904   5.246   1.303  0.0000  0.0000  0.0000
 9646OM     OM1 9646   4.928   4.448   8.854  0.0000  0.0000  0.0000
 9647OM     OM1 9647   5.010   4.693   8.820  0.0000  0.0000  0.0000
 9648OM     OM1 9648   8.198   0.858   1.245  0.0000  0.0000  0.0000
 9649OM     OM1 9649   5.154   4.211   0.872  0.0000  0.0000  0.0000
 9650OM     OM1 9650   5.233   4.405   1.020  0.0000  0.0000  0.0000
 9651OM     OM1 9651   5.414   4.239   0.917  0.0000  0.0000  0.0000
 9652OM     OM1 9652   2.969   1.076   1.153  0.0000  0.0000  0.0000
 9653OM     OM1 9653   5.583   0.276   8.335  0.0000  0.0000  0.0000
 9654OM     OM1 9654   8.668   0.455   1.126  0.0000  0.0000  0.0000
 9655OM     OM1 9655   8.142   9.375   0.824  0.0000  0.0000  0.0000
 9656OM     OM1 9656   8.344   9.361   0.974  0.0000  0.0000  0.0000
 9657OM     OM1 9657   7.592   0.434   9.301  0.0000  0.0000  0.0000
 9658OM     OM1 9658   3.998   1.561   0.881  0.0000  0.0000  0.0000
 9659OM     OM1 9659   4.061   1.542   0.636  0.0000  0.0000  0.0000
 9660OM     OM1 9660   3.853   1.676   0.689  0.0000  0.0000  0.0000
 9661OM     OM1 9661   4.256   4.192   8.570  0.0000  0.0000  0.0000
 9662OM     OM1 9662   4.012   4.125   8.588  0.0000  0.0000  0.0000
 9663OM     OM1 9663   4.160   4.025   8.394  0.0000  0.0000  0.0000
 9664OM     OM1 9664   4.872   5.377   8.945  0.0000  0.0000  0.0000
 9665OM     OM1 9665   3.236   1.988   8.560  0.0000  0.0000  0.0000
 9666OM     OM1 9666   3.049   2.101   8.703  0.0000  0.0000  0.0000
 9667OM     OM1 9667   4.251   6.397   8.487  0.0000  0.0000  0.0000
 9668OM     OM1 9668   4.348   6.611   8.365  0.0000  0.0000  0.0000
 9669OM     OM1 9669   4.392   6.571   8.616  0.0000  0.0000  0.0000
 9670OM     OM1 9670   4.515   6.422   8.451  0.0000  0.0000  0.0000
 9671OM     OM1 9671   6.601   4.183   9.131  0.0000  0.0000  0.0000
 9672OM     OM1 9672   8.585   5.355   8.229  0.0000  0.0000  0.0000
 9673OM     OM1 9673   0.618   0.047   1.195  0.0000  0.0000  0.0000
 9674OM     OM1 9674   6.235   4.754   8.583  0.0000  0.0000  0.0000
 9675OM     OM1 9675   7.571   1.899   0.284  0.0000  0.0000  0.0000
 9676OM     OM1 9676   1.296   8.077   9.499  0.0000  0.0000  0.0000
 9677OM     OM1 9677   0.190   3.064   1.014  0.0000  0.0000  0.0000
 9678OM     OM1 9678   0.326   3.046   1.232  0.0000  0.0000  0.0000
 9679OM     OM1 9679   0.130   2.886   1.200  0.0000  0.0000  0.0000
 9680OM     OM1 9680   9.438   4.761   9.234  0.0000  0.0000  0.0000
 9681OM     OM1 9681   9.407   4.694   9.481  0.0000  0.0000  0.0000
 9682OM     OM1 9682   9.195   4.761   9.339  0.0000  0.0000  0.0000
 9683OM     OM1 9683   6.727   1.950   8.477  0.0000  0.0000  0.0000
 9684OM     OM1 9684   2.614   4.204   9.031  0.0000  0.0000  0.0000
 9685OM     OM1 9685   3.781   6.252   8.980  0.0000  0.0000  0.0000
 9686OM     OM1 9686   3.560   6.278   8.814  0.0000  0.0000  0.0000
 9687OM     OM1 9687   9.147   1.000   0.168  0.0000  0.0000  0.0000
 9688OM     OM1 9688   9.109   0.886   0.388  0.0000  0.0000  0.0000
 9689OM     OM1 9689   5.457   6.176   9.258  0.0000  0.0000  0.0000
 9690OM     OM1 9690   9.395   6.580   8.231  0.0000  0.0000  0.0000
 9691OM     OM1 9691   6.764   6.445   8.378  0.0000  0.0000  0.0000
 9692OM     OM1 9692   8.716   0.354   0.351  0.0000  0.0000  0.0000
 9693OM     OM1 9693   1.712   9.393   9.043  0.0000  0.0000  0.0000
 9694OM     OM1 9694   5.376   5.630   0.254  0.0000  0.0000  0.0000
 9695OM     OM1 9695   5.143   5.559   0.348  0.0000  0.0000  0.0000
 9696OM     OM1 9696   2.045   0.299   8.919  0.0000  0.0000  0.0000
 9697OM     OM1 9697   2.153   0.406   9.135  0.0000  0.0000  0.0000
 9698OM     OM1 9698   3.956   4.352   8.715  0.0000  0.0000  0.0000
 9699OM     OM1 9699   5.509   3.761   1.091  0.0000  0.0000  0.0000
 9700OM     OM1 9700   5.505   4.017   1.030  0.0000  0.0000  0.0000
 9701OM     OM1 9701   5.730   3.924   1.102  0.0000  0.0000  0.0000
 9702OM     OM1 9702   9.280   3.614   9.185  0.0000  0.0000  0.0000
 9703OM     OM1 9703   9.458   3.785   9.237  0.0000  0.0000  0.0000
 9704OM     OM1 9704   9.351   3.690   9.440  0.0000  0.0000  0.0000
 9705OM     OM1 9705   4.018   7.156   9.242  0.0000  0.0000  0.0000
 9706OM     OM1 9706   4.260   7.060   9.242  0.0000  0.0000  0.0000
 9707OM     OM1 9707   3.922   7.202   9.479  0.0000  0.0000  0.0000
 9708OM     OM1 9708   3.071   6.653   8.448  0.0000  0.0000  0.0000
 9709OM     OM1 9709   7.013   2.897   0.089  0.0000  0.0000  0.0000
 9710OM     OM1 9710   7.695   6.448   0.574  0.0000  0.0000  0.0000
 9711OM     OM1 9711   7.513   6.328   0.419  0.0000  0.0000  0.0000
 9712OM     OM1 9712   8.495   0.819   8.587  0.0000  0.0000  0.0000
 9713OM     OM1 9713   8.245   0.828   8.509  0.0000  0.0000  0.0000
 9714OM     OM1 9714   1.177   2.290   8.577  0.0000  0.0000  0.0000
 9715OM     OM1 9715   1.036   2.499   8.657  0.0000  0.0000  0.0000
 9716OM     OM1 9716   2.732   0.973   0.461  0.0000  0.0000  0.0000
 9717OM     OM1 9717   2.935   1.095   0.333  0.0000  0.0000  0.0000
 9718OM     OM1 9718   6.301   0.315   0.315  0.0000  0.0000  0.0000
 9719OM     OM1 9719   1.300   5.255   9.187  0.0000  0.0000  0.0000
 9720OM     OM1 9720   1.102   5.417   9.237  0.0000  0.0000  0.0000
 9721OM     OM1 9721   1.060   5.180   9.142  0.0000  0.0000  0.0000
 9722OM     OM1 9722   8.500   8.075   0.628  0.0000  0.0000  0.0000
 9723OM     OM1 9723   8.708   8.129   0.784  0.0000  0.0000  0.0000
 9724OM     OM1 9724   9.271   0.268   8.554  0.0000  0.0000  0.0000
 9725OM     OM1 9725   6.347   0.067   0.387  0.0000  0.0000  0.0000
 9726OM     OM1 9726   8.651   6.998   9.062  0.0000  0.0000  0.0000
 9727OM     OM1 9727   0.263   7.313   1.237  0.0000  0.0000  0.0000
 9728OM     OM1 9728   7.921   6.590   0.586  0.0000  0.0000  0.0000
 9729OM     OM1 9729   3.623   0.295   0.240  0.0000  0.0000  0.0000
 9730OM     OM1 9730   3.515   0.301   0.476  0.0000  0.0000  0.0000
 9731OM     OM1 9731   2.737   1.949   9.087  0.0000  0.0000  0.0000
 9732OM     OM1 9732   5.173   6.764   1.160  0.0000  0.0000  0.0000
 9733OM     OM1 9733   5.235   6.566   1.001  0.0000  0.0000  0.0000
 9734OM     OM1 9734   4.999   6.571   1.100  0.0000  0.0000  0.0000
 9735OM     OM1 9735   5.075   6.742   0.916  0.0000  0.0000  0.0000
 9736OM     OM1 9736   2.457   7.156   9.165  0.0000  0.0000  0.0000
 9737OM     OM1 9737   2.377   7.104   9.404  0.0000  0.0000  0.0000
 9738OM     OM1 9738   2.282   6.968   9.201  0.0000  0.0000  0.0000
 9739OM     OM1 9739   7.100   1.366   0.218  0.0000  0.0000  0.0000
 9740OM     OM1 9740   6.415   8.002   8.463  0.0000  0.0000  0.0000
 9741OM     OM1 9741   4.582   2.531   9.482  0.0000  0.0000  0.0000
 9742OM     OM1 9742   7.541   6.886   8.563  0.0000  0.0000  0.0000
 9743OM     OM1 9743   7.766   6.891   8.431  0.0000  0.0000  0.0000
 9744OM     OM1 9744   5.445   5.339   1.133  0.0000  0.0000  0.0000
 9745OM     OM1 9745   5.274   5.425   0.958  0.0000  0.0000  0.0000
 9746OM     OM1 9746   7.034   8.077   0.904  0.0000  0.0000  0.0000
 9747OM     OM1 9747   6.786   8.105   1.015  0.0000  0.0000  0.0000
 9748OM     OM1 9748   7.465   2.155   0.683  0.0000  0.0000  0.0000
 9749OM     OM1 9749   7.133   8.845   8.559  0.0000  0.0000  0.0000
 9750OM     OM1 9750   7.223   9.025   8.378  0.0000  0.0000  0.0000
 9751OM     OM1 9751   0.063   2.635   1.168  0.0000  0.0000  0.0000
 9752OM     OM1 9752   0.111   2.543   0.929  0.0000  0.0000  0.0000
 9753OM     OM1 9753   9.470   2.559   1.005  0.0000  0.0000  0.0000
 9754OM     OM1 9754   5.153   0.950   9.237  0.0000  0.0000  0.0000
 9755OM     OM1 9755   5.759   5.640   1.092  0.0000  0.0000  0.0000
 9756OM     OM1 9756   5.954   5.464   1.143  0.0000  0.0000  0.0000
 9757OM     OM1 9757   5.028   3.503   0.663  0.0000  0.0000  0.0000
 9758OM     OM1 9758   5.158   3.325   0.812  0.0000  0.0000  0.0000
 9759OM     OM1 9759   6.724   3.176   9.381  0.0000  0.0000  0.0000
 9760OM     OM1 9760   6.572   2.986   9.304  0.0000  0.0000  0.0000
 9761OM     OM1 9761   9.106   1.879   8.744  0.0000  0.0000  0.0000
 9762OM     OM1 9762   9.206   1.845   0.225  0.0000  0.0000  0.0000
 9763OM     OM1 9763   9.024   2.036   0.206  0.0000  0.0000  0.0000
 9764OM     OM1 9764   6.926   6.066   1.164  0.0000  0.0000  0.0000
 9765OM     OM1 9765   6.839   6.175   1.388  0.0000  0.0000  0.0000
 9766OM     OM1 9766   9.080   3.106   8.400  0.0000  0.0000  0.0000
 9767OM     OM1 9767   0.619   5.062   1.026  0.0000  0.0000  0.0000
 9768OM     OM1 9768   0.819   5.131   1.192  0.0000  0.0000  0.0000
 9769OM     OM1 9769   6.122   5.353   0.732  0.0000  0.0000  0.0000
 9770OM     OM1 9770   6.034   5.103   0.716  0.0000  0.0000  0.0000
 9771OM     OM1 9771   1.146   2.375   1.121  0.0000  0.0000  0.0000
 9772OM     OM1 9772   1.036   2.181   1.004  0.0000  0.0000  0.0000
 9773OM     OM1 9773   1.429   7.760   8.633  0.0000  0.0000  0.0000
 9774OM     OM1 9774   5.724   5.871   1.189  0.0000  0.0000  0.0000
 9775OM     OM1 9775   6.976   4.185   0.254  0.0000  0.0000  0.0000
 9776OM     OM1 9776   1.108   2.805   0.276  0.0000  0.0000  0.0000
 9777OM     OM1 9777   1.463   2.708   0.077  0.0000  0.0000  0.0000
 9778OM     OM1 9778   4.937   9.402   8.560  0.0000  0.0000  0.0000
 9779OM     OM1 9779   5.067   9.480   8.775  0.0000  0.0000  0.0000
 9780OM     OM1 9780   6.445   1.063   0.221  0.0000  0.0000  0.0000
 9781OM     OM1 9781   2.326   0.699   8.510  0.0000  0.0000  0.0000
 9782OM     OM1 9782   2.171   0.616   8.707  0.0000  0.0000  0.0000
 9783OM     OM1 9783   0.101   7.002   9.361  0.0000  0.0000  0.0000
 9784OM     OM1 9784   0.120   7.270   9.385  0.0000  0.0000  0.0000
 9785OM     OM1 9785   0.289   7.134   9.244  0.0000  0.0000  0.0000
 9786OM     OM1 9786   3.580   9.053   0.411  0.0000  0.0000  0.0000
 9787OM     OM1 9787   6.361   6.770   0.086  0.0000  0.0000  0.0000
 9788OM     OM1 9788   6.570   6.825   9.564  0.0000  0.0000  0.0000
 9789OM     OM1 9789   2.704   7.256   0.723  0.0000  0.0000  0.0000
 9790OM     OM1 9790   2.856   3.311   0.591  0.0000  0.0000  0.0000
 9791OM     OM1 9791   2.808   3.521   0.747  0.0000  0.0000  0.0000
 9792OM     OM1 9792   2.919   3.277   0.835  0.0000  0.0000  0.0000
 9793OM     OM1 9793   9.001   1.971   8.961  0.0000  0.0000  0.0000
 9794OM     OM1 9794   1.676   1.550   8.937  0.0000  0.0000  0.0000
 9795OM     OM1 9795   1.518   1.647   8.738  0.0000  0.0000  0.0000
 9796OM     OM1 9796   9.482   0.819   1.029  0.0000  0.0000  0.0000
 9797OM     OM1 9797   9.453   1.005   1.224  0.0000  0.0000  0.0000
 9798OM     OM1 9798   7.421   7.286   0.715  0.0000  0.0000  0.0000
 9799OM     OM1 9799   7.478   7.164   0.494  0.0000  0.0000  0.0000
 9800OM     OM1 9800   0.262   1.905   0.165  0.0000  0.0000  0.0000
 9801OM     OM1 9801   0.310   1.654   0.092  0.0000  0.0000  0.0000
 9802OM     OM1 9802   7.060   5.875   1.060  0.0000  0.0000  0.0000
 9803OM     OM1 9803   7.142   6.129   1.034  0.0000  0.0000  0.0000
 9804OM     OM1 9804   2.667   5.407   8.383  0.0000  0.0000  0.0000
 9805OM     OM1 9805   3.842   1.905   9.396  0.0000  0.0000  0.0000
 9806OM     OM1 9806   3.405   1.801   8.628  0.0000  0.0000  0.0000
 9807OM     OM1 9807   5.026   6.989   8.528  0.0000  0.0000  0.0000
 9808OM     OM1 9808   8.934   9.458   8.416  0.0000  0.0000  0.0000
 9809OM     OM1 9809   7.263   7.560   9.398  0.0000  0.0000  0.0000
 9810OM     OM1 9810   7.018   7.562   9.485  0.0000  0.0000  0.0000
 9811OM     OM1 9811   8.001   1.796   0.907  0.0000  0.0000  0.0000
 9812OM     OM1 9812   8.109   1.860   0.679  0.0000  0.0000  0.0000
 9813OM     OM1 9813   2.129   5.782   9.418  0.0000  0.0000  0.0000
 9814OM     OM1 9814   1.931   5.803   9.582  0.0000  0.0000  0.0000
 9815OM     OM1 9815   1.897   5.696   9.349  0.0000  0.0000  0.0000
 9816OM     OM1 9816   0.241   8.162   9.280  0.0000  0.0000  0.0000
 9817OM     OM1 9817   0.344   4.620   0.576  0.0000  0.0000  0.0000
 9818OM     OM1 9818   0.127   4.753   0.540  0.0000  0.0000  0.0000
 9819OM     OM1 9819   2.907   7.370   0.831  0.0000  0.0000  0.0000
 9820OM     OM1 9820   2.934   7.536   0.639  0.0000  0.0000  0.0000
 9821OM     OM1 9821   6.737   1.674   9.045  0.0000  0.0000  0.0000
 9822OM     OM1 9822   8.759   1.057   8.391  0.0000  0.0000  0.0000
 9823OM     OM1 9823   8.940   1.117   8.219  0.0000  0.0000  0.0000
 9824OM     OM1 9824   1.352   8.214   8.550  0.0000  0.0000  0.0000
 9825OM     OM1 9825   7.532   2.125   1.109  0.0000  0.0000  0.0000
 9826OM     OM1 9826   2.208   6.027   9.390  0.0000  0.0000  0.0000
 9827OM     OM1 9827   8.356   2.955   8.393  0.0000  0.0000  0.0000
 9828OM     OM1 9828   8.214   3.176   8.344  0.0000  0.0000  0.0000
 9829OM     OM1 9829   2.133   7.505   9.187  0.0000  0.0000  0.0000
 9830OM     OM1 9830   2.323   7.670   9.274  0.0000  0.0000  0.0000
 9831OM     OM1 9831   1.173   4.166   0.402  0.0000  0.0000  0.0000
 9832OM     OM1 9832   1.060   4.175   0.170  0.0000  0.0000  0.0000
 9833OM     OM1 9833   0.986   4.004   0.351  0.0000  0.0000  0.0000
 9834OM     OM1 9834   6.598   9.270   8.929  0.0000  0.0000  0.0000
 9835OM     OM1 9835   0.955   0.271   8.450  0.0000  0.0000  0.0000
 9836OM     OM1 9836   8.505   2.120   9.382  0.0000  0.0000  0.0000
 9837OM     OM1 9837   8.362   1.893   9.401  0.0000  0.0000  0.0000
 9838OM     OM1 9838   8.245   2.120   9.395  0.0000  0.0000  0.0000
 9839OM     OM1 9839   7.014   1.036   9.349  0.0000  0.0000  0.0000
 9840OM     OM1 9840   7.183   0.841   9.381  0.0000  0.0000  0.0000
 9841OM     OM1 9841   1.575   8.499   0.420  0.0000  0.0000  0.0000
 9842OM     OM1 9842   1.504   8.747   0.400  0.0000  0.0000  0.0000
 9843OM     OM1 9843   2.975   7.334   8.502  0.0000  0.0000  0.0000
 9844OM     OM1 9844   3.011   7.122   8.359  0.0000  0.0000  0.0000
 9845OM     OM1 9845   3.194   1.876   0.021  0.0000  0.0000  0.0000
 9846OM     OM1 9846   3.303   1.802   0.249  0.0000  0.0000  0.0000
 9847OM     OM1 9847   3.233   1.623   0.056  0.0000  0.0000  0.0000
 9848OM     OM1 9848   7.332   4.016   9.311  0.0000  0.0000  0.0000
 9849OM     OM1 9849   0.624   5.475   0.507  0.0000  0.0000  0.0000
 9850OM     OM1 9850   0.860   5.387   0.539  0.0000  0.0000  0.0000
 9851OM     OM1 9851   8.566   9.547   0.933  0.0000  0.0000  0.0000
 9852OM     OM1 9852   5.942   1.698   1.404  0.0000  0.0000  0.0000
 9853OM     OM1 9853   6.160   1.678   1.277  0.0000  0.0000  0.0000
 9854OM     OM1 9854   1.988   3.305   0.191  0.0000  0.0000  0.0000
 9855OM     OM1 9855   3.850   8.929   8.591  0.0000  0.0000  0.0000
 9856OM     OM1 9856   3.760   9.167   8.656  0.0000  0.0000  0.0000
 9857OM     OM1 9857   1.051   7.138   0.135  0.0000  0.0000  0.0000
 9858OM     OM1 9858   2.905   0.010   8.382  0.0000  0.0000  0.0000
 9859OM     OM1 9859   3.052   0.219   8.310  0.0000  0.0000  0.0000
 9860OM     OM1 9860   1.156   8.305   0.554  0.0000  0.0000  0.0000
 9861OM     OM1 9861   0.927   8.327   0.669  0.0000  0.0000  0.0000
 9862OM     OM1 9862   3.194   0.949   9.482  0.0000  0.0000  0.0000
 9863OM     OM1 9863   2.976   0.964   9.344  0.0000  0.0000  0.0000
 9864OM     OM1 9864   5.316   7.356   8.823  0.0000  0.0000  0.0000
 9865OM     OM1 9865   1.668   3.720   0.788  0.0000  0.0000  0.0000
 9866OM     OM1 9866   1.861   3.795   0.638  0.0000  0.0000  0.0000
 9867OM     OM1 9867   4.468   1.681   0.799  0.0000  0.0000  0.0000
 9868OM     OM1 9868   4.459   1.461   0.951  0.0000  0.0000  0.0000
 9869OM     OM1 9869   4.252   1.606   0.903  0.0000  0.0000  0.0000
 9870OM     OM1 9870   3.204   6.892   9.001  0.0000  0.0000  0.0000
 9871OM     OM1 9871   4.245   0.265   0.638  0.0000  0.0000  0.0000
 9872OM     OM1 9872   4.425   0.166   0.470  0.0000  0.0000  0.0000
 9873OM     OM1 9873   6.016   4.029   8.590  0.0000  0.0000  0.0000
 9874OM     OM1 9874   5.908   3.973   8.817  0.0000  0.0000  0.0000
 9875OM     OM1 9875   7.634   8.655   8.537  0.0000  0.0000  0.0000
 9876OM     OM1 9876   7.769   8.520   8.717  0.0000  0.0000  0.0000
 9877OM     OM1 9877   7.985   1.638   1.117  0.0000  0.0000  0.0000
 9878OM     OM1 9878   7.919   1.545   0.878  0.0000  0.0000  0.0000
 9879OM     OM1 9879   4.553   8.280   0.438  0.0000  0.0000  0.0000
 9880OM     OM1 9880   1.314   6.804   0.774  0.0000  0.0000  0.0000
 9881OM     OM1 9881   1.215   6.885   0.550  0.0000  0.0000  0.0000
 9882OM     OM1 9882   2.213   6.135   8.732  0.0000  0.0000  0.0000
 9883OM     OM1 9883   2.322   6.261   8.933  0.0000  0.0000  0.0000
 9884OM     OM1 9884   6.221   6.648   0.276  0.0000  0.0000  0.0000
 9885OM     OM1 9885   0.439   9.336   0.897  0.0000  0.0000  0.0000
 9886OM     OM1 9886   1.163   7.967   9.305  0.0000  0.0000  0.0000
 9887OM     OM1 9887   4.932   2.209   0.242  0.0000  0.0000  0.0000
 9888OM     OM1 9888   5.076   2.576   0.418  0.0000  0.0000  0.0000
 9889OM     OM1 9889   5.041   2.454   0.203  0.0000  0.0000  0.0000
 9890OM     OM1 9890   5.629   6.375   9.208  0.0000  0.0000  0.0000
 9891OM     OM1 9891   5.854   6.509   9.239  0.0000  0.0000  0.0000
 9892OM     OM1 9892   5.630   6.626   9.207  0.0000  0.0000  0.0000
 9893OM     OM1 9893   4.086   0.687   0.528  0.0000  0.0000  0.0000
 9894OM     OM1 9894   4.191   0.510   0.671  0.0000  0.0000  0.0000
 9895OM     OM1 9895   2.901   2.476   9.250  0.0000  0.0000  0.0000
 9896OM     OM1 9896   9.150   6.605   0.295  0.0000  0.0000  0.0000
 9897OM     OM1 9897   4.064   0.184   0.000  0.0000  0.0000  0.0000
 9898OM     OM1 9898   3.870   0.275   0.143  0.0000  0.0000  0.0000
 9899OM     OM1 9899   6.774   3.195   1.279  0.0000  0.0000  0.0000
 9900OM     OM1 9900   8.085   1.168   0.362  0.0000  0.0000  0.0000
 9901OM     OM1 9901   7.862   1.205   0.497  0.0000  0.0000  0.0000
 9902OM     OM1 9902   7.929   0.964   0.421  0.0000  0.0000  0.0000
 9903OM     OM1 9903   3.034   3.732   1.282  0.0000  0.0000  0.0000
 9904OM     OM1 9904   2.875   3.511   1.262  0.0000  0.0000  0.0000
 9905OM     OM1 9905   2.819   3.730   1.134  0.0000  0.0000  0.0000
 9906OM     OM1 9906   1.268   5.522   9.391  0.0000  0.0000  0.0000
 9907OM     OM1 9907   1.095   5.455   9.578  0.0000  0.0000  0.0000
 9908OM     OM1 9908   6.974   0.853   8.915  0.0000  0.0000  0.0000
 9909OM     OM1 9909   6.810   0.658   8.906  0.0000  0.0000  0.0000
 9910OM     OM1 9910   7.320   9.257   8.422  0.0000  0.0000  0.0000
 9911OM     OM1 9911   3.055   9.394   8.763  0.0000  0.0000  0.0000
 9912OM     OM1 9912   7.641   8.561   9.316  0.0000  0.0000  0.0000
 9913OM     OM1 9913   6.957   3.669   0.990  0.0000  0.0000  0.0000
 9914OM     OM1 9914   5.526   0.257   8.795  0.0000  0.0000  0.0000
 9915OM     OM1 9915   5.785   0.226   8.809  0.0000  0.0000  0.0000
 9916OM     OM1 9916   5.036   2.329   9.310  0.0000  0.0000  0.0000
 9917OM     OM1 9917   2.715   5.009   0.673  0.0000  0.0000  0.0000
 9918OM     OM1 9918   2.764   5.004   0.418  0.0000  0.0000  0.0000
 9919OM     OM1 9919   3.995   6.588   8.566  0.0000  0.0000  0.0000
 9920OM     OM1 9920   4.137   6.432   8.713  0.0000  0.0000  0.0000
 9921OM     OM1 9921   7.115   4.809   8.758  0.0000  0.0000  0.0000
 9922OM     OM1 9922   3.572   6.180   0.341  0.0000  0.0000  0.0000
 9923OM     OM1 9923   3.372   6.660   0.321  0.0000  0.0000  0.0000
 9924OM     OM1 9924   7.842   7.442   9.166  0.0000  0.0000  0.0000
 9925OM     OM1 9925   7.852   7.715   9.148  0.0000  0.0000  0.0000
 9926OM     OM1 9926   8.001   1.309   0.937  0.0000  0.0000  0.0000
 9927OM     OM1 9927   2.682   9.502   8.302  0.0000  0.0000  0.0000
 9928OM     OM1 9928   7.506   7.538   9.507  0.0000  0.0000  0.0000
 9929OM     OM1 9929   4.679   2.812   9.192  0.0000  0.0000  0.0000
 9930OM     OM1 9930   2.484   0.852   8.355  0.0000  0.0000  0.0000
 9931OM     OM1 9931   8.703   4.981   9.387  0.0000  0.0000  0.0000
 9932OM     OM1 9932   8.578   5.034   0.003  0.0000  0.0000  0.0000
 9933OM     OM1 9933   4.352   4.841   1.115  0.0000  0.0000  0.0000
 9934OM     OM1 9934   7.852   0.725   0.533  0.0000  0.0000  0.0000
 9935OM     OM1 9935   3.560   9.256   8.805  0.0000  0.0000  0.0000
 9936OM     OM1 9936   0.138   4.388   9.546  0.0000  0.0000  0.0000
 9937OM     OM1 9937   9.589   4.265   9.382  0.0000  0.0000  0.0000
 9938OM     OM1 9938   6.251   7.718   0.503  0.0000  0.0000  0.0000
 9939OM     OM1 9939   8.161   7.819   8.556  0.0000  0.0000  0.0000
 9940OM     OM1 9940   8.040   8.122   8.889  0.0000  0.0000  0.0000
 9941OM     OM1 9941   3.972   7.168   0.138  0.0000  0.0000  0.0000
 9942OM     OM1 9942   3.755   7.091   0.030  0.0000  0.0000  0.0000
 9943OM     OM1 9943   1.344   0.627   8.682  0.0000  0.0000  0.0000
 9944OM     OM1 9944   6.081   7.386   0.664  0.0000  0.0000  0.0000
 9945OM     OM1 9945   1.810   4.885   0.515  0.0000  0.0000  0.0000
 9946OM     OM1 9946   1.613   4.847   0.356  0.0000  0.0000  0.0000
 9947OM     OM1 9947   8.751   2.592   0.852  0.0000  0.0000  0.0000
 9948OM     OM1 9948   8.977   2.595   0.974  0.0000  0.0000  0.0000
 9949OM     OM1 9949   8.542   6.711   1.130  0.0000  0.0000  0.0000
 9950OM     OM1 9950   8.486   6.473   1.241  0.0000  0.0000  0.0000
 9951OM     OM1 9951   4.698   3.776   9.206  0.0000  0.0000  0.0000
 9952OM     OM1 9952   4.501   3.945   9.218  0.0000  0.0000  0.0000
 9953OM     OM1 9953   4.683   3.965   9.029  0.0000  0.0000  0.0000
 9954OM     OM1 9954   4.751   4.025   9.271  0.0000  0.0000  0.0000
 9955OM     OM1 9955   5.481   5.636   8.910  0.0000  0.0000  0.0000
 9956OM     OM1 9956   1.520   8.668   0.157  0.0000  0.0000  0.0000
 9957OM     OM1 9957   9.063   9.303   0.138  0.0000  0.0000  0.0000
 9958OM     OM1 9958   0.898   3.137   9.542  0.0000  0.0000  0.0000
 9959OM     OM1 9959   8.981   8.940   9.120  0.0000  0.0000  0.0000
 9960OM     OM1 9960   9.067   8.865   9.344  0.0000  0.0000  0.0000
 9961OM     OM1 9961   4.918   1.011   0.843  0.0000  0.0000  0.0000
 9962OM     OM1 9962   8.544   1.539   8.439  0.0000  0.0000  0.0000
 9963OM     OM1 9963   8.669   1.310   8.397  0.0000  0.0000  0.0000
 9964OM     OM1 9964   7.630   3.243   8.529  0.0000  0.0000  0.0000
 9965OM     OM1 9965   4.529   5.220   1.090  0.0000  0.0000  0.0000
 9966OM     OM1 9966   4.267   5.173   1.079  0.0000  0.0000  0.0000
 9967OM     OM1 9967   6.468   4.310   8.951  0.0000  0.0000  0.0000
 9968OM     OM1 9968   4.752   8.230   0.074  0.0000  0.0000  0.0000
 9969OM     OM1 9969   4.955   8.072   0.095  0.0000  0.0000  0.0000
 9970OM     OM1 9970   1.474   6.657   9.192  0.0000  0.0000  0.0000
 9971OM     OM1 9971   6.195   4.453   1.237  0.0000  0.0000  0.0000
 9972OM     OM1 9972   6.197   4.607   1.015  0.0000  0.0000  0.0000
 9973OM     OM1 9973   0.158   4.258   0.901  0.0000  0.0000  0.0000
 9974OM     OM1 9974   0.145   3.840   8.711  0.0000  0.0000  0.0000
 9975OM     OM1 9975   0.173   3.784   8.949  0.0000  0.0000  0.0000
 9976OM     OM1 9976   2.344   7.564   0.475  0.0000  0.0000  0.0000
 9977OM     OM1 9977   7.999   8.502   8.604  0.0000  0.0000  0.0000
 9978OM     OM1 9978   8.375   8.752   8.420  0.0000  0.0000  0.0000
 9979OM     OM1 9979   3.360   5.746   0.704  0.0000  0.0000  0.0000
 9980OM     OM1 9980   3.482   5.963   0.696  0.0000  0.0000  0.0000
 9981OM     OM1 9981   3.525   3.275   0.247  0.0000  0.0000  0.0000
 9982OM     OM1 9982   5.454   4.403   8.717  0.0000  0.0000  0.0000
 9983OM     OM1 9983   1.027   5.078   8.902  0.0000  0.0000  0.0000
 9984OM     OM1 9984   1.138   0.442   0.746  0.0000  0.0000  0.0000
 9985OM     OM1 9985   1.319   0.324   0.886  0.0000  0.0000  0.0000
 9986OM     OM1 9986   0.202   7.488   9.517  0.0000  0.0000  0.0000
 9987OM     OM1 9987   0.078   0.657   0.337  0.0000  0.0000  0.0000
 9988OM     OM1 9988   6.488   4.908   9.093  0.0000  0.0000  0.0000
 9989OM     OM1 9989   6.433   4.676   9.200  0.0000  0.0000  0.0000
 9990OM     OM1 9990   1.400   0.891   1.290  0.0000  0.0000  0.0000
 9991OM     OM1 9991   0.778   6.100   1.342  0.0000  0.0000  0.0000
 9992OM     OM1 9992   0.647   6.282   1.201  0.0000  0.0000  0.0000
 9993OM     OM1 9993   3.754   9.353   1.179  0.0000  0.0000  0.0000
 9994OM     OM1 9994   4.143   9.460   1.047  0.0000  0.0000  0.0000
 9995OM     OM1 9995   4.010   9.381   1.253  0.0000  0.0000  0.0000
 9996OM     OM1 9996   5.494   1.097   0.007  0.0000  0.0000  0.0000
 9997OM     OM1 9997   8.697   7.138   8.559  0.0000  0.0000  0.0000
 9998OM     OM1 9998   8.647   7.396   8.510  0.0000  0.0000  0.0000
 9999OM     OM1 9999   8.726   7.259   0.275  0.0000  0.0000  0.0000
10000OM     OM110000   8.778   7.432   0.456  0.0000  0.0000  0.0000
10001OM     OM110001   8.956   7.252   0.380  0.0000  0.0000  0.0000
10002OM     OM110002   1.153   4.299   8.681  0.0000  0.0000  0.0000
10003OM     OM110003   1.331   4.165   8.781  0.0000  0.0000  0.0000
10004OM     OM110004   1.380   4.301   8.559  0.0000  0.0000  0.0000
10005OM     OM110005   2.155   6.196   9.592  0.0000  0.0000  0.0000
10006OM     OM110006   1.960   6.284   0.118  0.0000  0.0000  0.0000
10007OM     OM110007   5.593   5.727   0.362  0.0000  0.0000  0.0000
10008OM     OM110008   6.542   6.008   1.066  0.0000  0.0000  0.0000
10009OM     OM110009   3.800   9.321   8.855  0.0000  0.0000  0.0000
10010OM     OM110010   2.052   1.952   0.258  0.0000  0.0000  0.0000
10011OM     OM110011   2.285   1.844   0.280  0.0000  0.0000  0.0000
10012OM     OM110012   8.075   4.448   8.235  0.0000  0.0000  0.0000
10013OM     OM110013   0.781   8.314   9.211  0.0000  0.0000  0.0000
10014OM     OM110014   0.721   8.083   9.109  0.0000  0.0000  0.0000
10015OM     OM110015   8.042   4.203   8.776  0.0000  0.0000  0.0000
10016OM     OM110016   6.863   0.566   0.463  0.0000  0.0000  0.0000
10017OM     OM110017   6.969   0.616   0.224  0.0000  0.0000  0.0000
10018OM     OM110018   1.947   4.669   0.496  0.0000  0.0000  0.0000
10019OM     OM110019   1.895   4.455   0.354  0.0000  0.0000  0.0000
10020OM     OM110020   2.036   4.649   0.245  0.0000  0.0000  0.0000
10021OM     OM110021   2.228   1.532   1.083  0.0000  0.0000  0.0000
10022OM     OM110022   8.343   8.751   8.882  0.0000  0.0000  0.0000
10023OM     OM110023   8.444   8.812   8.662  0.0000  0.0000  0.0000
10024OM     OM110024   8.102   8.809   8.906  0.0000  0.0000  0.0000
10025OM     OM110025   1.440   2.477   9.169  0.0000  0.0000  0.0000
10026OM     OM110026   1.469   0.305   0.180  0.0000  0.0000  0.0000
10027OM     OM110027   4.313   3.023   0.308  0.0000  0.0000  0.0000
10028OM     OM110028   4.374   3.271   0.363  0.0000  0.0000  0.0000
10029OM     OM110029   9.319   7.879   8.733  0.0000  0.0000  0.0000
10030OM     OM110030   6.948   2.629   1.342  0.0000  0.0000  0.0000
10031OM     OM110031   7.463   9.359   8.621  0.0000  0.0000  0.0000
10032OM     OM110032   7.517   0.108   8.554  0.0000  0.0000  0.0000
10033OM     OM110033   0.471   2.372   1.267  0.0000  0.0000  0.0000
10034OM     OM110034   6.444   4.055   1.343  0.0000  0.0000  0.0000
10035OM     OM110035   6.607   4.244   1.266  0.0000  0.0000  0.0000
10036OM     OM110036   6.368   4.298   1.357  0.0000  0.0000  0.0000
10037OM     OM110037   0.790   6.113   8.768  0.0000  0.0000  0.0000
10038OM     OM110038   0.771   6.364   8.697  0.0000  0.0000  0.0000
10039OM     OM110039   6.750   5.322   0.127  0.0000  0.0000  0.0000
10040OM     OM110040   0.715   6.299   9.096  0.0000  0.0000  0.0000
10041OM     OM110041   0.913   7.759   9.482  0.0000  0.0000  0.0000
10042OM     OM110042   6.107   0.829   8.543  0.0000  0.0000  0.0000
10043OM     OM110043   6.084   1.068   8.438  0.0000  0.0000  0.0000
10044OM     OM110044   2.294   0.705   8.915  0.0000  0.0000  0.0000
10045OM     OM110045   2.429   0.908   9.016  0.0000  0.0000  0.0000
10046OM     OM110046   4.038   4.764   8.470  0.0000  0.0000  0.0000
10047OM     OM110047   3.878   4.938   8.372  0.0000  0.0000  0.0000
10048OM     OM110048   1.503   9.137   1.290  0.0000  0.0000  0.0000
10049OM     OM110049   1.912   1.842   8.432  0.0000  0.0000  0.0000
10050OM     OM110050   2.086   1.947   8.602  0.0000  0.0000  0.0000
10051OM     OM110051   2.973   3.052   0.712  0.0000  0.0000  0.0000
10052OM     OM110052   8.234   1.821   0.458  0.0000  0.0000  0.0000
10053OM     OM110053   7.443   0.445   8.203  0.0000  0.0000  0.0000
10054OM     OM110054   2.154   2.665   0.490  0.0000  0.0000  0.0000
10055OM     OM110055   6.673   8.858   8.593  0.0000  0.0000  0.0000
10056OM     OM110056   7.451   8.024   0.644  0.0000  0.0000  0.0000
10057OM     OM110057   0.240   8.022   0.642  0.0000  0.0000  0.0000
10058OM     OM110058   0.274   8.049   0.387  0.0000  0.0000  0.0000
10059OM     OM110059   8.652   4.008   0.347  0.0000  0.0000  0.0000
10060OM     OM110060   8.663   3.746   0.405  0.0000  0.0000  0.0000
10061OM     OM110061   8.837   3.867   0.244  0.0000  0.0000  0.0000
10062OM     OM110062   3.088   1.288   0.591  0.0000  0.0000  0.0000
10063OM     OM110063   0.070   8.071   8.470  0.0000  0.0000  0.0000
10064OM     OM110064   0.188   8.318   8.664  0.0000  0.0000  0.0000
10065OM     OM110065   5.057   7.562   0.395  0.0000  0.0000  0.0000
10066OM     OM110066   4.889   7.675   0.546  0.0000  0.0000  0.0000
10067OM     OM110067   2.383   3.449   8.561  0.0000  0.0000  0.0000
10068OM     OM110068   2.950   3.311   8.472  0.0000  0.0000  0.0000
10069OM     OM110069   2.923   3.566   8.371  0.0000  0.0000  0.0000
10070OM     OM110070   1.437   8.530   9.563  0.0000  0.0000  0.0000
10071OM     OM110071   1.281   4.642   9.037  0.0000  0.0000  0.0000
10072OM     OM110072   6.791   0.950   0.950  0.0000  0.0000  0.0000
10073OM     OM110073   6.530   0.974   0.939  0.0000  0.0000  0.0000
10074OM     OM110074   5.260   0.675   8.795  0.0000  0.0000  0.0000
10075OM     OM110075   5.153   0.804   8.349  0.0000  0.0000  0.0000
10076OM     OM110076   8.146   2.731   1.118  0.0000  0.0000  0.0000
10077OM     OM110077   4.963   5.150   0.643  0.0000  0.0000  0.0000
10078OM     OM110078   5.184   5.068   0.522  0.0000  0.0000  0.0000
10079OM     OM110079   5.177   5.310   0.591  0.0000  0.0000  0.0000
10080OM     OM110080   1.214   7.307   8.341  0.0000  0.0000  0.0000
10081OM     OM110081   1.393   7.564   8.482  0.0000  0.0000  0.0000
10082OM     OM110082   2.170   0.127   1.113  0.0000  0.0000  0.0000
10083OM     OM110083   5.156   6.973   8.297  0.0000  0.0000  0.0000
10084OM     OM110084   4.923   7.343   8.541  0.0000  0.0000  0.0000
10085OM     OM110085   0.955   1.361   8.319  0.0000  0.0000  0.0000
10086OM     OM110086   1.027   1.124   8.239  0.0000  0.0000  0.0000
10087OM     OM110087   8.563   4.900   1.198  0.0000  0.0000  0.0000
10088OM     OM110088   5.031   1.164   9.187  0.0000  0.0000  0.0000
10089OM     OM110089   3.473   5.053   0.677  0.0000  0.0000  0.0000
10090OM     OM110090   6.154   6.428   0.375  0.0000  0.0000  0.0000
10091OM     OM110091   7.807   5.074   9.190  0.0000  0.0000  0.0000
10092OM     OM110092   7.764   4.966   9.434  0.0000  0.0000  0.0000
10093OM     OM110093   6.088   3.824   8.922  0.0000  0.0000  0.0000
10094OM     OM110094   5.827   3.826   9.002  0.0000  0.0000  0.0000
10095OM     OM110095   1.949   0.699   9.212  0.0000  0.0000  0.0000
10096OM     OM110096   1.775   0.893   9.194  0.0000  0.0000  0.0000
10097OM     OM110097   5.386   7.119   8.739  0.0000  0.0000  0.0000
10098OM     OM110098   3.602   7.630   0.424  0.0000  0.0000  0.0000
10099OM     OM110099   3.733   7.394   0.467  0.0000  0.0000  0.0000
10100OM     OM110100   3.483   7.399   0.441  0.0000  0.0000  0.0000
10101OM     OM110101   5.392   4.679   0.326  0.0000  0.0000  0.0000
10102OM     OM110102   1.638   1.912   9.437  0.0000  0.0000  0.0000
10103OM     OM110103   1.573   1.674   9.471  0.0000  0.0000  0.0000
10104OM     OM110104   3.918   2.525   1.237  0.0000  0.0000  0.0000
10105OM     OM110105   1.034   5.338   8.454  0.0000  0.0000  0.0000
10106OM     OM110106   3.389   5.238   8.986  0.0000  0.0000  0.0000
10107OM     OM110107   3.619   8.131   9.445  0.0000  0.0000  0.0000
10108OM     OM110108   2.136   5.030   0.634  0.0000  0.0000  0.0000
10109OM     OM110109   1.987   4.835   0.701  0.0000  0.0000  0.0000
10110OM     OM110110   2.993   8.682   8.896  0.0000  0.0000  0.0000
10111OM     OM110111   2.989   8.739   8.649  0.0000  0.0000  0.0000
10112OM     OM110112   1.437   2.134   8.865  0.0000  0.0000  0.0000
10113OM     OM110113   1.428   2.196   8.617  0.0000  0.0000  0.0000
10114OM     OM110114   3.833   3.431   8.580  0.0000  0.0000  0.0000
10115OM     OM110115   8.768   7.678   0.363  0.0000  0.0000  0.0000
10116OM     OM110116   8.653   7.629   0.590  0.0000  0.0000  0.0000
10117OM     OM110117   1.547   1.129   0.663  0.0000  0.0000  0.0000
10118OM     OM110118   1.370   0.964   0.568  0.0000  0.0000  0.0000
10119OM     OM110119   5.337   2.269   1.088  0.0000  0.0000  0.0000
10120OM     OM110120   3.420   3.158   0.461  0.0000  0.0000  0.0000
10121OM     OM110121   8.380   3.259   1.242  0.0000  0.0000  0.0000
10122OM     OM110122   2.320   7.307   9.012  0.0000  0.0000  0.0000
10123OM     OM110123   7.540   1.845   9.239  0.0000  0.0000  0.0000
10124OM     OM110124   3.194   4.682   8.279  0.0000  0.0000  0.0000
10125OM     OM110125   2.095   2.204   0.308  0.0000  0.0000  0.0000
10126OM     OM110126   2.090   2.037   0.506  0.0000  0.0000  0.0000
10127OM     OM110127   7.658   2.611   0.248  0.0000  0.0000  0.0000
10128OM     OM110128   0.661   3.530   0.528  0.0000  0.0000  0.0000
10129OM     OM110129   8.680   7.841   0.738  0.0000  0.0000  0.0000
10130OM     OM110130   8.820   7.966   0.931  0.0000  0.0000  0.0000
10131OM     OM110131   7.192   4.459   8.931  0.0000  0.0000  0.0000
10132OM     OM110132   2.575   8.381   0.038  0.0000  0.0000  0.0000
10133OM     OM110133   2.781   8.287   9.536  0.0000  0.0000  0.0000
10134OM     OM110134   2.539   8.161   9.518  0.0000  0.0000  0.0000
10135OM     OM110135   2.667   8.134   0.120  0.0000  0.0000  0.0000
10136OM     OM110136   2.529   0.789   9.558  0.0000  0.0000  0.0000
10137OM     OM110137   2.956   8.715   9.154  0.0000  0.0000  0.0000
10138OM     OM110138   1.247   0.988   0.336  0.0000  0.0000  0.0000
10139OM     OM110139   7.929   2.828   0.993  0.0000  0.0000  0.0000
10140OM     OM110140   9.508   1.675   8.292  0.0000  0.0000  0.0000
10141OM     OM110141   8.509   7.584   8.363  0.0000  0.0000  0.0000
10142OM     OM110142   8.152   7.482   0.150  0.0000  0.0000  0.0000
10143OM     OM110143   5.858   6.492   8.398  0.0000  0.0000  0.0000
10144OM     OM110144   8.713   6.503   8.464  0.0000  0.0000  0.0000
10145OM     OM110145   0.807   1.306   1.088  0.0000  0.0000  0.0000
10146OM     OM110146   0.775   1.060   1.202  0.0000  0.0000  0.0000
10147OM     OM110147   0.671   1.117   0.973  0.0000  0.0000  0.0000
10148OM     OM110148   7.272   6.542   1.313  0.0000  0.0000  0.0000
10149OM     OM110149   7.154   6.338   1.196  0.0000  0.0000  0.0000
10150OM     OM110150   8.975   9.548   0.166  0.0000  0.0000  0.0000
10151OM     OM110151   8.833   9.352   0.041  0.0000  0.0000  0.0000
10152OM     OM110152   8.842   4.821   0.273  0.0000  0.0000  0.0000
10153OM     OM110153   3.949   1.253   1.010  0.0000  0.0000  0.0000
10154OM     OM110154   4.154   1.394   1.011  0.0000  0.0000  0.0000
10155OM     OM110155   8.593   1.215   9.343  0.0000  0.0000  0.0000
10156OM     OM110156   8.265   1.288   9.156  0.0000  0.0000  0.0000
10157OM     OM110157   2.639   1.118   0.663  0.0000  0.0000  0.0000
10158OM     OM110158   3.305   3.775   1.219  0.0000  0.0000  0.0000
10159OM     OM110159   1.116   0.984   8.441  0.0000  0.0000  0.0000
10160OM     OM110160   0.897   5.556   0.112  0.0000  0.0000  0.0000
10161OM     OM110161   0.891   0.483   0.699  0.0000  0.0000  0.0000
10162OM     OM110162   0.662   0.509   0.820  0.0000  0.0000  0.0000
10163OM     OM110163   6.365   0.279   9.269  0.0000  0.0000  0.0000
10164OM     OM110164   6.374   0.496   9.143  0.0000  0.0000  0.0000
10165OM     OM110165   7.838   4.346   8.260  0.0000  0.0000  0.0000
10166OM     OM110166   4.792   3.101   0.991  0.0000  0.0000  0.0000
10167OM     OM110167   1.067   2.293   9.400  0.0000  0.0000  0.0000
10168OM     OM110168   0.169   1.924   9.279  0.0000  0.0000  0.0000
10169OM     OM110169   0.147   2.097   9.074  0.0000  0.0000  0.0000
10170OM     OM110170   1.430   3.660   0.851  0.0000  0.0000  0.0000
10171OM     OM110171   3.221   3.042   0.596  0.0000  0.0000  0.0000
10172OM     OM110172   2.775   9.420   0.661  0.0000  0.0000  0.0000
10173OM     OM110173   3.017   9.296   0.616  0.0000  0.0000  0.0000
10174OM     OM110174   6.012   0.257   8.923  0.0000  0.0000  0.0000
10175OM     OM110175   5.080   3.189   9.285  0.0000  0.0000  0.0000
10176OM     OM110176   5.132   2.974   9.140  0.0000  0.0000  0.0000
10177OM     OM110177   1.459   4.811   8.960  0.0000  0.0000  0.0000
10178OM     OM110178   4.903   3.620   9.161  0.0000  0.0000  0.0000
10179OM     OM110179   5.051   3.445   9.265  0.0000  0.0000  0.0000
10180OM     OM110180   5.160   3.665   9.171  0.0000  0.0000  0.0000
10181OM     OM110181   8.539   7.848   0.517  0.0000  0.0000  0.0000
10182OM     OM110182   8.451   7.724   0.734  0.0000  0.0000  0.0000
10183OM     OM110183   0.177   1.975   9.543  0.0000  0.0000  0.0000
10184OM     OM110184   0.392   2.099   0.043  0.0000  0.0000  0.0000
10185OM     OM110185   7.335   5.206   1.234  0.0000  0.0000  0.0000
10186OM     OM110186   7.589   1.939   8.997  0.0000  0.0000  0.0000
10187OM     OM110187   6.523   3.266   8.741  0.0000  0.0000  0.0000
10188OM     OM110188   6.717   3.162   8.883  0.0000  0.0000  0.0000
10189OM     OM110189   6.662   9.082   8.746  0.0000  0.0000  0.0000
10190OM     OM110190   1.769   5.650   8.641  0.0000  0.0000  0.0000
10191OM     OM110191   1.931   5.555   8.819  0.0000  0.0000  0.0000
10192OM     OM110192   4.563   9.572   9.144  0.0000  0.0000  0.0000
10193OM     OM110193   4.404   0.028   8.960  0.0000  0.0000  0.0000
10194OM     OM110194   4.627   8.671   1.077  0.0000  0.0000  0.0000
10195OM     OM110195   4.793   8.537   1.281  0.0000  0.0000  0.0000
10196OM     OM110196   0.047   2.375   8.659  0.0000  0.0000  0.0000
10197OM     OM110197   0.193   2.247   8.486  0.0000  0.0000  0.0000
10198OM     OM110198   2.124   6.143   0.719  0.0000  0.0000  0.0000
10199OM     OM110199   5.543   7.112   1.247  0.0000  0.0000  0.0000
10200OM     OM110200   2.909   1.985   8.894  0.0000  0.0000  0.0000
10201OM     OM110201   4.294   1.067   9.300  0.0000  0.0000  0.0000
10202OM     OM110202   4.272   1.171   9.060  0.0000  0.0000  0.0000
10203OM     OM110203   6.292   5.733   9.546  0.0000  0.0000  0.0000
10204OM     OM110204   7.331   1.991   0.216  0.0000  0.0000  0.0000
10205OM     OM110205   3.700   5.893   0.564  0.0000  0.0000  0.0000
10206OM     OM110206   9.296   0.342   0.240  0.0000  0.0000  0.0000
10207OM     OM110207   9.139   0.124   0.259  0.0000  0.0000  0.0000
10208OM     OM110208   9.354   0.147   0.083  0.0000  0.0000  0.0000
10209OM     OM110209   1.005   8.750   9.461  0.0000  0.0000  0.0000
10210OM     OM110210   1.264   8.691   9.459  0.0000  0.0000  0.0000
10211OM     OM110211   9.201   1.452   8.790  0.0000  0.0000  0.0000
10212OM     OM110212   9.429   1.339   8.878  0.0000  0.0000  0.0000
10213OM     OM110213   1.102   7.527   8.258  0.0000  0.0000  0.0000
10214OM     OM110214   0.520   2.356   8.973  0.0000  0.0000  0.0000
10215OM     OM110215   0.645   2.577   8.876  0.0000  0.0000  0.0000
10216OM     OM110216   0.817   6.519   0.732  0.0000  0.0000  0.0000
10217OM     OM110217   0.496   7.917   0.345  0.0000  0.0000  0.0000
10218OM     OM110218   2.794   4.805   0.237  0.0000  0.0000  0.0000
10219OM     OM110219   2.725   5.044   0.165  0.0000  0.0000  0.0000
10220OM     OM110220   4.019   5.630   1.023  0.0000  0.0000  0.0000
10221OM     OM110221   4.124   5.842   1.138  0.0000  0.0000  0.0000
10222OM     OM110222   3.966   5.687   1.278  0.0000  0.0000  0.0000
10223OM     OM110223   0.222   2.029   0.952  0.0000  0.0000  0.0000
10224OM     OM110224   9.565   4.558   0.028  0.0000  0.0000  0.0000
10225OM     OM110225   3.557   7.815   8.928  0.0000  0.0000  0.0000
10226OM     OM110226   3.532   7.568   8.858  0.0000  0.0000  0.0000
10227OM     OM110227   3.343   7.738   8.796  0.0000  0.0000  0.0000
10228OM     OM110228   2.358   3.537   9.001  0.0000  0.0000  0.0000
10229OM     OM110229   0.441   2.307   8.490  0.0000  0.0000  0.0000
10230OM     OM110230   9.518   4.364   8.451  0.0000  0.0000  0.0000
10231OM     OM110231   1.353   8.439   8.680  0.0000  0.0000  0.0000
10232OM     OM110232   2.372   4.080   9.023  0.0000  0.0000  0.0000
10233OM     OM110233   2.571   3.977   9.153  0.0000  0.0000  0.0000
10234OM     OM110234   1.871   8.897   0.025  0.0000  0.0000  0.0000
10235OM     OM110235   1.658   9.039   0.063  0.0000  0.0000  0.0000
10236OM     OM110236   6.265   6.955   0.559  0.0000  0.0000  0.0000
10237OM     OM110237   6.219   7.204   0.503  0.0000  0.0000  0.0000
10238OM     OM110238   0.478   4.820   8.360  0.0000  0.0000  0.0000
10239OM     OM110239   0.402   5.056   8.403  0.0000  0.0000  0.0000
10240OM     OM110240   9.354   7.102   9.025  0.0000  0.0000  0.0000
10241OM     OM110241   9.297   7.251   8.817  0.0000  0.0000  0.0000
10242OM     OM110242   7.819   3.923   9.577  0.0000  0.0000  0.0000
10243OM     OM110243   7.794   4.098   9.381  0.0000  0.0000  0.0000
10244OM     OM110244   8.584   3.004   0.438  0.0000  0.0000  0.0000
10245OM     OM110245   4.142   2.686   9.318  0.0000  0.0000  0.0000
10246OM     OM110246   7.837   7.873   9.347  0.0000  0.0000  0.0000
10247OM     OM110247   3.196   6.378   9.007  0.0000  0.0000  0.0000
10248OM     OM110248   4.710   6.310   9.220  0.0000  0.0000  0.0000
10249OM     OM110249   4.882   6.104   9.157  0.0000  0.0000  0.0000
10250OM     OM110250   3.963   0.850   0.690  0.0000  0.0000  0.0000
10251OM     OM110251   7.406   4.133   9.540  0.0000  0.0000  0.0000
10252OM     OM110252   7.546   4.156   9.319  0.0000  0.0000  0.0000
10253OM     OM110253   1.520   4.027   9.000  0.0000  0.0000  0.0000
10254OM     OM110254   1.642   4.200   9.145  0.0000  0.0000  0.0000
10255OM     OM110255   1.252   1.962   8.952  0.0000  0.0000  0.0000
10256OM     OM110256   5.974   2.922   0.623  0.0000  0.0000  0.0000
10257OM     OM110257   6.128   2.958   0.413  0.0000  0.0000  0.0000
10258OM     OM110258   8.751   0.760   8.607  0.0000  0.0000  0.0000
10259OM     OM110259   8.353   0.604   8.591  0.0000  0.0000  0.0000
10260OM     OM110260   4.819   8.214   9.289  0.0000  0.0000  0.0000
10261OM     OM110261   4.639   8.406   9.354  0.0000  0.0000  0.0000
10262OM     OM110262   9.540   0.629   0.845  0.0000  0.0000  0.0000
10263OM     OM110263   8.289   2.383   0.457  0.0000  0.0000  0.0000
10264OM     OM110264   8.045   2.481   0.510  0.0000  0.0000  0.0000
10265OM     OM110265   4.243   7.766   8.649  0.0000  0.0000  0.0000
10266OM     OM110266   1.937   3.519   0.332  0.0000  0.0000  0.0000
10267OM     OM110267   1.976   3.762   0.423  0.0000  0.0000  0.0000
10268OM     OM110268   6.262   4.380   8.812  0.0000  0.0000  0.0000
10269OM     OM110269   6.329   4.513   9.026  0.0000  0.0000  0.0000
10270OM     OM110270   4.138   2.634   1.269  0.0000  0.0000  0.0000
10271OM     OM110271   4.102   2.652   1.011  0.0000  0.0000  0.0000
10272OM     OM110272   8.086   9.070   8.861  0.0000  0.0000  0.0000
10273OM     OM110273   7.737   9.182   8.969  0.0000  0.0000  0.0000
10274OM     OM110274   8.023   5.286   1.221  0.0000  0.0000  0.0000
10275OM     OM110275   8.276   5.295   0.842  0.0000  0.0000  0.0000
10276OM     OM110276   2.120   2.773   8.393  0.0000  0.0000  0.0000
10277OM     OM110277   2.332   2.541   0.627  0.0000  0.0000  0.0000
10278OM     OM110278   2.212   2.412   0.423  0.0000  0.0000  0.0000
10279OM     OM110279   3.209   8.341   9.530  0.0000  0.0000  0.0000
10280OM     OM110280   3.132   8.578   9.584  0.0000  0.0000  0.0000
10281OM     OM110281   4.416   8.790   9.158  0.0000  0.0000  0.0000
10282OM     OM110282   9.457   5.627   8.628  0.0000  0.0000  0.0000
10283OM     OM110283   9.545   5.567   8.863  0.0000  0.0000  0.0000
10284OM     OM110284   2.440   6.768   0.917  0.0000  0.0000  0.0000
10285OM     OM110285   1.405   3.401   0.845  0.0000  0.0000  0.0000
10286OM     OM110286   0.800   3.442   8.366  0.0000  0.0000  0.0000
10287OM     OM110287   0.578   6.074   9.125  0.0000  0.0000  0.0000
10288OM     OM110288   4.336   3.587   8.988  0.0000  0.0000  0.0000
10289OM     OM110289   5.789   2.640   9.124  0.0000  0.0000  0.0000
10290OM     OM110290   5.751   2.982   8.747  0.0000  0.0000  0.0000
10291OM     OM110291   1.464   8.733   8.556  0.0000  0.0000  0.0000
10292OM     OM110292   9.533   5.987   0.543  0.0000  0.0000  0.0000
10293OM     OM110293   8.941   4.725   9.258  0.0000  0.0000  0.0000
10294OM     OM110294   8.740   4.859   9.161  0.0000  0.0000  0.0000
10295OM     OM110295   1.492   4.661   0.108  0.0000  0.0000  0.0000
10296OM     OM110296   1.683   8.943   1.302  0.0000  0.0000  0.0000
10297OM     OM110297   3.082   8.918   9.281  0.0000  0.0000  0.0000
10298OM     OM110298   2.994   8.717   9.416  0.0000  0.0000  0.0000
10299OM     OM110299   8.042   4.610   8.948  0.0000  0.0000  0.0000
10300OM     OM110300   2.503   4.779   9.446  0.0000  0.0000  0.0000
10301OM     OM110301   2.635   4.871   9.239  0.0000  0.0000  0.0000
10302OM     OM110302   2.717   4.762   9.601  0.0000  0.0000  0.0000
10303OM     OM110303   0.878   1.293   8.561  0.0000  0.0000  0.0000
10304OM     OM110304   1.553   2.886   9.373  0.0000  0.0000  0.0000
10305OM     OM110305   0.746   0.480   9.476  0.0000  0.0000  0.0000
10306OM     OM110306   5.414   2.130   1.288  0.0000  0.0000  0.0000
10307OM     OM110307   5.201   1.998   1.335  0.0000  0.0000  0.0000
10308OM     OM110308   2.045   5.582   0.733  0.0000  0.0000  0.0000
10309OM     OM110309   2.878   8.529   9.542  0.0000  0.0000  0.0000
10310OM     OM110310   2.990   8.360   9.390  0.0000  0.0000  0.0000
10311OM     OM110311   0.644   7.108   0.943  0.0000  0.0000  0.0000
10312OM     OM110312   0.638   7.020   1.204  0.0000  0.0000  0.0000
10313OM     OM110313   7.665   7.080   0.036  0.0000  0.0000  0.0000
10314OM     OM110314   9.419   2.031   1.264  0.0000  0.0000  0.0000
10315OM     OM110315   5.758   6.774   0.866  0.0000  0.0000  0.0000
10316OM     OM110316   5.890   6.578   0.928  0.0000  0.0000  0.0000
10317OM     OM110317   7.018   5.607   1.087  0.0000  0.0000  0.0000
10318OM     OM110318   4.386   8.669   0.555  0.0000  0.0000  0.0000
10319OM     OM110319   4.255   8.595   0.760  0.0000  0.0000  0.0000
10320OM     OM110320   4.195   8.495   0.530  0.0000  0.0000  0.0000
10321OM     OM110321   4.805   3.588   0.548  0.0000  0.0000  0.0000
10322OM     OM110322   4.839   3.337   0.629  0.0000  0.0000  0.0000
10323OM     OM110323   4.663   8.837   9.157  0.0000  0.0000  0.0000
10324OM     OM110324   1.409   8.321   0.514  0.0000  0.0000  0.0000
10325OM     OM110325   1.364   3.861   9.138  0.0000  0.0000  0.0000
10326OM     OM110326   1.302   3.942   8.905  0.0000  0.0000  0.0000
10327OM     OM110327   0.063   5.606   9.084  0.0000  0.0000  0.0000
10328OM     OM110328   4.531   2.674   9.006  0.0000  0.0000  0.0000
10329OM     OM110329   2.585   4.172   8.146  0.0000  0.0000  0.0000
10330OM     OM110330   4.106   3.643   1.278  0.0000  0.0000  0.0000
10331OM     OM110331   3.747   4.061   9.537  0.0000  0.0000  0.0000
10332OM     OM110332   3.970   4.129   0.049  0.0000  0.0000  0.0000
10333OM     OM110333   2.278   2.514   8.938  0.0000  0.0000  0.0000
10334OM     OM110334   8.813   6.521   0.537  0.0000  0.0000  0.0000
10335OM     OM110335   9.019   6.422   0.411  0.0000  0.0000  0.0000
10336OM     OM110336   0.682   8.363   0.557  0.0000  0.0000  0.0000
10337OM     OM110337   0.651   8.655   1.032  0.0000  0.0000  0.0000
10338OM     OM110338   0.451   8.795   0.952  0.0000  0.0000  0.0000
10339OM     OM110339   8.931   8.926   0.371  0.0000  0.0000  0.0000
10340OM     OM110340   8.697   8.943   0.495  0.0000  0.0000  0.0000
10341OM     OM110341   2.116   7.391   8.875  0.0000  0.0000  0.0000
10342OM     OM110342   0.450   0.660   0.849  0.0000  0.0000  0.0000
10343OM     OM110343   0.439   0.435   0.717  0.0000  0.0000  0.0000
10344OM     OM110344   8.847   8.210   8.919  0.0000  0.0000  0.0000
10345OM     OM110345   9.032   8.186   9.099  0.0000  0.0000  0.0000
10346OM     OM110346   7.974   0.652   0.742  0.0000  0.0000  0.0000
10347OM     OM110347   4.097   7.621   8.815  0.0000  0.0000  0.0000
10348OM     OM110348   2.088   7.570   0.496  0.0000  0.0000  0.0000
10349OM     OM110349   7.941   8.354   8.821  0.0000  0.0000  0.0000
10350OM     OM110350   6.028   4.503   0.849  0.0000  0.0000  0.0000
10351OM     OM110351   4.535   8.311   9.558  0.0000  0.0000  0.0000
10352OM     OM110352   4.525   8.224   0.189  0.0000  0.0000  0.0000
10353OM     OM110353   4.578   8.051   9.601  0.0000  0.0000  0.0000
10354OM     OM110354   1.730   7.238   0.038  0.0000  0.0000  0.0000
10355OM     OM110355   1.502   4.782   1.250  0.0000  0.0000  0.0000
10356OM     OM110356   2.950   8.598   8.410  0.0000  0.0000  0.0000
10357OM     OM110357   0.887   0.924   8.336  0.0000  0.0000  0.0000
10358OM     OM110358   5.067   1.490   8.688  0.0000  0.0000  0.0000
10359OM     OM110359   4.858   1.459   8.533  0.0000  0.0000  0.0000
10360OM     OM110360   3.437   0.426   8.762  0.0000  0.0000  0.0000
10361OM     OM110361   3.397   0.634   8.931  0.0000  0.0000  0.0000
10362OM     OM110362   3.487   0.389   9.007  0.0000  0.0000  0.0000
10363OM     OM110363   5.521   6.722   0.656  0.0000  0.0000  0.0000
10364OM     OM110364   5.304   6.632   0.760  0.0000  0.0000  0.0000
10365OM     OM110365   5.388   6.867   0.827  0.0000  0.0000  0.0000
10366OM     OM110366   3.211   5.315   0.649  0.0000  0.0000  0.0000
10367OM     OM110367   3.046   5.474   0.775  0.0000  0.0000  0.0000
10368OM     OM110368   4.311   3.035   8.826  0.0000  0.0000  0.0000
10369OM     OM110369   4.130   3.054   8.647  0.0000  0.0000  0.0000
10370OM     OM110370   5.345   6.910   8.552  0.0000  0.0000  0.0000
10371OM     OM110371   5.506   7.110   8.505  0.0000  0.0000  0.0000
10372OM     OM110372   0.962   2.364   0.358  0.0000  0.0000  0.0000
10373OM     OM110373   0.824   2.530   0.510  0.0000  0.0000  0.0000
10374OM     OM110374   0.722   2.441   0.287  0.0000  0.0000  0.0000
10375OM     OM110375   0.927   2.610   0.283  0.0000  0.0000  0.0000
10376OM     OM110376   0.020   2.947   8.563  0.0000  0.0000  0.0000
10377OM     OM110377   5.299   7.810   0.324  0.0000  0.0000  0.0000
10378OM     OM110378   0.647   7.596   9.056  0.0000  0.0000  0.0000
10379OM     OM110379   0.800   7.633   9.268  0.0000  0.0000  0.0000
10380OM     OM110380   0.550   7.682   9.293  0.0000  0.0000  0.0000
10381OM     OM110381   6.378   0.734   9.057  0.0000  0.0000  0.0000
10382OM     OM110382   6.590   0.589   9.030  0.0000  0.0000  0.0000
10383OM     OM110383   6.661   5.948   0.239  0.0000  0.0000  0.0000
10384OM     OM110384   4.315   1.214   9.511  0.0000  0.0000  0.0000
10385OM     OM110385   2.738   4.229   8.338  0.0000  0.0000  0.0000
10386OM     OM110386   2.801   4.098   8.558  0.0000  0.0000  0.0000
10387OM     OM110387   5.503   7.243   0.552  0.0000  0.0000  0.0000
10388OM     OM110388   5.536   7.049   0.726  0.0000  0.0000  0.0000
10389OM     OM110389   2.949   2.860   0.016  0.0000  0.0000  0.0000
10390OM     OM110390   3.072   2.777   0.219  0.0000  0.0000  0.0000
10391OM     OM110391   5.347   3.656   9.355  0.0000  0.0000  0.0000
10392OM     OM110392   1.688   5.591   9.234  0.0000  0.0000  0.0000
10393OM     OM110393   1.869   5.572   9.063  0.0000  0.0000  0.0000
10394OM     OM110394   1.627   5.481   9.007  0.0000  0.0000  0.0000
10395OM     OM110395   6.411   5.861   9.345  0.0000  0.0000  0.0000
10396OM     OM110396   4.113   2.853   0.334  0.0000  0.0000  0.0000
10397OM     OM110397   4.793   9.297   8.126  0.0000  0.0000  0.0000
10398OM     OM110398   2.762   6.180   9.173  0.0000  0.0000  0.0000
10399OM     OM110399   1.565   6.175   0.454  0.0000  0.0000  0.0000
10400OM     OM110400   4.636   6.280   8.632  0.0000  0.0000  0.0000
10401OM     OM110401   6.437   2.538   0.154  0.0000  0.0000  0.0000
10402OM     OM110402   0.505   2.296   8.735  0.0000  0.0000  0.0000
10403OM     OM110403   6.109   5.995   8.953  0.0000  0.0000  0.0000
10404OM     OM110404   5.930   5.810   8.927  0.0000  0.0000  0.0000
10405OM     OM110405   0.356   7.332   0.761  0.0000  0.0000  0.0000
10406OM     OM110406   0.517   7.396   0.560  0.0000  0.0000  0.0000
10407OM     OM110407   7.285   7.254   0.934  0.0000  0.0000  0.0000
10408OM     OM110408   7.900   4.327   8.598  0.0000  0.0000  0.0000
10409OM     OM110409   5.431   6.248   8.428  0.0000  0.0000  0.0000
10410OM     OM110410   3.985   1.085   0.809  0.0000  0.0000  0.0000
10411OM     OM110411   4.084   0.572   8.545  0.0000  0.0000  0.0000
10412OM     OM110412   3.523   4.066   0.662  0.0000  0.0000  0.0000
10413OM     OM110413   3.208   3.554   1.283  0.0000  0.0000  0.0000
10414OM     OM110414   3.152   3.315   1.297  0.0000  0.0000  0.0000
10415OM     OM110415   3.870   1.020   1.036  0.0000  0.0000  0.0000
10416OM     OM110416   1.558   6.348   8.630  0.0000  0.0000  0.0000
10417OM     OM110417   1.364   6.530   8.628  0.0000  0.0000  0.0000
10418OM     OM110418   3.981   2.547   0.794  0.0000  0.0000  0.0000
10419OM     OM110419   7.874   4.584   8.553  0.0000  0.0000  0.0000
10420OM     OM110420   7.872   4.483   8.803  0.0000  0.0000  0.0000
10421OM     OM110421   3.262   4.437   9.202  0.0000  0.0000  0.0000
10422OM     OM110422   4.868   6.429   0.835  0.0000  0.0000  0.0000
10423OM     OM110423   0.668   6.981   0.736  0.0000  0.0000  0.0000
10424OM     OM110424   2.239   9.074   8.518  0.0000  0.0000  0.0000
10425OM     OM110425   4.985   3.693   8.409  0.0000  0.0000  0.0000
10426OM     OM110426   2.876   5.766   0.284  0.0000  0.0000  0.0000
10427OM     OM110427   1.200   8.664   8.493  0.0000  0.0000  0.0000
10428OM     OM110428   3.471   1.134   0.161  0.0000  0.0000  0.0000
10429OM     OM110429   3.452   1.026   9.526  0.0000  0.0000  0.0000
10430OM     OM110430   9.258   8.325   9.116  0.0000  0.0000  0.0000
10431OM     OM110431   9.263   8.076   9.033  0.0000  0.0000  0.0000
10432OM     OM110432   3.090   6.615   1.009  0.0000  0.0000  0.0000
10433OM     OM110433   8.230   0.740   8.276  0.0000  0.0000  0.0000
10434OM     OM110434   5.361   3.875   0.198  0.0000  0.0000  0.0000
10435OM     OM110435   6.326   3.279   8.565  0.0000  0.0000  0.0000
10436OM     OM110436   6.185   3.481   8.535  0.0000  0.0000  0.0000
10437OM     OM110437   8.504   5.913   1.302  0.0000  0.0000  0.0000
10438OM     OM110438   8.409   5.875   1.059  0.0000  0.0000  0.0000
10439OM     OM110439   8.268   6.005   1.237  0.0000  0.0000  0.0000
10440OM     OM110440   8.319   5.739   1.264  0.0000  0.0000  0.0000
10441OM     OM110441   5.913   7.978   8.369  0.0000  0.0000  0.0000
10442OM     OM110442   5.716   8.153   8.444  0.0000  0.0000  0.0000
10443OM     OM110443   3.927   6.467   0.858  0.0000  0.0000  0.0000
10444OM     OM110444   2.327   2.715   9.094  0.0000  0.0000  0.0000
10445OM     OM110445   2.501   2.876   9.195  0.0000  0.0000  0.0000
10446OM     OM110446   7.670   9.398   0.855  0.0000  0.0000  0.0000
10447OM     OM110447   2.202   1.571   9.316  0.0000  0.0000  0.0000
10448OM     OM110448   1.038   2.751   8.610  0.0000  0.0000  0.0000
10449OM     OM110449   3.483   0.020   0.885  0.0000  0.0000  0.0000
10450OM     OM110450   3.544   9.415   1.037  0.0000  0.0000  0.0000
10451OM     OM110451   6.851   4.715   0.490  0.0000  0.0000  0.0000
10452OM     OM110452   7.089   4.806   0.586  0.0000  0.0000  0.0000
10453OM     OM110453   7.004   4.554   0.607  0.0000  0.0000  0.0000
10454OM     OM110454   6.773   3.261   0.348  0.0000  0.0000  0.0000
10455OM     OM110455   6.632   3.317   0.129  0.0000  0.0000  0.0000
10456OM     OM110456   0.474   8.134   0.211  0.0000  0.0000  0.0000
10457OM     OM110457   2.154   6.528   8.381  0.0000  0.0000  0.0000
10458OM     OM110458   5.471   2.740   0.148  0.0000  0.0000  0.0000
10459OM     OM110459   5.318   2.780   9.394  0.0000  0.0000  0.0000
10460OM     OM110460   4.214   1.749   0.593  0.0000  0.0000  0.0000
10461OM     OM110461   8.191   6.413   8.472  0.0000  0.0000  0.0000
10462OM     OM110462   8.450   6.463   8.432  0.0000  0.0000  0.0000
10463OM     OM110463   6.308   3.824   1.354  0.0000  0.0000  0.0000
10464OM     OM110464   3.069   1.739   0.630  0.0000  0.0000  0.0000
10465OM     OM110465   4.270   1.559   9.102  0.0000  0.0000  0.0000
10466OM     OM110466   2.861   6.352   8.737  0.0000  0.0000  0.0000
10467OM     OM110467   2.902   6.582   8.622  0.0000  0.0000  0.0000
10468OM     OM110468   8.447   5.678   0.896  0.0000  0.0000  0.0000
10469OM     OM110469   2.864   3.834   0.140  0.0000  0.0000  0.0000
10470OM     OM110470   1.559   7.046   8.604  0.0000  0.0000  0.0000
10471OM     OM110471   4.769   2.621   0.512  0.0000  0.0000  0.0000
10472OM     OM110472   4.526   2.659   0.452  0.0000  0.0000  0.0000
10473OM     OM110473   7.672   0.941   8.820  0.0000  0.0000  0.0000
10474OM     OM110474   7.878   1.100   8.800  0.0000  0.0000  0.0000
10475OM     OM110475   0.942   4.295   1.331  0.0000  0.0000  0.0000
10476OM     OM110476   3.534   2.483   0.333  0.0000  0.0000  0.0000
10477OM     OM110477   4.410   1.841   0.995  0.0000  0.0000  0.0000
10478OM     OM110478   8.812   5.303   0.245  0.0000  0.0000  0.0000
10479OM     OM110479   5.574   0.376   8.571  0.0000  0.0000  0.0000
10480OM     OM110480   5.212   0.223   9.402  0.0000  0.0000  0.0000
10481OM     OM110481   5.295   0.298   9.156  0.0000  0.0000  0.0000
10482OM     OM110482   6.229   8.365   9.481  0.0000  0.0000  0.0000
10483OM     OM110483   2.820   0.048   0.235  0.0000  0.0000  0.0000
10484OM     OM110484   8.522   8.002   9.411  0.0000  0.0000  0.0000
10485OM     OM110485   7.352   7.045   0.796  0.0000  0.0000  0.0000
10486OM     OM110486   1.485   4.622   0.362  0.0000  0.0000  0.0000
10487OM     OM110487   5.192   4.836   8.704  0.0000  0.0000  0.0000
10488OM     OM110488   5.260   5.009   8.512  0.0000  0.0000  0.0000
10489OM     OM110489   5.850   2.134   9.223  0.0000  0.0000  0.0000
10490OM     OM110490   5.979   1.908   9.218  0.0000  0.0000  0.0000
10491OM     OM110491   7.821   4.424   1.105  0.0000  0.0000  0.0000
10492OM     OM110492   7.360   6.303   1.039  0.0000  0.0000  0.0000
10493OM     OM110493   0.560   4.338   9.286  0.0000  0.0000  0.0000
10494OM     OM110494   8.056   2.199   9.218  0.0000  0.0000  0.0000
10495OM     OM110495   7.334   3.867   1.167  0.0000  0.0000  0.0000
10496OM     OM110496   8.965   1.999   0.449  0.0000  0.0000  0.0000
10497OM     OM110497   7.273   2.006   0.780  0.0000  0.0000  0.0000
10498OM     OM110498   2.762   0.141   0.013  0.0000  0.0000  0.0000
10499OM     OM110499   3.534   1.361   0.055  0.0000  0.0000  0.0000
10500OM     OM110500   0.582   3.341   8.293  0.0000  0.0000  0.0000
10501OM     OM110501   8.874   0.179   0.232  0.0000  0.0000  0.0000
10502OM     OM110502   9.101   2.227   0.938  0.0000  0.0000  0.0000
10503OM     OM110503   8.906   2.178   0.753  0.0000  0.0000  0.0000
10504OM     OM110504   4.552   5.263   0.463  0.0000  0.0000  0.0000
10505OM     OM110505   9.062   2.686   0.748  0.0000  0.0000  0.0000
10506OM     OM110506   9.230   2.581   0.903  0.0000  0.0000  0.0000
10507OM     OM110507   4.762   3.102   0.738  0.0000  0.0000  0.0000
10508OM     OM110508   7.875   4.996   1.163  0.0000  0.0000  0.0000
10509OM     OM110509   1.714   6.253   0.089  0.0000  0.0000  0.0000
10510OM     OM110510   1.874   6.037   0.091  0.0000  0.0000  0.0000
10511OM     OM110511   1.871   6.198   9.490  0.0000  0.0000  0.0000
10512OM     OM110512   4.040   2.108   0.782  0.0000  0.0000  0.0000
10513OM     OM110513   3.179   3.125   1.109  0.0000  0.0000  0.0000
10514OM     OM110514   3.120   2.854   1.088  0.0000  0.0000  0.0000
10515OM     OM110515   6.298   2.759   1.106  0.0000  0.0000  0.0000
10516OM     OM110516   6.560   2.818   1.063  0.0000  0.0000  0.0000
10517OM     OM110517   6.365   7.928   0.964  0.0000  0.0000  0.0000
10518OM     OM110518   6.729   7.760   0.725  0.0000  0.0000  0.0000
10519OM     OM110519   6.716   0.795   9.115  0.0000  0.0000  0.0000
10520OM     OM110520   1.235   4.921   8.877  0.0000  0.0000  0.0000
10521OM     OM110521   7.555   0.501   9.036  0.0000  0.0000  0.0000
10522OM     OM110522   2.573   6.239   8.999  0.0000  0.0000  0.0000
10523OM     OM110523   2.813   6.182   8.919  0.0000  0.0000  0.0000
10524OM     OM110524   2.131   1.421   9.526  0.0000  0.0000  0.0000
10525OM     OM110525   2.376   1.422   9.436  0.0000  0.0000  0.0000
10526OM     OM110526   1.701   7.036   9.033  0.0000  0.0000  0.0000
10527OM     OM110527   0.718   2.407   0.716  0.0000  0.0000  0.0000
10528OM     OM110528   4.424   9.149   0.438  0.0000  0.0000  0.0000
10529OM     OM110529   6.412   8.544   9.515  0.0000  0.0000  0.0000
10530OM     OM110530   3.026   5.032   8.855  0.0000  0.0000  0.0000
10531OM     OM110531   4.282   0.372   0.865  0.0000  0.0000  0.0000
10532OM     OM110532   4.437   0.316   1.058  0.0000  0.0000  0.0000
10533OM     OM110533   5.024   8.539   1.060  0.0000  0.0000  0.0000
10534OM     OM110534   8.004   5.091   8.780  0.0000  0.0000  0.0000
10535OM     OM110535   8.157   5.307   8.789  0.0000  0.0000  0.0000
10536OM     OM110536   4.195   9.379   8.488  0.0000  0.0000  0.0000
10537OM     OM110537   4.668   1.544   8.679  0.0000  0.0000  0.0000
10538OM     OM110538   7.309   6.819   8.640  0.0000  0.0000  0.0000
10539OM     OM110539   6.125   0.810   9.081  0.0000  0.0000  0.0000
10540OM     OM110540   6.595   4.266   1.006  0.0000  0.0000  0.0000
10541OM     OM110541   1.795   2.875   9.272  0.0000  0.0000  0.0000
10542OM     OM110542   1.740   3.071   9.427  0.0000  0.0000  0.0000
10543OM     OM110543   3.335   8.673   0.780  0.0000  0.0000  0.0000
10544OM     OM110544   6.761   2.756   1.214  0.0000  0.0000  0.0000
10545OM     OM110545   7.378   0.269   8.403  0.0000  0.0000  0.0000
10546OM     OM110546   3.797   1.750   8.963  0.0000  0.0000  0.0000
10547OM     OM110547   3.767   2.014   8.976  0.0000  0.0000  0.0000
10548OM     OM110548   8.723   2.051   0.623  0.0000  0.0000  0.0000
10549OM     OM110549   8.021   6.222   8.414  0.0000  0.0000  0.0000
10550OM     OM110550   9.005   8.921   1.265  0.0000  0.0000  0.0000
10551OM     OM110551   9.204   9.107   1.291  0.0000  0.0000  0.0000
10552OM     OM110552   9.008   9.137   1.122  0.0000  0.0000  0.0000
10553OM     OM110553   6.225   4.125   0.392  0.0000  0.0000  0.0000
10554OM     OM110554   5.152   3.129   8.531  0.0000  0.0000  0.0000
10555OM     OM110555   5.360   3.135   8.403  0.0000  0.0000  0.0000
10556OM     OM110556   7.371   0.858   1.141  0.0000  0.0000  0.0000
10557OM     OM110557   7.524   0.794   0.938  0.0000  0.0000  0.0000
10558OM     OM110558   7.409   0.608   1.077  0.0000  0.0000  0.0000
10559OM     OM110559   0.385   7.671   9.503  0.0000  0.0000  0.0000
10560OM     OM110560   1.555   0.159   8.300  0.0000  0.0000  0.0000
10561OM     OM110561   1.702   0.366   8.349  0.0000  0.0000  0.0000
10562OM     OM110562   4.486   4.375   9.119  0.0000  0.0000  0.0000
10563OM     OM110563   4.705   4.423   8.988  0.0000  0.0000  0.0000
10564OM     OM110564   4.711   4.270   9.203  0.0000  0.0000  0.0000
10565OM     OM110565   4.675   2.200   0.253  0.0000  0.0000  0.0000
10566OM     OM110566   1.992   8.398   8.892  0.0000  0.0000  0.0000
10567OM     OM110567   3.205   2.507   1.219  0.0000  0.0000  0.0000
10568OM     OM110568   2.493   3.750   9.061  0.0000  0.0000  0.0000
10569OM     OM110569   4.094   6.653   8.340  0.0000  0.0000  0.0000
10570OM     OM110570   3.832   6.606   8.350  0.0000  0.0000  0.0000
10571OM     OM110571   9.475   4.046   9.305  0.0000  0.0000  0.0000
10572OM     OM110572   4.990   8.769   1.201  0.0000  0.0000  0.0000
10573OM     OM110573   9.435   2.372   8.813  0.0000  0.0000  0.0000
10574OM     OM110574   9.279   2.380   1.045  0.0000  0.0000  0.0000
10575OM     OM110575   5.751   6.996   9.185  0.0000  0.0000  0.0000
10576OM     OM110576   5.659   6.836   9.367  0.0000  0.0000  0.0000
10577OM     OM110577   5.847   7.014   9.423  0.0000  0.0000  0.0000
10578OM     OM110578   0.163   4.507   0.179  0.0000  0.0000  0.0000
10579OM     OM110579   0.720   7.804   1.177  0.0000  0.0000  0.0000
10580OM     OM110580   0.598   7.875   0.949  0.0000  0.0000  0.0000
10581OM     OM110581   2.385   5.985   1.262  0.0000  0.0000  0.0000
10582OM     OM110582   2.191   5.831   1.321  0.0000  0.0000  0.0000
10583OM     OM110583   9.216   2.165   1.178  0.0000  0.0000  0.0000
10584OM     OM110584   9.603   0.575   0.575  0.0000  0.0000  0.0000
10585OM     OM110585   0.096   0.441   0.777  0.0000  0.0000  0.0000
10586OM     OM110586   6.146   6.606   1.013  0.0000  0.0000  0.0000
10587OM     OM110587   0.534   8.914   1.341  0.0000  0.0000  0.0000
10588OM     OM110588   6.097   4.264   8.645  0.0000  0.0000  0.0000
10589OM     OM110589   8.454   6.605   0.062  0.0000  0.0000  0.0000
10590OM     OM110590   9.278   5.274   0.767  0.0000  0.0000  0.0000
10591OM     OM110591   6.031   2.731   1.092  0.0000  0.0000  0.0000
10592OM     OM110592   6.410   1.319   1.294  0.0000  0.0000  0.0000
10593OM     OM110593   6.367   1.565   1.384  0.0000  0.0000  0.0000
10594OM     OM110594   3.181   2.977   9.588  0.0000  0.0000  0.0000
10595OM     OM110595   7.148   0.622   9.238  0.0000  0.0000  0.0000
10596OM     OM110596   3.199   5.213   8.823  0.0000  0.0000  0.0000
10597OM     OM110597   7.695   5.094   0.989  0.0000  0.0000  0.0000
10598OM     OM110598   8.652   5.501   0.289  0.0000  0.0000  0.0000
10599OM     OM110599   2.558   4.699   8.650  0.0000  0.0000  0.0000
10600OM     OM110600   9.051   0.754   0.170  0.0000  0.0000  0.0000
10601OM     OM110601   9.213   0.730   9.582  0.0000  0.0000  0.0000
10602OM     OM110602   2.231   7.561   0.948  0.0000  0.0000  0.0000
10603OM     OM110603   2.895   3.057   8.526  0.0000  0.0000  0.0000
10604OM     OM110604   3.031   3.211   8.700  0.0000  0.0000  0.0000
10605OM     OM110605   1.279   6.763   9.072  0.0000  0.0000  0.0000
10606OM     OM110606   9.052   5.859   0.883  0.0000  0.0000  0.0000
10607OM     OM110607   5.607   8.372   8.372  0.0000  0.0000  0.0000
10608OM     OM110608   5.633   2.590   8.722  0.0000  0.0000  0.0000
10609OM     OM110609   5.402   2.700   8.696  0.0000  0.0000  0.0000
10610OM     OM110610   5.769   2.761   1.042  0.0000  0.0000  0.0000
10611OM     OM110611   5.866   2.559   1.190  0.0000  0.0000  0.0000
10612OM     OM110612   0.039   0.264   0.954  0.0000  0.0000  0.0000
10613OM     OM110613   0.281   0.286   0.854  0.0000  0.0000  0.0000
10614OM     OM110614   6.276   3.023   0.200  0.0000  0.0000  0.0000
10615OM     OM110615   8.276   5.513   9.334  0.0000  0.0000  0.0000
10616OM     OM110616   4.880   8.929   9.068  0.0000  0.0000  0.0000
10617OM     OM110617   6.821   6.455   0.535  0.0000  0.0000  0.0000
10618OM     OM110618   6.721   6.478   0.766  0.0000  0.0000  0.0000
10619OM     OM110619   9.346   8.440   9.329  0.0000  0.0000  0.0000
10620OM     OM110620   3.931   5.565   0.056  0.0000  0.0000  0.0000
10621OM     OM110621   4.057   5.673   0.266  0.0000  0.0000  0.0000
10622OM     OM110622   6.343   6.162   1.063  0.0000  0.0000  0.0000
10623OM     OM110623   6.959   3.238   8.945  0.0000  0.0000  0.0000
10624OM     OM110624   6.761   3.404   8.961  0.0000  0.0000  0.0000
10625OM     OM110625   7.025   5.544   8.574  0.0000  0.0000  0.0000
10626OM     OM110626   7.114   5.698   8.195  0.0000  0.0000  0.0000
10627OM     OM110627   0.549   0.902   0.887  0.0000  0.0000  0.0000
10628OM     OM110628   1.411   1.346   0.621  0.0000  0.0000  0.0000
10629OM     OM110629   1.410   1.719   0.971  0.0000  0.0000  0.0000
10630OM     OM110630   1.542   1.772   0.757  0.0000  0.0000  0.0000
10631OM     OM110631   0.279   4.899   9.511  0.0000  0.0000  0.0000
10632OM     OM110632   3.144   6.638   1.270  0.0000  0.0000  0.0000
10633OM     OM110633   7.905   7.507   0.195  0.0000  0.0000  0.0000
10634OM     OM110634   0.332   0.805   1.004  0.0000  0.0000  0.0000
10635OM     OM110635   7.010   4.573   8.769  0.0000  0.0000  0.0000
10636OM     OM110636   6.945   4.380   8.919  0.0000  0.0000  0.0000
10637OM     OM110637   6.036   4.783   0.306  0.0000  0.0000  0.0000
10638OM     OM110638   0.441   3.240   8.860  0.0000  0.0000  0.0000
10639OM     OM110639   5.363   7.758   0.092  0.0000  0.0000  0.0000
10640OM     OM110640   5.459   7.591   9.524  0.0000  0.0000  0.0000
10641OM     OM110641   5.586   7.818   9.556  0.0000  0.0000  0.0000
10642OM     OM110642   5.359   7.822   9.449  0.0000  0.0000  0.0000
10643OM     OM110643   3.980   9.437   0.842  0.0000  0.0000  0.0000
10644OM     OM110644   2.717   3.714   0.897  0.0000  0.0000  0.0000
10645OM     OM110645   7.515   9.085   9.060  0.0000  0.0000  0.0000
10646OM     OM110646   7.336   8.881   9.060  0.0000  0.0000  0.0000
10647OM     OM110647   6.762   3.215   9.131  0.0000  0.0000  0.0000
10648OM     OM110648   0.371   3.027   0.843  0.0000  0.0000  0.0000
10649OM     OM110649   2.147   2.570   8.554  0.0000  0.0000  0.0000
10650OM     OM110650   7.985   3.475   9.319  0.0000  0.0000  0.0000
10651OM     OM110651   2.258   8.679   0.329  0.0000  0.0000  0.0000
10652OM     OM110652   2.050   8.539   0.218  0.0000  0.0000  0.0000
10653OM     OM110653   8.338   1.604   8.588  0.0000  0.0000  0.0000
10654OM     OM110654   3.112   3.200   8.957  0.0000  0.0000  0.0000
10655OM     OM110655   4.943   5.207   8.769  0.0000  0.0000  0.0000
10656OM     OM110656   4.818   5.088   8.580  0.0000  0.0000  0.0000
10657OM     OM110657   4.964   4.947   8.763  0.0000  0.0000  0.0000
10658OM     OM110658   7.121   6.767   8.472  0.0000  0.0000  0.0000
10659OM     OM110659   4.698   3.357   8.764  0.0000  0.0000  0.0000
10660OM     OM110660   0.903   7.943   8.990  0.0000  0.0000  0.0000
10661OM     OM110661   0.710   7.830   9.146  0.0000  0.0000  0.0000
10662OM     OM110662   6.312   6.435   1.079  0.0000  0.0000  0.0000
10663OM     OM110663   4.365   1.908   0.741  0.0000  0.0000  0.0000
10664OM     OM110664   4.587   2.569   9.227  0.0000  0.0000  0.0000
10665OM     OM110665   2.425   6.064   9.089  0.0000  0.0000  0.0000
10666OM     OM110666   1.310   7.541   8.735  0.0000  0.0000  0.0000
10667OM     OM110667   5.734   5.659   8.867  0.0000  0.0000  0.0000
10668OM     OM110668   4.908   5.655   0.437  0.0000  0.0000  0.0000
10669OM     OM110669   8.634   5.114   0.944  0.0000  0.0000  0.0000
10670OM     OM110670   8.752   5.067   1.182  0.0000  0.0000  0.0000
10671OM     OM110671   8.619   5.274   1.170  0.0000  0.0000  0.0000
10672OM     OM110672   3.181   1.142   0.428  0.0000  0.0000  0.0000
10673OM     OM110673   7.155   9.538   9.235  0.0000  0.0000  0.0000
10674OM     OM110674   1.026   4.138   8.486  0.0000  0.0000  0.0000
10675OM     OM110675   3.294   6.321   8.775  0.0000  0.0000  0.0000
10676OM     OM110676   3.747   2.136   0.128  0.0000  0.0000  0.0000
10677OM     OM110677   1.159   6.642   8.768  0.0000  0.0000  0.0000
10678OM     OM110678   8.111   7.221   1.098  0.0000  0.0000  0.0000
10679OM     OM110679   7.975   7.442   1.072  0.0000  0.0000  0.0000
10680OM     OM110680   5.350   5.463   0.456  0.0000  0.0000  0.0000
10681OM     OM110681   5.510   6.628   9.446  0.0000  0.0000  0.0000
10682OM     OM110682   8.537   1.264   9.079  0.0000  0.0000  0.0000
10683OM     OM110683   1.860   4.225   0.472  0.0000  0.0000  0.0000
10684OM     OM110684   7.148   2.936   8.697  0.0000  0.0000  0.0000
10685OM     OM110685   5.385   6.916   1.194  0.0000  0.0000  0.0000
10686OM     OM110686   5.377   6.682   1.303  0.0000  0.0000  0.0000
10687OM     OM110687   9.404   7.636   8.667  0.0000  0.0000  0.0000
10688OM     OM110688   4.659   7.982   1.014  0.0000  0.0000  0.0000
10689OM     OM110689   4.566   7.870   0.775  0.0000  0.0000  0.0000
10690OM     OM110690   4.652   7.730   0.964  0.0000  0.0000  0.0000
10691OM     OM110691   6.187   0.994   0.238  0.0000  0.0000  0.0000
10692OM     OM110692   6.457   7.186   9.000  0.0000  0.0000  0.0000
10693OM     OM110693   6.646   7.354   8.994  0.0000  0.0000  0.0000
10694OM     OM110694   5.314   6.035   8.326  0.0000  0.0000  0.0000
10695OM     OM110695   4.991   0.189   0.538  0.0000  0.0000  0.0000
10696OM     OM110696   4.473   1.307   0.084  0.0000  0.0000  0.0000
10697OM     OM110697   2.480   5.452   0.176  0.0000  0.0000  0.0000
10698OM     OM110698   5.287   3.030   9.329  0.0000  0.0000  0.0000
10699OM     OM110699   1.380   7.397   0.311  0.0000  0.0000  0.0000
10700OM     OM110700   1.510   7.350   0.090  0.0000  0.0000  0.0000
10701OM     OM110701   4.455   8.580   8.327  0.0000  0.0000  0.0000
10702OM     OM110702   7.719   7.658   9.428  0.0000  0.0000  0.0000
10703OM     OM110703   4.559   3.133   8.824  0.0000  0.0000  0.0000
10704OM     OM110704   0.479   1.597   9.520  0.0000  0.0000  0.0000
10705OM     OM110705   5.327   0.792   1.382  0.0000  0.0000  0.0000
10706OM     OM110706   1.688   3.168   0.048  0.0000  0.0000  0.0000
10707OM     OM110707   6.177   2.167   9.532  0.0000  0.0000  0.0000
10708OM     OM110708   6.132   2.029   0.137  0.0000  0.0000  0.0000
10709OM     OM110709   8.404   6.073   8.931  0.0000  0.0000  0.0000
10710OM     OM110710   3.395   7.445   1.076  0.0000  0.0000  0.0000
10711OM     OM110711   3.368   7.423   1.335  0.0000  0.0000  0.0000
10712OM     OM110712   0.116   8.783   9.590  0.0000  0.0000  0.0000
10713OM     OM110713   0.004   8.559   9.515  0.0000  0.0000  0.0000
10714OM     OM110714   1.113   1.956   0.914  0.0000  0.0000  0.0000
10715OM     OM110715   1.188   2.041   0.668  0.0000  0.0000  0.0000
10716OM     OM110716   7.911   3.625   9.108  0.0000  0.0000  0.0000
10717OM     OM110717   8.572   3.603   9.237  0.0000  0.0000  0.0000
10718OM     OM110718   3.533   1.308   8.719  0.0000  0.0000  0.0000
10719OM     OM110719   1.110   7.051   0.380  0.0000  0.0000  0.0000
10720OM     OM110720   4.498   2.332   9.327  0.0000  0.0000  0.0000
10721OM     OM110721   7.598   7.084   0.285  0.0000  0.0000  0.0000
10722OM     OM110722   4.019   5.436   0.669  0.0000  0.0000  0.0000
10723OM     OM110723   4.099   5.643   0.520  0.0000  0.0000  0.0000
10724OM     OM110724   2.122   2.729   8.939  0.0000  0.0000  0.0000
10725OM     OM110725   2.007   2.772   9.168  0.0000  0.0000  0.0000
10726OM     OM110726   8.435   9.405   9.299  0.0000  0.0000  0.0000
10727OM     OM110727   6.589   9.053   0.515  0.0000  0.0000  0.0000
10728OM     OM110728   6.265   8.820   0.494  0.0000  0.0000  0.0000
10729OM     OM110729   3.342   4.027   0.483  0.0000  0.0000  0.0000
10730OM     OM110730   3.017   3.085   9.165  0.0000  0.0000  0.0000
10731OM     OM110731   1.156   5.551   0.852  0.0000  0.0000  0.0000
10732OM     OM110732   2.069   7.275   9.097  0.0000  0.0000  0.0000
10733OM     OM110733   7.906   9.407   0.962  0.0000  0.0000  0.0000
10734OM     OM110734   7.981   9.545   0.752  0.0000  0.0000  0.0000
10735OM     OM110735   0.525   7.228   9.318  0.0000  0.0000  0.0000
10736OM     OM110736   4.725   0.791   8.391  0.0000  0.0000  0.0000
10737OM     OM110737   2.210   2.422   0.817  0.0000  0.0000  0.0000
10738OM     OM110738   2.288   1.963   0.663  0.0000  0.0000  0.0000
10739OM     OM110739   2.387   8.536   9.542  0.0000  0.0000  0.0000
10740OM     OM110740   2.170   5.876   8.679  0.0000  0.0000  0.0000
10741OM     OM110741   3.071   6.477   8.799  0.0000  0.0000  0.0000
10742OM     OM110742   9.068   5.659   1.060  0.0000  0.0000  0.0000
10743OM     OM110743   8.857   5.563   1.175  0.0000  0.0000  0.0000
10744OM     OM110744   6.515   3.538   1.021  0.0000  0.0000  0.0000
10745OM     OM110745   7.737   7.468   9.601  0.0000  0.0000  0.0000
10746OM     OM110746   7.710   7.301   0.183  0.0000  0.0000  0.0000
10747OM     OM110747   7.014   7.064   1.213  0.0000  0.0000  0.0000
10748OM     OM110748   2.950   8.744   0.072  0.0000  0.0000  0.0000
10749OM     OM110749   5.433   2.964   9.535  0.0000  0.0000  0.0000
10750OM     OM110750   5.689   4.640   9.394  0.0000  0.0000  0.0000
10751OM     OM110751   8.839   8.225   0.291  0.0000  0.0000  0.0000
10752OM     OM110752   5.526   3.505   1.063  0.0000  0.0000  0.0000
10753OM     OM110753   9.570   1.124   8.963  0.0000  0.0000  0.0000
10754OM     OM110754   9.569   1.018   9.189  0.0000  0.0000  0.0000
10755OM     OM110755   7.174   7.893   0.998  0.0000  0.0000  0.0000
10756OM     OM110756   2.877   8.151   1.219  0.0000  0.0000  0.0000
10757OM     OM110757   2.633   8.199   1.142  0.0000  0.0000  0.0000
10758OM     OM110758   5.140   4.255   1.202  0.0000  0.0000  0.0000
10759OM     OM110759   7.375   3.162   8.497  0.0000  0.0000  0.0000
10760OM     OM110760   5.006   6.234   0.719  0.0000  0.0000  0.0000
10761OM     OM110761   5.948   4.529   9.375  0.0000  0.0000  0.0000
10762OM     OM110762   8.213   2.166   8.910  0.0000  0.0000  0.0000
10763OM     OM110763   3.920   5.815   0.435  0.0000  0.0000  0.0000
10764OM     OM110764   0.562   9.604   8.432  0.0000  0.0000  0.0000
10765OM     OM110765   0.607   0.086   8.684  0.0000  0.0000  0.0000
10766OM     OM110766   0.698   0.216   8.468  0.0000  0.0000  0.0000
10767OM     OM110767   3.370   0.369   0.263  0.0000  0.0000  0.0000
10768OM     OM110768   6.530   8.127   0.938  0.0000  0.0000  0.0000
10769OM     OM110769   3.560   0.519   0.363  0.0000  0.0000  0.0000
10770OM     OM110770   5.030   5.453   8.754  0.0000  0.0000  0.0000
10771OM     OM110771   7.228   1.329   0.437  0.0000  0.0000  0.0000
10772OM     OM110772   2.294   4.869   0.516  0.0000  0.0000  0.0000
10773OM     OM110773   0.111   7.380   0.814  0.0000  0.0000  0.0000
10774OM     OM110774   9.057   7.272   0.956  0.0000  0.0000  0.0000
10775OM     OM110775   2.941   1.538   0.416  0.0000  0.0000  0.0000
10776OM     OM110776   4.478   7.624   1.144  0.0000  0.0000  0.0000
10777OM     OM110777   4.695   7.498   1.076  0.0000  0.0000  0.0000
10778OM     OM110778   6.616   8.621   9.368  0.0000  0.0000  0.0000
10779OM     OM110779   6.304   6.160   8.956  0.0000  0.0000  0.0000
10780OM     OM110780   6.389   6.083   9.190  0.0000  0.0000  0.0000
10781OM     OM110781   0.164   2.653   0.689  0.0000  0.0000  0.0000
10782OM     OM110782   0.144   5.814   9.218  0.0000  0.0000  0.0000
10783OM     OM110783   0.254   5.763   8.989  0.0000  0.0000  0.0000
10784OM     OM110784   8.737   6.884   1.173  0.0000  0.0000  0.0000
10785OM     OM110785   5.776   3.480   0.969  0.0000  0.0000  0.0000
10786OM     OM110786   5.697   3.390   1.207  0.0000  0.0000  0.0000
10787OM     OM110787   0.158   5.791   9.477  0.0000  0.0000  0.0000
10788OM     OM110788   3.899   7.206   0.553  0.0000  0.0000  0.0000
10789OM     OM110789   0.485   5.882   8.961  0.0000  0.0000  0.0000
10790OM     OM110790   9.582   0.768   1.360  0.0000  0.0000  0.0000
10791OM     OM110791   4.337   3.746   9.197  0.0000  0.0000  0.0000
10792OM     OM110792   5.588   5.854   0.582  0.0000  0.0000  0.0000
10793OM     OM110793   5.480   6.081   0.613  0.0000  0.0000  0.0000
10794OM     OM110794   6.028   7.346   0.418  0.0000  0.0000  0.0000
10795OM     OM110795   1.368   7.100   1.296  0.0000  0.0000  0.0000
10796OM     OM110796   1.741   6.317   0.333  0.0000  0.0000  0.0000
10797OM     OM110797   2.246   0.301   9.346  0.0000  0.0000  0.0000
10798OM     OM110798   2.109   0.538   9.348  0.0000  0.0000  0.0000
10799OM     OM110799   7.388   6.215   0.217  0.0000  0.0000  0.0000
10800OM     OM110800   0.458   2.530   8.630  0.0000  0.0000  0.0000
10801OM     OM110801   0.354   2.702   8.472  0.0000  0.0000  0.0000
10802OM     OM110802   2.872   5.555   8.309  0.0000  0.0000  0.0000
10803OM     OM110803   4.099   9.234   0.074  0.0000  0.0000  0.0000
10804OM     OM110804   0.331   9.475   1.101  0.0000  0.0000  0.0000
10805OM     OM110805   9.200   5.599   9.551  0.0000  0.0000  0.0000
10806OM     OM110806   9.340   4.635   0.865  0.0000  0.0000  0.0000
10807OM     OM110807   7.095   5.496   8.818  0.0000  0.0000  0.0000
10808OM     OM110808   4.777   6.381   8.434  0.0000  0.0000  0.0000
10809OM     OM110809   7.399   0.503   8.827  0.0000  0.0000  0.0000
10810OM     OM110810   7.560   0.704   8.875  0.0000  0.0000  0.0000
10811OM     OM110811   1.333   2.625   0.998  0.0000  0.0000  0.0000
10812OM     OM110812   0.887   2.662   8.805  0.0000  0.0000  0.0000
10813OM     OM110813   0.947   5.571   8.545  0.0000  0.0000  0.0000
10814OM     OM110814   6.150   7.953   8.472  0.0000  0.0000  0.0000
10815OM     OM110815   8.280   0.502   8.372  0.0000  0.0000  0.0000
10816OM     OM110816   1.336   3.315   8.725  0.0000  0.0000  0.0000
10817OM     OM110817   8.269   2.634   8.766  0.0000  0.0000  0.0000
10818OM     OM110818   8.194   2.395   8.796  0.0000  0.0000  0.0000
10819OM     OM110819   8.154   6.685   8.730  0.0000  0.0000  0.0000
10820OM     OM110820   1.132   8.560   8.712  0.0000  0.0000  0.0000
10821OM     OM110821   2.030   8.703   8.212  0.0000  0.0000  0.0000
10822OM     OM110822   2.129   8.865   8.404  0.0000  0.0000  0.0000
10823OM     OM110823   6.554   3.943   0.725  0.0000  0.0000  0.0000
10824OM     OM110824   6.551   3.685   0.808  0.0000  0.0000  0.0000
10825OM     OM110825   5.374   0.456   8.721  0.0000  0.0000  0.0000
10826OM     OM110826   4.664   0.943   0.807  0.0000  0.0000  0.0000
10827OM     OM110827   0.714   5.698   8.540  0.0000  0.0000  0.0000
10828OM     OM110828   3.128   5.526   8.311  0.0000  0.0000  0.0000
10829OM     OM110829   4.148   7.107   1.172  0.0000  0.0000  0.0000
10830OM     OM110830   8.159   2.776   9.602  0.0000  0.0000  0.0000
10831OM     OM110831   8.546   6.465   8.669  0.0000  0.0000  0.0000
10832OM     OM110832   5.938   3.655   0.866  0.0000  0.0000  0.0000
10833OM     OM110833   8.058   4.360   1.032  0.0000  0.0000  0.0000
10834OM     OM110834   3.755   5.823   8.713  0.0000  0.0000  0.0000
10835OM     OM110835   3.838   5.809   8.959  0.0000  0.0000  0.0000
10836OM     OM110836   6.070   3.254   8.503  0.0000  0.0000  0.0000
10837OM     OM110837   5.820   3.180   8.529  0.0000  0.0000  0.0000
10838OM     OM110838   4.692   9.520   8.565  0.0000  0.0000  0.0000
10839OM     OM110839   4.617   9.506   8.916  0.0000  0.0000  0.0000
10840OM     OM110840   8.350   8.635   1.182  0.0000  0.0000  0.0000
10841OM     OM110841   8.200   8.769   1.347  0.0000  0.0000  0.0000
10842OM     OM110842   4.557   2.197   0.482  0.0000  0.0000  0.0000
10843OM     OM110843   4.724   2.368   0.594  0.0000  0.0000  0.0000
10844OM     OM110844   6.261   2.207   9.287  0.0000  0.0000  0.0000
10845OM     OM110845   5.156   1.394   0.242  0.0000  0.0000  0.0000
10846OM     OM110846   5.334   1.507   0.399  0.0000  0.0000  0.0000
10847OM     OM110847   2.543   9.399   9.449  0.0000  0.0000  0.0000
10848OM     OM110848   3.375   7.604   0.880  0.0000  0.0000  0.0000
10849OM     OM110849   4.944   0.101   0.787  0.0000  0.0000  0.0000
10850OM     OM110850   3.779   5.216   9.403  0.0000  0.0000  0.0000
10851OM     OM110851   3.740   5.402   9.583  0.0000  0.0000  0.0000
10852OM     OM110852   6.986   6.576   8.349  0.0000  0.0000  0.0000
10853OM     OM110853   4.642   7.743   0.561  0.0000  0.0000  0.0000
10854OM     OM110854   3.911   6.212   9.207  0.0000  0.0000  0.0000
10855OM     OM110855   8.751   3.893   0.966  0.0000  0.0000  0.0000
10856OM     OM110856   0.717   4.536   0.933  0.0000  0.0000  0.0000
10857OM     OM110857   0.790   4.421   1.154  0.0000  0.0000  0.0000
10858OM     OM110858   4.223   0.509   8.343  0.0000  0.0000  0.0000
10859OM     OM110859   9.366   1.111   0.280  0.0000  0.0000  0.0000
10860OM     OM110860   2.596   4.987   9.561  0.0000  0.0000  0.0000
10861OM     OM110861   2.495   4.791   0.107  0.0000  0.0000  0.0000
10862OM     OM110862   5.426   3.435   8.749  0.0000  0.0000  0.0000
10863OM     OM110863   5.270   6.563   9.371  0.0000  0.0000  0.0000
10864OM     OM110864   3.008   0.357   1.224  0.0000  0.0000  0.0000
10865OM     OM110865   0.799   8.775   9.298  0.0000  0.0000  0.0000
10866OM     OM110866   0.381   6.282   1.257  0.0000  0.0000  0.0000
10867OM     OM110867   3.135   0.128   1.183  0.0000  0.0000  0.0000
10868OM     OM110868   4.264   9.439   1.281  0.0000  0.0000  0.0000
10869OM     OM110869   4.511   9.348   1.341  0.0000  0.0000  0.0000
10870OM     OM110870   7.840   8.306   8.584  0.0000  0.0000  0.0000
10871OM     OM110871   7.794   5.118   8.931  0.0000  0.0000  0.0000
10872OM     OM110872   7.790   4.695   8.912  0.0000  0.0000  0.0000
10873OM     OM110873   8.709   5.761   1.267  0.0000  0.0000  0.0000
10874OM     OM110874   8.693   5.995   1.154  0.0000  0.0000  0.0000
10875OM     OM110875   9.072   7.457   0.758  0.0000  0.0000  0.0000
10876OM     OM110876   9.432   7.376   8.651  0.0000  0.0000  0.0000
10877OM     OM110877   5.598   3.076   0.108  0.0000  0.0000  0.0000
10878OM     OM110878   7.173   5.017   0.248  0.0000  0.0000  0.0000
10879OM     OM110879   7.265   4.966   0.493  0.0000  0.0000  0.0000
10880OM     OM110880   0.559   2.281   0.142  0.0000  0.0000  0.0000
10881OM     OM110881   8.801   3.561   0.515  0.0000  0.0000  0.0000
10882OM     OM110882   8.032   5.655   0.361  0.0000  0.0000  0.0000
10883OM     OM110883   5.291   6.899   0.323  0.0000  0.0000  0.0000
10884OM     OM110884   4.887   7.048   0.328  0.0000  0.0000  0.0000
10885OM     OM110885   5.311   7.078   0.508  0.0000  0.0000  0.0000
10886OM     OM110886   3.483   1.547   8.631  0.0000  0.0000  0.0000
10887OM     OM110887   0.935   7.662   1.182  0.0000  0.0000  0.0000
10888OM     OM110888   2.564   3.760   1.115  0.0000  0.0000  0.0000
10889OM     OM110889   9.362   6.996   9.268  0.0000  0.0000  0.0000
10890OM     OM110890   3.409   4.968   0.445  0.0000  0.0000  0.0000
10891OM     OM110891   9.281   6.503   8.453  0.0000  0.0000  0.0000
10892OM     OM110892   1.494   5.268   9.018  0.0000  0.0000  0.0000
10893OM     OM110893   1.381   5.040   9.059  0.0000  0.0000  0.0000
10894OM     OM110894   1.530   5.144   9.249  0.0000  0.0000  0.0000
10895OM     OM110895   2.479   4.753   0.375  0.0000  0.0000  0.0000
10896OM     OM110896   3.416   7.474   8.652  0.0000  0.0000  0.0000
10897OM     OM110897   1.436   2.006   9.575  0.0000  0.0000  0.0000
10898OM     OM110898   7.771   8.082   8.499  0.0000  0.0000  0.0000
10899OM     OM110899   8.042   8.161   8.554  0.0000  0.0000  0.0000
10900OM     OM110900   0.817   8.566   9.147  0.0000  0.0000  0.0000
10901OM     OM110901   3.943   6.429   9.097  0.0000  0.0000  0.0000
10902OM     OM110902   4.250   6.772   8.178  0.0000  0.0000  0.0000
10903OM     OM110903   8.806   4.148   0.964  0.0000  0.0000  0.0000
10904OM     OM110904   6.769   9.244   0.652  0.0000  0.0000  0.0000
10905OM     OM110905   6.709   9.211   0.902  0.0000  0.0000  0.0000
10906OM     OM110906   7.088   3.797   8.411  0.0000  0.0000  0.0000
10907OM     OM110907   3.002   3.954   8.478  0.0000  0.0000  0.0000
10908OM     OM110908   6.923   4.399   0.403  0.0000  0.0000  0.0000
10909OM     OM110909   7.461   6.341   9.127  0.0000  0.0000  0.0000
10910OM     OM110910   7.516   6.292   8.873  0.0000  0.0000  0.0000
10911OM     OM110911   8.402   6.219   1.276  0.0000  0.0000  0.0000
10912OM     OM110912   3.283   9.582   1.038  0.0000  0.0000  0.0000
10913OM     OM110913   9.501   4.052   1.069  0.0000  0.0000  0.0000
10914OM     OM110914   9.535   6.810   9.338  0.0000  0.0000  0.0000
10915OM     OM110915   9.044   1.256   8.739  0.0000  0.0000  0.0000
10916OM     OM110916   5.943   3.794   1.097  0.0000  0.0000  0.0000
10917OM     OM110917   1.433   1.125   0.231  0.0000  0.0000  0.0000
10918OM     OM110918   7.484   4.975   0.881  0.0000  0.0000  0.0000
10919OM     OM110919   1.762   6.770   0.062  0.0000  0.0000  0.0000
10920OM     OM110920   9.297   4.217   1.062  0.0000  0.0000  0.0000
10921OM     OM110921   5.323   8.394   9.082  0.0000  0.0000  0.0000
10922OM     OM110922   5.369   8.592   9.251  0.0000  0.0000  0.0000
10923OM     OM110923   5.488   0.998   1.353  0.0000  0.0000  0.0000
10924OM     OM110924   6.195   4.551   9.254  0.0000  0.0000  0.0000
10925OM     OM110925   0.145   3.078   8.747  0.0000  0.0000  0.0000
10926OM     OM110926   3.627   6.705   8.456  0.0000  0.0000  0.0000
10927OM     OM110927   7.052   4.292   0.597  0.0000  0.0000  0.0000
10928OM     OM110928   3.617   6.865   8.664  0.0000  0.0000  0.0000
10929OM     OM110929   3.752   7.069   8.594  0.0000  0.0000  0.0000
10930OM     OM110930   2.387   8.641   9.304  0.0000  0.0000  0.0000
10931OM     OM110931   8.657   6.726   0.593  0.0000  0.0000  0.0000
10932OM     OM110932   7.440   9.303   1.132  0.0000  0.0000  0.0000
10933OM     OM110933   4.680   5.136   0.272  0.0000  0.0000  0.0000
10934OM     OM110934   8.017   1.392   0.576  0.0000  0.0000  0.0000
10935OM     OM110935   5.451   6.389   9.398  0.0000  0.0000  0.0000
10936OM     OM110936   1.105   2.167   0.451  0.0000  0.0000  0.0000
10937OM     OM110937   8.332   9.548   9.493  0.0000  0.0000  0.0000
10938OM     OM110938   6.434   1.375   0.718  0.0000  0.0000  0.0000
10939OM     OM110939   7.277   2.997   0.912  0.0000  0.0000  0.0000
10940OM     OM110940   9.447   7.725   1.242  0.0000  0.0000  0.0000
10941OM     OM110941   8.979   8.883   8.865  0.0000  0.0000  0.0000
10942OM     OM110942   2.078   6.284   8.427  0.0000  0.0000  0.0000
10943OM     OM110943   5.896   2.589   8.690  0.0000  0.0000  0.0000
10944OM     OM110944   5.890   2.720   8.464  0.0000  0.0000  0.0000
10945OM     OM110945   1.398   2.771   1.202  0.0000  0.0000  0.0000
10946OM     OM110946   1.571   7.973   0.886  0.0000  0.0000  0.0000
10947OM     OM110947   1.776   2.415   0.947  0.0000  0.0000  0.0000
10948OM     OM110948   5.745   2.409   8.584  0.0000  0.0000  0.0000
10949OM     OM110949   1.885   1.992   8.217  0.0000  0.0000  0.0000
10950OM     OM110950   1.681   1.853   8.289  0.0000  0.0000  0.0000
10951OM     OM110951   2.807   5.148   9.550  0.0000  0.0000  0.0000
10952OM     OM110952   2.584   5.235   0.051  0.0000  0.0000  0.0000
10953OM     OM110953   2.230   7.492   0.697  0.0000  0.0000  0.0000
10954OM     OM110954   5.925   1.246   8.549  0.0000  0.0000  0.0000
10955OM     OM110955   8.412   8.098   9.196  0.0000  0.0000  0.0000
10956OM     OM110956   6.862   1.571   0.640  0.0000  0.0000  0.0000
10957OM     OM110957   4.200   7.004   1.414  0.0000  0.0000  0.0000
10958OM     OM110958   2.731   8.591   0.824  0.0000  0.0000  0.0000
10959OM     OM110959   3.908   7.479   8.699  0.0000  0.0000  0.0000
10960OM     OM110960   3.827   7.307   8.524  0.0000  0.0000  0.0000
10961OM     OM110961   3.659   7.398   8.706  0.0000  0.0000  0.0000
10962OM     OM110962   2.803   7.857   8.702  0.0000  0.0000  0.0000
10963OM     OM110963   6.181   4.480   9.495  0.0000  0.0000  0.0000
10964OM     OM110964   8.238   7.020   1.004  0.0000  0.0000  0.0000
10965OM     OM110965   8.336   7.251   0.963  0.0000  0.0000  0.0000
10966OM     OM110966   8.954   1.074   8.903  0.0000  0.0000  0.0000
10967OM     OM110967   3.144   3.854   0.419  0.0000  0.0000  0.0000
10968OM     OM110968   9.533   4.752   0.728  0.0000  0.0000  0.0000
10969OM     OM110969   6.748   3.545   0.901  0.0000  0.0000  0.0000
10970OM     OM110970   5.685   6.009   0.967  0.0000  0.0000  0.0000
10971OM     OM110971   5.490   7.045   0.991  0.0000  0.0000  0.0000
10972OM     OM110972   8.970   8.140   0.811  0.0000  0.0000  0.0000
10973OM     OM110973   5.545   1.229   8.865  0.0000  0.0000  0.0000
10974OM     OM110974   5.338   0.928   8.487  0.0000  0.0000  0.0000
10975OM     OM110975   2.275   4.733   0.225  0.0000  0.0000  0.0000
10976OM     OM110976   6.420   1.143   1.103  0.0000  0.0000  0.0000
10977OM     OM110977   1.873   6.699   0.287  0.0000  0.0000  0.0000
10978OM     OM110978   1.747   6.514   0.150  0.0000  0.0000  0.0000
10979OM     OM110979   8.050   2.344   9.015  0.0000  0.0000  0.0000
10980OM     OM110980   7.796   6.865   0.912  0.0000  0.0000  0.0000
10981OM     OM110981   8.038   6.930   0.855  0.0000  0.0000  0.0000
10982OM     OM110982   2.961   5.541   1.006  0.0000  0.0000  0.0000
10983OM     OM110983   8.386   6.789   0.231  0.0000  0.0000  0.0000
10984OM     OM110984   8.532   7.000   0.201  0.0000  0.0000  0.0000
10985OM     OM110985   8.506   6.894   0.440  0.0000  0.0000  0.0000
10986OM     OM110986   7.497   8.390   0.149  0.0000  0.0000  0.0000
10987OM     OM110987   6.620   6.004   9.287  0.0000  0.0000  0.0000
10988OM     OM110988   8.619   5.511   1.270  0.0000  0.0000  0.0000
10989OM     OM110989   6.679   1.439   0.782  0.0000  0.0000  0.0000
10990OM     OM110990   4.719   5.165   9.455  0.0000  0.0000  0.0000
10991OM     OM110991   6.391   1.818   1.331  0.0000  0.0000  0.0000
10992OM     OM110992   4.169   2.003   0.588  0.0000  0.0000  0.0000
10993OM     OM110993   2.447   1.871   0.483  0.0000  0.0000  0.0000
10994OM     OM110994   6.737   9.207   0.388  0.0000  0.0000  0.0000
10995OM     OM110995   4.189   4.607   8.335  0.0000  0.0000  0.0000
10996OM     OM110996   2.330   3.233   8.688  0.0000  0.0000  0.0000
10997OM     OM110997   2.946   3.695   0.334  0.0000  0.0000  0.0000
10998OM     OM110998   0.703   7.115   9.462  0.0000  0.0000  0.0000
10999OM     OM110999   6.995   7.016   0.019  0.0000  0.0000  0.0000
11000OM     OM111000   6.829   6.846   0.164  0.0000  0.0000  0.0000
11001OM     OM111001   5.937   3.366   9.498  0.0000  0.0000  0.0000
11002OM     OM111002   5.798   3.142   9.547  0.0000  0.0000  0.0000
11003OM     OM111003   3.026   1.545   1.246  0.0000  0.0000  0.0000
11004OM     OM111004   2.890   1.634   1.037  0.0000  0.0000  0.0000
11005OM     OM111005   8.380   5.442   8.785  0.0000  0.0000  0.0000
11006OM     OM111006   3.228   7.966   8.780  0.0000  0.0000  0.0000
11007OM     OM111007   5.063   8.979   8.374  0.0000  0.0000  0.0000
11008OM     OM111008   5.275   8.825   8.340  0.0000  0.0000  0.0000
11009OM     OM111009   5.839   2.295   1.220  0.0000  0.0000  0.0000
11010OM     OM111010   2.926   6.091   8.700  0.0000  0.0000  0.0000
11011OM     OM111011   4.939   5.150   0.002  0.0000  0.0000  0.0000
11012OM     OM111012   8.235   3.963   0.522  0.0000  0.0000  0.0000
11013OM     OM111013   7.064   4.370   0.834  0.0000  0.0000  0.0000
11014OM     OM111014   7.715   6.879   1.158  0.0000  0.0000  0.0000
11015OM     OM111015   0.052   2.279   8.909  0.0000  0.0000  0.0000
11016OM     OM111016   4.394   7.806   0.582  0.0000  0.0000  0.0000
11017OM     OM111017   2.299   8.871   9.373  0.0000  0.0000  0.0000
11018OM     OM111018   6.382   0.210   9.017  0.0000  0.0000  0.0000
11019OM     OM111019   6.151   0.207   9.142  0.0000  0.0000  0.0000
11020OM     OM111020   3.021   2.976   9.397  0.0000  0.0000  0.0000
11021OM     OM111021   3.130   2.747   9.466  0.0000  0.0000  0.0000
11022OM     OM111022   4.369   8.670   0.972  0.0000  0.0000  0.0000
11023OM     OM111023   5.130   6.444   0.798  0.0000  0.0000  0.0000
11024OM     OM111024   0.803   1.805   8.919  0.0000  0.0000  0.0000
11025OM     OM111025   0.766   1.652   8.706  0.0000  0.0000  0.0000
11026OM     OM111026   7.736   8.291   0.180  0.0000  0.0000  0.0000
11027OM     OM111027   6.191   1.967   9.363  0.0000  0.0000  0.0000
11028OM     OM111028   4.462   8.899   0.437  0.0000  0.0000  0.0000
11029OM     OM111029   2.200   6.585   1.163  0.0000  0.0000  0.0000
11030OM     OM111030   2.205   6.800   1.013  0.0000  0.0000  0.0000
11031OM     OM111031   2.667   9.511   0.053  0.0000  0.0000  0.0000
11032OM     OM111032   3.905   5.476   1.413  0.0000  0.0000  0.0000
11033OM     OM111033   8.438   4.120   0.430  0.0000  0.0000  0.0000
11034OM     OM111034   3.802   4.635   9.508  0.0000  0.0000  0.0000
11035OM     OM111035   7.289   4.867   0.744  0.0000  0.0000  0.0000
11036OM     OM111036   4.345   6.047   0.691  0.0000  0.0000  0.0000
11037OM     OM111037   6.407   6.932   0.782  0.0000  0.0000  0.0000
11038OM     OM111038   7.697   9.599   9.531  0.0000  0.0000  0.0000
11039OM     OM111039   2.675   8.398   0.991  0.0000  0.0000  0.0000
11040OM     OM111040   7.646   5.943   0.869  0.0000  0.0000  0.0000
11041OM     OM111041   4.139   4.947   1.031  0.0000  0.0000  0.0000
11042OM     OM111042   4.116   4.794   1.234  0.0000  0.0000  0.0000
11043OM     OM111043   6.797   5.453   1.141  0.0000  0.0000  0.0000
11044OM     OM111044   3.559   7.254   1.286  0.0000  0.0000  0.0000
11045OM     OM111045   0.862   1.545   8.489  0.0000  0.0000  0.0000
11046OM     OM111046   9.180   8.623   9.406  0.0000  0.0000  0.0000
11047OM     OM111047   9.359   8.527   9.574  0.0000  0.0000  0.0000
11048OM     OM111048   7.668   7.411   9.347  0.0000  0.0000  0.0000
11049OM     OM111049   2.687   4.374   1.164  0.0000  0.0000  0.0000
11050OM     OM111050   7.237   6.027   0.121  0.0000  0.0000  0.0000
11051OM     OM111051   6.466   4.055   0.494  0.0000  0.0000  0.0000
11052OM     OM111052   5.579   2.297   1.197  0.0000  0.0000  0.0000
11053OM     OM111053   5.290   5.507   0.710  0.0000  0.0000  0.0000
11054OM     OM111054   5.162   7.919   0.117  0.0000  0.0000  0.0000
11055OM     OM111055   4.959   7.842   9.573  0.0000  0.0000  0.0000
11056OM     OM111056   0.236   2.860   0.543  0.0000  0.0000  0.0000
11057OM     OM111057   1.698   1.762   0.559  0.0000  0.0000  0.0000
11058OM     OM111058   6.397   2.804   0.123  0.0000  0.0000  0.0000
11059OM     OM111059   7.894   5.398   1.018  0.0000  0.0000  0.0000
11060OM     OM111060   5.916   6.385   9.458  0.0000  0.0000  0.0000
11061OM     OM111061   5.790   6.170   9.549  0.0000  0.0000  0.0000
11062OM     OM111062   3.198   4.908   8.398  0.0000  0.0000  0.0000
11063OM     OM111063   4.077   7.116   0.376  0.0000  0.0000  0.0000
11064OM     OM111064   8.353   1.769   0.697  0.0000  0.0000  0.0000
11065OM     OM111065   9.142   0.695   9.339  0.0000  0.0000  0.0000
11066OM     OM111066   6.554   1.233   0.898  0.0000  0.0000  0.0000
11067OM     OM111067   1.745   3.334   9.456  0.0000  0.0000  0.0000
11068OM     OM111068   1.046   7.727   9.268  0.0000  0.0000  0.0000
11069OM     OM111069   6.715   2.522   1.305  0.0000  0.0000  0.0000
11070OM     OM111070   1.916   0.796   1.051  0.0000  0.0000  0.0000
11071OM     OM111071   1.064   5.373   0.208  0.0000  0.0000  0.0000
11072OM     OM111072   4.944   5.093   0.251  0.0000  0.0000  0.0000
11073OM     OM111073   4.806   5.044   0.472  0.0000  0.0000  0.0000
11074OM     OM111074   8.487   8.592   9.054  0.0000  0.0000  0.0000
11075OM     OM111075   3.962   0.496   8.328  0.0000  0.0000  0.0000
11076OM     OM111076   8.169   9.534   0.566  0.0000  0.0000  0.0000
11077OM     OM111077   5.603   4.094   0.804  0.0000  0.0000  0.0000
11078OM     OM111078   4.003   5.132   8.476  0.0000  0.0000  0.0000
11079OM     OM111079   1.100   5.369   0.461  0.0000  0.0000  0.0000
11080OM     OM111080   1.312   5.418   0.327  0.0000  0.0000  0.0000
11081OM     OM111081   0.777   0.388   8.300  0.0000  0.0000  0.0000
11082OM     OM111082   7.230   0.506   9.021  0.0000  0.0000  0.0000
11083OM     OM111083   3.927   1.924   0.633  0.0000  0.0000  0.0000
11084OM     OM111084   0.818   7.065   8.692  0.0000  0.0000  0.0000
11085OM     OM111085   6.619   1.930   8.715  0.0000  0.0000  0.0000
11086OM     OM111086   0.409   7.858   0.758  0.0000  0.0000  0.0000
11087OM     OM111087   1.650   0.270   9.600  0.0000  0.0000  0.0000
11088OM     OM111088   3.764   5.635   9.458  0.0000  0.0000  0.0000
11089OM     OM111089   0.991   6.892   0.195  0.0000  0.0000  0.0000
11090OM     OM111090   1.240   6.964   0.180  0.0000  0.0000  0.0000
11091OM     OM111091   7.520   1.997   0.870  0.0000  0.0000  0.0000
11092OM     OM111092   7.545   9.522   1.250  0.0000  0.0000  0.0000
11093OM     OM111093   3.827   6.363   9.567  0.0000  0.0000  0.0000
11094OM     OM111094   4.261   4.376   9.249  0.0000  0.0000  0.0000
11095OM     OM111095   0.919   7.895   1.048  0.0000  0.0000  0.0000
11096OM     OM111096   6.828   3.083   0.527  0.0000  0.0000  0.0000
11097OM     OM111097   0.956   7.894   1.298  0.0000  0.0000  0.0000
11098OM     OM111098   3.132   2.499   9.372  0.0000  0.0000  0.0000
11099OM     OM111099   8.474   4.087   0.173  0.0000  0.0000  0.0000
11100OM     OM111100   3.486   7.667   0.653  0.0000  0.0000  0.0000
11101OM     OM111101   5.434   4.901   0.767  0.0000  0.0000  0.0000
11102OM     OM111102   5.425   4.985   0.517  0.0000  0.0000  0.0000
11103OM     OM111103   7.638   3.197   0.319  0.0000  0.0000  0.0000
11104OM     OM111104   8.264   8.677   9.201  0.0000  0.0000  0.0000
11105OM     OM111105   4.576   9.300   1.099  0.0000  0.0000  0.0000
11106OM     OM111106   9.580   4.969   8.718  0.0000  0.0000  0.0000
11107OM     OM111107   7.176   3.183   8.804  0.0000  0.0000  0.0000
11108OM     OM111108   9.518   8.343   0.052  0.0000  0.0000  0.0000
11109OM     OM111109   7.803   2.535   0.460  0.0000  0.0000  0.0000
11110OM     OM111110   3.863   4.827   1.174  0.0000  0.0000  0.0000
11111OM     OM111111   6.417   2.084   9.434  0.0000  0.0000  0.0000
11112OM     OM111112   1.929   3.174   9.582  0.0000  0.0000  0.0000
11113OM     OM111113   7.691   9.367   1.121  0.0000  0.0000  0.0000
11114OM     OM111114   2.548   1.620   9.445  0.0000  0.0000  0.0000
11115OM     OM111115   5.126   7.673   0.176  0.0000  0.0000  0.0000
11116OM     OM111116   2.437   4.282   1.162  0.0000  0.0000  0.0000
11117OM     OM111117   7.677   8.766   9.475  0.0000  0.0000  0.0000
11118OM     OM111118   0.084   1.738   9.449  0.0000  0.0000  0.0000
11119OM     OM111119   8.698   2.765   0.389  0.0000  0.0000  0.0000
11120OM     OM111120   5.270   4.907   0.325  0.0000  0.0000  0.0000
11121OM     OM111121   1.997   1.000   0.905  0.0000  0.0000  0.0000
11122OM     OM111122   4.702   7.820   9.590  0.0000  0.0000  0.0000
11123OM     OM111123   1.447   1.476   9.586  0.0000  0.0000  0.0000
11124OM     OM111124   5.425   4.782   1.004  0.0000  0.0000  0.0000
11125OM     OM111125   9.201   5.888   1.098  0.0000  0.0000  0.0000
11126OM     OM111126   6.160   3.685   8.712  0.0000  0.0000  0.0000
11127OM     OM111127   3.717   8.287   9.262  0.0000  0.0000  0.0000
11128OM     OM111128   2.847   7.807   0.953  0.0000  0.0000  0.0000
11129OM     OM111129   2.048   8.908   9.445  0.0000  0.0000  0.0000
11130OM     OM111130   0.560   7.093   8.679  0.0000  0.0000  0.0000
11131OM     OM111131   0.765   5.858   8.735  0.0000  0.0000  0.0000
11132OM     OM111132   0.735   5.949   8.971  0.0000  0.0000  0.0000
11133OM     OM111133   0.869   2.851   0.354  0.0000  0.0000  0.0000
11134OM     OM111134   8.159   1.617   0.598  0.0000  0.0000  0.0000
11135OM     OM111135   5.914   0.328   9.154  0.0000  0.0000  0.0000
11136OM     OM111136   4.314   1.383   8.916  0.0000  0.0000  0.0000
11137OM     OM111137   1.222   2.321   1.369  0.0000  0.0000  0.0000
11138OM     OM111138   8.555   4.458   8.136  0.0000  0.0000  0.0000
11139OM     OM111139   6.688   8.632   8.289  0.0000  0.0000  0.0000
11140OM     OM111140   6.200   6.068   1.300  0.0000  0.0000  0.0000
11141OM     OM111141   0.902   3.552   8.200  0.0000  0.0000  0.0000
11142OM     OM111142   0.294   5.456   1.394  0.0000  0.0000  0.0000
11143OM     OM111143   5.912   8.263   1.353  0.0000  0.0000  0.0000
11144OM     OM111144   8.061   1.816   8.307  0.0000  0.0000  0.0000
11145OM     OM111145   0.303   7.198   8.334  0.0000  0.0000  0.0000
11146OM     OM111146   9.119   0.359   8.188  0.0000  0.0000  0.0000
11147OM     OM111147   7.381   2.688   8.290  0.0000  0.0000  0.0000
11148OM     OM111148   2.950   8.382   1.298  0.0000  0.0000  0.0000
11149OM     OM111149   2.739   8.336   8.194  0.0000  0.0000  0.0000
11150OM     OM111150   3.340   7.778   1.252  0.0000  0.0000  0.0000
11151OM     OM111151   1.614   7.140   1.313  0.0000  0.0000  0.0000
11152OM     OM111152   6.262   1.142   8.343  0.0000  0.0000  0.0000
11153OM     OM111153   4.843   8.924   8.154  0.0000  0.0000  0.0000
11154OM     OM111154   7.303   1.964   1.237  0.0000  0.0000  0.0000
11155OM     OM111155   7.909   8.007   8.171  0.0000  0.0000  0.0000
11156OM     OM111156   7.788   4.964   8.437  0.0000  0.0000  0.0000
11157OM     OM111157   0.222   5.899   8.296  0.0000  0.0000  0.0000
11158OM     OM111158   0.832   2.524   1.330  0.0000  0.0000  0.0000
11159OM     OM111159   4.204   2.517   8.212  0.0000  0.0000  0.0000
11160OM     OM111160   6.446   8.236   8.383  0.0000  0.0000  0.0000
11161OM     OM111161   9.496   9.010   1.403  0.0000  0.0000  0.0000
11162OM     OM111162   9.378   7.568   1.381  0.0000  0.0000  0.0000
11163OM     OM111163   8.834   1.502   1.316  0.0000  0.0000  0.0000
11164OM     OM111164   0.764   8.446   1.241  0.0000  0.0000  0.0000
11165OM     OM111165   2.173   7.191   1.493  0.0000  0.0000  0.0000
11166OM     OM111166   5.382   0.317   8.353  0.0000  0.0000  0.0000
11167OM     OM111167   1.617   0.702   1.431  0.0000  0.0000  0.0000
11168OM     OM111168   1.751   1.612   1.406  0.0000  0.0000  0.0000
11169OM     OM111169   4.061   8.881   1.389  0.0000  0.0000  0.0000
11170OM     OM111170   4.967   3.434   1.304  0.0000  0.0000  0.0000
11171OM     OM111171   1.241   2.029   1.421  0.0000  0.0000  0.0000
11172OM     OM111172   1.717   5.593   8.173  0.0000  0.0000  0.0000
11173OM     OM111173   7.966   6.973   8.203  0.0000  0.0000  0.0000
11174OM     OM111174   6.681   9.323   8.416  0.0000  0.0000  0.0000
11175OM     OM111175   2.881   6.761   1.320  0.0000  0.0000  0.0000
11176OM     OM111176   6.394   6.644   1.357  0.0000  0.0000  0.0000
11177OM     OM111177   8.209   6.267   8.322  0.0000  0.0000  0.0000
11178OM     OM111178   6.335   2.714   8.249  0.0000  0.0000  0.0000
11179OM     OM111179   9.032   1.861   8.214  0.0000  0.0000  0.0000
11180OM     OM111180   1.910   2.973   8.158  0.0000  0.0000  0.0000
11181OM     OM111181   6.064   8.605   1.233  0.0000  0.0000  0.0000
11182OM     OM111182   5.632   2.405   8.180  0.0000  0.0000  0.0000
11183OM     OM111183   7.025   1.132   8.253  0.0000  0.0000  0.0000
11184OM     OM111184   4.092   3.403   8.391  0.0000  0.0000  0.0000
11185OM     OM111185   5.874   2.531   8.214  0.0000  0.0000  0.0000
11186OM     OM111186   3.085   2.819   8.358  0.0000  0.0000  0.0000
11187OM     OM111187   6.541   2.613   1.306  0.0000  0.0000  0.0000
11188OM     OM111188   3.452   0.389   8.235  0.0000  0.0000  0.0000
11189OM     OM111189   8.726   1.907   1.282  0.0000  0.0000  0.0000
11190OM     OM111190   1.068   1.198   1.306  0.0000  0.0000  0.0000
11191OM     OM111191   4.160   4.151   1.345  0.0000  0.0000  0.0000
11192OM     OM111192   2.614   7.293   8.374  0.0000  0.0000  0.0000
11193OM     OM111193   4.479   8.007   1.475  0.0000  0.0000  0.0000
11194OM     OM111194   4.061   1.280   8.288  0.0000  0.0000  0.0000
11195OM     OM111195   4.114   0.676   1.414  0.0000  0.0000  0.0000
11196OM     OM111196   6.505   3.979   8.232  0.0000  0.0000  0.0000
11197OM     OM111197   2.061   1.372   1.212  0.0000  0.0000  0.0000
11198OM     OM111198   7.662   7.527   8.198  0.0000  0.0000  0.0000
11199OM     OM111199   0.324   6.867   1.287  0.0000  0.0000  0.0000
11200OM     OM111200   1.863   3.882   8.384  0.0000  0.0000  0.0000
11201OM     OM111201   7.395   2.803   1.288  0.0000  0.0000  0.0000
11202OM     OM111202   8.702   4.982   8.312  0.0000  0.0000  0.0000
11203OM     OM111203   6.315   5.415   1.341  0.0000  0.0000  0.0000
11204OM     OM111204   4.008   3.921   8.357  0.0000  0.0000  0.0000
11205OM     OM111205   1.909   6.983   8.270  0.0000  0.0000  0.0000
11206OM     OM111206   1.377   4.109   1.428  0.0000  0.0000  0.0000
11207OM     OM111207   7.882   9.527   8.385  0.0000  0.0000  0.0000
11208OM     OM111208   3.213   2.212   1.373  0.0000  0.0000  0.0000
11209OM     OM111209   8.764   3.437   1.425  0.0000  0.0000  0.0000
11210OM     OM111210   7.842   2.157   1.299  0.0000  0.0000  0.0000
11211OM     OM111211   1.954   2.792   8.290  0.0000  0.0000  0.0000
11212OM     OM111212   3.467   3.571   1.440  0.0000  0.0000  0.0000
11213OM     OM111213   6.955   6.279   1.179  0.0000  0.0000  0.0000
11214OM     OM111214   6.076   9.345   8.423  0.0000  0.0000  0.0000
11215OM     OM111215   2.236   4.075   8.153  0.0000  0.0000  0.0000
11216OM     OM111216   7.963   4.650   1.382  0.0000  0.0000  0.0000
11217OM     OM111217   0.439   6.486   8.260  0.0000  0.0000  0.0000
11218OM     OM111218   5.591   1.826   1.351  0.0000  0.0000  0.0000
11219OM     OM111219   9.303   1.353   8.333  0.0000  0.0000  0.0000
11220OM     OM111220   4.671   6.330   8.239  0.0000  0.0000  0.0000
11221OM     OM111221   7.384   9.001   1.405  0.0000  0.0000  0.0000
11222OM     OM111222   0.431   0.940   8.209  0.0000  0.0000  0.0000
11223OM     OM111223   7.806   8.408   8.121  0.0000  0.0000  0.0000
11224OM     OM111224   9.239   5.858   8.422  0.0000  0.0000  0.0000
11225OM     OM111225   2.752   4.609   1.331  0.0000  0.0000  0.0000
11226OM     OM111226   2.841   7.572   1.194  0.0000  0.0000  0.0000
11227OM     OM111227   4.799   5.375   8.212  0.0000  0.0000  0.0000
11228OM     OM111228   4.632   0.817   8.230  0.0000  0.0000  0.0000
11229OM     OM111229   3.708   7.409   1.272  0.0000  0.0000  0.0000
11230OM     OM111230   2.315   0.873   1.309  0.0000  0.0000  0.0000
11231OM     OM111231   3.784   1.531   1.443  0.0000  0.0000  0.0000
11232OM     OM111232   0.688   7.964   8.315  0.0000  0.0000  0.0000
11233OM     OM111233   9.519   2.069   8.262  0.0000  0.0000  0.0000
11234OM     OM111234   5.201   7.798   1.381  0.0000  0.0000  0.0000
11235OM     OM111235   6.069   4.353   8.244  0.0000  0.0000  0.0000
11236OM     OM111236   4.723   4.602   8.282  0.0000  0.0000  0.0000
11237OM     OM111237   6.218   1.709   8.338  0.0000  0.0000  0.0000
11238OM     OM111238   4.448   1.284   1.415  0.0000  0.0000  0.0000
11239OM     OM111239   0.531   2.108   8.307  0.0000  0.0000  0.0000
11240OM     OM111240   7.910   3.638   1.398  0.0000  0.0000  0.0000
11241OM     OM111241   3.780   5.050   1.266  0.0000  0.0000  0.0000
11242OM     OM111242   0.950   2.009   8.165  0.0000  0.0000  0.0000
11243OM     OM111243   9.156   4.048   1.315  0.0000  0.0000  0.0000
11244OM     OM111244   0.551   1.852   8.312  0.0000  0.0000  0.0000
11245OM     OM111245   5.780   6.210   8.289  0.0000  0.0000  0.0000
11246OM     OM111246   7.586   0.750   8.186  0.0000  0.0000  0.0000
11247OM     OM111247   3.541   8.050   8.186  0.0000  0.0000  0.0000
11248OM     OM111248   1.620   2.500   8.398  0.0000  0.0000  0.0000
11249OM     OM111249   4.075   5.847   1.389  0.0000  0.0000  0.0000
11250OM     OM111250   9.377   2.993   8.359  0.0000  0.0000  0.0000
11251OM     OM111251   2.597   3.762   8.215  0.0000  0.0000  0.0000
11252OM     OM111252   5.420   8.629   1.336  0.0000  0.0000  0.0000
11253OM     OM111253   7.385   7.859   1.249  0.0000  0.0000  0.0000
11254OM     OM111254   8.094   9.241   1.364  0.0000  0.0000  0.0000
11255OM     OM111255   1.244   8.536   1.403  0.0000  0.0000  0.0000
11256OM     OM111256   2.195   1.543   8.248  0.0000  0.0000  0.0000
11257OM     OM111257   1.627   9.232   1.394  0.0000  0.0000  0.0000
11258OM     OM111258   7.942   0.696   1.450  0.0000  0.0000  0.0000
11259OM     OM111259   5.442   5.573   1.345  0.0000  0.0000  0.0000
11260OM     OM111260   3.923   4.547   8.143  0.0000  0.0000  0.0000
11261OM     OM111261   7.910   1.071   1.171  0.0000  0.0000  0.0000
11262OM     OM111262   4.120   2.844   1.313  0.0000  0.0000  0.0000
11263OM     OM111263   6.937   8.067   8.186  0.0000  0.0000  0.0000
11264OM     OM111264   3.014   6.310   1.380  0.0000  0.0000  0.0000
11265OM     OM111265   9.537   4.385   1.425  0.0000  0.0000  0.0000
11266OM     OM111266   4.301   3.769   1.227  0.0000  0.0000  0.0000
11267OM     OM111267   4.538   4.298   1.320  0.0000  0.0000  0.0000
11268OM     OM111268   9.305   7.177   8.288  0.0000  0.0000  0.0000
11269OM     OM111269   1.992   2.840   1.316  0.0000  0.0000  0.0000
11270OM     OM111270   1.081   9.283   8.245  0.0000  0.0000  0.0000
11271OM     OM111271   7.220   0.542   1.445  0.0000  0.0000  0.0000
11272OM     OM111272   6.252   0.246   8.317  0.0000  0.0000  0.0000
11273OM     OM111273   6.385   7.664   8.223  0.0000  0.0000  0.0000
11274OM     OM111274   7.572   5.541   8.246  0.0000  0.0000  0.0000
11275OM     OM111275   0.153   5.595   8.240  0.0000  0.0000  0.0000
11276OM     OM111276   4.496   8.381   8.180  0.0000  0.0000  0.0000
11277OM     OM111277   4.020   8.059   1.331  0.0000  0.0000  0.0000
11278OM     OM111278   1.602   2.230   8.203  0.0000  0.0000  0.0000
11279OM     OM111279   8.091   4.231   8.312  0.0000  0.0000  0.0000
11280OM     OM111280   6.392   7.407   1.420  0.0000  0.0000  0.0000
11281OM     OM111281   0.583   4.182   8.284  0.0000  0.0000  0.0000
11282OM     OM111282   8.536   5.703   1.339  0.0000  0.0000  0.0000
11283OM     OM111283   4.826   7.477   8.351  0.0000  0.0000  0.0000
11284OM     OM111284   6.410   0.764   1.277  0.0000  0.0000  0.0000
11285OM     OM111285   2.713   0.770   8.241  0.0000  0.0000  0.0000
11286OM     OM111286   1.928   5.792   1.267  0.0000  0.0000  0.0000
11287OM     OM111287   4.243   4.658   1.378  0.0000  0.0000  0.0000
11288OM     OM111288   2.291   4.638   1.281  0.0000  0.0000  0.0000
11289OM     OM111289   2.169   3.524   8.246  0.0000  0.0000  0.0000
11290OM     OM111290   8.536   7.139   1.233  0.0000  0.0000  0.0000
11291OM     OM111291   9.271   3.691   1.203  0.0000  0.0000  0.0000
11292OM     OM111292   7.288   3.283   1.206  0.0000  0.0000  0.0000
11293OM     OM111293   5.177   0.349   8.292  0.0000  0.0000  0.0000
11294OM     OM111294   0.198   1.386   1.318  0.0000  0.0000  0.0000
11295OM     OM111295   2.648   9.308   8.258  0.0000  0.0000  0.0000
11296OM     OM111296   4.533   7.412   1.381  0.0000  0.0000  0.0000
11297OM     OM111297   9.287   4.818   1.297  0.0000  0.0000  0.0000
11298OM     OM111298   6.792   4.116   1.430  0.0000  0.0000  0.0000
11299OM     OM111299   0.380   4.011   1.450  0.0000  0.0000  0.0000
11300OM     OM111300   7.746   6.323   8.315  0.0000  0.0000  0.0000
11301OM     OM111301   4.684   7.513   1.281  0.0000  0.0000  0.0000
11302OM     OM111302   4.594   1.763   1.395  0.0000  0.0000  0.0000
11303OM     OM111303   5.039   2.148   8.114  0.0000  0.0000  0.0000
11304OM     OM111304   8.891   0.109   8.318  0.0000  0.0000  0.0000
11305OM     OM111305   3.445   4.670   8.126  0.0000  0.0000  0.0000
11306OM     OM111306   8.299   0.282   8.258  0.0000  0.0000  0.0000
11307OM     OM111307   8.403   0.835   8.172  0.0000  0.0000  0.0000
11308OM     OM111308   3.561   1.490   1.319  0.0000  0.0000  0.0000
11309OM     OM111309   4.264   6.613   1.448  0.0000  0.0000  0.0000
11310OM     OM111310   8.677   8.873   1.416  0.0000  0.0000  0.0000
11311OM     OM111311   0.258   1.752   1.323  0.0000  0.0000  0.0000
11312OM     OM111312   0.855   8.330   8.148  0.0000  0.0000  0.0000
11313OM     OM111313   5.686   7.709   1.441  0.0000  0.0000  0.0000
11314OM     OM111314   1.206   8.520   8.236  0.0000  0.0000  0.0000
11315OM     OM111315   1.333   1.232   1.457  0.0000  0.0000  0.0000
11316OM     OM111316   1.627   5.256   1.323  0.0000  0.0000  0.0000
11317OM     OM111317   3.591   0.455   1.468  0.0000  0.0000  0.0000
11318OM     OM111318   8.766   1.107   1.438  0.0000  0.0000  0.0000
11319OM     OM111319   7.249   1.672   8.218  0.0000  0.0000  0.0000
11320OM     OM111320   9.231   7.717   1.422  0.0000  0.0000  0.0000
11321OM     OM111321   9.041   4.898   1.440  0.0000  0.0000  0.0000
11322OM     OM111322   6.375   6.569   8.350  0.0000  0.0000  0.0000
11323OM     OM111323   1.090   7.045   8.150  0.0000  0.0000  0.0000
11324OM     OM111324   3.623   2.782   8.150  0.0000  0.0000  0.0000
11325OM     OM111325   5.974   7.206   8.147  0.0000  0.0000  0.0000
11326OM     OM111326   6.545   3.027   1.383  0.0000  0.0000  0.0000
11327OM     OM111327   0.250   3.774   8.319  0.0000  0.0000  0.0000
11328OM     OM111328   7.416   8.858   8.235  0.0000  0.0000  0.0000
11329OM     OM111329   1.585   5.003   1.449  0.0000  0.0000  0.0000
11330OM     OM111330   7.131   3.851   1.429  0.0000  0.0000  0.0000
11331OM     OM111331   0.937   6.167   1.408  0.0000  0.0000  0.0000
11332OM     OM111332   3.084   1.964   1.447  0.0000  0.0000  0.0000
11333OM     OM111333   6.039   3.446   1.501  0.0000  0.0000  0.0000
11334OM     OM111334   1.173   4.623   1.332  0.0000  0.0000  0.0000
11335OM     OM111335   7.028   9.333   8.203  0.0000  0.0000  0.0000
11336OM     OM111336   8.299   4.171   1.304  0.0000  0.0000  0.0000
11337OM     OM111337   7.953   1.846   8.140  0.0000  0.0000  0.0000
11338OM     OM111338   5.399   0.974   8.259  0.0000  0.0000  0.0000
11339OM     OM111339   7.995   7.766   1.341  0.0000  0.0000  0.0000
11340OM     OM111340   3.486   2.346   1.393  0.0000  0.0000  0.0000
11341OM     OM111341   9.319   7.395   8.172  0.0000  0.0000  0.0000
11342OM     OM111342   8.404   0.545   1.314  0.0000  0.0000  0.0000
11343OM     OM111343   8.838   0.752   8.394  0.0000  0.0000  0.0000
11344OM     OM111344   5.030   1.718   1.443  0.0000  0.0000  0.0000
11345OM     OM111345   5.889   2.020   8.178  0.0000  0.0000  0.0000
11346OM     OM111346   0.660   2.732   8.236  0.0000  0.0000  0.0000
11347OM     OM111347   7.542   2.156   8.143  0.0000  0.0000  0.0000
11348OM     OM111348   2.423   7.452   8.169  0.0000  0.0000  0.0000
11349OM     OM111349   0.923   3.251   1.175  0.0000  0.0000  0.0000
11350OM     OM111350   0.321   0.732   8.303  0.0000  0.0000  0.0000
11351OM     OM111351   7.287   8.553   1.149  0.0000  0.0000  0.0000
11352OM     OM111352   2.673   5.449   1.395  0.0000  0.0000  0.0000
11353OM     OM111353   5.329   4.335   1.316  0.0000  0.0000  0.0000
11354OM     OM111354   3.794   3.268   8.197  0.0000  0.0000  0.0000
11355OM     OM111355   2.415   8.809   8.364  0.0000  0.0000  0.0000
11356OM     OM111356   1.180   6.744   8.121  0.0000  0.0000  0.0000
11357OM     OM111357   2.028   6.538   1.413  0.0000  0.0000  0.0000
11358OM     OM111358   8.668   6.536   1.288  0.0000  0.0000  0.0000
11359OM     OM111359   0.380   2.064   1.384  0.0000  0.0000  0.0000
11360OM     OM111360   5.249   3.807   1.395  0.0000  0.0000  0.0000
11361OM     OM111361   4.564   9.133   8.298  0.0000  0.0000  0.0000
11362OM     OM111362   2.289   4.607   8.167  0.0000  0.0000  0.0000
11363OM     OM111363   8.460   2.410   8.309  0.0000  0.0000  0.0000
11364OM     OM111364   2.998   8.055   8.126  0.0000  0.0000  0.0000
11365OM     OM111365   8.457   7.053   8.302  0.0000  0.0000  0.0000
11366OM     OM111366   6.510   7.019   8.267  0.0000  0.0000  0.0000
11367OM     OM111367   2.951   9.446   1.415  0.0000  0.0000  0.0000
11368OM     OM111368   7.042   6.888   8.261  0.0000  0.0000  0.0000
11369OM     OM111369   3.666   4.409   1.382  0.0000  0.0000  0.0000
11370OM     OM111370   0.739   8.886   1.458  0.0000  0.0000  0.0000
11371OM     OM111371   1.893   7.909   1.306  0.0000  0.0000  0.0000
11372OM     OM111372   2.943   0.143   1.232  0.0000  0.0000  0.0000
11373OM     OM111373   5.385   8.360   8.239  0.0000  0.0000  0.0000
11374OM     OM111374   4.925   6.244   8.349  0.0000  0.0000  0.0000
11375OM     OM111375   4.878   5.456   1.287  0.0000  0.0000  0.0000
11376OM     OM111376   0.942   2.822   1.419  0.0000  0.0000  0.0000
11377OM     OM111377   5.818   4.038   8.411  0.0000  0.0000  0.0000
11378OM     OM111378   5.550   1.254   8.272  0.0000  0.0000  0.0000
11379OM     OM111379   7.157   1.270   1.358  0.0000  0.0000  0.0000
11380OM     OM111380   5.568   6.420   8.271  0.0000  0.0000  0.0000
11381OM     OM111381   5.463   5.592   8.268  0.0000  0.0000  0.0000
11382OM     OM111382   3.262   6.019   1.460  0.0000  0.0000  0.0000
11383OM     OM111383   5.889   1.040   1.446  0.0000  0.0000  0.0000
11384OM     OM111384   2.363   9.181   1.340  0.0000  0.0000  0.0000
11385OM     OM111385   4.519   2.323   8.190  0.0000  0.0000  0.0000
11386OM     OM111386   2.500   0.172   1.193  0.0000  0.0000  0.0000
11387OM     OM111387   6.590   1.016   1.395  0.0000  0.0000  0.0000
11388OM     OM111388   4.111   5.227   8.205  0.0000  0.0000  0.0000
11389OM     OM111389   6.478   6.049   8.289  0.0000  0.0000  0.0000
11390OM     OM111390   8.386   5.323   8.298  0.0000  0.0000  0.0000
11391OM     OM111391   3.516   8.687   1.466  0.0000  0.0000  0.0000
11392OM     OM111392   3.847   1.479   8.315  0.0000  0.0000  0.0000
11393OM     OM111393   5.424   6.909   1.442  0.0000  0.0000  0.0000
11394OM     OM111394   3.456   1.012   1.357  0.0000  0.0000  0.0000
11395OM     OM111395   1.659   7.444   8.332  0.0000  0.0000  0.0000
11396OM     OM111396   8.069   4.150   1.510  0.0000  0.0000  0.0000
11397OM     OM111397   4.525   0.544   8.122  0.0000  0.0000  0.0000
11398OM     OM111398   3.586   9.175   8.258  0.0000  0.0000  0.0000
11399OM     OM111399   6.713   1.250   1.459  0.0000  0.0000  0.0000
11400OM     OM111400   9.300   4.145   8.282  0.0000  0.0000  0.0000
11401OM     OM111401   4.543   5.476   1.210  0.0000  0.0000  0.0000
11402OM     OM111402   3.931   6.775   8.175  0.0000  0.0000  0.0000
11403OM     OM111403   1.136   4.286   1.491  0.0000  0.0000  0.0000
11404OM     OM111404   5.110   6.606   1.300  0.0000  0.0000  0.0000
11405OM     OM111405   0.662   9.323   1.360  0.0000  0.0000  0.0000
11406OM     OM111406   5.563   0.448   1.332  0.0000  0.0000  0.0000
11407OM     OM111407   7.105   4.559   8.351  0.0000  0.0000  0.0000
11408OM     OM111408   0.341   2.856   1.352  0.0000  0.0000  0.0000
11409OM     OM111409   1.399   2.583   1.414  0.0000  0.0000  0.0000
11410OM     OM111410   5.297   7.189   8.455  0.0000  0.0000  0.0000
11411OM     OM111411   2.177   8.821   1.367  0.0000  0.0000  0.0000
11412OM     OM111412   3.300   4.070   1.276  0.0000  0.0000  0.0000
11413OM     OM111413   1.277   8.735   8.260  0.0000  0.0000  0.0000
11414OM     OM111414   4.787   5.829   8.132  0.0000  0.0000  0.0000
11415OM     OM111415   2.480   3.110   1.296  0.0000  0.0000  0.0000
11416OM     OM111416   7.644   5.210   8.321  0.0000  0.0000  0.0000
11417OM     OM111417   5.927   8.787   1.415  0.0000  0.0000  0.0000
11418OM     OM111418   3.073   1.100   8.228  0.0000  0.0000  0.0000
11419OM     OM111419   9.033   9.291   8.288  0.0000  0.0000  0.0000
11420OM     OM111420   6.641   3.506   8.231  0.0000  0.0000  0.0000
11421OM     OM111421   7.921   8.709   1.321  0.0000  0.0000  0.0000
11422OM     OM111422   9.106   8.603   1.390  0.0000  0.0000  0.0000
11423OM     OM111423   2.596   8.012   1.314  0.0000  0.0000  0.0000
11424OM     OM111424   9.247   6.757   1.311  0.0000  0.0000  0.0000
11425OM     OM111425   7.143   5.324   1.246  0.0000  0.0000  0.0000
11426OM     OM111426   2.064   7.702   1.393  0.0000  0.0000  0.0000
11427OM     OM111427   8.601   4.671   1.333  0.0000  0.0000  0.0000
11428OM     OM111428   0.250   4.996   1.325  0.0000  0.0000  0.0000
11429OM     OM111429   6.037   3.905   1.338  0.0000  0.0000  0.0000
11430OM     OM111430   5.474   6.158   1.262  0.0000  0.0000  0.0000
11431OM     OM111431   3.381   2.982   0.977  0.0000  0.0000  0.0000
11432OM     OM111432   8.626   7.576   1.375  0.0000  0.0000  0.0000
11433OM     OM111433   0.622   8.810   8.196  0.0000  0.0000  0.0000
11434OM     OM111434   5.159   4.849   8.315  0.0000  0.0000  0.0000
11435OM     OM111435   8.054   7.582   1.229  0.0000  0.0000  0.0000
11436OM     OM111436   8.493   8.294   8.235  0.0000  0.0000  0.0000
11437OM     OM111437   3.919   8.598   8.176  0.0000  0.0000  0.0000
11438OM     OM111438   6.404   4.521   1.343  0.0000  0.0000  0.0000
11439OM     OM111439   7.704   6.716   1.326  0.0000  0.0000  0.0000
11440OM     OM111440   8.211   5.906   1.392  0.0000  0.0000  0.0000
11441OM     OM111441   8.237   1.375   1.340  0.0000  0.0000  0.0000
11442OM     OM111442   1.936   0.260   8.201  0.0000  0.0000  0.0000
11443OM     OM111443   0.309   5.989   1.378  0.0000  0.0000  0.0000
11444OM     OM111444   7.780   8.030   1.331  0.0000  0.0000  0.0000
11445OM     OM111445   5.993   8.910   8.277  0.0000  0.0000  0.0000
11446OM     OM111446   8.772   3.456   8.327  0.0000  0.0000  0.0000
11447OM     OM111447   2.673   3.632   1.384  0.0000  0.0000  0.0000
11448OM     OM111448   1.658   2.039   8.177  0.0000  0.0000  0.0000
11449OM     OM111449   3.071   3.660   8.319  0.0000  0.0000  0.0000
11450OM     OM111450   3.099   4.968   1.319  0.0000  0.0000  0.0000
11451OM     OM111451   6.978   6.416   1.406  0.0000  0.0000  0.0000
11452OM     OM111452   7.238   2.888   8.218  0.0000  0.0000  0.0000
11453OM     OM111453   7.977   2.483   8.196  0.0000  0.0000  0.0000
11454OM     OM111454   8.006   4.035   8.148  0.0000  0.0000  0.0000
11455OM     OM111455   8.850   5.365   1.229  0.0000  0.0000  0.0000
11456OM     OM111456   0.220   3.606   1.308  0.0000  0.0000  0.0000
11457OM     OM111457   3.798   4.093   8.224  0.0000  0.0000  0.0000
11458OM     OM111458   2.807   0.532   8.230  0.0000  0.0000  0.0000
11459OM     OM111459   6.177   1.886   1.270  0.0000  0.0000  0.0000
11460OM     OM111460   4.459   9.454   8.231  0.0000  0.0000  0.0000
11461OM     OM111461   0.763   5.281   8.390  0.0000  0.0000  0.0000
11462OM     OM111462   3.108   3.600   1.047  0.0000  0.0000  0.0000
11463OM     OM111463   7.811   2.690   1.282  0.0000  0.0000  0.0000
11464OM     OM111464   8.683   7.690   8.310  0.0000  0.0000  0.0000
11465OM     OM111465   8.227   3.378   8.195  0.0000  0.0000  0.0000
11466OM     OM111466   5.999   1.526   8.232  0.0000  0.0000  0.0000
11467OM     OM111467   5.761   3.884   8.173  0.0000  0.0000  0.0000
11468OM     OM111468   9.029   8.555   8.358  0.0000  0.0000  0.0000
11469OM     OM111469   5.386   8.361   1.427  0.0000  0.0000  0.0000
11470OM     OM111470   2.646   5.240   8.272  0.0000  0.0000  0.0000
11471OM     OM111471   4.568   3.252   8.325  0.0000  0.0000  0.0000
11472OM     OM111472   1.034   7.228   1.326  0.0000  0.0000  0.0000
11473OM     OM111473   2.970   8.364   8.456  0.0000  0.0000  0.0000
11474OM     OM111474   5.435   9.279   1.399  0.0000  0.0000  0.0000
11475OM     OM111475   9.010   5.459   8.283  0.0000  0.0000  0.0000
11476OM     OM111476   4.075   3.336   1.393  0.0000  0.0000  0.0000
11477OM     OM111477   5.009   5.175   1.292  0.0000  0.0000  0.0000
11478OM     OM111478   5.010   3.892   8.241  0.0000  0.0000  0.0000
11479OM     OM111479   7.565   3.838   8.231  0.0000  0.0000  0.0000
11480OM     OM111480   4.410   1.781   8.432  0.0000  0.0000  0.0000
11481OM     OM111481   1.863   1.168   8.213  0.0000  0.0000  0.0000
11482OM     OM111482   1.370   9.465   1.290  0.0000  0.0000  0.0000
11483OM     OM111483   3.684   4.933   8.393  0.0000  0.0000  0.0000
11484OM     OM111484   1.934   5.937   1.415  0.0000  0.0000  0.0000
11485OM     OM111485   2.006   0.299   1.358  0.0000  0.0000  0.0000
11486OM     OM111486   5.641   5.073   8.251  0.0000  0.0000  0.0000
11487OM     OM111487   7.124   7.163   8.245  0.0000  0.0000  0.0000
11488OM     OM111488   0.926   4.922   1.445  0.0000  0.0000  0.0000
11489OM     OM111489   3.181   1.864   8.408  0.0000  0.0000  0.0000
11490OM     OM111490   0.088   9.237   8.255  0.0000  0.0000  0.0000
11491OM     OM111491   9.294   4.871   1.479  0.0000  0.0000  0.0000
11492OM     OM111492   4.867   2.676   8.217  0.0000  0.0000  0.0000
11493OM     OM111493   8.647   0.668   1.315  0.0000  0.0000  0.0000
11494OM     OM111494   4.937   9.409   1.382  0.0000  0.0000  0.0000
11495OM     OM111495   0.794   6.201   8.225  0.0000  0.0000  0.0000
11496OM     OM111496   8.061   5.479   1.358  0.0000  0.0000  0.0000
11497OM     OM111497   5.436   1.407   8.235  0.0000  0.0000  0.0000
11498OM     OM111498   2.633   6.574   8.262  0.0000  0.0000  0.0000
11499OM     OM111499   0.554   5.108   1.401  0.0000  0.0000  0.0000
11500OM     OM111500   8.106   4.846   1.418  0.0000  0.0000  0.0000
11501OM     OM111501   2.262   2.675   1.391  0.0000  0.0000  0.0000
11502OM     OM111502   5.450   4.805   1.409  0.0000  0.0000  0.0000
11503OM     OM111503   9.152   4.634   8.243  0.0000  0.0000  0.0000
11504OM     OM111504   1.981   5.207   8.221  0.0000  0.0000  0.0000
11505OM     OM111505   0.836   4.633   8.233  0.0000  0.0000  0.0000
11506OM     OM111506   1.025   3.860   8.250  0.0000  0.0000  0.0000
11507OM     OM111507   6.932   5.344   8.248  0.0000  0.0000  0.0000
11508OM     OM111508   2.968   2.735   1.258  0.0000  0.0000  0.0000
11509OM     OM111509   3.316   1.355   8.314  0.0000  0.0000  0.0000
11510OM     OM111510   5.976   8.223   8.349  0.0000  0.0000  0.0000
11511OM     OM111511   4.777   4.157   8.156  0.0000  0.0000  0.0000
11512OM     OM111512   2.913   5.802   1.246  0.0000  0.0000  0.0000
11513OM     OM111513   3.404   5.949   1.302  0.0000  0.0000  0.0000
11514OM     OM111514   0.312   6.538   1.435  0.0000  0.0000  0.0000
11515OM     OM111515   5.439   8.941   8.292  0.0000  0.0000  0.0000
11516OM     OM111516   6.643   9.087   8.297  0.0000  0.0000  0.0000
11517OM     OM111517   4.899   0.512   1.322  0.0000  0.0000  0.0000
11518OM     OM111518   4.821   1.806   1.399  0.0000  0.0000  0.0000
11519OM     OM111519   2.939   4.415   8.175  0.0000  0.0000  0.0000
11520OM     OM111520   9.240   3.185   1.304  0.0000  0.0000  0.0000
11521OM     OM111521   8.153   8.797   8.387  0.0000  0.0000  0.0000
11522OM     OM111522   9.243   7.792   8.254  0.0000  0.0000  0.0000
11523OM     OM111523   5.913   3.095   8.160  0.0000  0.0000  0.0000
11524OM     OM111524   5.283   8.572   8.110  0.0000  0.0000  0.0000
11525OM     OM111525   0.655   0.275   8.207  0.0000  0.0000  0.0000
11526OM     OM111526   1.953   1.467   1.439  0.0000  0.0000  0.0000
11527OM     OM111527   5.807   5.197   1.256  0.0000  0.0000  0.0000
11528OM     OM111528   2.146   5.621   8.185  0.0000  0.0000  0.0000
11529OM     OM111529   1.377   6.524   8.192  0.0000  0.0000  0.0000
11530OM     OM111530   7.350   7.986   8.162  0.0000  0.0000  0.0000
11531OM     OM111531   0.136   2.842   8.319  0.0000  0.0000  0.0000
11532OM     OM111532   1.351   0.237   1.272  0.0000  0.0000  0.0000
11533OM     OM111533   7.388   8.454   8.147  0.0000  0.0000  0.0000
11534OM     OM111534   8.910   6.726   8.245  0.0000  0.0000  0.0000
11535OM     OM111535   1.744   7.962   8.293  0.0000  0.0000  0.0000
11536OM     OM111536   4.756   1.052   1.358  0.0000  0.0000  0.0000
11537OM     OM111537   7.314   5.639   8.190  0.0000  0.0000  0.0000
11538OM     OM111538   1.900   6.436   1.267  0.0000  0.0000  0.0000
11539OM     OM111539   4.409   2.522   1.286  0.0000  0.0000  0.0000
11540SI     SI111540   3.828   2.951   0.428  0.0000  0.0000  0.0000
11541SI     SI111541   6.126   5.549   8.914  0.0000  0.0000  0.0000
11542SI     SI111542   4.913   3.675   1.184  0.0000  0.0000  0.0000
11543SI     SI111543   8.881   4.095   9.347  0.0000  0.0000  0.0000
11544SI     SI111544   0.699   4.887   1.413  0.0000  0.0000  0.0000
11545SI     SI111545   5.800   6.900   1.166  0.0000  0.0000  0.0000
11546SI     SI111546   1.683   0.810   0.736  0.0000  0.0000  0.0000
11547SI     SI111547   8.774   6.195   0.282  0.0000  0.0000  0.0000
11548SI     SI111548   3.389   6.775   9.440  0.0000  0.0000  0.0000
11549SI     SI111549   1.312   3.075   9.568  0.0000  0.0000  0.0000
11550SI     SI111550   7.965   1.045   8.432  0.0000  0.0000  0.0000
11551SI     SI111551   1.439   8.128   9.127  0.0000  0.0000  0.0000
11552SI     SI111552   6.947   6.527   8.744  0.0000  0.0000  0.0000
11553SI     SI111553   3.847   1.109   0.140  0.0000  0.0000  0.0000
11554SI     SI111554   1.783   1.466   8.425  0.0000  0.0000  0.0000
11555SI     SI111555   4.137   4.574   0.148  0.0000  0.0000  0.0000
11556SI     SI111556   4.816   9.585   1.158  0.0000  0.0000  0.0000
11557SI     SI111557   3.645   4.078   8.705  0.0000  0.0000  0.0000
11558SI     SI111558   2.910   0.952   0.758  0.0000  0.0000  0.0000
11559SI     SI111559   5.951   1.925   0.442  0.0000  0.0000  0.0000
11560SI     SI111560   8.830   4.024   1.332  0.0000  0.0000  0.0000
11561SI     SI111561   0.323   1.479   9.200  0.0000  0.0000  0.0000
11562SI     SI111562   5.765   1.368   9.444  0.0000  0.0000  0.0000
11563SI     SI111563   0.418   3.122   0.269  0.0000  0.0000  0.0000
11564SI     SI111564   0.550   2.146   0.498  0.0000  0.0000  0.0000
11565SI     SI111565   7.549   5.127   0.360  0.0000  0.0000  0.0000
11566SI     SI111566   9.428   0.142   9.284  0.0000  0.0000  0.0000
11567SI     SI111567   4.001   2.392   9.518  0.0000  0.0000  0.0000
11568SI     SI111568   5.426   5.127   9.080  0.0000  0.0000  0.0000
11569SI     SI111569   6.024   8.697   9.095  0.0000  0.0000  0.0000
11570SI     SI111570   5.714   5.045   9.145  0.0000  0.0000  0.0000
11571SI     SI111571   1.435   5.140   1.254  0.0000  0.0000  0.0000
11572SI     SI111572   0.595   3.836   8.655  0.0000  0.0000  0.0000
11573SI     SI111573   6.213   2.270   8.448  0.0000  0.0000  0.0000
11574SI     SI111574   2.325   3.493   0.259  0.0000  0.0000  0.0000
11575SI     SI111575   7.683   1.521   0.272  0.0000  0.0000  0.0000
11576SI     SI111576   9.031   4.333   9.487  0.0000  0.0000  0.0000
11577SI     SI111577   5.092   2.824   8.826  0.0000  0.0000  0.0000
11578SI     SI111578   8.172   7.506   0.708  0.0000  0.0000  0.0000
11579SI     SI111579   1.677   1.228   8.587  0.0000  0.0000  0.0000
11580SI     SI111580   0.859   1.819   0.692  0.0000  0.0000  0.0000
11581SI     SI111581   5.849   0.144   0.944  0.0000  0.0000  0.0000
11582SI     SI111582   4.726   7.237   1.343  0.0000  0.0000  0.0000
11583SI     SI111583   5.432   6.300   0.975  0.0000  0.0000  0.0000
11584SI     SI111584   5.539   3.315   0.486  0.0000  0.0000  0.0000
11585SI     SI111585   7.278   6.570   0.208  0.0000  0.0000  0.0000
11586SI     SI111586   8.774   0.787   0.574  0.0000  0.0000  0.0000
11587SI     SI111587   7.206   3.448   9.133  0.0000  0.0000  0.0000
11588SI     SI111588   3.381   3.708   0.816  0.0000  0.0000  0.0000
11589SI     SI111589   2.416   2.616   1.046  0.0000  0.0000  0.0000
11590SI     SI111590   3.393   7.945   0.368  0.0000  0.0000  0.0000
11591SI     SI111591   7.418   5.035   9.481  0.0000  0.0000  0.0000
11592SI     SI111592   8.015   1.468   8.654  0.0000  0.0000  0.0000
11593SI     SI111593   6.294   3.373   0.021  0.0000  0.0000  0.0000
11594SI     SI111594   7.023   0.525   0.795  0.0000  0.0000  0.0000
11595SI     SI111595   6.151   0.620   0.522  0.0000  0.0000  0.0000
11596SI     SI111596   3.552   1.314   8.304  0.0000  0.0000  0.0000
11597SI     SI111597   8.664   5.957   9.108  0.0000  0.0000  0.0000
11598SI     SI111598   8.169   5.177   0.867  0.0000  0.0000  0.0000
11599SI     SI111599   6.333   1.534   8.997  0.0000  0.0000  0.0000
11600SI     SI111600   9.174   6.861   8.389  0.0000  0.0000  0.0000
11601SI     SI111601   7.989   2.595   9.269  0.0000  0.0000  0.0000
11602SI     SI111602   9.236   6.066   9.228  0.0000  0.0000  0.0000
11603SI     SI111603   8.645   2.641   8.405  0.0000  0.0000  0.0000
11604SI     SI111604   5.358   3.641   0.783  0.0000  0.0000  0.0000
11605SI     SI111605   7.655   1.210   9.094  0.0000  0.0000  0.0000
11606SI     SI111606   7.049   3.466   1.252  0.0000  0.0000  0.0000
11607SI     SI111607   6.913   6.111   0.542  0.0000  0.0000  0.0000
11608SI     SI111608   8.816   7.576   9.324  0.0000  0.0000  0.0000
11609SI     SI111609   3.097   1.541   0.034  0.0000  0.0000  0.0000
11610SI     SI111610   1.560   4.297   0.195  0.0000  0.0000  0.0000
11611SI     SI111611   2.265   4.043   0.278  0.0000  0.0000  0.0000
11612SI     SI111612   3.267   1.786   1.182  0.0000  0.0000  0.0000
11613SI     SI111613   5.598   0.120   9.315  0.0000  0.0000  0.0000
11614SI     SI111614   9.430   6.976   8.282  0.0000  0.0000  0.0000
11615SI     SI111615   1.064   1.322   0.801  0.0000  0.0000  0.0000
11616SI     SI111616   6.900   6.230   0.253  0.0000  0.0000  0.0000
11617SI     SI111617   5.979   5.508   0.011  0.0000  0.0000  0.0000
11618SI     SI111618   4.147   7.303   8.955  0.0000  0.0000  0.0000
11619SI     SI111619   4.153   8.892   0.154  0.0000  0.0000  0.0000
11620SI     SI111620   0.160   4.706   8.996  0.0000  0.0000  0.0000
11621SI     SI111621   8.885   2.737   9.297  0.0000  0.0000  0.0000
11622SI     SI111622   0.060   7.192   8.999  0.0000  0.0000  0.0000
11623SI     SI111623   7.349   3.281   0.630  0.0000  0.0000  0.0000
11624SI     SI111624   9.254   0.613   1.163  0.0000  0.0000  0.0000
11625SI     SI111625   4.294   5.097   0.177  0.0000  0.0000  0.0000
11626SI     SI111626   8.328   8.586   0.796  0.0000  0.0000  0.0000
11627SI     SI111627   5.570   4.265   8.421  0.0000  0.0000  0.0000
11628SI     SI111628   9.189   7.411   8.440  0.0000  0.0000  0.0000
11629SI     SI111629   4.305   8.788   8.640  0.0000  0.0000  0.0000
11630SI     SI111630   1.373   6.424   0.173  0.0000  0.0000  0.0000
11631SI     SI111631   9.108   2.967   1.007  0.0000  0.0000  0.0000
11632SI     SI111632   8.123   7.835   0.020  0.0000  0.0000  0.0000
11633SI     SI111633   0.496   9.437   9.288  0.0000  0.0000  0.0000
11634SI     SI111634   7.538   2.498   1.289  0.0000  0.0000  0.0000
11635SI     SI111635   3.973   8.756   9.057  0.0000  0.0000  0.0000
11636SI     SI111636   8.769   0.995   0.160  0.0000  0.0000  0.0000
11637SI     SI111637   9.575   4.168   0.207  0.0000  0.0000  0.0000
11638SI     SI111638   6.275   9.203   0.069  0.0000  0.0000  0.0000
11639SI     SI111639   6.740   4.354   8.563  0.0000  0.0000  0.0000
11640SI     SI111640   5.076   9.187   0.207  0.0000  0.0000  0.0000
11641SI     SI111641   9.011   6.203   9.409  0.0000  0.0000  0.0000
11642SI     SI111642   1.891   0.153   9.359  0.0000  0.0000  0.0000
11643SI     SI111643   5.078   4.162   9.081  0.0000  0.0000  0.0000
11644SI     SI111644   8.690   7.669   8.889  0.0000  0.0000  0.0000
11645SI     SI111645   5.174   8.454   1.351  0.0000  0.0000  0.0000
11646SI     SI111646   1.634   6.691   8.389  0.0000  0.0000  0.0000
11647SI     SI111647   9.182   1.920   9.441  0.0000  0.0000  0.0000
11648SI     SI111648   8.176   2.329   8.213  0.0000  0.0000  0.0000
11649SI     SI111649   7.104   5.368   0.346  0.0000  0.0000  0.0000
11650SI     SI111650   2.133   8.193   0.961  0.0000  0.0000  0.0000
11651SI     SI111651   8.202   4.422   1.404  0.0000  0.0000  0.0000
11652SI     SI111652   4.714   3.228   9.161  0.0000  0.0000  0.0000
11653SI     SI111653   5.777   6.064   0.341  0.0000  0.0000  0.0000
11654SI     SI111654   8.884   6.759   8.620  0.0000  0.0000  0.0000
11655SI     SI111655   0.671   3.379   9.537  0.0000  0.0000  0.0000
11656SI     SI111656   7.763   1.347   1.166  0.0000  0.0000  0.0000
11657SI     SI111657   1.920   5.263   0.177  0.0000  0.0000  0.0000
11658SI     SI111658   5.160   7.635   9.168  0.0000  0.0000  0.0000
11659SI     SI111659   6.701   3.816   8.465  0.0000  0.0000  0.0000
11660SI     SI111660   0.282   0.872   8.950  0.0000  0.0000  0.0000
11661SI     SI111661   3.599   9.451   9.091  0.0000  0.0000  0.0000
11662SI     SI111662   6.351   5.548   9.248  0.0000  0.0000  0.0000
11663SI     SI111663   9.416   2.982   0.210  0.0000  0.0000  0.0000
11664SI     SI111664   0.733   6.770   8.387  0.0000  0.0000  0.0000
11665SI     SI111665   3.012   5.153   1.161  0.0000  0.0000  0.0000
11666SI     SI111666   5.588   5.008   1.294  0.0000  0.0000  0.0000
11667SI     SI111667   6.318   7.646   1.169  0.0000  0.0000  0.0000
11668SI     SI111668   7.565   8.398   0.537  0.0000  0.0000  0.0000
11669SI     SI111669   1.076   4.116   9.284  0.0000  0.0000  0.0000
11670SI     SI111670   3.877   9.602   9.053  0.0000  0.0000  0.0000
11671SI     SI111671   3.566   6.475   1.086  0.0000  0.0000  0.0000
11672SI     SI111672   1.434   8.718   8.929  0.0000  0.0000  0.0000
11673SI     SI111673   5.960   3.533   0.226  0.0000  0.0000  0.0000
11674SI     SI111674   8.756   6.238   9.222  0.0000  0.0000  0.0000
11675SI     SI111675   7.875   4.071   0.664  0.0000  0.0000  0.0000
11676SI     SI111676   5.010   6.294   9.471  0.0000  0.0000  0.0000
11677SI     SI111677   6.865   1.157   8.441  0.0000  0.0000  0.0000
11678SI     SI111678   2.773   2.364   8.855  0.0000  0.0000  0.0000
11679SI     SI111679   6.339   6.912   8.556  0.0000  0.0000  0.0000
11680SI     SI111680   9.237   8.035   0.552  0.0000  0.0000  0.0000
11681SI     SI111681   7.290   3.945   0.263  0.0000  0.0000  0.0000
11682SI     SI111682   0.237   7.373   8.838  0.0000  0.0000  0.0000
11683SI     SI111683   5.942   9.189   8.317  0.0000  0.0000  0.0000
11684SI     SI111684   8.132   5.794   9.090  0.0000  0.0000  0.0000
11685SI     SI111685   1.559   9.384   0.033  0.0000  0.0000  0.0000
11686SI     SI111686   2.394   5.711   9.194  0.0000  0.0000  0.0000
11687SI     SI111687   9.081   4.999   1.140  0.0000  0.0000  0.0000
11688SI     SI111688   7.670   0.118   9.154  0.0000  0.0000  0.0000
11689SI     SI111689   7.959   0.145   9.062  0.0000  0.0000  0.0000
11690SI     SI111690   6.040   3.252   0.852  0.0000  0.0000  0.0000
11691SI     SI111691   1.649   2.444   9.470  0.0000  0.0000  0.0000
11692SI     SI111692   0.037   6.930   0.268  0.0000  0.0000  0.0000
11693SI     SI111693   4.640   9.085   8.840  0.0000  0.0000  0.0000
11694SI     SI111694   8.514   7.645   9.386  0.0000  0.0000  0.0000
11695SI     SI111695   4.847   0.141   9.160  0.0000  0.0000  0.0000
11696SI     SI111696   8.853   6.594   0.121  0.0000  0.0000  0.0000
11697SI     SI111697   0.450   0.583   0.086  0.0000  0.0000  0.0000
11698SI     SI111698   8.888   1.942   9.342  0.0000  0.0000  0.0000
11699SI     SI111699   7.670   7.691   0.326  0.0000  0.0000  0.0000
11700SI     SI111700   9.593   0.811   8.469  0.0000  0.0000  0.0000
11701SI     SI111701   8.430   7.761   0.066  0.0000  0.0000  0.0000
11702SI     SI111702   8.368   1.595   0.088  0.0000  0.0000  0.0000
11703SI     SI111703   0.203   8.807   0.630  0.0000  0.0000  0.0000
11704SI     SI111704   0.077   1.377   0.333  0.0000  0.0000  0.0000
11705SI     SI111705   0.499   5.186   8.406  0.0000  0.0000  0.0000
11706SI     SI111706   5.562   4.146   9.046  0.0000  0.0000  0.0000
11707SI     SI111707   0.581   4.136   1.391  0.0000  0.0000  0.0000
11708SI     SI111708   3.392   3.589   9.560  0.0000  0.0000  0.0000
11709SI     SI111709   9.027   5.541   9.075  0.0000  0.0000  0.0000
11710SI     SI111710   7.438   2.120   8.675  0.0000  0.0000  0.0000
11711SI     SI111711   8.537   0.872   0.001  0.0000  0.0000  0.0000
11712SI     SI111712   0.493   4.276   8.651  0.0000  0.0000  0.0000
11713SI     SI111713   2.687   6.934   8.750  0.0000  0.0000  0.0000
11714SI     SI111714   6.002   0.309   0.730  0.0000  0.0000  0.0000
11715SI     SI111715   3.390   4.445   0.242  0.0000  0.0000  0.0000
11716SI     SI111716   8.134   9.018   1.041  0.0000  0.0000  0.0000
11717SI     SI111717   9.065   3.328   0.352  0.0000  0.0000  0.0000
11718SI     SI111718   3.711   0.650   0.986  0.0000  0.0000  0.0000
11719SI     SI111719   3.613   0.602   8.360  0.0000  0.0000  0.0000
11720SI     SI111720   3.410   6.850   0.785  0.0000  0.0000  0.0000
11721SI     SI111721   2.633   3.529   8.768  0.0000  0.0000  0.0000
11722SI     SI111722   2.073   5.893   9.035  0.0000  0.0000  0.0000
11723SI     SI111723   4.198   3.632   9.578  0.0000  0.0000  0.0000
11724SI     SI111724   9.379   9.003   8.493  0.0000  0.0000  0.0000
11725SI     SI111725   5.221   0.937   0.585  0.0000  0.0000  0.0000
11726SI     SI111726   3.419   9.271   0.705  0.0000  0.0000  0.0000
11727SI     SI111727   7.015   8.132   9.437  0.0000  0.0000  0.0000
11728SI     SI111728   8.900   5.262   9.026  0.0000  0.0000  0.0000
11729SI     SI111729   3.426   5.343   9.390  0.0000  0.0000  0.0000
11730SI     SI111730   1.574   7.819   9.532  0.0000  0.0000  0.0000
11731SI     SI111731   0.068   4.447   8.827  0.0000  0.0000  0.0000
11732SI     SI111732   1.091   3.091   8.427  0.0000  0.0000  0.0000
11733SI     SI111733   4.433   4.903   9.577  0.0000  0.0000  0.0000
11734SI     SI111734   1.770   1.189   1.095  0.0000  0.0000  0.0000
11735SI     SI111735   8.351   8.281   9.529  0.0000  0.0000  0.0000
11736SI     SI111736   9.383   4.752   8.420  0.0000  0.0000  0.0000
11737SI     SI111737   9.377   4.980   1.049  0.0000  0.0000  0.0000
11738SI     SI111738   3.235   5.766   1.359  0.0000  0.0000  0.0000
11739SI     SI111739   4.282   2.824   0.744  0.0000  0.0000  0.0000
11740SI     SI111740   1.142   3.466   0.036  0.0000  0.0000  0.0000
11741SI     SI111741   6.666   0.812   0.095  0.0000  0.0000  0.0000
11742SI     SI111742   8.403   4.146   1.105  0.0000  0.0000  0.0000
11743SI     SI111743   4.487   0.757   0.476  0.0000  0.0000  0.0000
11744SI     SI111744   8.941   1.027   9.496  0.0000  0.0000  0.0000
11745SI     SI111745   9.317   1.869   0.920  0.0000  0.0000  0.0000
11746SI     SI111746   7.055   1.809   9.597  0.0000  0.0000  0.0000
11747SI     SI111747   1.039   8.316   8.903  0.0000  0.0000  0.0000
11748SI     SI111748   6.406   0.665   0.162  0.0000  0.0000  0.0000
11749SI     SI111749   1.767   0.303   9.116  0.0000  0.0000  0.0000
11750SI     SI111750   3.495   3.824   0.121  0.0000  0.0000  0.0000
11751SI     SI111751   7.338   4.527   8.570  0.0000  0.0000  0.0000
11752SI     SI111752   7.001   9.047   0.888  0.0000  0.0000  0.0000
11753SI     SI111753   6.005   6.709   9.564  0.0000  0.0000  0.0000
11754SI     SI111754   1.155   3.113   1.173  0.0000  0.0000  0.0000
11755SI     SI111755   0.054   8.600   1.081  0.0000  0.0000  0.0000
11756SI     SI111756   7.283   9.399   0.724  0.0000  0.0000  0.0000
11757SI     SI111757   4.700   8.587   0.262  0.0000  0.0000  0.0000
11758SI     SI111758   2.313   0.819   0.257  0.0000  0.0000  0.0000
11759SI     SI111759   2.153   8.863   8.846  0.0000  0.0000  0.0000
11760SI     SI111760   6.049   2.671   0.083  0.0000  0.0000  0.0000
11761SI     SI111761   5.438   5.596   8.761  0.0000  0.0000  0.0000
11762SI     SI111762   2.510   8.125   9.124  0.0000  0.0000  0.0000
11763SI     SI111763   0.423   8.913   8.887  0.0000  0.0000  0.0000
11764SI     SI111764   0.634   7.891   8.751  0.0000  0.0000  0.0000
11765SI     SI111765   6.608   6.744   0.518  0.0000  0.0000  0.0000
11766SI     SI111766   7.435   3.505   8.725  0.0000  0.0000  0.0000
11767SI     SI111767   4.894   7.804   9.225  0.0000  0.0000  0.0000
11768SI     SI111768   2.737   0.103   9.221  0.0000  0.0000  0.0000
11769SI     SI111769   2.402   5.907   0.585  0.0000  0.0000  0.0000
11770SI     SI111770   6.197   1.602   0.125  0.0000  0.0000  0.0000
11771SI     SI111771   2.153   7.862   8.971  0.0000  0.0000  0.0000
11772SI     SI111772   3.325   1.277   1.168  0.0000  0.0000  0.0000
11773SI     SI111773   6.236   6.207   8.612  0.0000  0.0000  0.0000
11774SI     SI111774   0.134   6.288   0.563  0.0000  0.0000  0.0000
11775SI     SI111775   5.036   6.763   8.786  0.0000  0.0000  0.0000
11776SI     SI111776   7.967   3.601   8.671  0.0000  0.0000  0.0000
11777SI     SI111777   7.398   5.857   9.142  0.0000  0.0000  0.0000
11778SI     SI111778   2.262   5.681   0.405  0.0000  0.0000  0.0000
11779SI     SI111779   7.441   8.881   0.661  0.0000  0.0000  0.0000
11780SI     SI111780   9.030   7.138   9.268  0.0000  0.0000  0.0000
11781SI     SI111781   1.704   2.762   0.967  0.0000  0.0000  0.0000
11782SI     SI111782   0.052   5.527   1.226  0.0000  0.0000  0.0000
11783SI     SI111783   2.340   7.634   0.138  0.0000  0.0000  0.0000
11784SI     SI111784   1.185   2.996   0.915  0.0000  0.0000  0.0000
11785SI     SI111785   8.696   5.259   8.635  0.0000  0.0000  0.0000
11786SI     SI111786   4.111   7.111   8.733  0.0000  0.0000  0.0000
11787SI     SI111787   3.790   7.574   9.068  0.0000  0.0000  0.0000
11788SI     SI111788   7.301   6.309   9.436  0.0000  0.0000  0.0000
11789SI     SI111789   5.285   8.529   0.288  0.0000  0.0000  0.0000
11790SI     SI111790   3.339   1.901   0.371  0.0000  0.0000  0.0000
11791SI     SI111791   1.889   5.974   0.532  0.0000  0.0000  0.0000
11792SI     SI111792   1.129   4.402   0.970  0.0000  0.0000  0.0000
11793SI     SI111793   8.024   3.505   8.374  0.0000  0.0000  0.0000
11794SI     SI111794   5.997   8.863   0.240  0.0000  0.0000  0.0000
11795SI     SI111795   6.539   6.691   1.171  0.0000  0.0000  0.0000
11796SI     SI111796   0.732   8.824   8.885  0.0000  0.0000  0.0000
11797SI     SI111797   0.256   4.722   1.286  0.0000  0.0000  0.0000
11798SI     SI111798   4.714   6.471   0.815  0.0000  0.0000  0.0000
11799SI     SI111799   0.330   8.573   1.210  0.0000  0.0000  0.0000
11800SI     SI111800   3.355   4.078   9.394  0.0000  0.0000  0.0000
11801SI     SI111801   4.116   9.068   9.292  0.0000  0.0000  0.0000
11802SI     SI111802   0.535   6.840   9.354  0.0000  0.0000  0.0000
11803SI     SI111803   6.861   1.990   0.664  0.0000  0.0000  0.0000
11804SI     SI111804   6.887   8.828   0.689  0.0000  0.0000  0.0000
11805SI     SI111805   4.935   7.780   8.680  0.0000  0.0000  0.0000
11806SI     SI111806   9.110   6.643   0.830  0.0000  0.0000  0.0000
11807SI     SI111807   9.008   7.821   0.592  0.0000  0.0000  0.0000
11808SI     SI111808   4.443   6.016   1.088  0.0000  0.0000  0.0000
11809SI     SI111809   5.535   7.410   0.896  0.0000  0.0000  0.0000
11810SI     SI111810   1.913   7.063   8.579  0.0000  0.0000  0.0000
11811SI     SI111811   0.924   7.225   9.112  0.0000  0.0000  0.0000
11812SI     SI111812   0.864   5.158   0.006  0.0000  0.0000  0.0000
11813SI     SI111813   8.144   9.601   9.248  0.0000  0.0000  0.0000
11814SI     SI111814   8.381   0.380   8.970  0.0000  0.0000  0.0000
11815SI     SI111815   3.485   8.524   9.468  0.0000  0.0000  0.0000
11816SI     SI111816   0.728   3.187   0.320  0.0000  0.0000  0.0000
11817SI     SI111817   4.483   7.581   8.933  0.0000  0.0000  0.0000
11818SI     SI111818   8.832   9.581   0.525  0.0000  0.0000  0.0000
11819SI     SI111819   0.259   1.021   1.216  0.0000  0.0000  0.0000
11820SI     SI111820   8.527   0.218   8.527  0.0000  0.0000  0.0000
11821SI     SI111821   3.661   1.897   0.377  0.0000  0.0000  0.0000
11822SI     SI111822   8.929   5.111   8.771  0.0000  0.0000  0.0000
11823SI     SI111823   4.825   6.474   0.046  0.0000  0.0000  0.0000
11824SI     SI111824   2.929   3.417   9.478  0.0000  0.0000  0.0000
11825SI     SI111825   7.395   0.607   9.535  0.0000  0.0000  0.0000
11826SI     SI111826   7.625   4.718   0.107  0.0000  0.0000  0.0000
11827SI     SI111827   4.006   5.669   8.559  0.0000  0.0000  0.0000
11828SI     SI111828   2.456   3.372   0.009  0.0000  0.0000  0.0000
11829SI     SI111829   5.175   5.074   0.933  0.0000  0.0000  0.0000
11830SI     SI111830   6.069   6.439   8.740  0.0000  0.0000  0.0000
11831SI     SI111831   6.990   8.675   9.178  0.0000  0.0000  0.0000
11832SI     SI111832   5.791   4.608   0.136  0.0000  0.0000  0.0000
11833SI     SI111833   0.815   0.403   1.112  0.0000  0.0000  0.0000
11834SI     SI111834   0.673   5.072   9.106  0.0000  0.0000  0.0000
11835SI     SI111835   0.829   4.069   9.477  0.0000  0.0000  0.0000
11836SI     SI111836   2.001   7.040   0.295  0.0000  0.0000  0.0000
11837SI     SI111837   8.956   8.451   0.686  0.0000  0.0000  0.0000
11838SI     SI111838   8.429   6.860   9.476  0.0000  0.0000  0.0000
11839SI     SI111839   2.627   0.262   8.816  0.0000  0.0000  0.0000
11840SI     SI111840   7.704   4.998   9.580  0.0000  0.0000  0.0000
11841SI     SI111841   0.691   9.222   0.575  0.0000  0.0000  0.0000
11842SI     SI111842   7.563   5.842   8.883  0.0000  0.0000  0.0000
11843SI     SI111843   1.275   1.132   0.936  0.0000  0.0000  0.0000
11844SI     SI111844   8.893   7.872   9.246  0.0000  0.0000  0.0000
11845SI     SI111845   7.897   2.120   0.949  0.0000  0.0000  0.0000
11846SI     SI111846   5.458   5.876   8.648  0.0000  0.0000  0.0000
11847SI     SI111847   4.548   6.559   0.369  0.0000  0.0000  0.0000
11848SI     SI111848   0.475   1.688   8.537  0.0000  0.0000  0.0000
11849SI     SI111849   4.810   2.672   0.141  0.0000  0.0000  0.0000
11850SI     SI111850   9.327   3.907   8.385  0.0000  0.0000  0.0000
11851SI     SI111851   7.213   1.937   8.576  0.0000  0.0000  0.0000
11852SI     SI111852   8.160   7.814   9.317  0.0000  0.0000  0.0000
11853SI     SI111853   2.180   4.401   9.097  0.0000  0.0000  0.0000
11854SI     SI111854   3.461   0.512   9.336  0.0000  0.0000  0.0000
11855SI     SI111855   8.318   9.240   0.393  0.0000  0.0000  0.0000
11856SI     SI111856   1.314   6.748   1.196  0.0000  0.0000  0.0000
11857SI     SI111857   4.873   3.030   8.748  0.0000  0.0000  0.0000
11858SI     SI111858   6.562   4.658   0.948  0.0000  0.0000  0.0000
11859SI     SI111859   5.427   0.109   0.615  0.0000  0.0000  0.0000
11860SI     SI111860   6.158   7.196   9.458  0.0000  0.0000  0.0000
11861SI     SI111861   3.034   0.535   0.075  0.0000  0.0000  0.0000
11862SI     SI111862   1.176   7.534   0.058  0.0000  0.0000  0.0000
11863SI     SI111863   8.335   8.604   8.371  0.0000  0.0000  0.0000
11864SI     SI111864   4.626   6.886   8.607  0.0000  0.0000  0.0000
11865SI     SI111865   4.631   4.207   8.691  0.0000  0.0000  0.0000
11866SI     SI111866   0.343   1.288   0.176  0.0000  0.0000  0.0000
11867SI     SI111867   1.517   3.040   8.884  0.0000  0.0000  0.0000
11868SI     SI111868   0.713   8.730   0.526  0.0000  0.0000  0.0000
11869SI     SI111869   3.370   3.990   9.108  0.0000  0.0000  0.0000
11870SI     SI111870   4.525   6.353   0.610  0.0000  0.0000  0.0000
11871SI     SI111871   9.278   9.561   0.638  0.0000  0.0000  0.0000
11872SI     SI111872   4.305   6.798   0.697  0.0000  0.0000  0.0000
11873SI     SI111873   5.779   0.250   0.266  0.0000  0.0000  0.0000
11874SI     SI111874   9.436   1.955   8.493  0.0000  0.0000  0.0000
11875SI     SI111875   8.145   3.891   8.272  0.0000  0.0000  0.0000
11876SI     SI111876   6.222   4.722   0.602  0.0000  0.0000  0.0000
11877SI     SI111877   3.786   2.962   8.578  0.0000  0.0000  0.0000
11878SI     SI111878   5.726   9.514   9.478  0.0000  0.0000  0.0000
11879SI     SI111879   7.979   8.702   0.428  0.0000  0.0000  0.0000
11880SI     SI111880   0.504   4.277   0.699  0.0000  0.0000  0.0000
11881SI     SI111881   6.993   2.835   0.235  0.0000  0.0000  0.0000
11882SI     SI111882   1.955   4.823   8.835  0.0000  0.0000  0.0000
11883SI     SI111883   1.789   7.593   9.059  0.0000  0.0000  0.0000
11884SI     SI111884   5.613   2.498   0.613  0.0000  0.0000  0.0000
11885SI     SI111885   4.491   3.775   8.426  0.0000  0.0000  0.0000
11886SI     SI111886   3.993   3.188   0.557  0.0000  0.0000  0.0000
11887SI     SI111887   6.326   8.884   9.328  0.0000  0.0000  0.0000
11888SI     SI111888   4.113   8.803   8.240  0.0000  0.0000  0.0000
11889SI     SI111889   1.735   1.949   8.801  0.0000  0.0000  0.0000
11890SI     SI111890   2.735   6.715   0.743  0.0000  0.0000  0.0000
11891SI     SI111891   4.594   6.491   8.929  0.0000  0.0000  0.0000
11892SI     SI111892   3.723   3.362   8.994  0.0000  0.0000  0.0000
11893SI     SI111893   2.654   8.480   8.982  0.0000  0.0000  0.0000
11894SI     SI111894   2.513   4.556   8.317  0.0000  0.0000  0.0000
11895SI     SI111895   3.067   6.311   9.349  0.0000  0.0000  0.0000
11896SI     SI111896   7.783   2.388   0.830  0.0000  0.0000  0.0000
11897SI     SI111897   7.326   2.692   9.092  0.0000  0.0000  0.0000
11898SI     SI111898   5.764   8.321   8.877  0.0000  0.0000  0.0000
11899SI     SI111899   4.023   0.426   9.329  0.0000  0.0000  0.0000
11900SI     SI111900   2.484   7.837   9.560  0.0000  0.0000  0.0000
11901SI     SI111901   0.020   5.090   9.298  0.0000  0.0000  0.0000
11902SI     SI111902   9.494   8.975   0.216  0.0000  0.0000  0.0000
11903SI     SI111903   3.158   3.438   0.333  0.0000  0.0000  0.0000
11904SI     SI111904   3.495   2.561   9.338  0.0000  0.0000  0.0000
11905SI     SI111905   7.095   7.792   8.211  0.0000  0.0000  0.0000
11906SI     SI111906   5.218   4.899   9.093  0.0000  0.0000  0.0000
11907SI     SI111907   4.150   2.751   8.339  0.0000  0.0000  0.0000
11908SI     SI111908   8.013   9.223   0.496  0.0000  0.0000  0.0000
11909SI     SI111909   8.358   2.700   0.767  0.0000  0.0000  0.0000
11910SI     SI111910   6.448   0.038   9.507  0.0000  0.0000  0.0000
11911SI     SI111911   9.169   9.058   0.624  0.0000  0.0000  0.0000
11912SI     SI111912   7.634   3.133   0.987  0.0000  0.0000  0.0000
11913SI     SI111913   4.347   6.743   9.518  0.0000  0.0000  0.0000
11914SI     SI111914   2.648   3.763   0.515  0.0000  0.0000  0.0000
11915SI     SI111915   5.308   8.209   0.673  0.0000  0.0000  0.0000
11916SI     SI111916   5.696   1.851   8.522  0.0000  0.0000  0.0000
11917SI     SI111917   8.559   3.375   0.274  0.0000  0.0000  0.0000
11918SI     SI111918   7.098   8.164   0.595  0.0000  0.0000  0.0000
11919SI     SI111919   5.088   7.307   0.602  0.0000  0.0000  0.0000
11920SI     SI111920   0.173   0.856   0.722  0.0000  0.0000  0.0000
11921SI     SI111921   4.391   8.270   0.736  0.0000  0.0000  0.0000
11922SI     SI111922   7.080   5.197   0.742  0.0000  0.0000  0.0000
11923SI     SI111923   2.903   3.842   9.132  0.0000  0.0000  0.0000
11924SI     SI111924   8.894   6.296   1.081  0.0000  0.0000  0.0000
11925SI     SI111925   7.462   1.566   9.042  0.0000  0.0000  0.0000
11926SI     SI111926   0.029   8.366   9.031  0.0000  0.0000  0.0000
11927SI     SI111927   3.389   3.686   9.037  0.0000  0.0000  0.0000
11928SI     SI111928   1.973   4.126   8.323  0.0000  0.0000  0.0000
11929SI     SI111929   4.128   5.370   9.344  0.0000  0.0000  0.0000
11930SI     SI111930   2.307   0.289   0.172  0.0000  0.0000  0.0000
11931SI     SI111931   4.731   2.219   9.517  0.0000  0.0000  0.0000
11932SI     SI111932   0.708   0.243   0.391  0.0000  0.0000  0.0000
11933SI     SI111933   8.117   4.177   9.599  0.0000  0.0000  0.0000
11934SI     SI111934   7.892   7.982   0.990  0.0000  0.0000  0.0000
11935SI     SI111935   5.330   2.217   9.003  0.0000  0.0000  0.0000
11936SI     SI111936   5.058   1.407   0.638  0.0000  0.0000  0.0000
11937SI     SI111937   8.552   0.096   0.546  0.0000  0.0000  0.0000
11938SI     SI111938   6.457   5.542   0.641  0.0000  0.0000  0.0000
11939SI     SI111939   2.717   2.686   1.005  0.0000  0.0000  0.0000
11940SI     SI111940   0.792   6.984   9.441  0.0000  0.0000  0.0000
11941SI     SI111941   5.181   5.929   0.524  0.0000  0.0000  0.0000
11942SI     SI111942   6.334   5.761   8.805  0.0000  0.0000  0.0000
11943SI     SI111943   6.182   3.341   0.308  0.0000  0.0000  0.0000
11944SI     SI111944   0.194   6.243   0.250  0.0000  0.0000  0.0000
11945SI     SI111945   0.037   0.314   9.162  0.0000  0.0000  0.0000
11946SI     SI111946   2.550   6.738   9.582  0.0000  0.0000  0.0000
11947SI     SI111947   8.875   0.536   8.910  0.0000  0.0000  0.0000
11948SI     SI111948   9.023   8.513   0.399  0.0000  0.0000  0.0000
11949SI     SI111949   0.077   6.930   8.819  0.0000  0.0000  0.0000
11950SI     SI111950   8.918   1.699   0.230  0.0000  0.0000  0.0000
11951SI     SI111951   4.648   5.447   9.208  0.0000  0.0000  0.0000
11952SI     SI111952   1.477   2.017   0.388  0.0000  0.0000  0.0000
11953SI     SI111953   2.791   3.090   1.255  0.0000  0.0000  0.0000
11954SI     SI111954   7.363   7.666   0.802  0.0000  0.0000  0.0000
11955SI     SI111955   3.485   4.189   8.477  0.0000  0.0000  0.0000
11956SI     SI111956   7.391   4.039   8.340  0.0000  0.0000  0.0000
11957SI     SI111957   4.344   7.278   8.739  0.0000  0.0000  0.0000
11958SI     SI111958   6.910   7.180   8.342  0.0000  0.0000  0.0000
11959SI     SI111959   6.746   6.932   8.249  0.0000  0.0000  0.0000
11960SI     SI111960   1.061   3.832   0.727  0.0000  0.0000  0.0000
11961SI     SI111961   4.346   5.668   0.818  0.0000  0.0000  0.0000
11962SI     SI111962   0.418   5.499   9.220  0.0000  0.0000  0.0000
11963SI     SI111963   5.115   3.863   9.541  0.0000  0.0000  0.0000
11964SI     SI111964   8.693   1.701   9.411  0.0000  0.0000  0.0000
11965SI     SI111965   3.131   2.355   0.179  0.0000  0.0000  0.0000
11966SI     SI111966   7.436   1.451   0.096  0.0000  0.0000  0.0000
11967SI     SI111967   7.563   7.172   8.304  0.0000  0.0000  0.0000
11968SI     SI111968   4.215   6.928   8.206  0.0000  0.0000  0.0000
11969SI     SI111969   9.014   4.681   0.669  0.0000  0.0000  0.0000
11970SI     SI111970   1.555   9.347   8.464  0.0000  0.0000  0.0000
11971SI     SI111971   8.112   5.386   8.476  0.0000  0.0000  0.0000
11972SI     SI111972   1.809   4.108   8.754  0.0000  0.0000  0.0000
11973SI     SI111973   6.706   0.459   9.383  0.0000  0.0000  0.0000
11974SI     SI111974   8.067   4.716   1.060  0.0000  0.0000  0.0000
11975SI     SI111975   6.670   0.905   8.437  0.0000  0.0000  0.0000
11976SI     SI111976   9.403   7.585   8.296  0.0000  0.0000  0.0000
11977SI     SI111977   0.438   8.241   9.025  0.0000  0.0000  0.0000
11978SI     SI111978   2.643   8.647   0.271  0.0000  0.0000  0.0000
11979SI     SI111979   8.888   6.864   9.317  0.0000  0.0000  0.0000
11980SI     SI111980   7.655   2.298   9.100  0.0000  0.0000  0.0000
11981SI     SI111981   3.863   5.811   9.117  0.0000  0.0000  0.0000
11982SI     SI111982   6.937   4.111   9.304  0.0000  0.0000  0.0000
11983SI     SI111983   8.313   0.852   0.209  0.0000  0.0000  0.0000
11984SI     SI111984   0.249   9.420   8.311  0.0000  0.0000  0.0000
11985SI     SI111985   5.463   1.782   1.093  0.0000  0.0000  0.0000
11986SI     SI111986   0.532   9.042   8.347  0.0000  0.0000  0.0000
11987SI     SI111987   1.777   2.889   8.844  0.0000  0.0000  0.0000
11988SI     SI111988   4.601   3.970   0.025  0.0000  0.0000  0.0000
11989SI     SI111989   9.359   6.051   0.106  0.0000  0.0000  0.0000
11990SI     SI111990   5.015   2.075   8.414  0.0000  0.0000  0.0000
11991SI     SI111991   0.494   6.323   0.293  0.0000  0.0000  0.0000
11992SI     SI111992   7.204   6.165   8.648  0.0000  0.0000  0.0000
11993SI     SI111993   0.390   0.835   0.276  0.0000  0.0000  0.0000
11994SI     SI111994   5.040   0.903   8.907  0.0000  0.0000  0.0000
11995SI     SI111995   6.631   2.098   0.853  0.0000  0.0000  0.0000
11996SI     SI111996   5.612   1.195   0.406  0.0000  0.0000  0.0000
11997SI     SI111997   3.037   1.399   8.964  0.0000  0.0000  0.0000
11998SI     SI111998   5.871   9.499   0.581  0.0000  0.0000  0.0000
11999SI     SI111999   7.380   0.799   0.160  0.0000  0.0000  0.0000
12000SI     SI112000   5.324   1.914   9.091  0.0000  0.0000  0.0000
12001SI     SI112001   9.580   6.457   8.728  0.0000  0.0000  0.0000
12002SI     SI112002   4.089   1.285   0.216  0.0000  0.0000  0.0000
12003SI     SI112003   3.825   2.280   9.304  0.0000  0.0000  0.0000
12004SI     SI112004   6.095   1.051   8.841  0.0000  0.0000  0.0000
12005SI     SI112005   5.841   8.383   9.364  0.0000  0.0000  0.0000
12006SI     SI112006   9.335   9.537   9.112  0.0000  0.0000  0.0000
12007SI     SI112007   7.569   3.656   0.467  0.0000  0.0000  0.0000
12008SI     SI112008   6.658   4.332   0.632  0.0000  0.0000  0.0000
12009SI     SI112009   8.205   6.217   0.277  0.0000  0.0000  0.0000
12010SI     SI112010   5.261   7.101   9.589  0.0000  0.0000  0.0000
12011SI     SI112011   5.357   5.201   8.795  0.0000  0.0000  0.0000
12012SI     SI112012   0.694   7.519   0.871  0.0000  0.0000  0.0000
12013SI     SI112013   3.083   7.658   1.256  0.0000  0.0000  0.0000
12014SI     SI112014   6.841   2.125   9.363  0.0000  0.0000  0.0000
12015SI     SI112015   3.855   7.811   0.566  0.0000  0.0000  0.0000
12016SI     SI112016   2.723   5.978   1.220  0.0000  0.0000  0.0000
12017SI     SI112017   8.197   3.694   0.764  0.0000  0.0000  0.0000
12018SI     SI112018   5.377   5.352   9.279  0.0000  0.0000  0.0000
12019SI     SI112019   2.004   4.400   9.359  0.0000  0.0000  0.0000
12020SI     SI112020   5.364   7.646   1.221  0.0000  0.0000  0.0000
12021SI     SI112021   1.116   0.281   0.385  0.0000  0.0000  0.0000
12022SI     SI112022   8.283   8.135   8.334  0.0000  0.0000  0.0000
12023SI     SI112023   8.343   4.838   9.301  0.0000  0.0000  0.0000
12024SI     SI112024   7.564   1.540   0.566  0.0000  0.0000  0.0000
12025SI     SI112025   6.211   8.486   0.265  0.0000  0.0000  0.0000
12026SI     SI112026   8.201   0.198   0.314  0.0000  0.0000  0.0000
12027SI     SI112027   5.780   7.131   0.191  0.0000  0.0000  0.0000
12028SI     SI112028   7.627   2.599   1.001  0.0000  0.0000  0.0000
12029SI     SI112029   0.999   3.988   1.174  0.0000  0.0000  0.0000
12030SI     SI112030   1.115   7.905   8.430  0.0000  0.0000  0.0000
12031SI     SI112031   4.159   9.040   1.158  0.0000  0.0000  0.0000
12032SI     SI112032   7.310   7.257   0.077  0.0000  0.0000  0.0000
12033SI     SI112033   1.534   7.547   9.200  0.0000  0.0000  0.0000
12034SI     SI112034   2.552   9.536   9.066  0.0000  0.0000  0.0000
12035SI     SI112035   2.464   2.046   1.162  0.0000  0.0000  0.0000
12036SI     SI112036   4.582   8.793   8.769  0.0000  0.0000  0.0000
12037SI     SI112037   0.862   3.802   8.535  0.0000  0.0000  0.0000
12038SI     SI112038   4.235   1.758   0.133  0.0000  0.0000  0.0000
12039SI     SI112039   5.824   8.831   8.639  0.0000  0.0000  0.0000
12040SI     SI112040   7.830   0.222   8.523  0.0000  0.0000  0.0000
12041SI     SI112041   1.477   1.368   9.231  0.0000  0.0000  0.0000
12042SI     SI112042   0.485   3.901   1.216  0.0000  0.0000  0.0000
12043SI     SI112043   0.277   7.188   1.136  0.0000  0.0000  0.0000
12044SI     SI112044   6.850   4.733   9.128  0.0000  0.0000  0.0000
12045SI     SI112045   8.863   1.947   1.014  0.0000  0.0000  0.0000
12046SI     SI112046   6.733   7.333   1.172  0.0000  0.0000  0.0000
12047SI     SI112047   5.482   0.943   8.559  0.0000  0.0000  0.0000
12048SI     SI112048   8.776   8.621   1.094  0.0000  0.0000  0.0000
12049SI     SI112049   6.592   7.029   9.260  0.0000  0.0000  0.0000
12050SI     SI112050   6.437   2.959   8.956  0.0000  0.0000  0.0000
12051SI     SI112051   3.479   0.054   9.256  0.0000  0.0000  0.0000
12052SI     SI112052   4.047   7.611   0.446  0.0000  0.0000  0.0000
12053SI     SI112053   2.004   8.748   0.771  0.0000  0.0000  0.0000
12054SI     SI112054   1.331   3.688   8.531  0.0000  0.0000  0.0000
12055SI     SI112055   2.034   1.722   1.327  0.0000  0.0000  0.0000
12056SI     SI112056   7.986   7.439   8.360  0.0000  0.0000  0.0000
12057SI     SI112057   6.120   0.244   8.557  0.0000  0.0000  0.0000
12058SI     SI112058   8.423   1.478   1.261  0.0000  0.0000  0.0000
12059SI     SI112059   5.796   7.539   8.519  0.0000  0.0000  0.0000
12060SI     SI112060   1.688   4.528   8.609  0.0000  0.0000  0.0000
12061SI     SI112061   1.398   0.672   0.255  0.0000  0.0000  0.0000
12062SI     SI112062   4.700   3.906   8.229  0.0000  0.0000  0.0000
12063SI     SI112063   9.464   2.714   8.331  0.0000  0.0000  0.0000
12064SI     SI112064   1.492   6.341   8.271  0.0000  0.0000  0.0000
12065SI     SI112065   6.707   5.183   8.919  0.0000  0.0000  0.0000
12066SI     SI112066   8.945   7.450   9.589  0.0000  0.0000  0.0000
12067SI     SI112067   0.167   0.157   0.549  0.0000  0.0000  0.0000
12068SI     SI112068   0.178   9.439   9.241  0.0000  0.0000  0.0000
12069SI     SI112069   0.387   2.392   0.913  0.0000  0.0000  0.0000
12070SI     SI112070   5.599   1.798   9.201  0.0000  0.0000  0.0000
12071SI     SI112071   9.186   7.323   9.442  0.0000  0.0000  0.0000
12072SI     SI112072   1.177   3.618   0.282  0.0000  0.0000  0.0000
12073SI     SI112073   4.335   2.901   9.079  0.0000  0.0000  0.0000
12074SI     SI112074   1.941   8.295   0.766  0.0000  0.0000  0.0000
12075SI     SI112075   8.547   1.939   1.039  0.0000  0.0000  0.0000
12076SI     SI112076   4.708   5.523   8.631  0.0000  0.0000  0.0000
12077SI     SI112077   2.411   1.647   8.880  0.0000  0.0000  0.0000
12078SI     SI112078   3.343   7.190   8.498  0.0000  0.0000  0.0000
12079SI     SI112079   9.173   8.795   8.385  0.0000  0.0000  0.0000
12080SI     SI112080   7.564   4.747   8.553  0.0000  0.0000  0.0000
12081SI     SI112081   4.958   7.016   9.541  0.0000  0.0000  0.0000
12082SI     SI112082   0.957   4.274   0.747  0.0000  0.0000  0.0000
12083SI     SI112083   3.222   3.615   8.551  0.0000  0.0000  0.0000
12084SI     SI112084   4.337   6.077   8.722  0.0000  0.0000  0.0000
12085SI     SI112085   5.892   7.766   9.580  0.0000  0.0000  0.0000
12086SI     SI112086   8.025   1.309   9.340  0.0000  0.0000  0.0000
12087SI     SI112087   7.879   8.449   0.601  0.0000  0.0000  0.0000
12088SI     SI112088   6.822   7.845   0.121  0.0000  0.0000  0.0000
12089SI     SI112089   2.660   9.551   8.789  0.0000  0.0000  0.0000
12090SI     SI112090   5.118   6.317   8.607  0.0000  0.0000  0.0000
12091SI     SI112091   1.929   2.279   8.502  0.0000  0.0000  0.0000
12092SI     SI112092   3.667   8.488   0.623  0.0000  0.0000  0.0000
12093SI     SI112093   1.192   9.366   8.917  0.0000  0.0000  0.0000
12094SI     SI112094   1.749   6.636   1.411  0.0000  0.0000  0.0000
12095SI     SI112095   3.691   5.124   1.015  0.0000  0.0000  0.0000
12096SI     SI112096   8.229   5.748   9.598  0.0000  0.0000  0.0000
12097SI     SI112097   2.685   6.032   0.526  0.0000  0.0000  0.0000
12098SI     SI112098   7.835   8.238   1.143  0.0000  0.0000  0.0000
12099SI     SI112099   4.808   8.730   8.317  0.0000  0.0000  0.0000
12100SI     SI112100   9.177   2.680   8.919  0.0000  0.0000  0.0000
12101SI     SI112101   6.408   5.184   9.588  0.0000  0.0000  0.0000
12102SI     SI112102   5.734   4.612   1.096  0.0000  0.0000  0.0000
12103SI     SI112103   8.677   7.946   0.108  0.0000  0.0000  0.0000
12104SI     SI112104   5.021   6.795   9.357  0.0000  0.0000  0.0000
12105SI     SI112105   4.402   7.485   0.770  0.0000  0.0000  0.0000
12106SI     SI112106   7.582   5.935   0.011  0.0000  0.0000  0.0000
12107SI     SI112107   5.606   3.047   8.726  0.0000  0.0000  0.0000
12108SI     SI112108   8.334   5.506   0.533  0.0000  0.0000  0.0000
12109SI     SI112109   7.987   6.134   9.399  0.0000  0.0000  0.0000
12110SI     SI112110   5.610   0.746   8.767  0.0000  0.0000  0.0000
12111SI     SI112111   1.486   9.108   8.666  0.0000  0.0000  0.0000
12112SI     SI112112   9.010   5.516   0.545  0.0000  0.0000  0.0000
12113SI     SI112113   8.041   2.058   8.281  0.0000  0.0000  0.0000
12114SI     SI112114   3.589   2.591   0.663  0.0000  0.0000  0.0000
12115SI     SI112115   4.395   0.833   0.016  0.0000  0.0000  0.0000
12116SI     SI112116   6.822   8.682   0.217  0.0000  0.0000  0.0000
12117SI     SI112117   5.893   0.604   8.724  0.0000  0.0000  0.0000
12118SI     SI112118   8.873   4.492   8.238  0.0000  0.0000  0.0000
12119SI     SI112119   0.373   0.007   0.179  0.0000  0.0000  0.0000
12120SI     SI112120   6.651   7.332   8.430  0.0000  0.0000  0.0000
12121SI     SI112121   7.443   4.367   0.714  0.0000  0.0000  0.0000
12122SI     SI112122   6.371   5.320   8.546  0.0000  0.0000  0.0000
12123SI     SI112123   8.668   3.438   9.587  0.0000  0.0000  0.0000
12124SI     SI112124   8.295   6.488   0.941  0.0000  0.0000  0.0000
12125SI     SI112125   7.325   7.357   9.001  0.0000  0.0000  0.0000
12126SI     SI112126   1.880   5.216   0.848  0.0000  0.0000  0.0000
12127SI     SI112127   2.129   9.177   0.566  0.0000  0.0000  0.0000
12128SI     SI112128   1.563   1.212   0.271  0.0000  0.0000  0.0000
12129SI     SI112129   9.456   7.335   9.602  0.0000  0.0000  0.0000
12130SI     SI112130   0.748   3.753   9.124  0.0000  0.0000  0.0000
12131SI     SI112131   1.429   7.260   8.902  0.0000  0.0000  0.0000
12132SI     SI112132   1.375   0.629   0.987  0.0000  0.0000  0.0000
12133SI     SI112133   5.840   6.351   8.928  0.0000  0.0000  0.0000
12134SI     SI112134   0.829   2.870   9.095  0.0000  0.0000  0.0000
12135SI     SI112135   4.294   8.985   8.394  0.0000  0.0000  0.0000
12136SI     SI112136   5.002   1.504   1.303  0.0000  0.0000  0.0000
12137SI     SI112137   3.867   6.719   0.158  0.0000  0.0000  0.0000
12138SI     SI112138   0.450   4.026   8.489  0.0000  0.0000  0.0000
12139SI     SI112139   7.892   5.726   0.755  0.0000  0.0000  0.0000
12140SI     SI112140   0.125   7.399   0.429  0.0000  0.0000  0.0000
12141SI     SI112141   0.233   5.150   0.958  0.0000  0.0000  0.0000
12142SI     SI112142   6.896   5.870   9.552  0.0000  0.0000  0.0000
12143SI     SI112143   0.763   8.666   1.401  0.0000  0.0000  0.0000
12144SI     SI112144   2.605   0.391   0.232  0.0000  0.0000  0.0000
12145SI     SI112145   2.822   8.931   1.020  0.0000  0.0000  0.0000
12146SI     SI112146   0.185   7.245   8.566  0.0000  0.0000  0.0000
12147SI     SI112147   2.515   7.165   0.356  0.0000  0.0000  0.0000
12148SI     SI112148   8.939   1.847   0.497  0.0000  0.0000  0.0000
12149SI     SI112149   8.995   4.822   8.868  0.0000  0.0000  0.0000
12150SI     SI112150   1.208   4.580   9.469  0.0000  0.0000  0.0000
12151SI     SI112151   4.985   6.056   8.506  0.0000  0.0000  0.0000
12152SI     SI112152   4.168   9.015   0.671  0.0000  0.0000  0.0000
12153SI     SI112153   6.989   3.673   0.588  0.0000  0.0000  0.0000
12154SI     SI112154   9.595   3.425   9.211  0.0000  0.0000  0.0000
12155SI     SI112155   0.706   5.388   0.908  0.0000  0.0000  0.0000
12156SI     SI112156   0.235   5.597   0.740  0.0000  0.0000  0.0000
12157SI     SI112157   1.238   0.994   9.528  0.0000  0.0000  0.0000
12158SI     SI112158   4.207   0.453   0.257  0.0000  0.0000  0.0000
12159SI     SI112159   4.409   5.914   9.520  0.0000  0.0000  0.0000
12160SI     SI112160   0.435   8.215   0.961  0.0000  0.0000  0.0000
12161SI     SI112161   1.100   6.068   8.895  0.0000  0.0000  0.0000
12162SI     SI112162   0.868   0.820   0.071  0.0000  0.0000  0.0000
12163SI     SI112163   4.462   5.757   0.153  0.0000  0.0000  0.0000
12164SI     SI112164   1.056   8.945   0.480  0.0000  0.0000  0.0000
12165SI     SI112165   3.963   7.716   9.483  0.0000  0.0000  0.0000
12166SI     SI112166   2.962   1.421   0.872  0.0000  0.0000  0.0000
12167SI     SI112167   5.070   7.334   9.205  0.0000  0.0000  0.0000
12168SI     SI112168   6.683   2.971   0.085  0.0000  0.0000  0.0000
12169SI     SI112169   3.056   6.965   1.093  0.0000  0.0000  0.0000
12170SI     SI112170   4.250   4.024   0.986  0.0000  0.0000  0.0000
12171SI     SI112171   0.707   0.412   8.893  0.0000  0.0000  0.0000
12172SI     SI112172   8.280   3.615   8.228  0.0000  0.0000  0.0000
12173SI     SI112173   8.966   6.995   8.231  0.0000  0.0000  0.0000
12174SI     SI112174   2.506   6.043   0.066  0.0000  0.0000  0.0000
12175SI     SI112175   4.044   3.003   9.599  0.0000  0.0000  0.0000
12176SI     SI112176   2.184   2.798   1.113  0.0000  0.0000  0.0000
12177SI     SI112177   2.516   5.577   0.800  0.0000  0.0000  0.0000
12178SI     SI112178   8.347   0.266   0.998  0.0000  0.0000  0.0000
12179SI     SI112179   0.599   0.760   8.205  0.0000  0.0000  0.0000
12180SI     SI112180   4.180   4.584   8.931  0.0000  0.0000  0.0000
12181SI     SI112181   0.077   6.770   0.806  0.0000  0.0000  0.0000
12182SI     SI112182   6.689   5.732   8.555  0.0000  0.0000  0.0000
12183SI     SI112183   4.391   2.480   8.687  0.0000  0.0000  0.0000
12184SI     SI112184   9.310   0.487   0.307  0.0000  0.0000  0.0000
12185SI     SI112185   7.382   1.196   9.245  0.0000  0.0000  0.0000
12186SI     SI112186   0.036   8.868   9.230  0.0000  0.0000  0.0000
12187SI     SI112187   0.941   5.907   8.294  0.0000  0.0000  0.0000
12188SI     SI112188   6.378   2.856   8.483  0.0000  0.0000  0.0000
12189SI     SI112189   5.897   8.518   1.372  0.0000  0.0000  0.0000
12190SI     SI112190   5.836   0.503   0.112  0.0000  0.0000  0.0000
12191SI     SI112191   6.263   6.448   9.276  0.0000  0.0000  0.0000
12192SI     SI112192   9.420   8.440   0.765  0.0000  0.0000  0.0000
12193SI     SI112193   1.322   1.911   8.460  0.0000  0.0000  0.0000
12194SI     SI112194   8.628   3.256   9.082  0.0000  0.0000  0.0000
12195SI     SI112195   9.023   1.377   0.549  0.0000  0.0000  0.0000
12196SI     SI112196   0.363   8.439   0.288  0.0000  0.0000  0.0000
12197SI     SI112197   3.268   8.500   0.316  0.0000  0.0000  0.0000
12198SI     SI112198   6.853   5.819   8.791  0.0000  0.0000  0.0000
12199SI     SI112199   2.901   8.664   1.169  0.0000  0.0000  0.0000
12200SI     SI112200   7.153   0.796   0.806  0.0000  0.0000  0.0000
12201SI     SI112201   6.577   2.412   9.075  0.0000  0.0000  0.0000
12202SI     SI112202   2.002   3.353   0.611  0.0000  0.0000  0.0000
12203SI     SI112203   2.343   7.214   0.963  0.0000  0.0000  0.0000
12204SI     SI112204   1.234   1.214   9.126  0.0000  0.0000  0.0000
12205SI     SI112205   8.542   0.589   9.453  0.0000  0.0000  0.0000
12206SI     SI112206   3.537   9.016   1.115  0.0000  0.0000  0.0000
12207SI     SI112207   1.217   9.152   0.314  0.0000  0.0000  0.0000
12208SI     SI112208   4.627   4.667   0.013  0.0000  0.0000  0.0000
12209SI     SI112209   8.291   4.600   9.504  0.0000  0.0000  0.0000
12210SI     SI112210   9.423   2.245   8.412  0.0000  0.0000  0.0000
12211SI     SI112211   7.864   3.565   1.089  0.0000  0.0000  0.0000
12212SI     SI112212   1.842   2.589   8.311  0.0000  0.0000  0.0000
12213SI     SI112213   4.684   4.138   1.237  0.0000  0.0000  0.0000
12214SI     SI112214   1.703   0.258   8.821  0.0000  0.0000  0.0000
12215SI     SI112215   4.931   9.091   8.718  0.0000  0.0000  0.0000
12216SI     SI112216   5.079   4.773   0.089  0.0000  0.0000  0.0000
12217SI     SI112217   5.213   5.622   8.348  0.0000  0.0000  0.0000
12218SI     SI112218   7.190   1.496   8.406  0.0000  0.0000  0.0000
12219SI     SI112219   3.178   7.916   0.772  0.0000  0.0000  0.0000
12220SI     SI112220   7.362   5.671   0.371  0.0000  0.0000  0.0000
12221SI     SI112221   0.261   1.115   9.533  0.0000  0.0000  0.0000
12222SI     SI112222   9.379   9.376   0.883  0.0000  0.0000  0.0000
12223SI     SI112223   8.546   7.499   1.032  0.0000  0.0000  0.0000
12224SI     SI112224   0.763   9.171   0.152  0.0000  0.0000  0.0000
12225SI     SI112225   6.243   2.661   8.681  0.0000  0.0000  0.0000
12226SI     SI112226   4.758   1.296   0.998  0.0000  0.0000  0.0000
12227SI     SI112227   6.919   1.215   0.661  0.0000  0.0000  0.0000
12228SI     SI112228   3.206   0.590   0.884  0.0000  0.0000  0.0000
12229SI     SI112229   0.129   5.242   9.552  0.0000  0.0000  0.0000
12230SI     SI112230   4.009   5.194   8.622  0.0000  0.0000  0.0000
12231SI     SI112231   5.597   3.178   8.175  0.0000  0.0000  0.0000
12232SI     SI112232   4.386   7.743   0.169  0.0000  0.0000  0.0000
12233SI     SI112233   4.995   8.481   0.187  0.0000  0.0000  0.0000
12234SI     SI112234   6.979   9.144   0.101  0.0000  0.0000  0.0000
12235SI     SI112235   7.084   8.409   9.308  0.0000  0.0000  0.0000
12236SI     SI112236   0.242   4.441   8.558  0.0000  0.0000  0.0000
12237SI     SI112237   6.530   6.682   8.990  0.0000  0.0000  0.0000
12238SI     SI112238   0.531   1.444   0.566  0.0000  0.0000  0.0000
12239SI     SI112239   2.580   3.278   9.178  0.0000  0.0000  0.0000
12240SI     SI112240   7.970   0.823   9.307  0.0000  0.0000  0.0000
12241SI     SI112241   5.043   5.677   1.017  0.0000  0.0000  0.0000
12242SI     SI112242   5.756   3.478   8.495  0.0000  0.0000  0.0000
12243SI     SI112243   4.400   5.033   0.729  0.0000  0.0000  0.0000
12244SI     SI112244   0.720   2.621   1.144  0.0000  0.0000  0.0000
12245SI     SI112245   8.121   3.129   0.989  0.0000  0.0000  0.0000
12246SI     SI112246   0.343   5.700   0.223  0.0000  0.0000  0.0000
12247SI     SI112247   0.594   0.550   8.640  0.0000  0.0000  0.0000
12248SI     SI112248   7.968   8.485   9.436  0.0000  0.0000  0.0000
12249SI     SI112249   8.537   4.049   8.530  0.0000  0.0000  0.0000
12250SI     SI112250   6.769   5.289   9.325  0.0000  0.0000  0.0000
12251SI     SI112251   8.615   2.099   8.937  0.0000  0.0000  0.0000
12252SI     SI112252   9.175   5.332   0.224  0.0000  0.0000  0.0000
12253SI     SI112253   9.373   1.597   1.073  0.0000  0.0000  0.0000
12254SI     SI112254   2.666   7.718   0.532  0.0000  0.0000  0.0000
12255SI     SI112255   3.135   0.101   8.696  0.0000  0.0000  0.0000
12256SI     SI112256   1.149   1.628   8.859  0.0000  0.0000  0.0000
12257SI     SI112257   7.013   5.194   1.036  0.0000  0.0000  0.0000
12258SI     SI112258   6.255   0.890   9.412  0.0000  0.0000  0.0000
12259SI     SI112259   8.410   6.903   8.669  0.0000  0.0000  0.0000
12260SI     SI112260   9.264   7.861   0.046  0.0000  0.0000  0.0000
12261SI     SI112261   4.094   1.195   0.503  0.0000  0.0000  0.0000
12262SI     SI112262   4.616   4.960   8.876  0.0000  0.0000  0.0000
12263SI     SI112263   0.751   2.022   0.911  0.0000  0.0000  0.0000
12264SI     SI112264   0.436   3.631   0.851  0.0000  0.0000  0.0000
12265SI     SI112265   4.005   3.193   8.305  0.0000  0.0000  0.0000
12266SI     SI112266   1.794   5.997   9.127  0.0000  0.0000  0.0000
12267SI     SI112267   9.508   3.627   0.933  0.0000  0.0000  0.0000
12268SI     SI112268   8.880   4.321   0.547  0.0000  0.0000  0.0000
12269SI     SI112269   6.887   6.811   0.604  0.0000  0.0000  0.0000
12270SI     SI112270   1.565   4.008   0.260  0.0000  0.0000  0.0000
12271SI     SI112271   3.607   2.194   0.080  0.0000  0.0000  0.0000
12272SI     SI112272   6.993   6.523   0.261  0.0000  0.0000  0.0000
12273SI     SI112273   2.721   7.208   8.906  0.0000  0.0000  0.0000
12274SI     SI112274   0.228   9.480   0.662  0.0000  0.0000  0.0000
12275SI     SI112275   3.592   5.040   0.111  0.0000  0.0000  0.0000
12276SI     SI112276   5.079   3.482   8.843  0.0000  0.0000  0.0000
12277SI     SI112277   8.455   7.698   8.683  0.0000  0.0000  0.0000
12278SI     SI112278   7.778   5.616   9.387  0.0000  0.0000  0.0000
12279SI     SI112279   5.863   2.059   8.671  0.0000  0.0000  0.0000
12280SI     SI112280   2.588   1.614   0.215  0.0000  0.0000  0.0000
12281SI     SI112281   5.838   9.379   0.309  0.0000  0.0000  0.0000
12282SI     SI112282   8.980   8.681   0.872  0.0000  0.0000  0.0000
12283SI     SI112283   4.697   0.146   9.437  0.0000  0.0000  0.0000
12284SI     SI112284   6.614   6.405   1.167  0.0000  0.0000  0.0000
12285SI     SI112285   8.404   0.564   0.554  0.0000  0.0000  0.0000
12286SI     SI112286   4.449   7.342   0.354  0.0000  0.0000  0.0000
12287SI     SI112287   1.631   4.179   9.532  0.0000  0.0000  0.0000
12288SI     SI112288   1.578   2.673   8.709  0.0000  0.0000  0.0000
12289SI     SI112289   0.269   2.028   0.560  0.0000  0.0000  0.0000
12290SI     SI112290   6.342   2.844   0.724  0.0000  0.0000  0.0000
12291SI     SI112291   9.186   6.783   8.685  0.0000  0.0000  0.0000
12292SI     SI112292   1.706   3.452   0.562  0.0000  0.0000  0.0000
12293SI     SI112293   4.746   2.099   8.811  0.0000  0.0000  0.0000
12294SI     SI112294   7.407   4.676   0.322  0.0000  0.0000  0.0000
12295SI     SI112295   1.840   4.103   1.081  0.0000  0.0000  0.0000
12296SI     SI112296   1.666   0.780   0.162  0.0000  0.0000  0.0000
12297SI     SI112297   1.908   0.275   0.538  0.0000  0.0000  0.0000
12298SI     SI112298   1.331   7.704   9.029  0.0000  0.0000  0.0000
12299SI     SI112299   9.148   1.692   8.385  0.0000  0.0000  0.0000
12300SI     SI112300   3.784   7.121   1.009  0.0000  0.0000  0.0000
12301SI     SI112301   6.619   4.814   8.606  0.0000  0.0000  0.0000
12302SI     SI112302   7.695   0.813   0.163  0.0000  0.0000  0.0000
12303SI     SI112303   9.083   4.171   0.139  0.0000  0.0000  0.0000
12304SI     SI112304   0.471   7.490   8.693  0.0000  0.0000  0.0000
12305SI     SI112305   4.177   8.737   9.500  0.0000  0.0000  0.0000
12306SI     SI112306   0.562   2.055   1.140  0.0000  0.0000  0.0000
12307SI     SI112307   6.635   8.280   0.021  0.0000  0.0000  0.0000
12308SI     SI112308   4.391   0.100   9.384  0.0000  0.0000  0.0000
12309SI     SI112309   6.269   8.711   1.269  0.0000  0.0000  0.0000
12310SI     SI112310   6.105   6.761   8.425  0.0000  0.0000  0.0000
12311SI     SI112311   4.896   8.199   8.905  0.0000  0.0000  0.0000
12312SI     SI112312   1.860   6.048   8.630  0.0000  0.0000  0.0000
12313SI     SI112313   3.190   0.105   9.162  0.0000  0.0000  0.0000
12314SI     SI112314   4.650   8.698   9.590  0.0000  0.0000  0.0000
12315SI     SI112315   8.496   7.497   0.222  0.0000  0.0000  0.0000
12316SI     SI112316   4.710   6.784   0.810  0.0000  0.0000  0.0000
12317SI     SI112317   8.603   3.270   8.374  0.0000  0.0000  0.0000
12318SI     SI112318   7.767   6.858   0.529  0.0000  0.0000  0.0000
12319SI     SI112319   3.200   5.008   8.521  0.0000  0.0000  0.0000
12320SI     SI112320   1.726   1.691   0.167  0.0000  0.0000  0.0000
12321SI     SI112321   2.791   5.852   9.135  0.0000  0.0000  0.0000
12322SI     SI112322   2.280   8.942   1.124  0.0000  0.0000  0.0000
12323SI     SI112323   7.677   6.622   9.044  0.0000  0.0000  0.0000
12324SI     SI112324   5.173   9.401   0.830  0.0000  0.0000  0.0000
12325SI     SI112325   7.209   3.405   0.217  0.0000  0.0000  0.0000
12326SI     SI112326   2.370   8.976   0.106  0.0000  0.0000  0.0000
12327SI     SI112327   6.704   4.742   0.014  0.0000  0.0000  0.0000
12328SI     SI112328   4.053   3.640   8.351  0.0000  0.0000  0.0000
12329SI     SI112329   2.856   2.473   1.177  0.0000  0.0000  0.0000
12330SI     SI112330   4.146   2.488   9.004  0.0000  0.0000  0.0000
12331SI     SI112331   9.558   8.823   8.932  0.0000  0.0000  0.0000
12332SI     SI112332   3.940   3.185   0.860  0.0000  0.0000  0.0000
12333SI     SI112333   5.675   3.827   0.471  0.0000  0.0000  0.0000
12334SI     SI112334   1.507   2.362   1.175  0.0000  0.0000  0.0000
12335SI     SI112335   6.028   0.372   9.519  0.0000  0.0000  0.0000
12336SI     SI112336   2.646   0.779   8.717  0.0000  0.0000  0.0000
12337SI     SI112337   6.109   8.089   0.052  0.0000  0.0000  0.0000
12338SI     SI112338   5.554   6.431   0.488  0.0000  0.0000  0.0000
12339SI     SI112339   7.029   3.997   8.775  0.0000  0.0000  0.0000
12340SI     SI112340   6.092   6.286   1.320  0.0000  0.0000  0.0000
12341SI     SI112341   5.150   8.896   8.839  0.0000  0.0000  0.0000
12342SI     SI112342   9.604   4.070   1.191  0.0000  0.0000  0.0000
12343SI     SI112343   8.629   1.289   1.360  0.0000  0.0000  0.0000
12344SI     SI112344   1.171   2.373   8.966  0.0000  0.0000  0.0000
12345SI     SI112345   3.355   5.458   0.365  0.0000  0.0000  0.0000
12346SI     SI112346   2.211   3.762   0.194  0.0000  0.0000  0.0000
12347SI     SI112347   4.666   7.812   9.023  0.0000  0.0000  0.0000
12348SI     SI112348   7.524   5.380   0.942  0.0000  0.0000  0.0000
12349SI     SI112349   8.879   6.886   0.011  0.0000  0.0000  0.0000
12350SI     SI112350   9.112   9.474   8.720  0.0000  0.0000  0.0000
12351SI     SI112351   4.041   9.508   9.298  0.0000  0.0000  0.0000
12352SI     SI112352   9.064   6.306   8.557  0.0000  0.0000  0.0000
12353SI     SI112353   5.615   7.386   0.148  0.0000  0.0000  0.0000
12354SI     SI112354   0.628   1.617   0.318  0.0000  0.0000  0.0000
12355SI     SI112355   9.464   0.199   0.620  0.0000  0.0000  0.0000
12356SI     SI112356   4.162   6.809   0.157  0.0000  0.0000  0.0000
12357SI     SI112357   0.194   9.388   8.929  0.0000  0.0000  0.0000
12358SI     SI112358   6.112   8.938   8.706  0.0000  0.0000  0.0000
12359SI     SI112359   1.900   7.956   0.399  0.0000  0.0000  0.0000
12360SI     SI112360   2.960   0.812   0.144  0.0000  0.0000  0.0000
12361SI     SI112361   5.219   3.910   0.691  0.0000  0.0000  0.0000
12362SI     SI112362   1.485   1.556   8.388  0.0000  0.0000  0.0000
12363SI     SI112363   1.693   1.069   0.061  0.0000  0.0000  0.0000
12364SI     SI112364   5.883   2.523   0.754  0.0000  0.0000  0.0000
12365SI     SI112365   6.579   3.687   0.243  0.0000  0.0000  0.0000
12366SI     SI112366   4.963   8.669   9.546  0.0000  0.0000  0.0000
12367SI     SI112367   3.889   9.181   8.292  0.0000  0.0000  0.0000
12368SI     SI112368   0.559   8.048   9.470  0.0000  0.0000  0.0000
12369SI     SI112369   8.625   6.999   0.827  0.0000  0.0000  0.0000
12370SI     SI112370   6.399   8.291   0.419  0.0000  0.0000  0.0000
12371SI     SI112371   3.304   1.031   8.814  0.0000  0.0000  0.0000
12372SI     SI112372   2.643   7.850   9.073  0.0000  0.0000  0.0000
12373SI     SI112373   9.273   3.027   9.267  0.0000  0.0000  0.0000
12374SI     SI112374   0.608   3.072   9.200  0.0000  0.0000  0.0000
12375SI     SI112375   9.160   5.634   8.352  0.0000  0.0000  0.0000
12376SI     SI112376   2.012   1.618   0.561  0.0000  0.0000  0.0000
12377SI     SI112377   4.323   5.909   0.360  0.0000  0.0000  0.0000
12378SI     SI112378   0.788   2.024   9.535  0.0000  0.0000  0.0000
12379SI     SI112379   3.939   8.018   9.556  0.0000  0.0000  0.0000
12380SI     SI112380   8.461   4.110   9.101  0.0000  0.0000  0.0000
12381SI     SI112381   6.572   8.228   8.747  0.0000  0.0000  0.0000
12382SI     SI112382   9.187   6.515   9.098  0.0000  0.0000  0.0000
12383SI     SI112383   5.656   4.614   8.892  0.0000  0.0000  0.0000
12384SI     SI112384   1.649   8.351   9.072  0.0000  0.0000  0.0000
12385SI     SI112385   2.241   5.472   9.094  0.0000  0.0000  0.0000
12386SI     SI112386   6.157   8.692   8.364  0.0000  0.0000  0.0000
12387SI     SI112387   0.770   9.025   1.016  0.0000  0.0000  0.0000
12388SI     SI112388   6.746   6.862   1.022  0.0000  0.0000  0.0000
12389SI     SI112389   3.308   2.070   9.298  0.0000  0.0000  0.0000
12390SI     SI112390   2.963   7.575   9.428  0.0000  0.0000  0.0000
12391SI     SI112391   8.248   7.299   8.422  0.0000  0.0000  0.0000
12392SI     SI112392   5.474   2.875   9.112  0.0000  0.0000  0.0000
12393SI     SI112393   1.699   0.288   0.762  0.0000  0.0000  0.0000
12394SI     SI112394   0.214   0.332   8.918  0.0000  0.0000  0.0000
12395SI     SI112395   0.177   0.330   8.404  0.0000  0.0000  0.0000
12396SI     SI112396   4.427   0.742   8.169  0.0000  0.0000  0.0000
12397SI     SI112397   1.186   3.510   9.156  0.0000  0.0000  0.0000
12398SI     SI112398   8.474   3.361   0.852  0.0000  0.0000  0.0000
12399SI     SI112399   2.074   5.077   8.986  0.0000  0.0000  0.0000
12400SI     SI112400   3.462   9.032   9.417  0.0000  0.0000  0.0000
12401SI     SI112401   8.866   5.085   0.593  0.0000  0.0000  0.0000
12402SI     SI112402   1.858   8.156   0.164  0.0000  0.0000  0.0000
12403SI     SI112403   6.151   8.529   8.635  0.0000  0.0000  0.0000
12404SI     SI112404   5.002   8.173   0.633  0.0000  0.0000  0.0000
12405SI     SI112405   1.477   5.399   1.079  0.0000  0.0000  0.0000
12406SI     SI112406   2.435   6.347   9.340  0.0000  0.0000  0.0000
12407SI     SI112407   8.140   2.998   0.526  0.0000  0.0000  0.0000
12408SI     SI112408   0.288   0.483   8.656  0.0000  0.0000  0.0000
12409SI     SI112409   9.444   3.383   0.016  0.0000  0.0000  0.0000
12410SI     SI112410   2.925   9.102   0.237  0.0000  0.0000  0.0000
12411SI     SI112411   3.453   1.664   9.000  0.0000  0.0000  0.0000
12412SI     SI112412   2.487   7.357   0.112  0.0000  0.0000  0.0000
12413SI     SI112413   1.589   3.203   9.119  0.0000  0.0000  0.0000
12414SI     SI112414   6.313   1.966   8.476  0.0000  0.0000  0.0000
12415SI     SI112415   4.826   3.786   9.542  0.0000  0.0000  0.0000
12416SI     SI112416   3.341   6.032   9.197  0.0000  0.0000  0.0000
12417SI     SI112417   3.827   6.871   8.967  0.0000  0.0000  0.0000
12418SI     SI112418   8.238   3.926   9.023  0.0000  0.0000  0.0000
12419SI     SI112419   4.876   1.968   1.158  0.0000  0.0000  0.0000
12420SI     SI112420   7.457   3.132   9.291  0.0000  0.0000  0.0000
12421SI     SI112421   8.240   0.864   9.154  0.0000  0.0000  0.0000
12422SI     SI112422   8.615   1.485   0.812  0.0000  0.0000  0.0000
12423SI     SI112423   3.957   8.787   0.370  0.0000  0.0000  0.0000
12424SI     SI112424   1.958   1.841   0.772  0.0000  0.0000  0.0000
12425SI     SI112425   8.844   7.340   9.120  0.0000  0.0000  0.0000
12426SI     SI112426   0.863   0.085   9.528  0.0000  0.0000  0.0000
12427SI     SI112427   1.940   4.522   1.061  0.0000  0.0000  0.0000
12428SI     SI112428   4.196   8.275   1.231  0.0000  0.0000  0.0000
12429SI     SI112429   9.029   1.856   1.275  0.0000  0.0000  0.0000
12430SI     SI112430   2.971   5.594   1.391  0.0000  0.0000  0.0000
12431SI     SI112431   1.790   6.462   8.886  0.0000  0.0000  0.0000
12432SI     SI112432   3.525   2.644   1.170  0.0000  0.0000  0.0000
12433SI     SI112433   6.803   8.174   0.681  0.0000  0.0000  0.0000
12434SI     SI112434   4.378   9.392   9.444  0.0000  0.0000  0.0000
12435SI     SI112435   5.533   9.177   1.060  0.0000  0.0000  0.0000
12436SI     SI112436   5.391   9.108   8.821  0.0000  0.0000  0.0000
12437SI     SI112437   2.218   4.579   8.411  0.0000  0.0000  0.0000
12438SI     SI112438   5.314   1.457   0.786  0.0000  0.0000  0.0000
12439SI     SI112439   9.332   8.884   1.060  0.0000  0.0000  0.0000
12440SI     SI112440   3.732   9.447   0.357  0.0000  0.0000  0.0000
12441SI     SI112441   2.313   1.760   8.423  0.0000  0.0000  0.0000
12442SI     SI112442   2.582   1.260   8.928  0.0000  0.0000  0.0000
12443SI     SI112443   8.803   5.625   9.521  0.0000  0.0000  0.0000
12444SI     SI112444   0.774   6.769   8.686  0.0000  0.0000  0.0000
12445SI     SI112445   8.056   5.698   8.813  0.0000  0.0000  0.0000
12446SI     SI112446   2.139   2.450   0.011  0.0000  0.0000  0.0000
12447SI     SI112447   1.663   0.561   0.912  0.0000  0.0000  0.0000
12448SI     SI112448   6.070   7.820   1.156  0.0000  0.0000  0.0000
12449SI     SI112449   5.584   5.254   0.643  0.0000  0.0000  0.0000
12450SI     SI112450   1.166   7.487   0.585  0.0000  0.0000  0.0000
12451SI     SI112451   7.906   1.922   8.937  0.0000  0.0000  0.0000
12452SI     SI112452   5.193   3.579   1.296  0.0000  0.0000  0.0000
12453SI     SI112453   7.290   8.722   0.280  0.0000  0.0000  0.0000
12454SI     SI112454   6.392   8.150   0.158  0.0000  0.0000  0.0000
12455SI     SI112455   7.318   7.793   0.101  0.0000  0.0000  0.0000
12456SI     SI112456   8.574   5.515   9.096  0.0000  0.0000  0.0000
12457SI     SI112457   9.251   8.583   1.000  0.0000  0.0000  0.0000
12458SI     SI112458   7.411   0.389   0.503  0.0000  0.0000  0.0000
12459SI     SI112459   1.802   0.048   0.935  0.0000  0.0000  0.0000
12460SI     SI112460   6.721   6.744   8.758  0.0000  0.0000  0.0000
12461SI     SI112461   4.852   1.208   0.542  0.0000  0.0000  0.0000
12462SI     SI112462   9.297   8.858   0.424  0.0000  0.0000  0.0000
12463SI     SI112463   3.075   9.130   8.550  0.0000  0.0000  0.0000
12464SI     SI112464   3.704   0.581   0.676  0.0000  0.0000  0.0000
12465SI     SI112465   4.330   4.596   8.651  0.0000  0.0000  0.0000
12466SI     SI112466   5.439   0.758   0.109  0.0000  0.0000  0.0000
12467SI     SI112467   0.872   5.561   1.109  0.0000  0.0000  0.0000
12468SI     SI112468   4.555   6.930   9.128  0.0000  0.0000  0.0000
12469SI     SI112469   3.425   0.015   8.649  0.0000  0.0000  0.0000
12470SI     SI112470   2.585   5.026   8.441  0.0000  0.0000  0.0000
12471SI     SI112471   2.670   3.720   8.524  0.0000  0.0000  0.0000
12472SI     SI112472   3.568   6.261   0.684  0.0000  0.0000  0.0000
12473SI     SI112473   7.613   1.721   1.040  0.0000  0.0000  0.0000
12474SI     SI112474   8.178   7.868   1.006  0.0000  0.0000  0.0000
12475SI     SI112475   5.285   2.211   0.036  0.0000  0.0000  0.0000
12476SI     SI112476   7.644   2.879   0.461  0.0000  0.0000  0.0000
12477SI     SI112477   1.456   0.269   0.586  0.0000  0.0000  0.0000
12478SI     SI112478   7.772   2.819   9.258  0.0000  0.0000  0.0000
12479SI     SI112479   0.101   8.733   8.469  0.0000  0.0000  0.0000
12480SI     SI112480   2.456   7.820   8.575  0.0000  0.0000  0.0000
12481SI     SI112481   8.191   1.286   8.826  0.0000  0.0000  0.0000
12482SI     SI112482   7.999   0.547   8.820  0.0000  0.0000  0.0000
12483SI     SI112483   3.341   0.456   8.425  0.0000  0.0000  0.0000
12484SI     SI112484   2.307   0.973   1.055  0.0000  0.0000  0.0000
12485SI     SI112485   7.823   0.174   1.068  0.0000  0.0000  0.0000
12486SI     SI112486   6.852   3.938   9.554  0.0000  0.0000  0.0000
12487SI     SI112487   8.614   9.189   1.122  0.0000  0.0000  0.0000
12488SI     SI112488   1.925   4.127   9.462  0.0000  0.0000  0.0000
12489SI     SI112489   0.870   5.898   0.212  0.0000  0.0000  0.0000
12490SI     SI112490   4.105   4.073   0.114  0.0000  0.0000  0.0000
12491SI     SI112491   6.130   7.613   8.325  0.0000  0.0000  0.0000
12492SI     SI112492   6.030   9.434   8.797  0.0000  0.0000  0.0000
12493SI     SI112493   5.054   1.068   0.351  0.0000  0.0000  0.0000
12494SI     SI112494   4.631   7.331   8.982  0.0000  0.0000  0.0000
12495SI     SI112495   9.286   8.678   8.983  0.0000  0.0000  0.0000
12496SI     SI112496   7.089   8.006   0.110  0.0000  0.0000  0.0000
12497SI     SI112497   6.823   5.809   0.516  0.0000  0.0000  0.0000
12498SI     SI112498   6.020   0.957   1.044  0.0000  0.0000  0.0000
12499SI     SI112499   4.133   4.416   0.700  0.0000  0.0000  0.0000
12500SI     SI112500   2.598   5.387   1.028  0.0000  0.0000  0.0000
12501SI     SI112501   8.817   2.203   9.511  0.0000  0.0000  0.0000
12502SI     SI112502   6.050   3.264   1.173  0.0000  0.0000  0.0000
12503SI     SI112503   8.661   8.520   0.077  0.0000  0.0000  0.0000
12504SI     SI112504   7.170   6.771   9.401  0.0000  0.0000  0.0000
12505SI     SI112505   3.654   7.416   0.080  0.0000  0.0000  0.0000
12506SI     SI112506   8.292   3.307   0.146  0.0000  0.0000  0.0000
12507SI     SI112507   7.552   4.424   8.760  0.0000  0.0000  0.0000
12508SI     SI112508   3.619   4.564   0.993  0.0000  0.0000  0.0000
12509SI     SI112509   2.962   8.283   8.180  0.0000  0.0000  0.0000
12510SI     SI112510   5.425   3.524   0.115  0.0000  0.0000  0.0000
12511SI     SI112511   0.272   5.325   8.533  0.0000  0.0000  0.0000
12512SI     SI112512   0.460   0.411   0.330  0.0000  0.0000  0.0000
12513SI     SI112513   9.457   4.320   0.745  0.0000  0.0000  0.0000
12514SI     SI112514   0.441   1.274   1.269  0.0000  0.0000  0.0000
12515SI     SI112515   7.730   3.489   1.360  0.0000  0.0000  0.0000
12516SI     SI112516   4.794   4.207   0.095  0.0000  0.0000  0.0000
12517SI     SI112517   2.685   6.240   9.495  0.0000  0.0000  0.0000
12518SI     SI112518   4.537   7.036   0.333  0.0000  0.0000  0.0000
12519SI     SI112519   5.883   7.473   9.099  0.0000  0.0000  0.0000
12520SI     SI112520   7.161   4.329   9.325  0.0000  0.0000  0.0000
12521SI     SI112521   7.299   4.073   8.934  0.0000  0.0000  0.0000
12522SI     SI112522   3.370   7.261   9.273  0.0000  0.0000  0.0000
12523SI     SI112523   9.232   1.141   0.958  0.0000  0.0000  0.0000
12524SI     SI112524   2.708   4.169   0.444  0.0000  0.0000  0.0000
12525SI     SI112525   8.194   1.966   8.540  0.0000  0.0000  0.0000
12526SI     SI112526   3.328   1.415   9.069  0.0000  0.0000  0.0000
12527SI     SI112527   8.787   0.971   9.222  0.0000  0.0000  0.0000
12528SI     SI112528   8.404   2.215   1.040  0.0000  0.0000  0.0000
12529SI     SI112529   2.645   1.772   8.736  0.0000  0.0000  0.0000
12530SI     SI112530   6.565   4.484   0.366  0.0000  0.0000  0.0000
12531SI     SI112531   9.556   1.618   0.161  0.0000  0.0000  0.0000
12532SI     SI112532   9.439   5.673   0.539  0.0000  0.0000  0.0000
12533SI     SI112533   4.884   6.556   8.974  0.0000  0.0000  0.0000
12534SI     SI112534   0.347   4.098   9.401  0.0000  0.0000  0.0000
12535SI     SI112535   8.564   5.572   0.922  0.0000  0.0000  0.0000
12536SI     SI112536   2.402   0.280   0.635  0.0000  0.0000  0.0000
12537SI     SI112537   1.599   2.099   0.810  0.0000  0.0000  0.0000
12538SI     SI112538   5.456   8.310   0.133  0.0000  0.0000  0.0000
12539SI     SI112539   5.841   4.191   9.476  0.0000  0.0000  0.0000
12540SI     SI112540   0.424   2.673   1.063  0.0000  0.0000  0.0000
12541SI     SI112541   6.454   6.155   0.007  0.0000  0.0000  0.0000
12542SI     SI112542   6.429   1.627   0.990  0.0000  0.0000  0.0000
12543SI     SI112543   5.288   9.044   1.164  0.0000  0.0000  0.0000
12544SI     SI112544   8.133   4.340   0.487  0.0000  0.0000  0.0000
12545SI     SI112545   6.453   3.952   8.830  0.0000  0.0000  0.0000
12546SI     SI112546   4.637   2.844   8.652  0.0000  0.0000  0.0000
12547SI     SI112547   5.059   4.172   8.526  0.0000  0.0000  0.0000
12548SI     SI112548   9.319   2.501   0.481  0.0000  0.0000  0.0000
12549SI     SI112549   1.283   8.956   0.098  0.0000  0.0000  0.0000
12550SI     SI112550   8.928   1.498   0.823  0.0000  0.0000  0.0000
12551SI     SI112551   2.707   3.566   0.030  0.0000  0.0000  0.0000
12552SI     SI112552   4.170   3.890   8.784  0.0000  0.0000  0.0000
12553SI     SI112553   7.622   5.861   9.334  0.0000  0.0000  0.0000
12554SI     SI112554   9.251   6.777   1.075  0.0000  0.0000  0.0000
12555SI     SI112555   7.451   5.806   8.453  0.0000  0.0000  0.0000
12556SI     SI112556   8.518   5.868   0.300  0.0000  0.0000  0.0000
12557SI     SI112557   5.042   8.894   0.853  0.0000  0.0000  0.0000
12558SI     SI112558   6.806   7.332   0.611  0.0000  0.0000  0.0000
12559SI     SI112559   2.222   9.412   0.403  0.0000  0.0000  0.0000
12560SI     SI112560   2.765   8.262   8.801  0.0000  0.0000  0.0000
12561SI     SI112561   2.704   6.458   0.310  0.0000  0.0000  0.0000
12562SI     SI112562   1.613   4.385   0.747  0.0000  0.0000  0.0000
12563SI     SI112563   6.562   7.184   0.601  0.0000  0.0000  0.0000
12564SI     SI112564   9.335   1.718   9.025  0.0000  0.0000  0.0000
12565SI     SI112565   1.163   1.697   9.519  0.0000  0.0000  0.0000
12566SI     SI112566   4.630   5.730   9.102  0.0000  0.0000  0.0000
12567SI     SI112567   7.808   1.648   9.400  0.0000  0.0000  0.0000
12568SI     SI112568   9.327   0.734   0.660  0.0000  0.0000  0.0000
12569SI     SI112569   1.619   9.536   0.298  0.0000  0.0000  0.0000
12570SI     SI112570   7.342   3.126   0.163  0.0000  0.0000  0.0000
12571SI     SI112571   8.184   7.839   8.398  0.0000  0.0000  0.0000
12572SI     SI112572   8.424   1.850   8.951  0.0000  0.0000  0.0000
12573SI     SI112573   6.890   9.535   0.514  0.0000  0.0000  0.0000
12574SI     SI112574   9.151   9.189   8.837  0.0000  0.0000  0.0000
12575SI     SI112575   0.766   8.155   8.444  0.0000  0.0000  0.0000
12576SI     SI112576   1.048   6.593   9.522  0.0000  0.0000  0.0000
12577SI     SI112577   1.076   3.530   0.776  0.0000  0.0000  0.0000
12578SI     SI112578   7.998   3.726   0.280  0.0000  0.0000  0.0000
12579SI     SI112579   6.162   4.836   9.518  0.0000  0.0000  0.0000
12580SI     SI112580   2.275   8.308   0.168  0.0000  0.0000  0.0000
12581SI     SI112581   2.512   6.880   0.257  0.0000  0.0000  0.0000
12582SI     SI112582   4.305   3.916   9.533  0.0000  0.0000  0.0000
12583SI     SI112583   6.763   7.590   0.433  0.0000  0.0000  0.0000
12584SI     SI112584   4.925   0.907   9.508  0.0000  0.0000  0.0000
12585SI     SI112585   5.595   9.558   8.566  0.0000  0.0000  0.0000
12586SI     SI112586   7.070   3.715   9.187  0.0000  0.0000  0.0000
12587SI     SI112587   4.387   3.394   9.557  0.0000  0.0000  0.0000
12588SI     SI112588   4.962   7.962   0.862  0.0000  0.0000  0.0000
12589SI     SI112589   4.781   9.254   9.231  0.0000  0.0000  0.0000
12590SI     SI112590   2.322   8.432   1.002  0.0000  0.0000  0.0000
12591SI     SI112591   3.491   8.160   1.049  0.0000  0.0000  0.0000
12592SI     SI112592   2.823   5.346   0.565  0.0000  0.0000  0.0000
12593SI     SI112593   8.686   2.182   0.193  0.0000  0.0000  0.0000
12594SI     SI112594   5.156   4.471   8.549  0.0000  0.0000  0.0000
12595SI     SI112595   8.424   5.044   8.881  0.0000  0.0000  0.0000
12596SI     SI112596   5.095   0.471   0.749  0.0000  0.0000  0.0000
12597SI     SI112597   3.552   6.766   1.031  0.0000  0.0000  0.0000
12598SI     SI112598   0.224   3.863   9.266  0.0000  0.0000  0.0000
12599SI     SI112599   2.614   2.459   8.593  0.0000  0.0000  0.0000
12600SI     SI112600   4.222   8.770   1.249  0.0000  0.0000  0.0000
12601SI     SI112601   8.908   3.014   0.073  0.0000  0.0000  0.0000
12602SI     SI112602   0.882   3.022   1.306  0.0000  0.0000  0.0000
12603SI     SI112603   3.720   5.999   9.554  0.0000  0.0000  0.0000
12604SI     SI112604   1.612   9.145   0.898  0.0000  0.0000  0.0000
12605SI     SI112605   1.845   3.312   8.976  0.0000  0.0000  0.0000
12606SI     SI112606   5.837   8.519   8.642  0.0000  0.0000  0.0000
12607SI     SI112607   0.318   3.117   9.583  0.0000  0.0000  0.0000
12608SI     SI112608   7.777   6.062   0.507  0.0000  0.0000  0.0000
12609SI     SI112609   2.855   0.153   0.905  0.0000  0.0000  0.0000
12610SI     SI112610   9.033   1.109   0.715  0.0000  0.0000  0.0000
12611SI     SI112611   2.151   0.567   0.184  0.0000  0.0000  0.0000
12612SI     SI112612   6.412   7.099   0.188  0.0000  0.0000  0.0000
12613SI     SI112613   5.547   2.521   9.381  0.0000  0.0000  0.0000
12614SI     SI112614   5.448   2.259   8.721  0.0000  0.0000  0.0000
12615SI     SI112615   0.548   6.251   8.515  0.0000  0.0000  0.0000
12616SI     SI112616   5.113   0.019   9.145  0.0000  0.0000  0.0000
12617SI     SI112617   8.190   8.664   0.221  0.0000  0.0000  0.0000
12618SI     SI112618   3.623   7.882   0.979  0.0000  0.0000  0.0000
12619SI     SI112619   0.341   4.917   0.265  0.0000  0.0000  0.0000
12620SI     SI112620   7.250   2.035   9.207  0.0000  0.0000  0.0000
12621SI     SI112621   4.019   8.090   8.582  0.0000  0.0000  0.0000
12622SI     SI112622   4.041   2.955   9.066  0.0000  0.0000  0.0000
12623SI     SI112623   1.113   4.685   0.834  0.0000  0.0000  0.0000
12624SI     SI112624   7.440   3.921   0.539  0.0000  0.0000  0.0000
12625SI     SI112625   7.188   6.397   0.740  0.0000  0.0000  0.0000
12626SI     SI112626   5.215   9.490   0.528  0.0000  0.0000  0.0000
12627SI     SI112627   5.260   2.059   8.591  0.0000  0.0000  0.0000
12628SI     SI112628   2.764   9.466   1.259  0.0000  0.0000  0.0000
12629SI     SI112629   0.100   8.290   0.350  0.0000  0.0000  0.0000
12630SI     SI112630   7.520   6.302   1.031  0.0000  0.0000  0.0000
12631SI     SI112631   7.156   3.032   9.318  0.0000  0.0000  0.0000
12632SI     SI112632   3.546   0.849   1.164  0.0000  0.0000  0.0000
12633SI     SI112633   5.398   5.371   8.383  0.0000  0.0000  0.0000
12634SI     SI112634   2.752   4.420   0.056  0.0000  0.0000  0.0000
12635SI     SI112635   6.086   5.656   9.196  0.0000  0.0000  0.0000
12636SI     SI112636   6.879   0.406   9.162  0.0000  0.0000  0.0000
12637SI     SI112637   5.255   6.463   0.426  0.0000  0.0000  0.0000
12638SI     SI112638   0.078   2.288   1.232  0.0000  0.0000  0.0000
12639SI     SI112639   1.927   1.565   8.649  0.0000  0.0000  0.0000
12640SI     SI112640   5.747   7.816   8.623  0.0000  0.0000  0.0000
12641SI     SI112641   3.715   3.825   8.533  0.0000  0.0000  0.0000
12642SI     SI112642   8.117   6.179   8.759  0.0000  0.0000  0.0000
12643SI     SI112643   1.005   9.203   0.994  0.0000  0.0000  0.0000
12644SI     SI112644   4.685   7.010   0.614  0.0000  0.0000  0.0000
12645SI     SI112645   4.111   1.936   9.164  0.0000  0.0000  0.0000
12646SI     SI112646   8.827   3.972   8.555  0.0000  0.0000  0.0000
12647SI     SI112647   4.416   0.768   8.689  0.0000  0.0000  0.0000
12648SI     SI112648   1.359   9.587   8.533  0.0000  0.0000  0.0000
12649SI     SI112649   8.702   4.520   8.502  0.0000  0.0000  0.0000
12650SI     SI112650   7.927   4.002   8.431  0.0000  0.0000  0.0000
12651SI     SI112651   5.710   9.012   0.860  0.0000  0.0000  0.0000
12652SI     SI112652   3.327   4.922   9.234  0.0000  0.0000  0.0000
12653SI     SI112653   4.851   1.678   8.970  0.0000  0.0000  0.0000
12654SI     SI112654   6.481   8.996   9.581  0.0000  0.0000  0.0000
12655SI     SI112655   1.810   1.041   8.393  0.0000  0.0000  0.0000
12656SI     SI112656   6.756   0.154   9.046  0.0000  0.0000  0.0000
12657SI     SI112657   6.366   4.104   8.387  0.0000  0.0000  0.0000
12658SI     SI112658   3.160   0.564   9.409  0.0000  0.0000  0.0000
12659SI     SI112659   0.582   0.094   0.817  0.0000  0.0000  0.0000
12660SI     SI112660   5.888   7.148   8.384  0.0000  0.0000  0.0000
12661SI     SI112661   2.525   1.976   9.450  0.0000  0.0000  0.0000
12662SI     SI112662   3.956   2.306   0.460  0.0000  0.0000  0.0000
12663SI     SI112663   1.041   7.000   9.246  0.0000  0.0000  0.0000
12664SI     SI112664   9.144   8.004   9.399  0.0000  0.0000  0.0000
12665SI     SI112665   7.165   1.018   0.097  0.0000  0.0000  0.0000
12666SI     SI112666   8.647   4.306   8.966  0.0000  0.0000  0.0000
12667SI     SI112667   8.792   0.515   0.730  0.0000  0.0000  0.0000
12668SI     SI112668   9.060   0.377   9.560  0.0000  0.0000  0.0000
12669SI     SI112669   7.537   2.963   8.780  0.0000  0.0000  0.0000
12670SI     SI112670   8.121   0.077   1.107  0.0000  0.0000  0.0000
12671SI     SI112671   1.927   1.403   0.949  0.0000  0.0000  0.0000
12672SI     SI112672   1.043   1.268   0.288  0.0000  0.0000  0.0000
12673SI     SI112673   8.495   3.649   0.749  0.0000  0.0000  0.0000
12674SI     SI112674   0.299   7.642   0.511  0.0000  0.0000  0.0000
12675SI     SI112675   9.444   9.386   0.041  0.0000  0.0000  0.0000
12676SI     SI112676   8.509   6.396   9.327  0.0000  0.0000  0.0000
12677SI     SI112677   2.784   7.206   9.397  0.0000  0.0000  0.0000
12678SI     SI112678   6.569   7.529   8.635  0.0000  0.0000  0.0000
12679SI     SI112679   6.956   7.841   9.095  0.0000  0.0000  0.0000
12680SI     SI112680   4.604   4.368   1.029  0.0000  0.0000  0.0000
12681SI     SI112681   3.525   3.446   1.232  0.0000  0.0000  0.0000
12682SI     SI112682   2.560   7.416   9.304  0.0000  0.0000  0.0000
12683SI     SI112683   2.222   4.726   8.690  0.0000  0.0000  0.0000
12684SI     SI112684   9.098   2.344   9.584  0.0000  0.0000  0.0000
12685SI     SI112685   7.881   6.193   8.937  0.0000  0.0000  0.0000
12686SI     SI112686   5.821   9.102   9.373  0.0000  0.0000  0.0000
12687SI     SI112687   7.158   5.682   0.773  0.0000  0.0000  0.0000
12688SI     SI112688   3.126   6.092   8.395  0.0000  0.0000  0.0000
12689SI     SI112689   8.182   9.481   8.769  0.0000  0.0000  0.0000
12690SI     SI112690   0.115   7.888   0.973  0.0000  0.0000  0.0000
12691SI     SI112691   0.530   7.382   0.095  0.0000  0.0000  0.0000
12692SI     SI112692   0.216   5.989   1.121  0.0000  0.0000  0.0000
12693SI     SI112693   9.123   1.423   9.362  0.0000  0.0000  0.0000
12694SI     SI112694   1.382   0.961   8.741  0.0000  0.0000  0.0000
12695SI     SI112695   2.110   3.523   9.339  0.0000  0.0000  0.0000
12696SI     SI112696   3.525   5.880   8.432  0.0000  0.0000  0.0000
12697SI     SI112697   6.614   0.591   1.073  0.0000  0.0000  0.0000
12698SI     SI112698   7.636   8.702   8.953  0.0000  0.0000  0.0000
12699SI     SI112699   7.582   6.538   8.615  0.0000  0.0000  0.0000
12700SI     SI112700   3.332   4.595   9.573  0.0000  0.0000  0.0000
12701SI     SI112701   5.257   1.280   9.460  0.0000  0.0000  0.0000
12702SI     SI112702   8.195   6.338   0.557  0.0000  0.0000  0.0000
12703SI     SI112703   2.125   2.934   0.266  0.0000  0.0000  0.0000
12704SI     SI112704   3.643   3.513   0.506  0.0000  0.0000  0.0000
12705SI     SI112705   5.035   8.136   1.101  0.0000  0.0000  0.0000
12706SI     SI112706   6.512   6.222   0.508  0.0000  0.0000  0.0000
12707SI     SI112707   8.489   2.266   0.756  0.0000  0.0000  0.0000
12708SI     SI112708   0.023   3.355   8.480  0.0000  0.0000  0.0000
12709SI     SI112709   4.257   5.378   0.030  0.0000  0.0000  0.0000
12710SI     SI112710   0.708   6.484   8.780  0.0000  0.0000  0.0000
12711SI     SI112711   6.350   6.018   0.695  0.0000  0.0000  0.0000
12712SI     SI112712   3.797   0.269   8.637  0.0000  0.0000  0.0000
12713SI     SI112713   8.106   1.629   0.222  0.0000  0.0000  0.0000
12714SI     SI112714   8.825   3.693   8.406  0.0000  0.0000  0.0000
12715SI     SI112715   4.061   8.232   9.375  0.0000  0.0000  0.0000
12716SI     SI112716   6.770   1.451   8.516  0.0000  0.0000  0.0000
12717SI     SI112717   1.514   3.607   8.912  0.0000  0.0000  0.0000
12718SI     SI112718   4.698   0.426   9.569  0.0000  0.0000  0.0000
12719SI     SI112719   8.896   4.167   9.040  0.0000  0.0000  0.0000
12720SI     SI112720   4.116   3.560   0.270  0.0000  0.0000  0.0000
12721SI     SI112721   5.052   7.304   1.048  0.0000  0.0000  0.0000
12722SI     SI112722   6.452   5.137   0.703  0.0000  0.0000  0.0000
12723SI     SI112723   4.850   4.396   8.262  0.0000  0.0000  0.0000
12724SI     SI112724   2.100   4.958   1.057  0.0000  0.0000  0.0000
12725SI     SI112725   5.687   7.297   8.951  0.0000  0.0000  0.0000
12726SI     SI112726   1.097   5.743   0.364  0.0000  0.0000  0.0000
12727SI     SI112727   0.993   8.428   8.328  0.0000  0.0000  0.0000
12728SI     SI112728   4.658   0.362   0.684  0.0000  0.0000  0.0000
12729SI     SI112729   3.514   2.925   9.598  0.0000  0.0000  0.0000
12730SI     SI112730   7.614   7.572   8.597  0.0000  0.0000  0.0000
12731SI     SI112731   2.702   5.491   8.738  0.0000  0.0000  0.0000
12732SI     SI112732   2.144   8.371   9.214  0.0000  0.0000  0.0000
12733SI     SI112733   8.505   0.746   1.029  0.0000  0.0000  0.0000
12734SI     SI112734   5.437   0.736   1.026  0.0000  0.0000  0.0000
12735SI     SI112735   9.108   5.079   9.152  0.0000  0.0000  0.0000
12736SI     SI112736   9.160   0.310   9.273  0.0000  0.0000  0.0000
12737SI     SI112737   6.048   9.145   8.931  0.0000  0.0000  0.0000
12738SI     SI112738   0.436   4.318   1.171  0.0000  0.0000  0.0000
12739SI     SI112739   3.667   7.356   9.227  0.0000  0.0000  0.0000
12740SI     SI112740   5.622   8.802   1.061  0.0000  0.0000  0.0000
12741SI     SI112741   1.858   1.713   9.223  0.0000  0.0000  0.0000
12742SI     SI112742   0.232   8.716   0.352  0.0000  0.0000  0.0000
12743SI     SI112743   3.578   2.762   8.525  0.0000  0.0000  0.0000
12744SI     SI112744   0.368   8.503   9.421  0.0000  0.0000  0.0000
12745SI     SI112745   1.549   6.068   8.942  0.0000  0.0000  0.0000
12746SI     SI112746   7.430   8.550   9.120  0.0000  0.0000  0.0000
12747SI     SI112747   9.496   7.901   0.494  0.0000  0.0000  0.0000
12748SI     SI112748   7.129   6.017   9.111  0.0000  0.0000  0.0000
12749SI     SI112749   6.355   3.497   8.935  0.0000  0.0000  0.0000
12750SI     SI112750   5.974   7.577   1.025  0.0000  0.0000  0.0000
12751SI     SI112751   2.970   6.415   0.447  0.0000  0.0000  0.0000
12752SI     SI112752   4.500   0.364   0.205  0.0000  0.0000  0.0000
12753SI     SI112753   0.808   7.343   1.087  0.0000  0.0000  0.0000
12754SI     SI112754   3.024   9.282   9.359  0.0000  0.0000  0.0000
12755SI     SI112755   7.723   2.047   8.252  0.0000  0.0000  0.0000
12756SI     SI112756   3.982   1.952   8.692  0.0000  0.0000  0.0000
12757SI     SI112757   5.710   8.477   0.032  0.0000  0.0000  0.0000
12758SI     SI112758   3.907   8.472   8.939  0.0000  0.0000  0.0000
12759SI     SI112759   4.052   6.132   0.939  0.0000  0.0000  0.0000
12760SI     SI112760   4.211   7.460   1.005  0.0000  0.0000  0.0000
12761SI     SI112761   5.329   2.756   1.188  0.0000  0.0000  0.0000
12762SI     SI112762   1.833   5.928   0.834  0.0000  0.0000  0.0000
12763SI     SI112763   0.466   6.564   9.214  0.0000  0.0000  0.0000
12764SI     SI112764   0.330   8.942   9.193  0.0000  0.0000  0.0000
12765SI     SI112765   6.787   7.890   0.651  0.0000  0.0000  0.0000
12766SI     SI112766   2.701   9.273   0.327  0.0000  0.0000  0.0000
12767SI     SI112767   3.059   8.386   0.825  0.0000  0.0000  0.0000
12768SI     SI112768   5.612   9.551   9.053  0.0000  0.0000  0.0000
12769SI     SI112769   5.577   8.620   8.160  0.0000  0.0000  0.0000
12770SI     SI112770   3.360   7.888   9.211  0.0000  0.0000  0.0000
12771SI     SI112771   7.293   9.066   8.792  0.0000  0.0000  0.0000
12772SI     SI112772   9.200   4.455   8.719  0.0000  0.0000  0.0000
12773SI     SI112773   4.571   0.281   8.442  0.0000  0.0000  0.0000
12774SI     SI112774   5.970   2.399   0.213  0.0000  0.0000  0.0000
12775SI     SI112775   7.994   8.496   1.094  0.0000  0.0000  0.0000
12776SI     SI112776   9.579   3.643   0.133  0.0000  0.0000  0.0000
12777SI     SI112777   1.891   0.614   0.010  0.0000  0.0000  0.0000
12778SI     SI112778   2.168   5.346   8.339  0.0000  0.0000  0.0000
12779SI     SI112779   0.364   5.870   8.614  0.0000  0.0000  0.0000
12780SI     SI112780   1.264   4.359   9.248  0.0000  0.0000  0.0000
12781SI     SI112781   9.163   5.791   0.494  0.0000  0.0000  0.0000
12782SI     SI112782   8.870   9.309   0.436  0.0000  0.0000  0.0000
12783SI     SI112783   9.482   5.069   1.320  0.0000  0.0000  0.0000
12784SI     SI112784   9.267   4.961   8.928  0.0000  0.0000  0.0000
12785SI     SI112785   0.584   5.371   1.390  0.0000  0.0000  0.0000
12786SI     SI112786   4.765   3.517   0.958  0.0000  0.0000  0.0000
12787SI     SI112787   8.672   3.192   0.728  0.0000  0.0000  0.0000
12788SI     SI112788   1.411   9.201   0.524  0.0000  0.0000  0.0000
12789SI     SI112789   4.162   6.262   0.020  0.0000  0.0000  0.0000
12790SI     SI112790   5.674   6.185   8.724  0.0000  0.0000  0.0000
12791SI     SI112791   8.616   5.632   8.529  0.0000  0.0000  0.0000
12792SI     SI112792   0.538   1.115   9.368  0.0000  0.0000  0.0000
12793SI     SI112793   6.577   1.611   8.666  0.0000  0.0000  0.0000
12794SI     SI112794   0.505   9.142   9.368  0.0000  0.0000  0.0000
12795SI     SI112795   7.029   4.257   8.612  0.0000  0.0000  0.0000
12796SI     SI112796   6.722   8.020   9.483  0.0000  0.0000  0.0000
12797SI     SI112797   7.573   9.127   9.558  0.0000  0.0000  0.0000
12798SI     SI112798   7.782   2.898   9.563  0.0000  0.0000  0.0000
12799SI     SI112799   5.738   8.049   1.206  0.0000  0.0000  0.0000
12800SI     SI112800   0.699   3.155   8.644  0.0000  0.0000  0.0000
12801SI     SI112801   3.390   2.573   0.904  0.0000  0.0000  0.0000
12802SI     SI112802   8.345   0.541   0.845  0.0000  0.0000  0.0000
12803SI     SI112803   9.546   3.204   1.203  0.0000  0.0000  0.0000
12804SI     SI112804   4.363   0.436   0.986  0.0000  0.0000  0.0000
12805SI     SI112805   1.470   3.357   0.707  0.0000  0.0000  0.0000
12806SI     SI112806   3.880   2.602   0.098  0.0000  0.0000  0.0000
12807SI     SI112807   5.870   8.084   0.801  0.0000  0.0000  0.0000
12808SI     SI112808   0.427   0.312   8.215  0.0000  0.0000  0.0000
12809SI     SI112809   4.099   8.885   8.848  0.0000  0.0000  0.0000
12810SI     SI112810   4.510   2.419   0.793  0.0000  0.0000  0.0000
12811SI     SI112811   2.124   6.598   0.027  0.0000  0.0000  0.0000
12812SI     SI112812   0.395   3.602   8.667  0.0000  0.0000  0.0000
12813SI     SI112813   7.311   0.925   0.567  0.0000  0.0000  0.0000
12814SI     SI112814   6.120   7.459   1.282  0.0000  0.0000  0.0000
12815SI     SI112815   7.166   7.898   9.296  0.0000  0.0000  0.0000
12816SI     SI112816   2.876   6.431   0.738  0.0000  0.0000  0.0000
12817SI     SI112817   3.623   1.192   0.762  0.0000  0.0000  0.0000
12818SI     SI112818   8.257   5.948   0.422  0.0000  0.0000  0.0000
12819SI     SI112819   2.405   7.164   8.412  0.0000  0.0000  0.0000
12820SI     SI112820   5.691   3.398   0.238  0.0000  0.0000  0.0000
12821SI     SI112821   0.970   4.786   9.145  0.0000  0.0000  0.0000
12822SI     SI112822   3.107   1.498   8.667  0.0000  0.0000  0.0000
12823SI     SI112823   3.866   4.451   1.154  0.0000  0.0000  0.0000
12824SI     SI112824   5.019   6.619   0.543  0.0000  0.0000  0.0000
12825SI     SI112825   6.444   1.935   0.351  0.0000  0.0000  0.0000
12826SI     SI112826   1.174   1.319   8.842  0.0000  0.0000  0.0000
12827SI     SI112827   2.622   2.362   0.719  0.0000  0.0000  0.0000
12828SI     SI112828   9.501   2.363   0.688  0.0000  0.0000  0.0000
12829SI     SI112829   7.422   8.042   8.730  0.0000  0.0000  0.0000
12830SI     SI112830   3.161   6.206   0.303  0.0000  0.0000  0.0000
12831SI     SI112831   3.568   8.271   8.519  0.0000  0.0000  0.0000
12832SI     SI112832   8.683   3.678   8.848  0.0000  0.0000  0.0000
12833SI     SI112833   0.115   1.328   9.360  0.0000  0.0000  0.0000
12834SI     SI112834   1.285   0.138   9.269  0.0000  0.0000  0.0000
12835SI     SI112835   4.760   5.555   0.958  0.0000  0.0000  0.0000
12836SI     SI112836   4.043   4.601   0.940  0.0000  0.0000  0.0000
12837SI     SI112837   9.440   7.041   0.049  0.0000  0.0000  0.0000
12838SI     SI112838   8.934   8.964   0.772  0.0000  0.0000  0.0000
12839SI     SI112839   3.864   4.173   1.306  0.0000  0.0000  0.0000
12840SI     SI112840   1.859   2.825   0.182  0.0000  0.0000  0.0000
12841SI     SI112841   1.863   7.358   8.602  0.0000  0.0000  0.0000
12842SI     SI112842   6.641   2.958   8.555  0.0000  0.0000  0.0000
12843SI     SI112843   5.173   2.923   0.832  0.0000  0.0000  0.0000
12844SI     SI112844   1.434   0.131   8.801  0.0000  0.0000  0.0000
12845SI     SI112845   5.198   8.961   9.324  0.0000  0.0000  0.0000
12846SI     SI112846   8.071   4.829   0.279  0.0000  0.0000  0.0000
12847SI     SI112847   1.100   8.379   9.384  0.0000  0.0000  0.0000
12848SI     SI112848   0.793   1.263   9.470  0.0000  0.0000  0.0000
12849SI     SI112849   6.041   4.191   1.126  0.0000  0.0000  0.0000
12850SI     SI112850   5.888   4.981   1.354  0.0000  0.0000  0.0000
12851SI     SI112851   5.421   5.811   0.947  0.0000  0.0000  0.0000
12852SI     SI112852   6.548   3.997   9.489  0.0000  0.0000  0.0000
12853SI     SI112853   8.749   0.370   9.528  0.0000  0.0000  0.0000
12854SI     SI112854   3.084   0.695   9.151  0.0000  0.0000  0.0000
12855SI     SI112855   9.577   6.668   8.964  0.0000  0.0000  0.0000
12856SI     SI112856   8.059   5.135   0.251  0.0000  0.0000  0.0000
12857SI     SI112857   6.766   6.298   8.816  0.0000  0.0000  0.0000
12858SI     SI112858   6.170   6.256   0.737  0.0000  0.0000  0.0000
12859SI     SI112859   5.196   2.822   0.558  0.0000  0.0000  0.0000
12860SI     SI112860   7.391   1.168   9.557  0.0000  0.0000  0.0000
12861SI     SI112861   4.117   9.172   8.769  0.0000  0.0000  0.0000
12862SI     SI112862   0.428   5.314   9.476  0.0000  0.0000  0.0000
12863SI     SI112863   5.837   1.458   1.112  0.0000  0.0000  0.0000
12864SI     SI112864   6.697   0.062   1.123  0.0000  0.0000  0.0000
12865SI     SI112865   4.233   2.205   9.058  0.0000  0.0000  0.0000
12866SI     SI112866   6.543   5.163   0.991  0.0000  0.0000  0.0000
12867SI     SI112867   1.300   6.146   0.044  0.0000  0.0000  0.0000
12868SI     SI112868   7.930   7.737   8.253  0.0000  0.0000  0.0000
12869SI     SI112869   5.221   9.111   0.767  0.0000  0.0000  0.0000
12870SI     SI112870   1.180   1.457   1.409  0.0000  0.0000  0.0000
12871SI     SI112871   8.704   9.044   9.392  0.0000  0.0000  0.0000
12872SI     SI112872   9.124   1.557   1.271  0.0000  0.0000  0.0000
12873SI     SI112873   8.768   9.465   9.371  0.0000  0.0000  0.0000
12874SI     SI112874   1.598   4.005   0.559  0.0000  0.0000  0.0000
12875SI     SI112875   5.863   4.260   8.319  0.0000  0.0000  0.0000
12876SI     SI112876   4.714   5.602   8.208  0.0000  0.0000  0.0000
12877SI     SI112877   5.630   5.402   8.189  0.0000  0.0000  0.0000
12878SI     SI112878   6.080   4.203   0.067  0.0000  0.0000  0.0000
12879SI     SI112879   0.443   3.828   0.440  0.0000  0.0000  0.0000
12880SI     SI112880   6.052   8.186   8.912  0.0000  0.0000  0.0000
12881SI     SI112881   5.952   3.194   8.900  0.0000  0.0000  0.0000
12882SI     SI112882   3.385   6.967   0.071  0.0000  0.0000  0.0000
12883SI     SI112883   7.873   3.327   8.798  0.0000  0.0000  0.0000
12884SI     SI112884   5.745   8.513   0.538  0.0000  0.0000  0.0000
12885SI     SI112885   8.457   1.982   0.139  0.0000  0.0000  0.0000
12886SI     SI112886   5.952   2.285   8.267  0.0000  0.0000  0.0000
12887SI     SI112887   8.613   2.723   9.461  0.0000  0.0000  0.0000
12888SI     SI112888   3.924   2.424   8.522  0.0000  0.0000  0.0000
12889SI     SI112889   2.770   5.635   0.669  0.0000  0.0000  0.0000
12890SI     SI112890   1.553   3.265   0.351  0.0000  0.0000  0.0000
12891SI     SI112891   2.440   2.884   8.805  0.0000  0.0000  0.0000
12892SI     SI112892   6.655   5.691   0.036  0.0000  0.0000  0.0000
12893SI     SI112893   6.869   0.972   1.410  0.0000  0.0000  0.0000
12894SI     SI112894   6.253   0.590   9.500  0.0000  0.0000  0.0000
12895SI     SI112895   0.026   1.763   8.927  0.0000  0.0000  0.0000
12896SI     SI112896   5.292   4.635   9.258  0.0000  0.0000  0.0000
12897SI     SI112897   5.103   2.541   8.707  0.0000  0.0000  0.0000
12898SI     SI112898   7.956   4.810   0.576  0.0000  0.0000  0.0000
12899SI     SI112899   8.285   4.718   1.422  0.0000  0.0000  0.0000
12900SI     SI112900   3.142   5.877   0.896  0.0000  0.0000  0.0000
12901SI     SI112901   0.972   0.370   9.046  0.0000  0.0000  0.0000
12902SI     SI112902   2.810   3.409   8.992  0.0000  0.0000  0.0000
12903SI     SI112903   2.494   6.364   8.403  0.0000  0.0000  0.0000
12904SI     SI112904   2.830   8.998   9.042  0.0000  0.0000  0.0000
12905SI     SI112905   0.166   0.661   9.366  0.0000  0.0000  0.0000
12906SI     SI112906   5.994   3.618   9.231  0.0000  0.0000  0.0000
12907SI     SI112907   7.719   3.393   9.601  0.0000  0.0000  0.0000
12908SI     SI112908   5.792   2.040   9.551  0.0000  0.0000  0.0000
12909SI     SI112909   1.321   2.863   9.043  0.0000  0.0000  0.0000
12910SI     SI112910   1.610   5.722   0.835  0.0000  0.0000  0.0000
12911SI     SI112911   0.433   3.651   8.366  0.0000  0.0000  0.0000
12912SI     SI112912   7.762   6.073   9.191  0.0000  0.0000  0.0000
12913SI     SI112913   4.956   1.209   1.234  0.0000  0.0000  0.0000
12914SI     SI112914   1.174   8.556   0.774  0.0000  0.0000  0.0000
12915SI     SI112915   1.030   5.197   8.375  0.0000  0.0000  0.0000
12916SI     SI112916   5.310   0.640   9.251  0.0000  0.0000  0.0000
12917SI     SI112917   0.974   6.507   9.232  0.0000  0.0000  0.0000
12918SI     SI112918   6.454   3.778   9.283  0.0000  0.0000  0.0000
12919SI     SI112919   3.808   2.292   0.947  0.0000  0.0000  0.0000
12920SI     SI112920   5.632   6.460   1.160  0.0000  0.0000  0.0000
12921SI     SI112921   4.548   4.174   0.595  0.0000  0.0000  0.0000
12922SI     SI112922   2.178   2.166   1.107  0.0000  0.0000  0.0000
12923SI     SI112923   6.491   0.119   0.903  0.0000  0.0000  0.0000
12924SI     SI112924   5.035   1.702   1.076  0.0000  0.0000  0.0000
12925SI     SI112925   8.496   1.929   8.467  0.0000  0.0000  0.0000
12926SI     SI112926   8.775   8.291   9.334  0.0000  0.0000  0.0000
12927SI     SI112927   7.875   8.783   9.101  0.0000  0.0000  0.0000
12928SI     SI112928   8.123   0.395   9.148  0.0000  0.0000  0.0000
12929SI     SI112929   5.644   1.498   8.251  0.0000  0.0000  0.0000
12930SI     SI112930   6.026   8.062   0.540  0.0000  0.0000  0.0000
12931SI     SI112931   1.647   3.463   9.464  0.0000  0.0000  0.0000
12932SI     SI112932   3.673   7.595   9.441  0.0000  0.0000  0.0000
12933SI     SI112933   2.845   8.088   8.370  0.0000  0.0000  0.0000
12934SI     SI112934   8.210   8.881   0.783  0.0000  0.0000  0.0000
12935SI     SI112935   7.391   5.243   8.467  0.0000  0.0000  0.0000
12936SI     SI112936   1.910   3.715   9.220  0.0000  0.0000  0.0000
12937SI     SI112937   3.643   9.423   0.057  0.0000  0.0000  0.0000
12938SI     SI112938   7.955   6.224   0.091  0.0000  0.0000  0.0000
12939SI     SI112939   7.600   0.012   0.295  0.0000  0.0000  0.0000
12940SI     SI112940   5.257   1.446   9.036  0.0000  0.0000  0.0000
12941SI     SI112941   3.493   4.471   8.396  0.0000  0.0000  0.0000
12942SI     SI112942   8.254   1.148   9.234  0.0000  0.0000  0.0000
12943SI     SI112943   6.155   5.113   8.998  0.0000  0.0000  0.0000
12944SI     SI112944   2.114   0.248   0.747  0.0000  0.0000  0.0000
12945SI     SI112945   9.281   2.207   9.357  0.0000  0.0000  0.0000
12946SI     SI112946   9.570   7.608   9.208  0.0000  0.0000  0.0000
12947SI     SI112947   5.026   4.034   8.808  0.0000  0.0000  0.0000
12948SI     SI112948   1.143   3.626   8.287  0.0000  0.0000  0.0000
12949SI     SI112949   7.037   0.289   8.407  0.0000  0.0000  0.0000
12950SI     SI112950   7.312   9.026   9.425  0.0000  0.0000  0.0000
12951SI     SI112951   1.395   6.991   0.203  0.0000  0.0000  0.0000
12952SI     SI112952   5.026   4.600   9.433  0.0000  0.0000  0.0000
12953SI     SI112953   4.879   4.507   0.999  0.0000  0.0000  0.0000
12954SI     SI112954   4.615   5.571   0.694  0.0000  0.0000  0.0000
12955SI     SI112955   7.216   0.369   0.038  0.0000  0.0000  0.0000
12956SI     SI112956   7.844   7.730   0.557  0.0000  0.0000  0.0000
12957SI     SI112957   3.156   0.686   8.514  0.0000  0.0000  0.0000
12958SI     SI112958   1.243   9.414   0.661  0.0000  0.0000  0.0000
12959SI     SI112959   9.194   7.712   9.023  0.0000  0.0000  0.0000
12960SI     SI112960   3.655   8.785   0.715  0.0000  0.0000  0.0000
12961SI     SI112961   4.716   8.587   8.586  0.0000  0.0000  0.0000
12962SI     SI112962   8.912   6.045   0.058  0.0000  0.0000  0.0000
12963SI     SI112963   0.412   6.076   0.888  0.0000  0.0000  0.0000
12964SI     SI112964   0.450   1.709   0.980  0.0000  0.0000  0.0000
12965SI     SI112965   2.407   0.180   8.426  0.0000  0.0000  0.0000
12966SI     SI112966   2.629   1.149   0.098  0.0000  0.0000  0.0000
12967SI     SI112967   5.310   5.227   0.183  0.0000  0.0000  0.0000
12968SI     SI112968   2.717   2.210   1.148  0.0000  0.0000  0.0000
12969SI     SI112969   8.540   5.104   0.338  0.0000  0.0000  0.0000
12970SI     SI112970   6.885   9.138   9.111  0.0000  0.0000  0.0000
12971SI     SI112971   5.797   4.318   1.014  0.0000  0.0000  0.0000
12972SI     SI112972   8.257   4.426   8.639  0.0000  0.0000  0.0000
12973SI     SI112973   4.033   5.039   0.349  0.0000  0.0000  0.0000
12974SI     SI112974   3.801   4.846   0.248  0.0000  0.0000  0.0000
12975SI     SI112975   7.024   7.125   8.620  0.0000  0.0000  0.0000
12976SI     SI112976   3.492   3.662   8.402  0.0000  0.0000  0.0000
12977SI     SI112977   6.442   9.126   8.397  0.0000  0.0000  0.0000
12978SI     SI112978   5.850   4.788   0.871  0.0000  0.0000  0.0000
12979SI     SI112979   5.523   3.155   0.938  0.0000  0.0000  0.0000
12980SI     SI112980   9.312   6.351   0.155  0.0000  0.0000  0.0000
12981SI     SI112981   5.916   4.559   8.716  0.0000  0.0000  0.0000
12982SI     SI112982   2.523   6.699   8.862  0.0000  0.0000  0.0000
12983SI     SI112983   6.137   2.140   0.593  0.0000  0.0000  0.0000
12984SI     SI112984   8.704   7.305   0.120  0.0000  0.0000  0.0000
12985SI     SI112985   5.635   1.006   8.293  0.0000  0.0000  0.0000
12986SI     SI112986   9.119   2.643   9.492  0.0000  0.0000  0.0000
12987SI     SI112987   6.948   4.784   9.421  0.0000  0.0000  0.0000
12988SI     SI112988   7.387   5.646   8.706  0.0000  0.0000  0.0000
12989SI     SI112989   2.461   1.974   8.595  0.0000  0.0000  0.0000
12990SI     SI112990   2.201   2.983   1.361  0.0000  0.0000  0.0000
12991SI     SI112991   0.088   4.601   1.063  0.0000  0.0000  0.0000
12992SI     SI112992   3.231   0.935   0.215  0.0000  0.0000  0.0000
12993SI     SI112993   1.423   2.690   8.445  0.0000  0.0000  0.0000
12994SI     SI112994   5.637   1.607   0.149  0.0000  0.0000  0.0000
12995SI     SI112995   5.219   4.015   8.322  0.0000  0.0000  0.0000
12996SI     SI112996   7.824   5.959   0.216  0.0000  0.0000  0.0000
12997SI     SI112997   7.929   6.123   0.985  0.0000  0.0000  0.0000
12998SI     SI112998   1.752   0.543   8.708  0.0000  0.0000  0.0000
12999SI     SI112999   0.635   4.063   0.514  0.0000  0.0000  0.0000
13000SI     SI113000   1.078   3.056   0.655  0.0000  0.0000  0.0000
13001SI     SI113001   2.958   6.579   9.423  0.0000  0.0000  0.0000
13002SI     SI113002   4.763   9.438   0.607  0.0000  0.0000  0.0000
13003SI     SI113003   1.912   2.198   9.188  0.0000  0.0000  0.0000
13004SI     SI113004   6.414   0.320   8.641  0.0000  0.0000  0.0000
13005SI     SI113005   1.855   3.142   8.444  0.0000  0.0000  0.0000
13006SI     SI113006   7.485   6.043   8.658  0.0000  0.0000  0.0000
13007SI     SI113007   4.250   9.491   0.356  0.0000  0.0000  0.0000
13008SI     SI113008   1.416   5.857   8.564  0.0000  0.0000  0.0000
13009SI     SI113009   1.303   1.463   0.646  0.0000  0.0000  0.0000
13010SI     SI113010   8.614   8.547   8.262  0.0000  0.0000  0.0000
13011SI     SI113011   1.675   1.905   1.052  0.0000  0.0000  0.0000
13012SI     SI113012   2.946   7.538   0.217  0.0000  0.0000  0.0000
13013SI     SI113013   7.608   2.101   9.556  0.0000  0.0000  0.0000
13014SI     SI113014   5.527   1.668   8.700  0.0000  0.0000  0.0000
13015SI     SI113015   9.225   7.450   0.363  0.0000  0.0000  0.0000
13016SI     SI113016   0.186   5.632   8.540  0.0000  0.0000  0.0000
13017SI     SI113017   8.964   0.659   1.211  0.0000  0.0000  0.0000
13018SI     SI113018   7.063   1.162   8.688  0.0000  0.0000  0.0000
13019SI     SI113019   7.273   1.646   8.650  0.0000  0.0000  0.0000
13020SI     SI113020   0.080   6.489   1.243  0.0000  0.0000  0.0000
13021SI     SI113021   3.210   4.185   8.915  0.0000  0.0000  0.0000
13022SI     SI113022   1.575   0.535   9.189  0.0000  0.0000  0.0000
13023SI     SI113023   6.193   9.143   0.576  0.0000  0.0000  0.0000
13024SI     SI113024   0.971   6.443   0.420  0.0000  0.0000  0.0000
13025SI     SI113025   5.321   4.030   9.209  0.0000  0.0000  0.0000
13026SI     SI113026   7.075   6.942   0.415  0.0000  0.0000  0.0000
13027SI     SI113027   5.838   6.631   0.205  0.0000  0.0000  0.0000
13028SI     SI113028   5.930   7.161   1.034  0.0000  0.0000  0.0000
13029SI     SI113029   0.237   4.589   9.274  0.0000  0.0000  0.0000
13030SI     SI113030   0.514   5.317   8.983  0.0000  0.0000  0.0000
13031SI     SI113031   4.442   2.954   0.968  0.0000  0.0000  0.0000
13032SI     SI113032   6.229   7.823   9.193  0.0000  0.0000  0.0000
13033SI     SI113033   7.983   0.087   8.762  0.0000  0.0000  0.0000
13034SI     SI113034   4.023   3.669   0.738  0.0000  0.0000  0.0000
13035SI     SI113035   3.109   4.619   0.832  0.0000  0.0000  0.0000
13036SI     SI113036   2.787   0.371   8.562  0.0000  0.0000  0.0000
13037SI     SI113037   4.348   5.101   8.957  0.0000  0.0000  0.0000
13038SI     SI113038   6.411   2.005   0.655  0.0000  0.0000  0.0000
13039SI     SI113039   4.012   6.838   0.659  0.0000  0.0000  0.0000
13040SI     SI113040   1.827   4.808   1.112  0.0000  0.0000  0.0000
13041SI     SI113041   5.562   6.718   9.322  0.0000  0.0000  0.0000
13042SI     SI113042   6.504   7.662   9.173  0.0000  0.0000  0.0000
13043SI     SI113043   9.422   5.924   9.434  0.0000  0.0000  0.0000
13044SI     SI113044   3.672   4.486   8.167  0.0000  0.0000  0.0000
13045SI     SI113045   7.058   5.554   0.110  0.0000  0.0000  0.0000
13046SI     SI113046   2.558   8.348   8.580  0.0000  0.0000  0.0000
13047SI     SI113047   6.102   9.574   8.405  0.0000  0.0000  0.0000
13048SI     SI113048   3.481   1.265   1.444  0.0000  0.0000  0.0000
13049SI     SI113049   5.801   6.226   1.264  0.0000  0.0000  0.0000
13050SI     SI113050   2.468   6.623   8.565  0.0000  0.0000  0.0000
13051SI     SI113051   7.352   1.758   0.605  0.0000  0.0000  0.0000
13052SI     SI113052   4.505   5.330   8.505  0.0000  0.0000  0.0000
13053SI     SI113053   6.086   8.713   9.398  0.0000  0.0000  0.0000
13054SI     SI113054   7.616   6.566   0.880  0.0000  0.0000  0.0000
13055SI     SI113055   1.376   7.254   0.633  0.0000  0.0000  0.0000
13056SI     SI113056   9.314   8.575   0.500  0.0000  0.0000  0.0000
13057SI     SI113057   1.017   7.116   0.789  0.0000  0.0000  0.0000
13058SI     SI113058   1.307   2.623   8.875  0.0000  0.0000  0.0000
13059SI     SI113059   7.296   9.099   0.827  0.0000  0.0000  0.0000
13060SI     SI113060   4.231   5.621   8.760  0.0000  0.0000  0.0000
13061SI     SI113061   3.299   0.822   0.488  0.0000  0.0000  0.0000
13062SI     SI113062   6.447   7.438   0.754  0.0000  0.0000  0.0000
13063SI     SI113063   4.598   1.998   1.275  0.0000  0.0000  0.0000
13064SI     SI113064   6.155   0.980   1.314  0.0000  0.0000  0.0000
13065SI     SI113065   1.416   5.065   0.698  0.0000  0.0000  0.0000
13066SI     SI113066   3.526   5.467   8.748  0.0000  0.0000  0.0000
13067SI     SI113067   1.350   0.695   9.068  0.0000  0.0000  0.0000
13068SI     SI113068   8.859   3.423   8.770  0.0000  0.0000  0.0000
13069SI     SI113069   9.541   7.048   8.565  0.0000  0.0000  0.0000
13070SI     SI113070   4.177   4.879   0.579  0.0000  0.0000  0.0000
13071SI     SI113071   9.147   4.356   8.304  0.0000  0.0000  0.0000
13072SI     SI113072   5.007   7.349   8.404  0.0000  0.0000  0.0000
13073SI     SI113073   1.289   7.177   0.910  0.0000  0.0000  0.0000
13074SI     SI113074   0.925   6.047   9.340  0.0000  0.0000  0.0000
13075SI     SI113075   1.110   6.242   8.632  0.0000  0.0000  0.0000
13076SI     SI113076   3.433   6.567   0.436  0.0000  0.0000  0.0000
13077SI     SI113077   1.869   8.082   9.462  0.0000  0.0000  0.0000
13078SI     SI113078   5.128   8.602   8.767  0.0000  0.0000  0.0000
13079SI     SI113079   7.009   8.444   1.041  0.0000  0.0000  0.0000
13080SI     SI113080   9.105   5.126   8.511  0.0000  0.0000  0.0000
13081SI     SI113081   4.264   2.257   8.263  0.0000  0.0000  0.0000
13082SI     SI113082   9.321   1.425   0.551  0.0000  0.0000  0.0000
13083SI     SI113083   2.943   4.677   1.096  0.0000  0.0000  0.0000
13084SI     SI113084   0.574   8.195   8.756  0.0000  0.0000  0.0000
13085SI     SI113085   2.007   4.975   0.244  0.0000  0.0000  0.0000
13086SI     SI113086   2.829   1.908   0.495  0.0000  0.0000  0.0000
13087SI     SI113087   2.284   7.738   1.240  0.0000  0.0000  0.0000
13088SI     SI113088   8.806   5.697   9.218  0.0000  0.0000  0.0000
13089SI     SI113089   1.073   0.638   9.180  0.0000  0.0000  0.0000
13090SI     SI113090   2.072   6.206   1.300  0.0000  0.0000  0.0000
13091SI     SI113091   6.615   6.396   9.064  0.0000  0.0000  0.0000
13092SI     SI113092   4.432   0.697   1.304  0.0000  0.0000  0.0000
13093SI     SI113093   1.276   8.938   8.789  0.0000  0.0000  0.0000
13094SI     SI113094   0.204   8.720   8.766  0.0000  0.0000  0.0000
13095SI     SI113095   6.791   3.851   0.414  0.0000  0.0000  0.0000
13096SI     SI113096   4.225   8.414   0.203  0.0000  0.0000  0.0000
13097SI     SI113097   8.321   4.543   0.520  0.0000  0.0000  0.0000
13098SI     SI113098   8.564   4.788   8.419  0.0000  0.0000  0.0000
13099SI     SI113099   4.839   1.147   8.917  0.0000  0.0000  0.0000
13100SI     SI113100   0.546   6.428   0.581  0.0000  0.0000  0.0000
13101SI     SI113101   0.259   9.321   0.232  0.0000  0.0000  0.0000
13102SI     SI113102   0.167   6.617   9.209  0.0000  0.0000  0.0000
13103SI     SI113103   1.572   0.125   1.136  0.0000  0.0000  0.0000
13104SI     SI113104   7.118   1.728   0.403  0.0000  0.0000  0.0000
13105SI     SI113105   4.865   0.879   0.200  0.0000  0.0000  0.0000
13106SI     SI113106   5.855   4.273   0.534  0.0000  0.0000  0.0000
13107SI     SI113107   2.454   0.715   1.146  0.0000  0.0000  0.0000
13108SI     SI113108   2.942   2.370   0.403  0.0000  0.0000  0.0000
13109SI     SI113109   2.742   6.558   9.008  0.0000  0.0000  0.0000
13110SI     SI113110   8.917   6.398   9.007  0.0000  0.0000  0.0000
13111SI     SI113111   7.095   8.435   0.738  0.0000  0.0000  0.0000
13112SI     SI113112   2.231   3.298   1.337  0.0000  0.0000  0.0000
13113SI     SI113113   5.218   4.308   0.350  0.0000  0.0000  0.0000
13114SI     SI113114   5.860   1.504   0.797  0.0000  0.0000  0.0000
13115SI     SI113115   7.514   4.647   0.612  0.0000  0.0000  0.0000
13116SI     SI113116   2.175   8.436   0.596  0.0000  0.0000  0.0000
13117SI     SI113117   3.290   6.280   1.382  0.0000  0.0000  0.0000
13118SI     SI113118   5.864   0.575   8.415  0.0000  0.0000  0.0000
13119SI     SI113119   8.492   8.282   8.862  0.0000  0.0000  0.0000
13120SI     SI113120   3.722   6.930   9.239  0.0000  0.0000  0.0000
13121SI     SI113121   9.308   9.267   8.361  0.0000  0.0000  0.0000
13122SI     SI113122   0.630   9.314   8.786  0.0000  0.0000  0.0000
13123SI     SI113123   3.661   0.568   9.575  0.0000  0.0000  0.0000
13124SI     SI113124   4.649   2.547   8.550  0.0000  0.0000  0.0000
13125SI     SI113125   7.051   7.427   9.131  0.0000  0.0000  0.0000
13126SI     SI113126   8.342   4.133   8.297  0.0000  0.0000  0.0000
13127SI     SI113127   4.570   7.429   8.598  0.0000  0.0000  0.0000
13128SI     SI113128   4.295   0.523   9.194  0.0000  0.0000  0.0000
13129SI     SI113129   4.556   4.398   0.125  0.0000  0.0000  0.0000
13130SI     SI113130   0.479   8.177   8.371  0.0000  0.0000  0.0000
13131SI     SI113131   9.103   0.708   8.967  0.0000  0.0000  0.0000
13132SI     SI113132   1.586   0.363   1.322  0.0000  0.0000  0.0000
13133SI     SI113133   1.352   5.843   0.947  0.0000  0.0000  0.0000
13134SI     SI113134   2.466   5.377   8.886  0.0000  0.0000  0.0000
13135SI     SI113135   2.535   4.281   9.352  0.0000  0.0000  0.0000
13136SI     SI113136   4.416   1.069   8.695  0.0000  0.0000  0.0000
13137SI     SI113137   0.689   4.684   0.546  0.0000  0.0000  0.0000
13138SI     SI113138   3.825   0.445   9.097  0.0000  0.0000  0.0000
13139SI     SI113139   0.713   4.055   9.050  0.0000  0.0000  0.0000
13140SI     SI113140   8.736   5.971   8.803  0.0000  0.0000  0.0000
13141SI     SI113141   2.060   9.391   9.117  0.0000  0.0000  0.0000
13142SI     SI113142   4.598   8.326   0.934  0.0000  0.0000  0.0000
13143SI     SI113143   7.289   0.286   9.372  0.0000  0.0000  0.0000
13144SI     SI113144   4.467   0.356   8.991  0.0000  0.0000  0.0000
13145SI     SI113145   7.995   7.013   8.852  0.0000  0.0000  0.0000
13146SI     SI113146   7.936   7.115   9.383  0.0000  0.0000  0.0000
13147SI     SI113147   8.595   5.211   9.076  0.0000  0.0000  0.0000
13148SI     SI113148   6.639   1.854   1.044  0.0000  0.0000  0.0000
13149SI     SI113149   3.780   2.692   9.413  0.0000  0.0000  0.0000
13150SI     SI113150   3.453   3.195   1.127  0.0000  0.0000  0.0000
13151SI     SI113151   0.211   2.431   9.240  0.0000  0.0000  0.0000
13152SI     SI113152   7.362   0.872   8.624  0.0000  0.0000  0.0000
13153SI     SI113153   5.180   2.986   0.315  0.0000  0.0000  0.0000
13154SI     SI113154   7.759   7.231   0.787  0.0000  0.0000  0.0000
13155SI     SI113155   1.733   9.158   8.800  0.0000  0.0000  0.0000
13156SI     SI113156   3.887   4.336   9.343  0.0000  0.0000  0.0000
13157SI     SI113157   9.238   9.254   9.133  0.0000  0.0000  0.0000
13158SI     SI113158   2.162   1.164   9.224  0.0000  0.0000  0.0000
13159SI     SI113159   1.528   6.155   9.425  0.0000  0.0000  0.0000
13160SI     SI113160   0.261   6.522   8.648  0.0000  0.0000  0.0000
13161SI     SI113161   2.181   7.935   0.544  0.0000  0.0000  0.0000
13162SI     SI113162   4.166   0.140   8.517  0.0000  0.0000  0.0000
13163SI     SI113163   0.055   2.727   9.538  0.0000  0.0000  0.0000
13164SI     SI113164   1.993   1.065   0.058  0.0000  0.0000  0.0000
13165SI     SI113165   1.854   0.133   0.260  0.0000  0.0000  0.0000
13166SI     SI113166   2.116   5.439   9.597  0.0000  0.0000  0.0000
13167SI     SI113167   7.481   1.272   0.714  0.0000  0.0000  0.0000
13168SI     SI113168   2.879   6.763   9.193  0.0000  0.0000  0.0000
13169SI     SI113169   1.541   5.143   0.429  0.0000  0.0000  0.0000
13170SI     SI113170   4.278   9.163   0.916  0.0000  0.0000  0.0000
13171SI     SI113171   1.305   2.309   0.131  0.0000  0.0000  0.0000
13172SI     SI113172   3.114   4.902   0.713  0.0000  0.0000  0.0000
13173SI     SI113173   6.404   0.608   8.725  0.0000  0.0000  0.0000
13174SI     SI113174   5.778   0.518   0.768  0.0000  0.0000  0.0000
13175SI     SI113175   1.698   5.591   1.108  0.0000  0.0000  0.0000
13176SI     SI113176   3.691   3.676   8.986  0.0000  0.0000  0.0000
13177SI     SI113177   7.798   5.442   8.442  0.0000  0.0000  0.0000
13178SI     SI113178   1.878   8.134   8.374  0.0000  0.0000  0.0000
13179SI     SI113179   2.249   6.319   0.377  0.0000  0.0000  0.0000
13180SI     SI113180   1.890   8.762   0.490  0.0000  0.0000  0.0000
13181SI     SI113181   0.910   2.297   8.874  0.0000  0.0000  0.0000
13182SI     SI113182   9.421   6.314   9.145  0.0000  0.0000  0.0000
13183SI     SI113183   3.149   7.022   0.794  0.0000  0.0000  0.0000
13184SI     SI113184   5.424   1.938   8.377  0.0000  0.0000  0.0000
13185SI     SI113185   0.727   8.539   8.221  0.0000  0.0000  0.0000
13186SI     SI113186   2.247   4.486   0.552  0.0000  0.0000  0.0000
13187SI     SI113187   4.827   2.473   0.536  0.0000  0.0000  0.0000
13188SI     SI113188   5.566   1.613   9.445  0.0000  0.0000  0.0000
13189SI     SI113189   4.432   5.813   8.642  0.0000  0.0000  0.0000
13190SI     SI113190   8.505   3.180   9.552  0.0000  0.0000  0.0000
13191SI     SI113191   6.802   3.379   8.387  0.0000  0.0000  0.0000
13192SI     SI113192   8.049   8.095   0.169  0.0000  0.0000  0.0000
13193SI     SI113193   9.150   3.446   9.531  0.0000  0.0000  0.0000
13194SI     SI113194   6.569   8.037   8.489  0.0000  0.0000  0.0000
13195SI     SI113195   5.107   0.660   8.402  0.0000  0.0000  0.0000
13196SI     SI113196   6.845   7.429   0.899  0.0000  0.0000  0.0000
13197SI     SI113197   8.141   3.151   9.410  0.0000  0.0000  0.0000
13198SI     SI113198   2.963   9.497   9.134  0.0000  0.0000  0.0000
13199SI     SI113199   2.432   7.380   8.624  0.0000  0.0000  0.0000
13200SI     SI113200   8.070   4.841   8.368  0.0000  0.0000  0.0000
13201SI     SI113201   8.146   0.586   0.153  0.0000  0.0000  0.0000
13202SI     SI113202   0.072   2.543   0.179  0.0000  0.0000  0.0000
13203SI     SI113203   3.587   8.146   0.247  0.0000  0.0000  0.0000
13204SI     SI113204   6.270   8.270   8.706  0.0000  0.0000  0.0000
13205SI     SI113205   4.455   3.346   0.697  0.0000  0.0000  0.0000
13206SI     SI113206   3.814   5.961   0.946  0.0000  0.0000  0.0000
13207SI     SI113207   6.952   2.711   0.618  0.0000  0.0000  0.0000
13208SI     SI113208   0.336   4.868   8.784  0.0000  0.0000  0.0000
13209SI     SI113209   8.499   0.835   0.468  0.0000  0.0000  0.0000
13210SI     SI113210   7.343   0.930   9.081  0.0000  0.0000  0.0000
13211SI     SI113211   4.706   3.021   0.378  0.0000  0.0000  0.0000
13212SI     SI113212   9.475   8.565   8.551  0.0000  0.0000  0.0000
13213SI     SI113213   3.946   4.179   0.618  0.0000  0.0000  0.0000
13214SI     SI113214   7.113   8.116   8.679  0.0000  0.0000  0.0000
13215SI     SI113215   5.319   7.329   0.193  0.0000  0.0000  0.0000
13216SI     SI113216   3.970   0.265   8.907  0.0000  0.0000  0.0000
13217SI     SI113217   1.384   4.187   0.691  0.0000  0.0000  0.0000
13218SI     SI113218   6.941   1.096   9.218  0.0000  0.0000  0.0000
13219SI     SI113219   0.251   5.746   1.312  0.0000  0.0000  0.0000
13220SI     SI113220   9.076   4.642   1.464  0.0000  0.0000  0.0000
13221SI     SI113221   8.124   0.459   0.440  0.0000  0.0000  0.0000
13222SI     SI113222   3.891   7.581   1.258  0.0000  0.0000  0.0000
13223SI     SI113223   5.412   5.807   9.349  0.0000  0.0000  0.0000
13224SI     SI113224   5.557   0.454   0.964  0.0000  0.0000  0.0000
13225SI     SI113225   6.313   3.810   8.357  0.0000  0.0000  0.0000
13226SI     SI113226   7.573   0.691   8.486  0.0000  0.0000  0.0000
13227SI     SI113227   6.431   9.350   0.279  0.0000  0.0000  0.0000
13228SI     SI113228   7.064   5.741   0.344  0.0000  0.0000  0.0000
13229SI     SI113229   8.904   3.549   1.077  0.0000  0.0000  0.0000
13230SI     SI113230   7.351   0.189   0.260  0.0000  0.0000  0.0000
13231SI     SI113231   5.881   2.910   8.806  0.0000  0.0000  0.0000
13232SI     SI113232   1.516   5.048   8.661  0.0000  0.0000  0.0000
13233SI     SI113233   0.924   6.409   0.118  0.0000  0.0000  0.0000
13234SI     SI113234   3.796   2.900   0.887  0.0000  0.0000  0.0000
13235SI     SI113235   6.081   6.077   0.317  0.0000  0.0000  0.0000
13236SI     SI113236   2.065   7.632   0.006  0.0000  0.0000  0.0000
13237SI     SI113237   5.730   7.814   9.053  0.0000  0.0000  0.0000
13238SI     SI113238   2.301   1.566   0.679  0.0000  0.0000  0.0000
13239SI     SI113239   1.984   2.959   8.627  0.0000  0.0000  0.0000
13240SI     SI113240   1.814   3.878   0.129  0.0000  0.0000  0.0000
13241SI     SI113241   1.245   9.342   1.137  0.0000  0.0000  0.0000
13242SI     SI113242   5.150   5.503   9.117  0.0000  0.0000  0.0000
13243SI     SI113243   6.594   5.624   0.914  0.0000  0.0000  0.0000
13244SI     SI113244   3.319   5.730   0.200  0.0000  0.0000  0.0000
13245SI     SI113245   9.174   3.830   8.842  0.0000  0.0000  0.0000
13246SI     SI113246   0.316   0.065   8.932  0.0000  0.0000  0.0000
13247SI     SI113247   2.303   5.040   9.198  0.0000  0.0000  0.0000
13248SI     SI113248   2.102   3.993   8.774  0.0000  0.0000  0.0000
13249SI     SI113249   5.642   8.930   8.871  0.0000  0.0000  0.0000
13250SI     SI113250   3.916   4.602   1.434  0.0000  0.0000  0.0000
13251SI     SI113251   6.541   0.976   9.465  0.0000  0.0000  0.0000
13252SI     SI113252   3.155   5.387   9.534  0.0000  0.0000  0.0000
13253SI     SI113253   0.875   7.493   0.614  0.0000  0.0000  0.0000
13254SI     SI113254   1.935   6.156   1.033  0.0000  0.0000  0.0000
13255SI     SI113255   9.434   2.108   0.280  0.0000  0.0000  0.0000
13256SI     SI113256   1.583   5.290   0.813  0.0000  0.0000  0.0000
13257SI     SI113257   8.347   7.087   9.272  0.0000  0.0000  0.0000
13258SI     SI113258   9.181   4.280   8.980  0.0000  0.0000  0.0000
13259SI     SI113259   1.619   8.590   0.995  0.0000  0.0000  0.0000
13260SI     SI113260   4.983   2.344   0.305  0.0000  0.0000  0.0000
13261SI     SI113261   0.398   8.448   0.763  0.0000  0.0000  0.0000
13262SI     SI113262   1.464   7.770   0.468  0.0000  0.0000  0.0000
13263SI     SI113263   4.768   9.592   0.345  0.0000  0.0000  0.0000
13264SI     SI113264   7.849   0.367   9.542  0.0000  0.0000  0.0000
13265SI     SI113265   3.357   5.786   1.085  0.0000  0.0000  0.0000
13266SI     SI113266   2.825   7.075   1.257  0.0000  0.0000  0.0000
13267SI     SI113267   4.031   1.585   0.258  0.0000  0.0000  0.0000
13268SI     SI113268   8.121   3.756   1.060  0.0000  0.0000  0.0000
13269SI     SI113269   3.447   4.516   8.686  0.0000  0.0000  0.0000
13270SI     SI113270   5.671   9.153   1.349  0.0000  0.0000  0.0000
13271SI     SI113271   3.683   5.521   0.849  0.0000  0.0000  0.0000
13272SI     SI113272   4.890   5.044   1.074  0.0000  0.0000  0.0000
13273SI     SI113273   1.853   8.968   0.935  0.0000  0.0000  0.0000
13274SI     SI113274   3.680   4.301   0.495  0.0000  0.0000  0.0000
13275SI     SI113275   6.627   3.803   9.023  0.0000  0.0000  0.0000
13276SI     SI113276   7.009   7.740   0.538  0.0000  0.0000  0.0000
13277SI     SI113277   6.253   3.056   1.241  0.0000  0.0000  0.0000
13278SI     SI113278   1.249   5.589   8.974  0.0000  0.0000  0.0000
13279SI     SI113279   5.891   3.160   1.406  0.0000  0.0000  0.0000
13280SI     SI113280   4.835   6.668   0.292  0.0000  0.0000  0.0000
13281SI     SI113281   2.490   3.464   1.381  0.0000  0.0000  0.0000
13282SI     SI113282   5.695   0.824   9.039  0.0000  0.0000  0.0000
13283SI     SI113283   4.961   3.311   0.004  0.0000  0.0000  0.0000
13284SI     SI113284   9.352   4.069   0.022  0.0000  0.0000  0.0000
13285SI     SI113285   8.524   9.349   8.458  0.0000  0.0000  0.0000
13286SI     SI113286   5.261   4.564   0.701  0.0000  0.0000  0.0000
13287SI     SI113287   6.810   8.901   9.308  0.0000  0.0000  0.0000
13288SI     SI113288   2.650   2.527   9.548  0.0000  0.0000  0.0000
13289SI     SI113289   4.288   0.860   0.887  0.0000  0.0000  0.0000
13290SI     SI113290   2.746   2.642   0.689  0.0000  0.0000  0.0000
13291SI     SI113291   3.451   5.631   9.291  0.0000  0.0000  0.0000
13292SI     SI113292   5.012   8.527   8.238  0.0000  0.0000  0.0000
13293SI     SI113293   6.954   9.362   8.755  0.0000  0.0000  0.0000
13294SI     SI113294   4.839   1.338   0.023  0.0000  0.0000  0.0000
13295SI     SI113295   4.718   5.899   0.225  0.0000  0.0000  0.0000
13296SI     SI113296   1.402   9.566   9.046  0.0000  0.0000  0.0000
13297SI     SI113297   4.478   0.999   1.358  0.0000  0.0000  0.0000
13298SI     SI113298   6.806   6.119   0.831  0.0000  0.0000  0.0000
13299SI     SI113299   6.648   8.710   8.535  0.0000  0.0000  0.0000
13300SI     SI113300   0.918   7.362   9.390  0.0000  0.0000  0.0000
13301SI     SI113301   0.071   6.753   1.419  0.0000  0.0000  0.0000
13302SI     SI113302   2.423   9.257   0.211  0.0000  0.0000  0.0000
13303SI     SI113303   3.897   8.305   0.566  0.0000  0.0000  0.0000
13304SI     SI113304   7.470   7.845   9.244  0.0000  0.0000  0.0000
13305SI     SI113305   7.161   5.211   9.534  0.0000  0.0000  0.0000
13306SI     SI113306   4.510   7.997   8.578  0.0000  0.0000  0.0000
13307SI     SI113307   6.195   2.780   8.964  0.0000  0.0000  0.0000
13308SI     SI113308   6.992   3.296   0.992  0.0000  0.0000  0.0000
13309SI     SI113309   2.809   6.450   1.255  0.0000  0.0000  0.0000
13310SI     SI113310   0.507   4.925   0.654  0.0000  0.0000  0.0000
13311SI     SI113311   0.500   2.675   9.599  0.0000  0.0000  0.0000
13312SI     SI113312   4.878   9.165   1.352  0.0000  0.0000  0.0000
13313SI     SI113313   0.035   2.852   9.032  0.0000  0.0000  0.0000
13314SI     SI113314   3.332   8.616   9.215  0.0000  0.0000  0.0000
13315SI     SI113315   2.344   1.384   8.760  0.0000  0.0000  0.0000
13316SI     SI113316   5.619   0.600   9.241  0.0000  0.0000  0.0000
13317SI     SI113317   2.736   5.362   9.255  0.0000  0.0000  0.0000
13318SI     SI113318   0.326   3.056   8.357  0.0000  0.0000  0.0000
13319SI     SI113319   8.235   1.952   0.364  0.0000  0.0000  0.0000
13320SI     SI113320   8.755   5.612   0.683  0.0000  0.0000  0.0000
13321SI     SI113321   7.636   7.781   8.358  0.0000  0.0000  0.0000
13322SI     SI113322   3.490   4.852   9.499  0.0000  0.0000  0.0000
13323SI     SI113323   3.359   1.677   0.907  0.0000  0.0000  0.0000
13324SI     SI113324   1.473   1.504   1.306  0.0000  0.0000  0.0000
13325SI     SI113325   4.019   6.744   1.083  0.0000  0.0000  0.0000
13326SI     SI113326   9.520   3.184   9.390  0.0000  0.0000  0.0000
13327SI     SI113327   4.685   6.794   1.120  0.0000  0.0000  0.0000
13328SI     SI113328   1.033   9.295   9.349  0.0000  0.0000  0.0000
13329SI     SI113329   0.965   9.465   9.093  0.0000  0.0000  0.0000
13330SI     SI113330   5.337   8.706   0.700  0.0000  0.0000  0.0000
13331SI     SI113331   6.053   1.314   0.641  0.0000  0.0000  0.0000
13332SI     SI113332   6.621   5.129   8.619  0.0000  0.0000  0.0000
13333SI     SI113333   4.127   8.304   8.790  0.0000  0.0000  0.0000
13334SI     SI113334   8.344   7.475   1.261  0.0000  0.0000  0.0000
13335SI     SI113335   7.381   6.861   1.135  0.0000  0.0000  0.0000
13336SI     SI113336   0.438   6.333   8.798  0.0000  0.0000  0.0000
13337SI     SI113337   8.038   9.319   9.339  0.0000  0.0000  0.0000
13338SI     SI113338   6.726   4.436   0.103  0.0000  0.0000  0.0000
13339SI     SI113339   8.673   0.125   9.342  0.0000  0.0000  0.0000
13340SI     SI113340   4.429   3.470   8.388  0.0000  0.0000  0.0000
13341SI     SI113341   0.912   0.893   9.119  0.0000  0.0000  0.0000
13342SI     SI113342   4.364   0.005   0.851  0.0000  0.0000  0.0000
13343SI     SI113343   3.887   9.599   8.572  0.0000  0.0000  0.0000
13344SI     SI113344   1.374   9.590   9.532  0.0000  0.0000  0.0000
13345SI     SI113345   8.867   7.422   8.823  0.0000  0.0000  0.0000
13346SI     SI113346   4.097   3.401   9.232  0.0000  0.0000  0.0000
13347SI     SI113347   9.251   4.431   1.326  0.0000  0.0000  0.0000
13348SI     SI113348   4.722   4.640   0.528  0.0000  0.0000  0.0000
13349SI     SI113349   7.424   4.865   8.966  0.0000  0.0000  0.0000
13350SI     SI113350   0.112   2.557   8.280  0.0000  0.0000  0.0000
13351SI     SI113351   0.050   7.655   8.461  0.0000  0.0000  0.0000
13352SI     SI113352   6.188   2.386   0.416  0.0000  0.0000  0.0000
13353SI     SI113353   7.781   8.237   9.413  0.0000  0.0000  0.0000
13354SI     SI113354   3.656   8.789   9.496  0.0000  0.0000  0.0000
13355SI     SI113355   6.220   4.178   9.246  0.0000  0.0000  0.0000
13356SI     SI113356   3.494   1.402   0.947  0.0000  0.0000  0.0000
13357SI     SI113357   2.760   4.435   0.575  0.0000  0.0000  0.0000
13358SI     SI113358   2.451   3.919   8.441  0.0000  0.0000  0.0000
13359SI     SI113359   0.666   9.484   9.032  0.0000  0.0000  0.0000
13360SI     SI113360   9.079   7.655   0.175  0.0000  0.0000  0.0000
13361SI     SI113361   8.180   2.588   8.395  0.0000  0.0000  0.0000
13362SI     SI113362   1.162   5.108   9.514  0.0000  0.0000  0.0000
13363SI     SI113363   7.095   4.155   1.358  0.0000  0.0000  0.0000
13364SI     SI113364   7.915   5.703   1.225  0.0000  0.0000  0.0000
13365SI     SI113365   8.327   9.581   8.510  0.0000  0.0000  0.0000
13366SI     SI113366   0.363   1.931   8.657  0.0000  0.0000  0.0000
13367SI     SI113367   7.287   8.592   8.659  0.0000  0.0000  0.0000
13368SI     SI113368   5.507   7.885   1.067  0.0000  0.0000  0.0000
13369SI     SI113369   7.634   5.888   0.721  0.0000  0.0000  0.0000
13370SI     SI113370   6.627   4.565   8.765  0.0000  0.0000  0.0000
13371SI     SI113371   3.671   3.466   9.517  0.0000  0.0000  0.0000
13372SI     SI113372   5.782   1.140   1.139  0.0000  0.0000  0.0000
13373SI     SI113373   4.789   8.655   0.544  0.0000  0.0000  0.0000
13374SI     SI113374   9.503   3.256   0.566  0.0000  0.0000  0.0000
13375SI     SI113375   5.586   8.752   9.536  0.0000  0.0000  0.0000
13376SI     SI113376   0.833   3.503   1.166  0.0000  0.0000  0.0000
13377SI     SI113377   2.565   9.050   1.148  0.0000  0.0000  0.0000
13378SI     SI113378   9.030   7.601   8.630  0.0000  0.0000  0.0000
13379SI     SI113379   7.305   5.425   8.252  0.0000  0.0000  0.0000
13380SI     SI113380   7.522   2.307   0.370  0.0000  0.0000  0.0000
13381SI     SI113381   5.203   0.189   8.638  0.0000  0.0000  0.0000
13382SI     SI113382   1.499   2.131   9.182  0.0000  0.0000  0.0000
13383SI     SI113383   9.376   9.064   0.824  0.0000  0.0000  0.0000
13384SI     SI113384   4.108   4.017   0.418  0.0000  0.0000  0.0000
13385SI     SI113385   6.071   7.245   9.185  0.0000  0.0000  0.0000
13386SI     SI113386   5.653   6.879   0.294  0.0000  0.0000  0.0000
13387SI     SI113387   6.274   7.352   0.091  0.0000  0.0000  0.0000
13388SI     SI113388   6.122   5.763   0.327  0.0000  0.0000  0.0000
13389SI     SI113389   4.842   3.550   0.147  0.0000  0.0000  0.0000
13390SI     SI113390   7.679   4.167   0.231  0.0000  0.0000  0.0000
13391SI     SI113391   5.740   1.923   1.134  0.0000  0.0000  0.0000
13392SI     SI113392   9.028   8.282   9.506  0.0000  0.0000  0.0000
13393SI     SI113393   5.390   1.290   1.044  0.0000  0.0000  0.0000
13394SI     SI113394   2.089   3.338   8.367  0.0000  0.0000  0.0000
13395SI     SI113395   6.677   7.214   9.471  0.0000  0.0000  0.0000
13396SI     SI113396   5.351   6.564   0.146  0.0000  0.0000  0.0000
13397SI     SI113397   4.390   8.267   8.967  0.0000  0.0000  0.0000
13398SI     SI113398   9.417   2.613   9.392  0.0000  0.0000  0.0000
13399SI     SI113399   8.052   8.189   0.623  0.0000  0.0000  0.0000
13400SI     SI113400   2.596   7.633   0.815  0.0000  0.0000  0.0000
13401SI     SI113401   8.195   8.896   9.457  0.0000  0.0000  0.0000
13402SI     SI113402   2.121   5.936   8.207  0.0000  0.0000  0.0000
13403SI     SI113403   6.003   1.771   0.693  0.0000  0.0000  0.0000
13404SI     SI113404   5.580   1.568   0.663  0.0000  0.0000  0.0000
13405SI     SI113405   9.568   5.921   0.940  0.0000  0.0000  0.0000
13406SI     SI113406   1.120   3.829   8.709  0.0000  0.0000  0.0000
13407SI     SI113407   2.066   1.193   0.571  0.0000  0.0000  0.0000
13408SI     SI113408   7.594   8.553   8.206  0.0000  0.0000  0.0000
13409SI     SI113409   6.868   5.396   9.051  0.0000  0.0000  0.0000
13410SI     SI113410   6.859   9.346   9.329  0.0000  0.0000  0.0000
13411SI     SI113411   5.110   8.941   0.016  0.0000  0.0000  0.0000
13412SI     SI113412   1.744   7.688   0.370  0.0000  0.0000  0.0000
13413SI     SI113413   0.902   4.469   8.925  0.0000  0.0000  0.0000
13414SI     SI113414   5.997   5.022   8.494  0.0000  0.0000  0.0000
13415SI     SI113415   3.736   8.096   8.696  0.0000  0.0000  0.0000
13416SI     SI113416   7.521   6.878   8.983  0.0000  0.0000  0.0000
13417SI     SI113417   6.612   7.525   9.438  0.0000  0.0000  0.0000
13418SI     SI113418   3.196   5.117   0.928  0.0000  0.0000  0.0000
13419SI     SI113419   7.204   8.366   8.266  0.0000  0.0000  0.0000
13420SI     SI113420   4.565   0.951   0.252  0.0000  0.0000  0.0000
13421SI     SI113421   5.356   0.546   8.273  0.0000  0.0000  0.0000
13422SI     SI113422   1.906   5.453   8.254  0.0000  0.0000  0.0000
13423SI     SI113423   4.374   2.415   0.175  0.0000  0.0000  0.0000
13424SI     SI113424   9.417   0.974   9.488  0.0000  0.0000  0.0000
13425SI     SI113425   5.125   0.498   1.247  0.0000  0.0000  0.0000
13426SI     SI113426   1.607   5.877   9.524  0.0000  0.0000  0.0000
13427SI     SI113427   8.198   8.687   8.872  0.0000  0.0000  0.0000
13428SI     SI113428   7.584   8.993   8.445  0.0000  0.0000  0.0000
13429SI     SI113429   1.745   3.319   8.678  0.0000  0.0000  0.0000
13430SI     SI113430   0.082   0.855   9.577  0.0000  0.0000  0.0000
13431SI     SI113431   5.790   8.812   0.453  0.0000  0.0000  0.0000
13432SI     SI113432   7.532   2.513   8.929  0.0000  0.0000  0.0000
13433SI     SI113433   7.576   2.234   8.428  0.0000  0.0000  0.0000
13434SI     SI113434   2.139   0.498   0.903  0.0000  0.0000  0.0000
13435SI     SI113435   0.886   1.559   9.504  0.0000  0.0000  0.0000
13436SI     SI113436   1.122   3.664   9.403  0.0000  0.0000  0.0000
13437SI     SI113437   2.157   5.040   8.314  0.0000  0.0000  0.0000
13438SI     SI113438   6.168   2.293   1.082  0.0000  0.0000  0.0000
13439SI     SI113439   2.764   9.116   9.330  0.0000  0.0000  0.0000
13440SI     SI113440   8.139   7.715   0.483  0.0000  0.0000  0.0000
13441SI     SI113441   3.449   9.173   0.088  0.0000  0.0000  0.0000
13442SI     SI113442   7.823   8.932   8.637  0.0000  0.0000  0.0000
13443SI     SI113443   5.963   5.235   9.204  0.0000  0.0000  0.0000
13444SI     SI113444   7.047   2.909   8.364  0.0000  0.0000  0.0000
13445SI     SI113445   6.147   8.455   0.850  0.0000  0.0000  0.0000
13446SI     SI113446   1.287   6.433   1.157  0.0000  0.0000  0.0000
13447SI     SI113447   6.443   3.175   1.040  0.0000  0.0000  0.0000
13448SI     SI113448   3.458   5.967   8.924  0.0000  0.0000  0.0000
13449SI     SI113449   1.683   2.443   0.535  0.0000  0.0000  0.0000
13450SI     SI113450   4.044   0.747   8.841  0.0000  0.0000  0.0000
13451SI     SI113451   3.177   2.526   0.531  0.0000  0.0000  0.0000
13452SI     SI113452   7.747   3.627   8.301  0.0000  0.0000  0.0000
13453SI     SI113453   7.109   2.873   9.053  0.0000  0.0000  0.0000
13454SI     SI113454   7.091   6.310   9.208  0.0000  0.0000  0.0000
13455SI     SI113455   3.713   7.369   0.855  0.0000  0.0000  0.0000
13456SI     SI113456   4.882   2.860   9.523  0.0000  0.0000  0.0000
13457SI     SI113457   2.738   6.514   0.021  0.0000  0.0000  0.0000
13458SI     SI113458   2.954   9.392   1.021  0.0000  0.0000  0.0000
13459SI     SI113459   1.824   6.497   9.206  0.0000  0.0000  0.0000
13460SI     SI113460   6.599   6.753   8.470  0.0000  0.0000  0.0000
13461SI     SI113461   4.943   2.208   0.952  0.0000  0.0000  0.0000
13462SI     SI113462   7.613   3.684   0.936  0.0000  0.0000  0.0000
13463SI     SI113463   3.459   8.935   8.557  0.0000  0.0000  0.0000
13464SI     SI113464   6.596   0.853   8.726  0.0000  0.0000  0.0000
13465SI     SI113465   5.079   9.048   0.486  0.0000  0.0000  0.0000
13466SI     SI113466   7.441   4.727   9.466  0.0000  0.0000  0.0000
13467SI     SI113467   8.186   0.313   8.748  0.0000  0.0000  0.0000
13468SI     SI113468   0.745   2.467   9.256  0.0000  0.0000  0.0000
13469SI     SI113469   3.850   8.066   0.388  0.0000  0.0000  0.0000
13470SI     SI113470   2.042   9.207   0.872  0.0000  0.0000  0.0000
13471SI     SI113471   5.141   5.957   1.007  0.0000  0.0000  0.0000
13472SI     SI113472   2.076   1.193   8.413  0.0000  0.0000  0.0000
13473SI     SI113473   6.557   3.746   8.191  0.0000  0.0000  0.0000
13474SI     SI113474   6.640   6.681   9.579  0.0000  0.0000  0.0000
13475SI     SI113475   7.025   2.249   1.006  0.0000  0.0000  0.0000
13476SI     SI113476   0.630   4.802   8.314  0.0000  0.0000  0.0000
13477SI     SI113477   0.675   5.670   9.178  0.0000  0.0000  0.0000
13478SI     SI113478   6.501   5.713   9.038  0.0000  0.0000  0.0000
13479SI     SI113479   6.907   2.292   8.530  0.0000  0.0000  0.0000
13480SI     SI113480   0.222   1.480   0.599  0.0000  0.0000  0.0000
13481SI     SI113481   8.911   4.758   1.222  0.0000  0.0000  0.0000
13482SI     SI113482   8.112   8.398   0.077  0.0000  0.0000  0.0000
13483SI     SI113483   3.350   3.243   9.310  0.0000  0.0000  0.0000
13484SI     SI113484   9.581   3.887   0.606  0.0000  0.0000  0.0000
13485SI     SI113485   5.099   7.640   8.880  0.0000  0.0000  0.0000
13486SI     SI113486   5.165   6.108   0.071  0.0000  0.0000  0.0000
13487SI     SI113487   3.112   5.695   9.567  0.0000  0.0000  0.0000
13488SI     SI113488   0.109   8.560   0.785  0.0000  0.0000  0.0000
13489SI     SI113489   8.136   1.178   1.292  0.0000  0.0000  0.0000
13490SI     SI113490   7.501   8.499   0.936  0.0000  0.0000  0.0000
13491SI     SI113491   2.166   2.906   0.819  0.0000  0.0000  0.0000
13492SI     SI113492   6.187   1.065   0.790  0.0000  0.0000  0.0000
13493SI     SI113493   2.605   9.554   0.409  0.0000  0.0000  0.0000
13494SI     SI113494   0.048   5.209   9.010  0.0000  0.0000  0.0000
13495SI     SI113495   8.015   8.265   8.216  0.0000  0.0000  0.0000
13496SI     SI113496   8.639   9.036   8.877  0.0000  0.0000  0.0000
13497SI     SI113497   4.394   6.128   0.143  0.0000  0.0000  0.0000
13498SI     SI113498   6.156   5.701   0.922  0.0000  0.0000  0.0000
13499SI     SI113499   2.273   8.868   0.829  0.0000  0.0000  0.0000
13500SI     SI113500   0.164   0.514   1.172  0.0000  0.0000  0.0000
13501SI     SI113501   0.995   4.493   0.069  0.0000  0.0000  0.0000
13502SI     SI113502   7.470   8.721   1.156  0.0000  0.0000  0.0000
13503SI     SI113503   3.552   1.694   9.550  0.0000  0.0000  0.0000
13504SI     SI113504   2.902   6.939   0.614  0.0000  0.0000  0.0000
13505SI     SI113505   3.728   0.887   9.110  0.0000  0.0000  0.0000
13506SI     SI113506   0.932   2.582   0.914  0.0000  0.0000  0.0000
13507SI     SI113507   6.269   5.606   1.182  0.0000  0.0000  0.0000
13508SI     SI113508   9.138   6.990   0.114  0.0000  0.0000  0.0000
13509SI     SI113509   0.717   0.814   8.644  0.0000  0.0000  0.0000
13510SI     SI113510   7.100   7.226   0.555  0.0000  0.0000  0.0000
13511SI     SI113511   7.780   4.009   9.000  0.0000  0.0000  0.0000
13512SI     SI113512   3.658   3.274   0.159  0.0000  0.0000  0.0000
13513SI     SI113513   3.361   5.676   8.599  0.0000  0.0000  0.0000
13514SI     SI113514   1.026   1.107   9.323  0.0000  0.0000  0.0000
13515SI     SI113515   2.591   9.100   8.883  0.0000  0.0000  0.0000
13516SI     SI113516   4.285   6.600   1.052  0.0000  0.0000  0.0000
13517SI     SI113517   0.954   6.739   8.181  0.0000  0.0000  0.0000
13518SI     SI113518   4.337   3.417   1.124  0.0000  0.0000  0.0000
13519SI     SI113519   5.022   0.106   8.401  0.0000  0.0000  0.0000
13520SI     SI113520   4.537   1.605   8.324  0.0000  0.0000  0.0000
13521SI     SI113521   2.499   2.691   0.332  0.0000  0.0000  0.0000
13522SI     SI113522   3.341   2.842   8.682  0.0000  0.0000  0.0000
13523SI     SI113523   6.610   2.161   0.220  0.0000  0.0000  0.0000
13524SI     SI113524   5.247   3.267   0.412  0.0000  0.0000  0.0000
13525SI     SI113525   7.144   2.428   8.372  0.0000  0.0000  0.0000
13526SI     SI113526   3.416   6.176   8.439  0.0000  0.0000  0.0000
13527SI     SI113527   2.889   1.626   9.127  0.0000  0.0000  0.0000
13528SI     SI113528   1.771   2.741   0.465  0.0000  0.0000  0.0000
13529SI     SI113529   1.157   5.176   0.755  0.0000  0.0000  0.0000
13530SI     SI113530   8.718   4.393   0.284  0.0000  0.0000  0.0000
13531SI     SI113531   3.357   6.667   8.756  0.0000  0.0000  0.0000
13532SI     SI113532   3.622   3.494   0.811  0.0000  0.0000  0.0000
13533SI     SI113533   0.805   9.114   9.455  0.0000  0.0000  0.0000
13534SI     SI113534   7.632   3.466   8.949  0.0000  0.0000  0.0000
13535SI     SI113535   0.239   0.111   9.239  0.0000  0.0000  0.0000
13536SI     SI113536   4.463   7.871   9.266  0.0000  0.0000  0.0000
13537SI     SI113537   8.949   9.478   1.003  0.0000  0.0000  0.0000
13538SI     SI113538   2.430   4.601   0.945  0.0000  0.0000  0.0000
13539SI     SI113539   1.019   0.858   0.552  0.0000  0.0000  0.0000
13540SI     SI113540   3.390   7.269   9.594  0.0000  0.0000  0.0000
13541SI     SI113541   3.304   2.279   0.923  0.0000  0.0000  0.0000
13542SI     SI113542   3.058   4.441   0.589  0.0000  0.0000  0.0000
13543SI     SI113543   0.652   3.039   1.139  0.0000  0.0000  0.0000
13544SI     SI113544   7.441   2.251   9.340  0.0000  0.0000  0.0000
13545SI     SI113545   9.121   2.303   9.097  0.0000  0.0000  0.0000
13546SI     SI113546   7.397   3.650   0.210  0.0000  0.0000  0.0000
13547SI     SI113547   6.631   0.296   0.488  0.0000  0.0000  0.0000
13548SI     SI113548   4.730   4.801   8.421  0.0000  0.0000  0.0000
13549SI     SI113549   2.390   8.596   0.760  0.0000  0.0000  0.0000
13550SI     SI113550   4.673   5.919   9.353  0.0000  0.0000  0.0000
13551SI     SI113551   2.739   1.443   0.683  0.0000  0.0000  0.0000
13552SI     SI113552   3.286   0.868   1.001  0.0000  0.0000  0.0000
13553SI     SI113553   4.027   8.820   1.027  0.0000  0.0000  0.0000
13554SI     SI113554   8.381   1.290   0.077  0.0000  0.0000  0.0000
13555SI     SI113555   3.251   7.308   0.732  0.0000  0.0000  0.0000
13556SI     SI113556   7.132   2.543   1.037  0.0000  0.0000  0.0000
13557SI     SI113557   1.691   6.840   0.869  0.0000  0.0000  0.0000
13558SI     SI113558   0.056   5.262   0.435  0.0000  0.0000  0.0000
13559SI     SI113559   8.520   4.407   1.208  0.0000  0.0000  0.0000
13560SI     SI113560   6.659   7.662   0.830  0.0000  0.0000  0.0000
13561SI     SI113561   6.906   9.537   0.929  0.0000  0.0000  0.0000
13562SI     SI113562   1.280   7.128   9.413  0.0000  0.0000  0.0000
13563SI     SI113563   2.169   3.704   8.796  0.0000  0.0000  0.0000
13564SI     SI113564   3.577   4.542   0.675  0.0000  0.0000  0.0000
13565SI     SI113565   1.645   6.734   8.850  0.0000  0.0000  0.0000
13566SI     SI113566   2.199   7.015   0.760  0.0000  0.0000  0.0000
13567SI     SI113567   1.407   5.721   0.036  0.0000  0.0000  0.0000
13568SI     SI113568   5.071   6.312   8.915  0.0000  0.0000  0.0000
13569SI     SI113569   7.742   5.745   8.365  0.0000  0.0000  0.0000
13570SI     SI113570   1.152   1.861   1.255  0.0000  0.0000  0.0000
13571SI     SI113571   0.551   9.280   0.307  0.0000  0.0000  0.0000
13572SI     SI113572   7.642   9.158   0.223  0.0000  0.0000  0.0000
13573SI     SI113573   7.947   6.929   0.278  0.0000  0.0000  0.0000
13574SI     SI113574   2.571   0.247   0.899  0.0000  0.0000  0.0000
13575SI     SI113575   1.345   1.601   0.374  0.0000  0.0000  0.0000
13576SI     SI113576   1.557   6.901   0.447  0.0000  0.0000  0.0000
13577SI     SI113577   4.119   6.777   9.060  0.0000  0.0000  0.0000
13578SI     SI113578   5.529   8.695   9.002  0.0000  0.0000  0.0000
13579SI     SI113579   9.125   4.634   0.379  0.0000  0.0000  0.0000
13580SI     SI113580   5.870   9.411   8.520  0.0000  0.0000  0.0000
13581SI     SI113581   1.829   1.383   0.654  0.0000  0.0000  0.0000
13582SI     SI113582   2.301   4.996   8.567  0.0000  0.0000  0.0000
13583SI     SI113583   2.156   7.748   8.672  0.0000  0.0000  0.0000
13584SI     SI113584   5.183   0.722   9.531  0.0000  0.0000  0.0000
13585SI     SI113585   6.814   0.057   9.341  0.0000  0.0000  0.0000
13586SI     SI113586   5.438   5.946   0.025  0.0000  0.0000  0.0000
13587SI     SI113587   5.622   8.914   8.424  0.0000  0.0000  0.0000
13588SI     SI113588   4.558   7.072   8.853  0.0000  0.0000  0.0000
13589SI     SI113589   1.264   5.619   8.427  0.0000  0.0000  0.0000
13590SI     SI113590   6.618   3.534   9.366  0.0000  0.0000  0.0000
13591SI     SI113591   0.741   3.352   9.246  0.0000  0.0000  0.0000
13592SI     SI113592   6.469   1.026   8.959  0.0000  0.0000  0.0000
13593SI     SI113593   3.687   1.609   1.092  0.0000  0.0000  0.0000
13594SI     SI113594   3.399   0.337   0.873  0.0000  0.0000  0.0000
13595SI     SI113595   6.471   4.888   9.486  0.0000  0.0000  0.0000
13596SI     SI113596   4.224   6.831   8.788  0.0000  0.0000  0.0000
13597SI     SI113597   9.023   3.480   8.519  0.0000  0.0000  0.0000
13598SI     SI113598   2.422   5.181   0.430  0.0000  0.0000  0.0000
13599SI     SI113599   6.836   7.409   0.207  0.0000  0.0000  0.0000
13600SI     SI113600   9.033   1.794   0.795  0.0000  0.0000  0.0000
13601SI     SI113601   8.541   3.696   1.244  0.0000  0.0000  0.0000
13602SI     SI113602   4.859   1.830   0.237  0.0000  0.0000  0.0000
13603SI     SI113603   3.474   6.174   9.450  0.0000  0.0000  0.0000
13604SI     SI113604   4.826   4.736   0.244  0.0000  0.0000  0.0000
13605SI     SI113605   9.214   1.218   9.141  0.0000  0.0000  0.0000
13606SI     SI113606   7.826   9.040   1.006  0.0000  0.0000  0.0000
13607SI     SI113607   1.272   3.152   0.449  0.0000  0.0000  0.0000
13608SI     SI113608   9.054   3.337   8.991  0.0000  0.0000  0.0000
13609SI     SI113609   2.216   4.534   9.523  0.0000  0.0000  0.0000
13610SI     SI113610   3.514   1.924   9.156  0.0000  0.0000  0.0000
13611SI     SI113611   6.966   8.619   8.870  0.0000  0.0000  0.0000
13612SI     SI113612   0.159   3.684   0.764  0.0000  0.0000  0.0000
13613SI     SI113613   4.561   3.437   9.305  0.0000  0.0000  0.0000
13614SI     SI113614   2.548   6.673   0.490  0.0000  0.0000  0.0000
13615SI     SI113615   9.185   9.318   0.475  0.0000  0.0000  0.0000
13616SI     SI113616   0.116   6.768   8.388  0.0000  0.0000  0.0000
13617SI     SI113617   2.610   7.256   1.110  0.0000  0.0000  0.0000
13618SI     SI113618   1.387   2.310   0.880  0.0000  0.0000  0.0000
13619SI     SI113619   5.124   0.201   9.535  0.0000  0.0000  0.0000
13620SI     SI113620   0.393   1.148   8.335  0.0000  0.0000  0.0000
13621SI     SI113621   6.588   1.272   9.528  0.0000  0.0000  0.0000
13622SI     SI113622   1.856   8.339   9.294  0.0000  0.0000  0.0000
13623SI     SI113623   3.845   1.462   8.695  0.0000  0.0000  0.0000
13624SI     SI113624   2.160   4.450   0.854  0.0000  0.0000  0.0000
13625SI     SI113625   3.569   7.873   8.568  0.0000  0.0000  0.0000
13626SI     SI113626   5.491   7.490   8.484  0.0000  0.0000  0.0000
13627SI     SI113627   1.624   3.763   8.445  0.0000  0.0000  0.0000
13628SI     SI113628   5.039   2.652   9.357  0.0000  0.0000  0.0000
13629SI     SI113629   0.110   7.845   8.707  0.0000  0.0000  0.0000
13630SI     SI113630   0.583   0.006   9.538  0.0000  0.0000  0.0000
13631SI     SI113631   4.304   2.332   1.003  0.0000  0.0000  0.0000
13632SI     SI113632   6.934   8.860   9.586  0.0000  0.0000  0.0000
13633SI     SI113633   3.629   5.181   8.372  0.0000  0.0000  0.0000
13634SI     SI113634   0.549   3.531   9.061  0.0000  0.0000  0.0000
13635SI     SI113635   1.722   8.257   8.622  0.0000  0.0000  0.0000
13636SI     SI113636   3.280   3.056   8.453  0.0000  0.0000  0.0000
13637SI     SI113637   9.574   5.497   0.060  0.0000  0.0000  0.0000
13638SI     SI113638   2.074   7.852   9.389  0.0000  0.0000  0.0000
13639SI     SI113639   0.891   3.296   0.753  0.0000  0.0000  0.0000
13640SI     SI113640   7.628   0.007   8.494  0.0000  0.0000  0.0000
13641SI     SI113641   9.369   7.230   0.838  0.0000  0.0000  0.0000
13642SI     SI113642   9.467   6.756   0.440  0.0000  0.0000  0.0000
13643SI     SI113643   6.565   8.847   0.217  0.0000  0.0000  0.0000
13644SI     SI113644   0.393   5.424   0.940  0.0000  0.0000  0.0000
13645SI     SI113645   0.238   6.487   8.363  0.0000  0.0000  0.0000
13646SI     SI113646   6.772   1.205   0.395  0.0000  0.0000  0.0000
13647SI     SI113647   5.722   3.712   9.301  0.0000  0.0000  0.0000
13648SI     SI113648   8.732   2.519   1.252  0.0000  0.0000  0.0000
13649SI     SI113649   6.429   6.457   9.548  0.0000  0.0000  0.0000
13650SI     SI113650   2.781   8.444   0.455  0.0000  0.0000  0.0000
13651SI     SI113651   3.281   8.407   8.979  0.0000  0.0000  0.0000
13652SI     SI113652   8.385   1.108   0.558  0.0000  0.0000  0.0000
13653SI     SI113653   0.407   3.380   1.286  0.0000  0.0000  0.0000
13654SI     SI113654   0.922   5.728   9.357  0.0000  0.0000  0.0000
13655SI     SI113655   9.259   5.141   0.003  0.0000  0.0000  0.0000
13656SI     SI113656   6.899   5.518   8.478  0.0000  0.0000  0.0000
13657SI     SI113657   8.556   4.661   0.346  0.0000  0.0000  0.0000
13658SI     SI113658   0.933   7.396   8.842  0.0000  0.0000  0.0000
13659SI     SI113659   9.227   8.108   0.242  0.0000  0.0000  0.0000
13660SI     SI113660   3.082   4.786   9.566  0.0000  0.0000  0.0000
13661SI     SI113661   9.215   9.465   1.143  0.0000  0.0000  0.0000
13662SI     SI113662   7.233   0.297   0.749  0.0000  0.0000  0.0000
13663SI     SI113663   0.678   1.596   0.807  0.0000  0.0000  0.0000
13664SI     SI113664   9.358   3.263   0.297  0.0000  0.0000  0.0000
13665SI     SI113665   7.063   9.090   0.395  0.0000  0.0000  0.0000
13666SI     SI113666   3.373   1.008   0.729  0.0000  0.0000  0.0000
13667SI     SI113667   2.002   5.531   1.120  0.0000  0.0000  0.0000
13668SI     SI113668   3.796   2.383   9.017  0.0000  0.0000  0.0000
13669SI     SI113669   7.040   2.257   0.268  0.0000  0.0000  0.0000
13670SI     SI113670   6.997   5.787   9.277  0.0000  0.0000  0.0000
13671SI     SI113671   5.953   9.024   1.280  0.0000  0.0000  0.0000
13672SI     SI113672   8.250   7.213   0.658  0.0000  0.0000  0.0000
13673SI     SI113673   2.087   4.086   0.691  0.0000  0.0000  0.0000
13674SI     SI113674   2.115   6.554   0.756  0.0000  0.0000  0.0000
13675SI     SI113675   3.171   4.229   0.248  0.0000  0.0000  0.0000
13676SI     SI113676   5.292   3.458   8.388  0.0000  0.0000  0.0000
13677SI     SI113677   5.826   1.755   8.269  0.0000  0.0000  0.0000
13678SI     SI113678   8.896   8.561   8.997  0.0000  0.0000  0.0000
13679SI     SI113679   3.318   4.753   8.984  0.0000  0.0000  0.0000
13680SI     SI113680   3.906   4.979   8.830  0.0000  0.0000  0.0000
13681SI     SI113681   6.056   3.157   9.290  0.0000  0.0000  0.0000
13682SI     SI113682   7.808   1.092   9.330  0.0000  0.0000  0.0000
13683SI     SI113683   2.564   0.440   8.343  0.0000  0.0000  0.0000
13684SI     SI113684   4.961   4.146   0.346  0.0000  0.0000  0.0000
13685SI     SI113685   0.876   4.014   0.898  0.0000  0.0000  0.0000
13686SI     SI113686   8.810   4.510   0.011  0.0000  0.0000  0.0000
13687SI     SI113687   5.671   2.412   0.179  0.0000  0.0000  0.0000
13688SI     SI113688   3.496   4.008   1.052  0.0000  0.0000  0.0000
13689SI     SI113689   8.193   1.636   8.207  0.0000  0.0000  0.0000
13690SI     SI113690   5.501   3.802   8.783  0.0000  0.0000  0.0000
13691SI     SI113691   9.372   5.279   8.573  0.0000  0.0000  0.0000
13692SI     SI113692   2.208   3.596   0.659  0.0000  0.0000  0.0000
13693SI     SI113693   7.508   7.614   9.054  0.0000  0.0000  0.0000
13694SI     SI113694   0.580   4.619   9.584  0.0000  0.0000  0.0000
13695SI     SI113695   7.783   5.629   8.889  0.0000  0.0000  0.0000
13696SI     SI113696   5.121   0.674   0.990  0.0000  0.0000  0.0000
13697SI     SI113697   2.592   4.050   9.529  0.0000  0.0000  0.0000
13698SI     SI113698   2.722   4.668   8.964  0.0000  0.0000  0.0000
13699SI     SI113699   2.416   1.461   8.459  0.0000  0.0000  0.0000
13700SI     SI113700   3.929   5.126   0.846  0.0000  0.0000  0.0000
13701SI     SI113701   6.361   9.413   8.491  0.0000  0.0000  0.0000
13702SI     SI113702   5.234   4.424   9.051  0.0000  0.0000  0.0000
13703SI     SI113703   4.840   1.969   9.088  0.0000  0.0000  0.0000
13704SI     SI113704   4.847   6.004   8.783  0.0000  0.0000  0.0000
13705SI     SI113705   8.651   1.118   8.720  0.0000  0.0000  0.0000
13706SI     SI113706   7.116   2.990   1.288  0.0000  0.0000  0.0000
13707SI     SI113707   2.047   7.347   9.467  0.0000  0.0000  0.0000
13708SI     SI113708   1.572   8.268   0.145  0.0000  0.0000  0.0000
13709SI     SI113709   7.204   9.529   0.218  0.0000  0.0000  0.0000
13710SI     SI113710   1.173   9.543   0.924  0.0000  0.0000  0.0000
13711SI     SI113711   1.449   7.640   0.943  0.0000  0.0000  0.0000
13712SI     SI113712   4.921   7.387   8.950  0.0000  0.0000  0.0000
13713SI     SI113713   5.588   8.273   1.324  0.0000  0.0000  0.0000
13714SI     SI113714   8.365   8.126   1.009  0.0000  0.0000  0.0000
13715SI     SI113715   2.223   8.607   8.741  0.0000  0.0000  0.0000
13716SI     SI113716   3.783   6.604   8.840  0.0000  0.0000  0.0000
13717SI     SI113717   1.019   6.642   0.923  0.0000  0.0000  0.0000
13718SI     SI113718   3.874   6.208   8.597  0.0000  0.0000  0.0000
13719SI     SI113719   5.189   7.763   0.759  0.0000  0.0000  0.0000
13720SI     SI113720   6.141   2.628   0.594  0.0000  0.0000  0.0000
13721SI     SI113721   7.031   0.727   1.309  0.0000  0.0000  0.0000
13722SI     SI113722   2.871   5.389   0.265  0.0000  0.0000  0.0000
13723SI     SI113723   7.591   1.276   8.575  0.0000  0.0000  0.0000
13724SI     SI113724   1.864   6.677   0.679  0.0000  0.0000  0.0000
13725SI     SI113725   2.816   8.915   0.708  0.0000  0.0000  0.0000
13726SI     SI113726   7.276   0.657   0.404  0.0000  0.0000  0.0000
13727SI     SI113727   7.310   7.021   8.273  0.0000  0.0000  0.0000
13728SI     SI113728   4.231   6.028   9.004  0.0000  0.0000  0.0000
13729SI     SI113729   6.960   5.010   9.021  0.0000  0.0000  0.0000
13730SI     SI113730   7.880   4.590   0.208  0.0000  0.0000  0.0000
13731SI     SI113731   5.406   8.404   1.143  0.0000  0.0000  0.0000
13732SI     SI113732   0.477   2.416   9.420  0.0000  0.0000  0.0000
13733SI     SI113733   2.529   9.357   1.145  0.0000  0.0000  0.0000
13734SI     SI113734   5.361   7.971   8.856  0.0000  0.0000  0.0000
13735SI     SI113735   8.253   3.449   9.010  0.0000  0.0000  0.0000
13736SI     SI113736   3.591   5.993   1.132  0.0000  0.0000  0.0000
13737SI     SI113737   9.512   4.570   1.305  0.0000  0.0000  0.0000
13738SI     SI113738   3.642   6.660   9.344  0.0000  0.0000  0.0000
13739SI     SI113739   5.482   1.421   8.518  0.0000  0.0000  0.0000
13740SI     SI113740   2.905   7.827   9.251  0.0000  0.0000  0.0000
13741SI     SI113741   6.134   8.771   0.818  0.0000  0.0000  0.0000
13742SI     SI113742   2.334   1.328   0.505  0.0000  0.0000  0.0000
13743SI     SI113743   5.833   4.770   9.075  0.0000  0.0000  0.0000
13744SI     SI113744   2.554   6.907   8.471  0.0000  0.0000  0.0000
13745SI     SI113745   0.036   3.022   0.005  0.0000  0.0000  0.0000
13746SI     SI113746   7.303   9.511   9.535  0.0000  0.0000  0.0000
13747SI     SI113747   1.731   3.751   9.471  0.0000  0.0000  0.0000
13748SI     SI113748   6.076   3.897   0.124  0.0000  0.0000  0.0000
13749SI     SI113749   5.920   5.773   8.514  0.0000  0.0000  0.0000
13750SI     SI113750   1.089   0.289   1.222  0.0000  0.0000  0.0000
13751SI     SI113751   2.775   5.775   8.608  0.0000  0.0000  0.0000
13752SI     SI113752   0.912   1.548   0.214  0.0000  0.0000  0.0000
13753SI     SI113753   1.203   8.025   0.785  0.0000  0.0000  0.0000
13754SI     SI113754   7.536   2.667   8.676  0.0000  0.0000  0.0000
13755SI     SI113755   3.047   1.288   9.474  0.0000  0.0000  0.0000
13756SI     SI113756   7.368   2.544   0.821  0.0000  0.0000  0.0000
13757SI     SI113757   0.436   1.692   9.397  0.0000  0.0000  0.0000
13758SI     SI113758   6.993   2.094   8.743  0.0000  0.0000  0.0000
13759SI     SI113759   4.774   9.025   0.866  0.0000  0.0000  0.0000
13760SI     SI113760   3.009   4.421   8.548  0.0000  0.0000  0.0000
13761SI     SI113761   2.070   1.292   8.707  0.0000  0.0000  0.0000
13762SI     SI113762   8.216   3.688   8.825  0.0000  0.0000  0.0000
13763SI     SI113763   1.175   0.865   1.042  0.0000  0.0000  0.0000
13764SI     SI113764   9.542   9.364   8.748  0.0000  0.0000  0.0000
13765SI     SI113765   2.262   0.016   9.039  0.0000  0.0000  0.0000
13766SI     SI113766   9.391   4.046   8.935  0.0000  0.0000  0.0000
13767SI     SI113767   4.965   5.253   8.338  0.0000  0.0000  0.0000
13768SI     SI113768   7.394   5.381   0.472  0.0000  0.0000  0.0000
13769SI     SI113769   2.154   4.297   8.502  0.0000  0.0000  0.0000
13770SI     SI113770   9.534   8.818   1.269  0.0000  0.0000  0.0000
13771SI     SI113771   7.894   0.663   9.573  0.0000  0.0000  0.0000
13772SI     SI113772   6.437   2.409   0.246  0.0000  0.0000  0.0000
13773SI     SI113773   8.124   5.284   9.129  0.0000  0.0000  0.0000
13774SI     SI113774   9.101   1.271   0.013  0.0000  0.0000  0.0000
13775SI     SI113775   7.917   0.750   1.047  0.0000  0.0000  0.0000
13776SI     SI113776   1.099   9.081   8.991  0.0000  0.0000  0.0000
13777SI     SI113777   0.144   9.031   1.259  0.0000  0.0000  0.0000
13778SI     SI113778   1.308   0.490   1.254  0.0000  0.0000  0.0000
13779SI     SI113779   4.477   9.550   8.843  0.0000  0.0000  0.0000
13780SI     SI113780   8.851   3.816   9.427  0.0000  0.0000  0.0000
13781SI     SI113781   5.436   0.557   0.357  0.0000  0.0000  0.0000
13782SI     SI113782   4.736   4.778   1.014  0.0000  0.0000  0.0000
13783SI     SI113783   4.271   7.348   0.111  0.0000  0.0000  0.0000
13784SI     SI113784   0.452   1.949   8.957  0.0000  0.0000  0.0000
13785SI     SI113785   0.710   4.633   9.110  0.0000  0.0000  0.0000
13786SI     SI113786   5.440   2.526   8.351  0.0000  0.0000  0.0000
13787SI     SI113787   5.428   7.935   0.641  0.0000  0.0000  0.0000
13788SI     SI113788   6.258   7.667   0.655  0.0000  0.0000  0.0000
13789SI     SI113789   1.283   7.750   0.713  0.0000  0.0000  0.0000
13790SI     SI113790   3.315   9.034   0.890  0.0000  0.0000  0.0000
13791SI     SI113791   0.300   4.466   0.578  0.0000  0.0000  0.0000
13792SI     SI113792   5.651   1.572   8.981  0.0000  0.0000  0.0000
13793SI     SI113793   0.254   7.003   0.694  0.0000  0.0000  0.0000
13794SI     SI113794   1.497   3.476   9.189  0.0000  0.0000  0.0000
13795SI     SI113795   7.670   4.693   9.250  0.0000  0.0000  0.0000
13796SI     SI113796   1.088   9.492   9.597  0.0000  0.0000  0.0000
13797SI     SI113797   5.604   1.902   0.149  0.0000  0.0000  0.0000
13798SI     SI113798   3.966   1.203   8.828  0.0000  0.0000  0.0000
13799SI     SI113799   7.130   7.640   8.699  0.0000  0.0000  0.0000
13800SI     SI113800   3.178   2.229   9.068  0.0000  0.0000  0.0000
13801SI     SI113801   4.730   3.438   8.407  0.0000  0.0000  0.0000
13802SI     SI113802   8.288   6.717   0.728  0.0000  0.0000  0.0000
13803SI     SI113803   0.179   9.103   0.964  0.0000  0.0000  0.0000
13804SI     SI113804   4.638   1.538   9.147  0.0000  0.0000  0.0000
13805SI     SI113805   2.820   7.944   0.386  0.0000  0.0000  0.0000
13806SI     SI113806   1.522   7.272   9.306  0.0000  0.0000  0.0000
13807SI     SI113807   4.318   7.979   0.360  0.0000  0.0000  0.0000
13808SI     SI113808   1.468   8.726   1.227  0.0000  0.0000  0.0000
13809SI     SI113809   0.249   5.507   0.434  0.0000  0.0000  0.0000
13810SI     SI113810   5.151   2.448   8.989  0.0000  0.0000  0.0000
13811SI     SI113811   0.044   9.001   8.327  0.0000  0.0000  0.0000
13812SI     SI113812   2.572   3.089   0.063  0.0000  0.0000  0.0000
13813SI     SI113813   0.789   9.484   0.611  0.0000  0.0000  0.0000
13814SI     SI113814   8.214   7.745   1.286  0.0000  0.0000  0.0000
13815SI     SI113815   3.255   4.274   8.638  0.0000  0.0000  0.0000
13816SI     SI113816   0.890   8.216   0.268  0.0000  0.0000  0.0000
13817SI     SI113817   6.611   5.311   0.496  0.0000  0.0000  0.0000
13818SI     SI113818   6.262   8.220   0.680  0.0000  0.0000  0.0000
13819SI     SI113819   2.570   5.180   9.096  0.0000  0.0000  0.0000
13820SI     SI113820   2.170   3.023   9.286  0.0000  0.0000  0.0000
13821SI     SI113821   1.553   8.632   9.193  0.0000  0.0000  0.0000
13822SI     SI113822   8.182   7.116   0.361  0.0000  0.0000  0.0000
13823SI     SI113823   1.000   3.156   8.712  0.0000  0.0000  0.0000
13824SI     SI113824   9.117   7.262   8.171  0.0000  0.0000  0.0000
13825SI     SI113825   0.987   5.446   8.859  0.0000  0.0000  0.0000
13826SI     SI113826   5.653   2.019   0.420  0.0000  0.0000  0.0000
13827SI     SI113827   7.570   3.717   9.300  0.0000  0.0000  0.0000
13828SI     SI113828   5.387   8.263   9.443  0.0000  0.0000  0.0000
13829SI     SI113829   2.869   0.346   1.146  0.0000  0.0000  0.0000
13830SI     SI113830   1.100   0.518   9.441  0.0000  0.0000  0.0000
13831SI     SI113831   8.248   3.202   0.711  0.0000  0.0000  0.0000
13832SI     SI113832   6.963   8.104   8.957  0.0000  0.0000  0.0000
13833SI     SI113833   8.461   3.759   8.637  0.0000  0.0000  0.0000
13834SI     SI113834   3.593   6.809   0.545  0.0000  0.0000  0.0000
13835SI     SI113835   7.275   5.514   9.525  0.0000  0.0000  0.0000
13836SI     SI113836   2.126   7.929   1.408  0.0000  0.0000  0.0000
13837SI     SI113837   3.176   5.783   9.288  0.0000  0.0000  0.0000
13838SI     SI113838   3.089   0.063   0.718  0.0000  0.0000  0.0000
13839SI     SI113839   1.153   6.745   8.424  0.0000  0.0000  0.0000
13840SI     SI113840   2.905   4.661   8.709  0.0000  0.0000  0.0000
13841SI     SI113841   5.752   7.417   1.110  0.0000  0.0000  0.0000
13842SI     SI113842   8.511   6.333   0.603  0.0000  0.0000  0.0000
13843SI     SI113843   5.581   4.815   0.053  0.0000  0.0000  0.0000
13844SI     SI113844   5.151   2.552   8.409  0.0000  0.0000  0.0000
13845SI     SI113845   5.351   8.672   1.005  0.0000  0.0000  0.0000
13846SI     SI113846   0.500   6.324   9.419  0.0000  0.0000  0.0000
13847SI     SI113847   1.745   3.617   8.693  0.0000  0.0000  0.0000
13848SI     SI113848   3.170   2.579   8.695  0.0000  0.0000  0.0000
13849SI     SI113849   3.359   8.046   8.450  0.0000  0.0000  0.0000
13850SI     SI113850   8.822   9.460   9.094  0.0000  0.0000  0.0000
13851SI     SI113851   3.092   2.092   0.822  0.0000  0.0000  0.0000
13852SI     SI113852   4.950   3.988   1.152  0.0000  0.0000  0.0000
13853SI     SI113853   0.092   1.221   8.603  0.0000  0.0000  0.0000
13854SI     SI113854   5.535   0.984   0.632  0.0000  0.0000  0.0000
13855SI     SI113855   6.537   2.297   8.787  0.0000  0.0000  0.0000
13856SI     SI113856   0.483   0.234   9.360  0.0000  0.0000  0.0000
13857SI     SI113857   5.945   8.967   0.677  0.0000  0.0000  0.0000
13858SI     SI113858   1.429   0.991   9.051  0.0000  0.0000  0.0000
13859SI     SI113859   2.165   6.871   1.427  0.0000  0.0000  0.0000
13860SI     SI113860   7.852   5.446   9.134  0.0000  0.0000  0.0000
13861SI     SI113861   0.992   0.652   8.620  0.0000  0.0000  0.0000
13862SI     SI113862   8.225   8.017   0.425  0.0000  0.0000  0.0000
13863SI     SI113863   0.486   4.084   0.074  0.0000  0.0000  0.0000
13864SI     SI113864   1.043   5.821   0.645  0.0000  0.0000  0.0000
13865SI     SI113865   4.496   4.441   0.436  0.0000  0.0000  0.0000
13866SI     SI113866   2.929   1.916   8.392  0.0000  0.0000  0.0000
13867SI     SI113867   4.816   3.177   8.262  0.0000  0.0000  0.0000
13868SI     SI113868   2.075   6.511   8.756  0.0000  0.0000  0.0000
13869SI     SI113869   9.297   0.738   8.498  0.0000  0.0000  0.0000
13870SI     SI113870   3.219   8.671   1.187  0.0000  0.0000  0.0000
13871SI     SI113871   1.249   6.468   0.869  0.0000  0.0000  0.0000
13872SI     SI113872   3.232   0.146   0.017  0.0000  0.0000  0.0000
13873SI     SI113873   6.046   2.686   9.371  0.0000  0.0000  0.0000
13874SI     SI113874   0.064   7.608   8.906  0.0000  0.0000  0.0000
13875SI     SI113875   2.168   0.171   8.251  0.0000  0.0000  0.0000
13876SI     SI113876   6.283   7.458   8.542  0.0000  0.0000  0.0000
13877SI     SI113877   6.319   3.145   0.758  0.0000  0.0000  0.0000
13878SI     SI113878   8.246   4.901   0.927  0.0000  0.0000  0.0000
13879SI     SI113879   8.472   6.236   0.880  0.0000  0.0000  0.0000
13880SI     SI113880   3.174   9.270   0.221  0.0000  0.0000  0.0000
13881SI     SI113881   4.580   6.406   9.224  0.0000  0.0000  0.0000
13882SI     SI113882   7.124   0.702   8.663  0.0000  0.0000  0.0000
13883SI     SI113883   6.146   6.075   0.003  0.0000  0.0000  0.0000
13884SI     SI113884   6.695   8.246   8.288  0.0000  0.0000  0.0000
13885SI     SI113885   8.618   5.372   9.521  0.0000  0.0000  0.0000
13886SI     SI113886   5.805   8.556   1.088  0.0000  0.0000  0.0000
13887SI     SI113887   9.504   2.721   0.369  0.0000  0.0000  0.0000
13888SI     SI113888   3.324   8.194   9.189  0.0000  0.0000  0.0000
13889SI     SI113889   8.339   4.759   0.150  0.0000  0.0000  0.0000
13890SI     SI113890   6.857   4.729   0.891  0.0000  0.0000  0.0000
13891SI     SI113891   5.537   3.289   9.392  0.0000  0.0000  0.0000
13892SI     SI113892   7.137   9.228   8.976  0.0000  0.0000  0.0000
13893SI     SI113893   2.683   2.993   0.999  0.0000  0.0000  0.0000
13894SI     SI113894   9.479   6.961   0.964  0.0000  0.0000  0.0000
13895SI     SI113895   9.260   3.677   8.578  0.0000  0.0000  0.0000
13896SI     SI113896   3.806   6.386   0.569  0.0000  0.0000  0.0000
13897SI     SI113897   8.228   5.099   8.455  0.0000  0.0000  0.0000
13898SI     SI113898   1.360   6.609   9.522  0.0000  0.0000  0.0000
13899SI     SI113899   6.249   8.711   8.870  0.0000  0.0000  0.0000
13900SI     SI113900   0.760   5.789   0.611  0.0000  0.0000  0.0000
13901SI     SI113901   6.027   3.847   8.229  0.0000  0.0000  0.0000
13902SI     SI113902   1.015   5.004   0.425  0.0000  0.0000  0.0000
13903SI     SI113903   9.511   7.798   0.213  0.0000  0.0000  0.0000
13904SI     SI113904   7.590   3.678   9.596  0.0000  0.0000  0.0000
13905SI     SI113905   1.666   7.463   0.853  0.0000  0.0000  0.0000
13906SI     SI113906   5.950   9.389   9.308  0.0000  0.0000  0.0000
13907SI     SI113907   1.605   4.670   0.699  0.0000  0.0000  0.0000
13908SI     SI113908   1.897   1.702   1.040  0.0000  0.0000  0.0000
13909SI     SI113909   7.095   0.024   0.731  0.0000  0.0000  0.0000
13910SI     SI113910   8.842   1.486   9.232  0.0000  0.0000  0.0000
13911SI     SI113911   4.282   3.118   0.647  0.0000  0.0000  0.0000
13912SI     SI113912   1.878   9.130   8.529  0.0000  0.0000  0.0000
13913SI     SI113913   2.517   8.610   8.735  0.0000  0.0000  0.0000
13914SI     SI113914   2.597   1.520   9.097  0.0000  0.0000  0.0000
13915SI     SI113915   0.296   5.885   0.664  0.0000  0.0000  0.0000
13916SI     SI113916   5.505   8.221   8.756  0.0000  0.0000  0.0000
13917SI     SI113917   4.623   1.712   9.391  0.0000  0.0000  0.0000
13918SI     SI113918   8.200   5.223   9.594  0.0000  0.0000  0.0000
13919SI     SI113919   7.740   7.149   8.768  0.0000  0.0000  0.0000
13920SI     SI113920   5.073   6.619   8.506  0.0000  0.0000  0.0000
13921SI     SI113921   2.616   2.892   0.536  0.0000  0.0000  0.0000
13922SI     SI113922   7.337   6.787   0.418  0.0000  0.0000  0.0000
13923SI     SI113923   4.254   3.392   8.636  0.0000  0.0000  0.0000
13924SI     SI113924   9.277   6.762   8.966  0.0000  0.0000  0.0000
13925SI     SI113925   3.157   0.291   8.919  0.0000  0.0000  0.0000
13926SI     SI113926   7.378   6.647   0.682  0.0000  0.0000  0.0000
13927SI     SI113927   1.684   4.352   1.036  0.0000  0.0000  0.0000
13928SI     SI113928   3.176   3.288   1.145  0.0000  0.0000  0.0000
13929SI     SI113929   3.453   7.157   8.793  0.0000  0.0000  0.0000
13930SI     SI113930   9.437   5.425   0.344  0.0000  0.0000  0.0000
13931SI     SI113931   3.460   3.285   8.828  0.0000  0.0000  0.0000
13932SI     SI113932   7.696   0.360   0.629  0.0000  0.0000  0.0000
13933SI     SI113933   2.802   0.979   8.257  0.0000  0.0000  0.0000
13934SI     SI113934   2.792   6.812   8.298  0.0000  0.0000  0.0000
13935SI     SI113935   4.840   2.469   9.032  0.0000  0.0000  0.0000
13936SI     SI113936   2.572   4.317   8.718  0.0000  0.0000  0.0000
13937SI     SI113937   7.639   7.269   1.078  0.0000  0.0000  0.0000
13938SI     SI113938   5.586   1.883   0.689  0.0000  0.0000  0.0000
13939SI     SI113939   2.171   0.938   9.444  0.0000  0.0000  0.0000
13940SI     SI113940   7.700   4.801   8.832  0.0000  0.0000  0.0000
13941SI     SI113941   8.159   3.581   0.055  0.0000  0.0000  0.0000
13942SI     SI113942   5.512   2.782   0.523  0.0000  0.0000  0.0000
13943SI     SI113943   7.922   2.146   9.602  0.0000  0.0000  0.0000
13944SI     SI113944   7.080   3.388   0.498  0.0000  0.0000  0.0000
13945SI     SI113945   0.486   4.051   8.846  0.0000  0.0000  0.0000
13946SI     SI113946   1.385   1.244   8.620  0.0000  0.0000  0.0000
13947SI     SI113947   8.173   0.795   8.854  0.0000  0.0000  0.0000
13948SI     SI113948   7.136   9.265   9.466  0.0000  0.0000  0.0000
13949SI     SI113949   1.726   7.734   8.338  0.0000  0.0000  0.0000
13950SI     SI113950   5.278   1.836   8.788  0.0000  0.0000  0.0000
13951SI     SI113951   0.499   1.082   8.906  0.0000  0.0000  0.0000
13952SI     SI113952   3.408   5.637   0.810  0.0000  0.0000  0.0000
13953SI     SI113953   3.900   3.743   8.764  0.0000  0.0000  0.0000
13954SI     SI113954   9.558   2.333   9.407  0.0000  0.0000  0.0000
13955SI     SI113955   9.314   5.485   9.201  0.0000  0.0000  0.0000
13956SI     SI113956   2.971   6.948   8.688  0.0000  0.0000  0.0000
13957SI     SI113957   3.247   6.601   0.679  0.0000  0.0000  0.0000
13958SI     SI113958   2.277   0.044   9.590  0.0000  0.0000  0.0000
13959SI     SI113959   0.292   5.182   8.809  0.0000  0.0000  0.0000
13960SI     SI113960   6.497   2.883   0.471  0.0000  0.0000  0.0000
13961SI     SI113961   2.622   4.676   0.708  0.0000  0.0000  0.0000
13962SI     SI113962   6.469   8.347   9.168  0.0000  0.0000  0.0000
13963SI     SI113963   7.933   6.469   9.090  0.0000  0.0000  0.0000
13964SI     SI113964   8.054   3.118   0.250  0.0000  0.0000  0.0000
13965SI     SI113965   0.659   4.245   0.262  0.0000  0.0000  0.0000
13966SI     SI113966   5.065   3.866   0.413  0.0000  0.0000  0.0000
13967SI     SI113967   9.288   0.580   8.756  0.0000  0.0000  0.0000
13968SI     SI113968   6.213   8.301   1.107  0.0000  0.0000  0.0000
13969SI     SI113969   5.361   8.037   8.319  0.0000  0.0000  0.0000
13970SI     SI113970   0.385   3.365   0.976  0.0000  0.0000  0.0000
13971SI     SI113971   6.229   3.782   0.553  0.0000  0.0000  0.0000
13972SI     SI113972   3.799   3.820   9.247  0.0000  0.0000  0.0000
13973SI     SI113973   9.361   0.004   8.825  0.0000  0.0000  0.0000
13974SI     SI113974   6.740   2.492   9.529  0.0000  0.0000  0.0000
13975SI     SI113975   8.559   1.040   0.952  0.0000  0.0000  0.0000
13976SI     SI113976   4.314   1.092   1.102  0.0000  0.0000  0.0000
13977SI     SI113977   9.432   9.275   0.311  0.0000  0.0000  0.0000
13978SI     SI113978   9.151   7.499   1.282  0.0000  0.0000  0.0000
13979SI     SI113979   6.378   1.451   0.316  0.0000  0.0000  0.0000
13980SI     SI113980   6.775   0.892   0.384  0.0000  0.0000  0.0000
13981SI     SI113981   3.520   2.169   8.709  0.0000  0.0000  0.0000
13982SI     SI113982   4.400   5.286   9.210  0.0000  0.0000  0.0000
13983SI     SI113983   3.607   1.473   0.392  0.0000  0.0000  0.0000
13984SI     SI113984   5.855   8.971   9.094  0.0000  0.0000  0.0000
13985SI     SI113985   2.363   2.638   9.502  0.0000  0.0000  0.0000
13986SI     SI113986   4.447   1.886   0.332  0.0000  0.0000  0.0000
13987SI     SI113987   9.325   5.603   0.829  0.0000  0.0000  0.0000
13988SI     SI113988   5.137   7.110   0.838  0.0000  0.0000  0.0000
13989SI     SI113989   7.566   9.356   0.441  0.0000  0.0000  0.0000
13990SI     SI113990   8.637   1.717   0.113  0.0000  0.0000  0.0000
13991SI     SI113991   1.051   8.762   0.967  0.0000  0.0000  0.0000
13992SI     SI113992   8.994   0.252   8.856  0.0000  0.0000  0.0000
13993SI     SI113993   5.367   2.439   9.176  0.0000  0.0000  0.0000
13994SI     SI113994   3.916   0.724   1.183  0.0000  0.0000  0.0000
13995SI     SI113995   9.213   6.822   0.595  0.0000  0.0000  0.0000
13996SI     SI113996   8.019   6.111   0.696  0.0000  0.0000  0.0000
13997SI     SI113997   2.375   8.990   0.579  0.0000  0.0000  0.0000
13998SI     SI113998   7.828   4.441   9.227  0.0000  0.0000  0.0000
13999SI     SI113999   1.067   8.440   1.260  0.0000  0.0000  0.0000
14000SI     SI114000   7.488   4.173   0.953  0.0000  0.0000  0.0000
14001SI     SI114001   9.061   0.903   8.544  0.0000  0.0000  0.0000
14002SI     SI114002   2.764   2.579   0.235  0.0000  0.0000  0.0000
14003SI     SI114003   8.709   9.199   9.120  0.0000  0.0000  0.0000
14004SI     SI114004   8.987   4.998   9.570  0.0000  0.0000  0.0000
14005SI     SI114005   1.601   5.519   0.598  0.0000  0.0000  0.0000
14006SI     SI114006   5.134   6.188   0.358  0.0000  0.0000  0.0000
14007SI     SI114007   5.504   8.011   9.111  0.0000  0.0000  0.0000
14008SI     SI114008   8.954   3.039   1.279  0.0000  0.0000  0.0000
14009SI     SI114009   0.045   5.111   0.703  0.0000  0.0000  0.0000
14010SI     SI114010   7.801   4.556   0.517  0.0000  0.0000  0.0000
14011SI     SI114011   6.496   4.826   0.689  0.0000  0.0000  0.0000
14012SI     SI114012   8.483   9.068   1.383  0.0000  0.0000  0.0000
14013SI     SI114013   8.297   4.640   8.412  0.0000  0.0000  0.0000
14014SI     SI114014   2.500   0.570   9.214  0.0000  0.0000  0.0000
14015SI     SI114015   1.378   4.412   1.400  0.0000  0.0000  0.0000
14016SI     SI114016   0.169   1.483   8.929  0.0000  0.0000  0.0000
14017SI     SI114017   2.306   8.114   8.911  0.0000  0.0000  0.0000
14018SI     SI114018   5.238   3.279   0.115  0.0000  0.0000  0.0000
14019SI     SI114019   2.111   3.940   9.292  0.0000  0.0000  0.0000
14020SI     SI114020   0.190   7.839   0.109  0.0000  0.0000  0.0000
14021SI     SI114021   4.614   2.007   9.309  0.0000  0.0000  0.0000
14022SI     SI114022   0.365   2.615   0.260  0.0000  0.0000  0.0000
14023SI     SI114023   7.945   0.221   0.170  0.0000  0.0000  0.0000
14024SI     SI114024   2.131   3.186   9.018  0.0000  0.0000  0.0000
14025SI     SI114025   5.604   3.059   0.650  0.0000  0.0000  0.0000
14026SI     SI114026   4.343   5.568   1.125  0.0000  0.0000  0.0000
14027SI     SI114027   6.303   6.948   9.314  0.0000  0.0000  0.0000
14028SI     SI114028   4.315   5.730   9.049  0.0000  0.0000  0.0000
14029SI     SI114029   4.126   0.735   0.143  0.0000  0.0000  0.0000
14030SI     SI114030   6.525   9.576   8.278  0.0000  0.0000  0.0000
14031SI     SI114031   0.110   1.059   0.943  0.0000  0.0000  0.0000
14032SI     SI114032   0.113   1.347   0.863  0.0000  0.0000  0.0000
14033SI     SI114033   0.181   3.970   8.626  0.0000  0.0000  0.0000
14034SI     SI114034   6.701   7.153   0.178  0.0000  0.0000  0.0000
14035SI     SI114035   3.893   7.837   0.864  0.0000  0.0000  0.0000
14036SI     SI114036   1.720   6.426   0.661  0.0000  0.0000  0.0000
14037SI     SI114037   5.065   7.641   8.444  0.0000  0.0000  0.0000
14038SI     SI114038   0.589   9.229   1.138  0.0000  0.0000  0.0000
14039SI     SI114039   2.168   0.715   0.678  0.0000  0.0000  0.0000
14040SI     SI114040   3.614   2.922   1.143  0.0000  0.0000  0.0000
14041SI     SI114041   3.141   7.726   9.065  0.0000  0.0000  0.0000
14042SI     SI114042   4.740   4.643   9.319  0.0000  0.0000  0.0000
14043SI     SI114043   8.563   6.136   8.591  0.0000  0.0000  0.0000
14044SI     SI114044   9.415   7.873   0.939  0.0000  0.0000  0.0000
14045SI     SI114045   3.606   1.830   0.878  0.0000  0.0000  0.0000
14046SI     SI114046   3.630   5.778   0.164  0.0000  0.0000  0.0000
14047SI     SI114047   2.134   2.118   8.988  0.0000  0.0000  0.0000
14048SI     SI114048   4.556   3.792   0.272  0.0000  0.0000  0.0000
14049SI     SI114049   5.539   1.048   9.193  0.0000  0.0000  0.0000
14050SI     SI114050   5.555   6.813   8.810  0.0000  0.0000  0.0000
14051SI     SI114051   1.823   6.685   1.108  0.0000  0.0000  0.0000
14052SI     SI114052   8.681   8.382   0.647  0.0000  0.0000  0.0000
14053SI     SI114053   3.067   0.720   0.641  0.0000  0.0000  0.0000
14054SI     SI114054   8.579   4.154   9.393  0.0000  0.0000  0.0000
14055SI     SI114055   9.522   0.592   9.206  0.0000  0.0000  0.0000
14056SI     SI114056   0.570   7.466   8.403  0.0000  0.0000  0.0000
14057SI     SI114057   7.942   9.151   0.214  0.0000  0.0000  0.0000
14058SI     SI114058   2.163   8.520   8.447  0.0000  0.0000  0.0000
14059SI     SI114059   7.893   2.853   0.634  0.0000  0.0000  0.0000
14060SI     SI114060   4.159   7.928   0.870  0.0000  0.0000  0.0000
14061SI     SI114061   5.368   4.120   0.535  0.0000  0.0000  0.0000
14062SI     SI114062   3.046   0.273   0.504  0.0000  0.0000  0.0000
14063SI     SI114063   9.510   3.535   8.712  0.0000  0.0000  0.0000
14064SI     SI114064   6.174   1.559   9.270  0.0000  0.0000  0.0000
14065SI     SI114065   1.650   7.465   8.806  0.0000  0.0000  0.0000
14066SI     SI114066   2.717   6.175   0.797  0.0000  0.0000  0.0000
14067SI     SI114067   0.142   6.717   0.064  0.0000  0.0000  0.0000
14068SI     SI114068   6.876   4.737   8.437  0.0000  0.0000  0.0000
14069SI     SI114069   4.894   2.054   0.681  0.0000  0.0000  0.0000
14070SI     SI114070   5.853   6.837   8.858  0.0000  0.0000  0.0000
14071SI     SI114071   2.370   0.323   8.688  0.0000  0.0000  0.0000
14072SI     SI114072   8.304   6.018   0.717  0.0000  0.0000  0.0000
14073SI     SI114073   7.425   2.779   0.623  0.0000  0.0000  0.0000
14074SI     SI114074   6.778   2.744   8.743  0.0000  0.0000  0.0000
14075SI     SI114075   8.496   7.751   9.096  0.0000  0.0000  0.0000
14076SI     SI114076   3.740   0.680   8.908  0.0000  0.0000  0.0000
14077SI     SI114077   8.242   8.407   9.012  0.0000  0.0000  0.0000
14078SI     SI114078   4.706   1.153   8.637  0.0000  0.0000  0.0000
14079SI     SI114079   6.181   7.819   9.505  0.0000  0.0000  0.0000
14080SI     SI114080   5.171   6.217   1.136  0.0000  0.0000  0.0000
14081SI     SI114081   5.745   4.733   0.589  0.0000  0.0000  0.0000
14082SI     SI114082   8.281   6.185   9.309  0.0000  0.0000  0.0000
14083SI     SI114083   4.212   4.715   9.498  0.0000  0.0000  0.0000
14084SI     SI114084   4.761   5.987   0.649  0.0000  0.0000  0.0000
14085SI     SI114085   1.640   7.206   0.465  0.0000  0.0000  0.0000
14086SI     SI114086   8.544   4.313   8.677  0.0000  0.0000  0.0000
14087SI     SI114087   8.231   4.334   9.100  0.0000  0.0000  0.0000
14088SI     SI114088   8.380   1.734   9.409  0.0000  0.0000  0.0000
14089SI     SI114089   6.114   4.816   8.983  0.0000  0.0000  0.0000
14090SI     SI114090   3.117   7.437   9.187  0.0000  0.0000  0.0000
14091SI     SI114091   2.459   5.522   1.264  0.0000  0.0000  0.0000
14092SI     SI114092   1.495   1.251   1.111  0.0000  0.0000  0.0000
14093SI     SI114093   3.310   1.253   9.323  0.0000  0.0000  0.0000
14094SI     SI114094   6.283   3.115   9.466  0.0000  0.0000  0.0000
14095SI     SI114095   1.828   8.559   9.502  0.0000  0.0000  0.0000
14096SI     SI114096   9.215   6.277   1.059  0.0000  0.0000  0.0000
14097SI     SI114097   1.798   0.782   0.442  0.0000  0.0000  0.0000
14098SI     SI114098   5.771   7.640   9.315  0.0000  0.0000  0.0000
14099SI     SI114099   4.821   8.042   0.436  0.0000  0.0000  0.0000
14100SI     SI114100   2.509   3.329   0.771  0.0000  0.0000  0.0000
14101SI     SI114101   5.335   8.144   0.989  0.0000  0.0000  0.0000
14102SI     SI114102   5.311   9.243   9.293  0.0000  0.0000  0.0000
14103SI     SI114103   4.109   7.909   9.006  0.0000  0.0000  0.0000
14104SI     SI114104   0.431   1.459   8.747  0.0000  0.0000  0.0000
14105SI     SI114105   7.351   1.647   0.895  0.0000  0.0000  0.0000
14106SI     SI114106   9.125   0.123   8.203  0.0000  0.0000  0.0000
14107SI     SI114107   8.229   4.794   0.669  0.0000  0.0000  0.0000
14108SI     SI114108   6.532   1.976   9.049  0.0000  0.0000  0.0000
14109SI     SI114109   9.582   3.020   0.726  0.0000  0.0000  0.0000
14110SI     SI114110   3.529   8.405   0.883  0.0000  0.0000  0.0000
14111SI     SI114111   6.761   4.961   0.237  0.0000  0.0000  0.0000
14112SI     SI114112   3.894   3.481   0.948  0.0000  0.0000  0.0000
14113SI     SI114113   2.615   4.047   0.941  0.0000  0.0000  0.0000
14114SI     SI114114   6.866   2.822   9.199  0.0000  0.0000  0.0000
14115SI     SI114115   8.596   4.560   9.132  0.0000  0.0000  0.0000
14116SI     SI114116   4.183   2.492   0.392  0.0000  0.0000  0.0000
14117SI     SI114117   1.306   4.974   0.323  0.0000  0.0000  0.0000
14118SI     SI114118   7.491   5.650   0.089  0.0000  0.0000  0.0000
14119SI     SI114119   1.037   4.467   8.331  0.0000  0.0000  0.0000
14120SI     SI114120   9.589   2.110   0.557  0.0000  0.0000  0.0000
14121SI     SI114121   3.606   5.571   9.020  0.0000  0.0000  0.0000
14122SI     SI114122   2.344   5.809   0.881  0.0000  0.0000  0.0000
14123SI     SI114123   5.967   1.330   9.219  0.0000  0.0000  0.0000
14124SI     SI114124   8.182   5.907   8.607  0.0000  0.0000  0.0000
14125SI     SI114125   5.557   4.770   8.654  0.0000  0.0000  0.0000
14126SI     SI114126   1.743   2.198   0.352  0.0000  0.0000  0.0000
14127SI     SI114127   9.167   2.384   8.546  0.0000  0.0000  0.0000
14128SI     SI114128   5.541   7.712   8.841  0.0000  0.0000  0.0000
14129SI     SI114129   5.469   8.997   0.661  0.0000  0.0000  0.0000
14130SI     SI114130   0.943   1.988   0.194  0.0000  0.0000  0.0000
14131SI     SI114131   0.236   6.555   0.971  0.0000  0.0000  0.0000
14132SI     SI114132   3.902   0.860   0.299  0.0000  0.0000  0.0000
14133SI     SI114133   4.789   6.748   9.199  0.0000  0.0000  0.0000
14134SI     SI114134   2.997   3.554   9.205  0.0000  0.0000  0.0000
14135SI     SI114135   0.003   6.434   0.078  0.0000  0.0000  0.0000
14136SI     SI114136   8.312   7.521   9.001  0.0000  0.0000  0.0000
14137SI     SI114137   5.711   7.579   0.692  0.0000  0.0000  0.0000
14138SI     SI114138   7.647   6.414   1.297  0.0000  0.0000  0.0000
14139SI     SI114139   0.925   0.816   0.848  0.0000  0.0000  0.0000
14140SI     SI114140   2.330   1.875   9.042  0.0000  0.0000  0.0000
14141SI     SI114141   8.799   9.477   8.787  0.0000  0.0000  0.0000
14142SI     SI114142   3.178   2.805   0.945  0.0000  0.0000  0.0000
14143SI     SI114143   5.344   6.785   8.447  0.0000  0.0000  0.0000
14144SI     SI114144   7.320   6.406   8.489  0.0000  0.0000  0.0000
14145SI     SI114145   0.140   0.191   0.056  0.0000  0.0000  0.0000
14146SI     SI114146   7.300   8.528   9.504  0.0000  0.0000  0.0000
14147SI     SI114147   3.859   6.683   0.470  0.0000  0.0000  0.0000
14148SI     SI114148   1.229   9.010   8.375  0.0000  0.0000  0.0000
14149SI     SI114149   5.835   8.390   0.822  0.0000  0.0000  0.0000
14150SI     SI114150   7.744   0.491   8.658  0.0000  0.0000  0.0000
14151SI     SI114151   0.905   3.674   0.350  0.0000  0.0000  0.0000
14152SI     SI114152   6.064   5.963   0.997  0.0000  0.0000  0.0000
14153SI     SI114153   9.140   4.967   0.672  0.0000  0.0000  0.0000
14154SI     SI114154   0.287   6.829   8.636  0.0000  0.0000  0.0000
14155SI     SI114155   0.635   0.836   9.264  0.0000  0.0000  0.0000
14156SI     SI114156   8.492   4.142   0.804  0.0000  0.0000  0.0000
14157SI     SI114157   5.980   3.802   0.387  0.0000  0.0000  0.0000
14158SI     SI114158   1.882   1.206   9.086  0.0000  0.0000  0.0000
14159SI     SI114159   0.367   3.416   9.491  0.0000  0.0000  0.0000
14160SI     SI114160   1.734   8.884   9.233  0.0000  0.0000  0.0000
14161SI     SI114161   9.323   4.856   0.438  0.0000  0.0000  0.0000
14162SI     SI114162   1.948   4.551   8.962  0.0000  0.0000  0.0000
14163SI     SI114163   5.086   3.157   1.176  0.0000  0.0000  0.0000
14164SI     SI114164   1.303   7.989   0.316  0.0000  0.0000  0.0000
14165SI     SI114165   1.134   4.548   0.334  0.0000  0.0000  0.0000
14166SI     SI114166   6.822   8.490   8.415  0.0000  0.0000  0.0000
14167SI     SI114167   9.580   8.081   8.597  0.0000  0.0000  0.0000
14168SI     SI114168   1.759   7.634   0.073  0.0000  0.0000  0.0000
14169SI     SI114169   2.009   1.589   0.242  0.0000  0.0000  0.0000
14170SI     SI114170   5.615   6.165   0.592  0.0000  0.0000  0.0000
14171SI     SI114171   1.465   3.924   9.509  0.0000  0.0000  0.0000
14172SI     SI114172   4.255   2.785   9.593  0.0000  0.0000  0.0000
14173SI     SI114173   5.880   3.748   8.470  0.0000  0.0000  0.0000
14174SI     SI114174   8.289   2.729   0.473  0.0000  0.0000  0.0000
14175SI     SI114175   5.918   1.422   8.924  0.0000  0.0000  0.0000
14176SI     SI114176   3.185   3.378   0.043  0.0000  0.0000  0.0000
14177SI     SI114177   5.617   6.418   0.195  0.0000  0.0000  0.0000
14178SI     SI114178   0.622   4.828   8.906  0.0000  0.0000  0.0000
14179SI     SI114179   5.681   5.476   0.116  0.0000  0.0000  0.0000
14180SI     SI114180   4.563   6.091   8.265  0.0000  0.0000  0.0000
14181SI     SI114181   0.861   6.177   0.943  0.0000  0.0000  0.0000
14182SI     SI114182   3.901   1.564   9.236  0.0000  0.0000  0.0000
14183SI     SI114183   6.566   4.313   9.472  0.0000  0.0000  0.0000
14184SI     SI114184   8.976   3.012   9.373  0.0000  0.0000  0.0000
14185SI     SI114185   8.329   3.795   9.505  0.0000  0.0000  0.0000
14186SI     SI114186   1.530   4.440   8.869  0.0000  0.0000  0.0000
14187SI     SI114187   5.317   7.160   9.159  0.0000  0.0000  0.0000
14188SI     SI114188   1.013   7.926   0.269  0.0000  0.0000  0.0000
14189SI     SI114189   2.236   6.612   0.470  0.0000  0.0000  0.0000
14190SI     SI114190   4.718   2.503   8.244  0.0000  0.0000  0.0000
14191SI     SI114191   6.780   0.270   0.207  0.0000  0.0000  0.0000
14192SI     SI114192   3.535   0.087   9.559  0.0000  0.0000  0.0000
14193SI     SI114193   8.107   3.188   8.948  0.0000  0.0000  0.0000
14194SI     SI114194   4.198   4.090   9.018  0.0000  0.0000  0.0000
14195SI     SI114195   3.020   4.940   9.305  0.0000  0.0000  0.0000
14196SI     SI114196   3.364   8.664   8.455  0.0000  0.0000  0.0000
14197SI     SI114197   5.314   0.282   0.851  0.0000  0.0000  0.0000
14198SI     SI114198   5.911   4.541   8.418  0.0000  0.0000  0.0000
14199SI     SI114199   3.364   3.009   8.943  0.0000  0.0000  0.0000
14200SI     SI114200   7.239   8.454   8.896  0.0000  0.0000  0.0000
14201SI     SI114201   8.772   3.168   8.609  0.0000  0.0000  0.0000
14202SI     SI114202   7.749   1.499   9.136  0.0000  0.0000  0.0000
14203SI     SI114203   0.111   2.669   8.808  0.0000  0.0000  0.0000
14204SI     SI114204   4.398   9.075   0.140  0.0000  0.0000  0.0000
14205SI     SI114205   3.069   9.114   1.073  0.0000  0.0000  0.0000
14206SI     SI114206   4.378   1.724   8.748  0.0000  0.0000  0.0000
14207SI     SI114207   8.813   8.306   1.144  0.0000  0.0000  0.0000
14208SI     SI114208   1.316   7.957   8.891  0.0000  0.0000  0.0000
14209SI     SI114209   8.212   9.091   9.214  0.0000  0.0000  0.0000
14210SI     SI114210   1.887   0.790   8.841  0.0000  0.0000  0.0000
14211SI     SI114211   9.598   7.917   9.239  0.0000  0.0000  0.0000
14212SI     SI114212   1.015   6.431   1.306  0.0000  0.0000  0.0000
14213SI     SI114213   8.774   3.302   1.237  0.0000  0.0000  0.0000
14214SI     SI114214   6.905   0.001   0.207  0.0000  0.0000  0.0000
14215SI     SI114215   6.114   6.665   0.679  0.0000  0.0000  0.0000
14216SI     SI114216   9.054   3.430   0.831  0.0000  0.0000  0.0000
14217SI     SI114217   0.551   7.137   0.298  0.0000  0.0000  0.0000
14218SI     SI114218   5.981   5.095   9.483  0.0000  0.0000  0.0000
14219SI     SI114219   5.631   4.382   9.597  0.0000  0.0000  0.0000
14220SI     SI114220   2.693   1.902   0.773  0.0000  0.0000  0.0000
14221SI     SI114221   1.898   7.495   8.333  0.0000  0.0000  0.0000
14222SI     SI114222   0.327   3.408   0.359  0.0000  0.0000  0.0000
14223SI     SI114223   7.770   5.518   0.082  0.0000  0.0000  0.0000
14224SI     SI114224   8.932   7.862   8.935  0.0000  0.0000  0.0000
14225SI     SI114225   2.737   3.177   9.416  0.0000  0.0000  0.0000
14226SI     SI114226   8.077   6.358   1.092  0.0000  0.0000  0.0000
14227SI     SI114227   4.705   9.407   8.202  0.0000  0.0000  0.0000
14228SI     SI114228   0.220   4.004   0.517  0.0000  0.0000  0.0000
14229SI     SI114229   0.778   4.397   8.662  0.0000  0.0000  0.0000
14230SI     SI114230   6.453   2.549   9.410  0.0000  0.0000  0.0000
14231SI     SI114231   5.113   1.762   9.465  0.0000  0.0000  0.0000
14232SI     SI114232   1.451   8.488   8.271  0.0000  0.0000  0.0000
14233SI     SI114233   5.854   2.828   8.349  0.0000  0.0000  0.0000
14234SI     SI114234   7.036   3.301   9.341  0.0000  0.0000  0.0000
14235SI     SI114235   1.534   6.273   1.159  0.0000  0.0000  0.0000
14236SI     SI114236   7.983   1.469   9.585  0.0000  0.0000  0.0000
14237SI     SI114237   8.521   2.906   1.094  0.0000  0.0000  0.0000
14238SI     SI114238   7.120   5.175   8.604  0.0000  0.0000  0.0000
14239SI     SI114239   1.702   9.314   0.497  0.0000  0.0000  0.0000
14240SI     SI114240   3.957   3.964   1.090  0.0000  0.0000  0.0000
14241SI     SI114241   4.769   5.481   9.484  0.0000  0.0000  0.0000
14242SI     SI114242   6.959   2.778   0.923  0.0000  0.0000  0.0000
14243SI     SI114243   0.768   8.666   0.090  0.0000  0.0000  0.0000
14244SI     SI114244   2.709   0.371   9.100  0.0000  0.0000  0.0000
14245SI     SI114245   2.817   4.264   0.840  0.0000  0.0000  0.0000
14246SI     SI114246   4.838   9.374   0.141  0.0000  0.0000  0.0000
14247SI     SI114247   8.112   3.856   9.298  0.0000  0.0000  0.0000
14248SI     SI114248   3.023   5.261   8.542  0.0000  0.0000  0.0000
14249SI     SI114249   2.583   7.791   1.235  0.0000  0.0000  0.0000
14250SI     SI114250   8.586   1.597   8.848  0.0000  0.0000  0.0000
14251SI     SI114251   9.172   3.682   0.429  0.0000  0.0000  0.0000
14252SI     SI114252   7.018   6.830   0.870  0.0000  0.0000  0.0000
14253SI     SI114253   9.025   9.272   9.352  0.0000  0.0000  0.0000
14254SI     SI114254   5.573   9.250   0.192  0.0000  0.0000  0.0000
14255SI     SI114255   5.918   5.598   0.485  0.0000  0.0000  0.0000
14256SI     SI114256   1.725   8.713   8.803  0.0000  0.0000  0.0000
14257SI     SI114257   7.219   8.801   9.594  0.0000  0.0000  0.0000
14258SI     SI114258   6.951   1.409   9.265  0.0000  0.0000  0.0000
14259SI     SI114259   5.250   2.253   0.955  0.0000  0.0000  0.0000
14260SI     SI114260   4.933   0.380   8.987  0.0000  0.0000  0.0000
14261SI     SI114261   2.542   6.450   1.108  0.0000  0.0000  0.0000
14262SI     SI114262   6.686   2.495   8.602  0.0000  0.0000  0.0000
14263SI     SI114263   7.968   3.990   1.146  0.0000  0.0000  0.0000
14264SI     SI114264   8.497   8.680   0.276  0.0000  0.0000  0.0000
14265SI     SI114265   7.459   8.088   1.273  0.0000  0.0000  0.0000
14266SI     SI114266   7.009   9.382   8.444  0.0000  0.0000  0.0000
14267SI     SI114267   6.455   7.264   1.024  0.0000  0.0000  0.0000
14268SI     SI114268   9.177   0.335   1.090  0.0000  0.0000  0.0000
14269SI     SI114269   8.410   3.120   9.264  0.0000  0.0000  0.0000
14270SI     SI114270   3.388   2.659   0.067  0.0000  0.0000  0.0000
14271SI     SI114271   1.363   7.631   9.455  0.0000  0.0000  0.0000
14272SI     SI114272   6.331   1.262   8.839  0.0000  0.0000  0.0000
14273SI     SI114273   7.360   1.356   0.970  0.0000  0.0000  0.0000
14274SI     SI114274   5.596   8.059   0.213  0.0000  0.0000  0.0000
14275SI     SI114275   9.569   9.426   8.452  0.0000  0.0000  0.0000
14276SI     SI114276   8.080   9.200   8.765  0.0000  0.0000  0.0000
14277SI     SI114277   6.070   7.672   8.965  0.0000  0.0000  0.0000
14278SI     SI114278   8.434   2.489   9.561  0.0000  0.0000  0.0000
14279SI     SI114279   6.761   2.367   0.920  0.0000  0.0000  0.0000
14280SI     SI114280   7.167   6.513   8.975  0.0000  0.0000  0.0000
14281SI     SI114281   6.639   3.549   8.603  0.0000  0.0000  0.0000
14282SI     SI114282   6.923   0.520   1.097  0.0000  0.0000  0.0000
14283SI     SI114283   0.909   0.433   0.240  0.0000  0.0000  0.0000
14284SI     SI114284   4.310   8.020   1.110  0.0000  0.0000  0.0000
14285SI     SI114285   7.696   6.664   9.569  0.0000  0.0000  0.0000
14286SI     SI114286   4.368   3.424   0.412  0.0000  0.0000  0.0000
14287SI     SI114287   9.518   8.337   1.144  0.0000  0.0000  0.0000
14288SI     SI114288   2.140   5.484   8.604  0.0000  0.0000  0.0000
14289SI     SI114289   1.151   6.989   8.610  0.0000  0.0000  0.0000
14290SI     SI114290   3.985   0.009   0.375  0.0000  0.0000  0.0000
14291SI     SI114291   8.659   8.914   0.146  0.0000  0.0000  0.0000
14292SI     SI114292   1.385   4.314   1.113  0.0000  0.0000  0.0000
14293SI     SI114293   5.337   9.413   8.503  0.0000  0.0000  0.0000
14294SI     SI114294   1.836   7.304   0.664  0.0000  0.0000  0.0000
14295SI     SI114295   2.766   3.062   0.312  0.0000  0.0000  0.0000
14296SI     SI114296   7.181   8.125   1.220  0.0000  0.0000  0.0000
14297SI     SI114297   1.400   8.993   0.733  0.0000  0.0000  0.0000
14298SI     SI114298   6.229   8.136   9.167  0.0000  0.0000  0.0000
14299SI     SI114299   1.321   3.859   0.170  0.0000  0.0000  0.0000
14300SI     SI114300   1.817   8.886   1.238  0.0000  0.0000  0.0000
14301SI     SI114301   5.913   7.653   0.263  0.0000  0.0000  0.0000
14302SI     SI114302   8.401   9.109   0.662  0.0000  0.0000  0.0000
14303SI     SI114303   5.825   2.265   9.134  0.0000  0.0000  0.0000
14304SI     SI114304   3.425   6.966   9.216  0.0000  0.0000  0.0000
14305SI     SI114305   5.293   6.860   9.228  0.0000  0.0000  0.0000
14306SI     SI114306   0.541   0.666   0.476  0.0000  0.0000  0.0000
14307SI     SI114307   2.623   9.572   0.936  0.0000  0.0000  0.0000
14308SI     SI114308   3.944   1.063   9.472  0.0000  0.0000  0.0000
14309SI     SI114309   9.245   4.400   9.256  0.0000  0.0000  0.0000
14310SI     SI114310   7.811   8.004   0.689  0.0000  0.0000  0.0000
14311SI     SI114311   1.878   7.697   0.835  0.0000  0.0000  0.0000
14312SI     SI114312   4.627   4.691   8.703  0.0000  0.0000  0.0000
14313SI     SI114313   5.533   2.292   0.406  0.0000  0.0000  0.0000
14314SI     SI114314   2.612   9.004   8.409  0.0000  0.0000  0.0000
14315SI     SI114315   3.554   3.184   8.541  0.0000  0.0000  0.0000
14316SI     SI114316   6.612   1.665   0.332  0.0000  0.0000  0.0000
14317SI     SI114317   0.914   2.064   9.085  0.0000  0.0000  0.0000
14318SI     SI114318   7.401   0.225   1.006  0.0000  0.0000  0.0000
14319SI     SI114319   5.445   9.468   0.972  0.0000  0.0000  0.0000
14320SI     SI114320   1.410   6.245   9.160  0.0000  0.0000  0.0000
14321SI     SI114321   6.402   7.871   0.232  0.0000  0.0000  0.0000
14322SI     SI114322   4.026   8.424   1.035  0.0000  0.0000  0.0000
14323SI     SI114323   7.138   0.578   8.385  0.0000  0.0000  0.0000
14324SI     SI114324   0.507   3.796   0.132  0.0000  0.0000  0.0000
14325SI     SI114325   7.321   7.295   1.085  0.0000  0.0000  0.0000
14326SI     SI114326   4.347   7.351   9.413  0.0000  0.0000  0.0000
14327SI     SI114327   3.384   0.908   8.557  0.0000  0.0000  0.0000
14328SI     SI114328   0.644   7.300   0.546  0.0000  0.0000  0.0000
14329SI     SI114329   8.747   5.928   0.740  0.0000  0.0000  0.0000
14330SI     SI114330   4.982   4.653   8.371  0.0000  0.0000  0.0000
14331SI     SI114331   9.121   7.007   1.236  0.0000  0.0000  0.0000
14332SI     SI114332   2.604   8.381   9.256  0.0000  0.0000  0.0000
14333SI     SI114333   1.183   8.518   0.282  0.0000  0.0000  0.0000
14334SI     SI114334   9.322   1.671   9.331  0.0000  0.0000  0.0000
14335SI     SI114335   1.914   2.654   1.155  0.0000  0.0000  0.0000
14336SI     SI114336   5.651   7.577   0.390  0.0000  0.0000  0.0000
14337SI     SI114337   0.413   3.113   8.955  0.0000  0.0000  0.0000
14338SI     SI114338   6.138   1.601   8.784  0.0000  0.0000  0.0000
14339SI     SI114339   6.314   0.876   0.567  0.0000  0.0000  0.0000
14340SI     SI114340   6.875   1.375   9.552  0.0000  0.0000  0.0000
14341SI     SI114341   0.021   5.807   8.336  0.0000  0.0000  0.0000
14342SI     SI114342   9.102   5.699   8.816  0.0000  0.0000  0.0000
14343SI     SI114343   2.965   2.227   9.555  0.0000  0.0000  0.0000
14344SI     SI114344   3.674   8.618   8.821  0.0000  0.0000  0.0000
14345SI     SI114345   3.021   1.097   8.943  0.0000  0.0000  0.0000
14346SI     SI114346   0.640   7.202   9.021  0.0000  0.0000  0.0000
14347SI     SI114347   6.218   6.966   8.809  0.0000  0.0000  0.0000
14348SI     SI114348   5.297   9.393   0.250  0.0000  0.0000  0.0000
14349SI     SI114349   8.406   9.512   8.950  0.0000  0.0000  0.0000
14350SI     SI114350   0.909   4.645   1.412  0.0000  0.0000  0.0000
14351SI     SI114351   2.587   2.314   9.112  0.0000  0.0000  0.0000
14352SI     SI114352   4.191   8.504   8.556  0.0000  0.0000  0.0000
14353SI     SI114353   2.324   3.523   0.932  0.0000  0.0000  0.0000
14354SI     SI114354   3.840   8.052   8.984  0.0000  0.0000  0.0000
14355SI     SI114355   5.420   2.742   0.904  0.0000  0.0000  0.0000
14356SI     SI114356   9.137   3.678   0.129  0.0000  0.0000  0.0000
14357SI     SI114357   0.040   1.594   1.240  0.0000  0.0000  0.0000
14358SI     SI114358   9.365   8.184   0.916  0.0000  0.0000  0.0000
14359SI     SI114359   6.418   2.457   1.107  0.0000  0.0000  0.0000
14360SI     SI114360   3.330   4.580   0.509  0.0000  0.0000  0.0000
14361SI     SI114361   5.502   5.282   9.549  0.0000  0.0000  0.0000
14362SI     SI114362   7.116   3.391   8.394  0.0000  0.0000  0.0000
14363SI     SI114363   3.183   6.226   1.088  0.0000  0.0000  0.0000
14364SI     SI114364   0.280   0.413   9.499  0.0000  0.0000  0.0000
14365SI     SI114365   0.536   8.478   0.057  0.0000  0.0000  0.0000
14366SI     SI114366   4.834   7.465   0.055  0.0000  0.0000  0.0000
14367SI     SI114367   4.078   5.595   9.165  0.0000  0.0000  0.0000
14368SI     SI114368   8.055   5.858   0.985  0.0000  0.0000  0.0000
14369SI     SI114369   6.614   8.951   0.635  0.0000  0.0000  0.0000
14370SI     SI114370   4.228   0.810   9.082  0.0000  0.0000  0.0000
14371SI     SI114371   6.055   5.076   1.120  0.0000  0.0000  0.0000
14372SI     SI114372   4.622   3.721   8.712  0.0000  0.0000  0.0000
14373SI     SI114373   9.474   1.691   0.518  0.0000  0.0000  0.0000
14374SI     SI114374   8.565   2.436   8.632  0.0000  0.0000  0.0000
14375SI     SI114375   0.536   6.663   0.966  0.0000  0.0000  0.0000
14376SI     SI114376   0.049   8.031   9.526  0.0000  0.0000  0.0000
14377SI     SI114377   0.278   3.553   9.222  0.0000  0.0000  0.0000
14378SI     SI114378   2.387   4.536   9.266  0.0000  0.0000  0.0000
14379SI     SI114379   8.812   2.460   0.540  0.0000  0.0000  0.0000
14380SI     SI114380   1.846   1.090   8.804  0.0000  0.0000  0.0000
14381SI     SI114381   8.451   0.182   0.162  0.0000  0.0000  0.0000
14382SI     SI114382   8.038   9.385   0.035  0.0000  0.0000  0.0000
14383SI     SI114383   1.412   5.015   0.049  0.0000  0.0000  0.0000
14384SI     SI114384   1.842   5.194   1.391  0.0000  0.0000  0.0000
14385SI     SI114385   2.080   3.377   1.066  0.0000  0.0000  0.0000
14386SI     SI114386   5.765   4.309   9.192  0.0000  0.0000  0.0000
14387SI     SI114387   0.625   5.071   9.418  0.0000  0.0000  0.0000
14388SI     SI114388   6.619   1.732   9.435  0.0000  0.0000  0.0000
14389SI     SI114389   7.107   9.396   1.131  0.0000  0.0000  0.0000
14390SI     SI114390   0.302   6.180   9.027  0.0000  0.0000  0.0000
14391SI     SI114391   3.577   2.047   1.323  0.0000  0.0000  0.0000
14392SI     SI114392   8.225   7.164   8.700  0.0000  0.0000  0.0000
14393SI     SI114393   2.387   8.119   9.556  0.0000  0.0000  0.0000
14394SI     SI114394   5.589   5.564   9.257  0.0000  0.0000  0.0000
14395SI     SI114395   4.350   1.622   9.492  0.0000  0.0000  0.0000
14396SI     SI114396   2.448   1.225   1.011  0.0000  0.0000  0.0000
14397SI     SI114397   0.033   5.985   0.201  0.0000  0.0000  0.0000
14398SI     SI114398   7.204   2.733   0.425  0.0000  0.0000  0.0000
14399SI     SI114399   5.896   8.135   0.264  0.0000  0.0000  0.0000
14400SI     SI114400   1.726   8.149   0.582  0.0000  0.0000  0.0000
14401SI     SI114401   4.309   3.796   0.767  0.0000  0.0000  0.0000
14402SI     SI114402   7.894   2.695   8.303  0.0000  0.0000  0.0000
14403SI     SI114403   4.269   1.992   8.671  0.0000  0.0000  0.0000
14404SI     SI114404   1.027   3.261   9.181  0.0000  0.0000  0.0000
14405SI     SI114405   1.623   5.340   8.652  0.0000  0.0000  0.0000
14406SI     SI114406   5.307   3.347   8.690  0.0000  0.0000  0.0000
14407SI     SI114407   3.063   0.278   9.391  0.0000  0.0000  0.0000
14408SI     SI114408   9.420   4.608   8.846  0.0000  0.0000  0.0000
14409SI     SI114409   1.096   6.221   9.165  0.0000  0.0000  0.0000
14410SI     SI114410   4.983   2.811   8.362  0.0000  0.0000  0.0000
14411SI     SI114411   1.736   2.397   8.715  0.0000  0.0000  0.0000
14412SI     SI114412   6.805   1.652   0.078  0.0000  0.0000  0.0000
14413SI     SI114413   3.088   3.641   0.724  0.0000  0.0000  0.0000
14414SI     SI114414   0.176   1.740   0.471  0.0000  0.0000  0.0000
14415SI     SI114415   4.957   7.063   0.470  0.0000  0.0000  0.0000
14416SI     SI114416   1.202   2.676   9.426  0.0000  0.0000  0.0000
14417SI     SI114417   0.027   2.246   0.096  0.0000  0.0000  0.0000
14418SI     SI114418   1.746   7.988   8.778  0.0000  0.0000  0.0000
14419SI     SI114419   3.220   6.578   9.601  0.0000  0.0000  0.0000
14420SI     SI114420   5.639   8.169   9.321  0.0000  0.0000  0.0000
14421SI     SI114421   9.045   2.770   0.354  0.0000  0.0000  0.0000
14422SI     SI114422   5.164   0.639   0.490  0.0000  0.0000  0.0000
14423SI     SI114423   8.169   8.034   8.858  0.0000  0.0000  0.0000
14424SI     SI114424   0.696   5.555   8.883  0.0000  0.0000  0.0000
14425SI     SI114425   8.646   1.273   0.255  0.0000  0.0000  0.0000
14426SI     SI114426   7.265   8.924   1.236  0.0000  0.0000  0.0000
14427SI     SI114427   7.487   7.581   0.548  0.0000  0.0000  0.0000
14428SI     SI114428   5.919   1.256   0.357  0.0000  0.0000  0.0000
14429SI     SI114429   4.581   7.214   9.262  0.0000  0.0000  0.0000
14430SI     SI114430   3.989   3.232   8.989  0.0000  0.0000  0.0000
14431SI     SI114431   7.854   6.592   8.482  0.0000  0.0000  0.0000
14432SI     SI114432   9.524   0.715   8.914  0.0000  0.0000  0.0000
14433SI     SI114433   6.377   3.892   0.117  0.0000  0.0000  0.0000
14434SI     SI114434   0.544   4.772   1.185  0.0000  0.0000  0.0000
14435SI     SI114435   2.132   4.149   0.961  0.0000  0.0000  0.0000
14436SI     SI114436   4.992   8.572   9.248  0.0000  0.0000  0.0000
14437SI     SI114437   3.686   4.370   0.201  0.0000  0.0000  0.0000
14438SI     SI114438   1.257   6.338   0.430  0.0000  0.0000  0.0000
14439SI     SI114439   8.834   7.601   1.030  0.0000  0.0000  0.0000
14440SI     SI114440   4.540   8.980   9.493  0.0000  0.0000  0.0000
14441SI     SI114441   9.408   4.186   0.476  0.0000  0.0000  0.0000
14442SI     SI114442   5.088   1.987   9.270  0.0000  0.0000  0.0000
14443SI     SI114443   7.723   8.851   0.780  0.0000  0.0000  0.0000
14444SI     SI114444   4.625   7.551   0.264  0.0000  0.0000  0.0000
14445SI     SI114445   6.223   9.311   9.380  0.0000  0.0000  0.0000
14446SI     SI114446   6.534   3.337   0.648  0.0000  0.0000  0.0000
14447SI     SI114447   8.392   5.037   0.609  0.0000  0.0000  0.0000
14448SI     SI114448   2.544   3.760   9.456  0.0000  0.0000  0.0000
14449SI     SI114449   1.866   5.444   0.431  0.0000  0.0000  0.0000
14450SI     SI114450   1.069   6.772   8.807  0.0000  0.0000  0.0000
14451SI     SI114451   0.158   0.757   8.709  0.0000  0.0000  0.0000
14452SI     SI114452   0.648   1.145   0.569  0.0000  0.0000  0.0000
14453SI     SI114453   1.892   2.638   9.545  0.0000  0.0000  0.0000
14454SI     SI114454   0.825   1.116   0.132  0.0000  0.0000  0.0000
14455SI     SI114455   0.026   9.247   9.440  0.0000  0.0000  0.0000
14456SI     SI114456   3.632   4.491   9.226  0.0000  0.0000  0.0000
14457SI     SI114457   0.689   3.300   0.979  0.0000  0.0000  0.0000
14458SI     SI114458   0.272   9.134   9.580  0.0000  0.0000  0.0000
14459SI     SI114459   2.760   0.485   9.582  0.0000  0.0000  0.0000
14460SI     SI114460   2.563   4.013   0.644  0.0000  0.0000  0.0000
14461SI     SI114461   5.955   7.046   8.661  0.0000  0.0000  0.0000
14462SI     SI114462   1.066   6.257   0.758  0.0000  0.0000  0.0000
14463SI     SI114463   1.381   2.415   0.608  0.0000  0.0000  0.0000
14464SI     SI114464   0.436   8.662   9.178  0.0000  0.0000  0.0000
14465SI     SI114465   4.990   5.848   0.101  0.0000  0.0000  0.0000
14466SI     SI114466   0.958   1.167   0.558  0.0000  0.0000  0.0000
14467SI     SI114467   0.796   6.259   0.580  0.0000  0.0000  0.0000
14468SI     SI114468   4.564   7.231   0.809  0.0000  0.0000  0.0000
14469SI     SI114469   8.491   6.222   0.149  0.0000  0.0000  0.0000
14470SI     SI114470   2.369   4.855   1.114  0.0000  0.0000  0.0000
14471SI     SI114471   8.037   3.432   0.693  0.0000  0.0000  0.0000
14472SI     SI114472   8.910   4.019   0.602  0.0000  0.0000  0.0000
14473SI     SI114473   1.860   9.459   9.345  0.0000  0.0000  0.0000
14474SI     SI114474   4.199   3.158   1.014  0.0000  0.0000  0.0000
14475SI     SI114475   3.850   9.311   9.459  0.0000  0.0000  0.0000
14476SI     SI114476   1.836   2.448   9.002  0.0000  0.0000  0.0000
14477SI     SI114477   4.329   1.392   0.573  0.0000  0.0000  0.0000
14478SI     SI114478   3.132   1.274   8.445  0.0000  0.0000  0.0000
14479SI     SI114479   0.201   2.743   9.261  0.0000  0.0000  0.0000
14480SI     SI114480   6.887   6.622   9.405  0.0000  0.0000  0.0000
14481SI     SI114481   5.196   1.079   1.111  0.0000  0.0000  0.0000
14482SI     SI114482   6.501   8.599   9.004  0.0000  0.0000  0.0000
14483SI     SI114483   7.441   5.091   9.169  0.0000  0.0000  0.0000
14484SI     SI114484   4.068   2.010   0.106  0.0000  0.0000  0.0000
14485SI     SI114485   4.254   0.273   8.775  0.0000  0.0000  0.0000
14486SI     SI114486   7.324   5.348   9.050  0.0000  0.0000  0.0000
14487SI     SI114487   4.783   9.124   0.561  0.0000  0.0000  0.0000
14488SI     SI114488   6.608   0.018   0.631  0.0000  0.0000  0.0000
14489SI     SI114489   2.537   6.181   8.621  0.0000  0.0000  0.0000
14490SI     SI114490   5.281   6.475   9.048  0.0000  0.0000  0.0000
14491SI     SI114491   3.733   6.182   0.333  0.0000  0.0000  0.0000
14492SI     SI114492   1.384   0.405   9.382  0.0000  0.0000  0.0000
14493SI     SI114493   1.401   2.412   8.305  0.0000  0.0000  0.0000
14494SI     SI114494   3.162   8.084   8.692  0.0000  0.0000  0.0000
14495SI     SI114495   3.862   3.935   0.806  0.0000  0.0000  0.0000
14496SI     SI114496   5.456   3.181   9.112  0.0000  0.0000  0.0000
14497SI     SI114497   5.875   5.502   9.329  0.0000  0.0000  0.0000
14498SI     SI114498   7.855   1.328   8.430  0.0000  0.0000  0.0000
14499SI     SI114499   2.798   9.236   8.487  0.0000  0.0000  0.0000
14500SI     SI114500   5.365   8.812   0.157  0.0000  0.0000  0.0000
14501SI     SI114501   7.344   2.675   0.032  0.0000  0.0000  0.0000
14502SI     SI114502   2.922   0.614   8.701  0.0000  0.0000  0.0000
14503SI     SI114503   2.320   6.637   9.407  0.0000  0.0000  0.0000
14504SI     SI114504   8.111   0.242   9.417  0.0000  0.0000  0.0000
14505SI     SI114505   8.422   9.238   0.100  0.0000  0.0000  0.0000
14506SI     SI114506   4.408   6.843   1.142  0.0000  0.0000  0.0000
14507SI     SI114507   5.557   6.604   8.591  0.0000  0.0000  0.0000
14508SI     SI114508   4.138   6.517   9.441  0.0000  0.0000  0.0000
14509SI     SI114509   4.516   9.375   0.736  0.0000  0.0000  0.0000
14510SI     SI114510   9.180   2.293   0.287  0.0000  0.0000  0.0000
14511SI     SI114511   9.124   5.861   0.204  0.0000  0.0000  0.0000
14512SI     SI114512   3.561   4.111   1.331  0.0000  0.0000  0.0000
14513SI     SI114513   3.742   8.976   9.024  0.0000  0.0000  0.0000
14514SI     SI114514   4.989   2.336   8.250  0.0000  0.0000  0.0000
14515SI     SI114515   3.683   2.960   9.342  0.0000  0.0000  0.0000
14516SI     SI114516   7.258   4.448   0.168  0.0000  0.0000  0.0000
14517SI     SI114517   7.944   5.257   0.672  0.0000  0.0000  0.0000
14518SI     SI114518   0.819   1.888   8.370  0.0000  0.0000  0.0000
14519SI     SI114519   6.245   1.403   8.322  0.0000  0.0000  0.0000
14520SI     SI114520   5.978   2.248   0.842  0.0000  0.0000  0.0000
14521SI     SI114521   0.640   6.724   0.518  0.0000  0.0000  0.0000
14522SI     SI114522   7.501   3.431   9.215  0.0000  0.0000  0.0000
14523SI     SI114523   8.648   5.875   0.011  0.0000  0.0000  0.0000
14524SI     SI114524   9.103   7.972   8.389  0.0000  0.0000  0.0000
14525SI     SI114525   6.473   4.759   1.228  0.0000  0.0000  0.0000
14526SI     SI114526   4.452   2.768   1.209  0.0000  0.0000  0.0000
14527SI     SI114527   3.737   8.406   8.291  0.0000  0.0000  0.0000
14528SI     SI114528   6.997   1.873   9.296  0.0000  0.0000  0.0000
14529SI     SI114529   8.582   0.615   8.928  0.0000  0.0000  0.0000
14530SI     SI114530   4.823   8.398   0.724  0.0000  0.0000  0.0000
14531SI     SI114531   5.003   4.288   9.485  0.0000  0.0000  0.0000
14532SI     SI114532   3.579   5.252   0.317  0.0000  0.0000  0.0000
14533SI     SI114533   5.581   2.275   9.532  0.0000  0.0000  0.0000
14534SI     SI114534   3.248   8.800   0.393  0.0000  0.0000  0.0000
14535SI     SI114535   2.212   6.753   8.902  0.0000  0.0000  0.0000
14536SI     SI114536   5.910   3.883   9.493  0.0000  0.0000  0.0000
14537SI     SI114537   4.662   4.854   0.733  0.0000  0.0000  0.0000
14538SI     SI114538   8.034   7.537   8.846  0.0000  0.0000  0.0000
14539SI     SI114539   0.019   6.222   8.915  0.0000  0.0000  0.0000
14540SI     SI114540   4.862   4.210   0.640  0.0000  0.0000  0.0000
14541SI     SI114541   9.499   3.327   8.936  0.0000  0.0000  0.0000
14542SI     SI114542   8.006   2.420   0.143  0.0000  0.0000  0.0000
14543SI     SI114543   0.274   9.162   8.462  0.0000  0.0000  0.0000
14544SI     SI114544   4.006   1.414   1.385  0.0000  0.0000  0.0000
14545SI     SI114545   5.280   1.549   9.320  0.0000  0.0000  0.0000
14546SI     SI114546   3.865   2.851   8.859  0.0000  0.0000  0.0000
14547SI     SI114547   8.888   1.593   8.939  0.0000  0.0000  0.0000
14548SI     SI114548   3.073   4.205   1.221  0.0000  0.0000  0.0000
14549SI     SI114549   3.625   4.423   8.934  0.0000  0.0000  0.0000
14550SI     SI114550   1.949   1.377   8.189  0.0000  0.0000  0.0000
14551SI     SI114551   2.001   4.124   0.148  0.0000  0.0000  0.0000
14552SI     SI114552   2.212   1.945   9.491  0.0000  0.0000  0.0000
14553SI     SI114553   7.721   9.297   9.350  0.0000  0.0000  0.0000
14554SI     SI114554   3.268   8.191   8.202  0.0000  0.0000  0.0000
14555SI     SI114555   7.772   8.127   9.125  0.0000  0.0000  0.0000
14556SI     SI114556   4.293   7.838   1.363  0.0000  0.0000  0.0000
14557SI     SI114557   8.555   8.494   9.411  0.0000  0.0000  0.0000
14558SI     SI114558   8.596   2.795   8.947  0.0000  0.0000  0.0000
14559SI     SI114559   3.486   0.792   9.233  0.0000  0.0000  0.0000
14560SI     SI114560   5.676   4.486   0.408  0.0000  0.0000  0.0000
14561SI     SI114561   0.677   5.777   1.145  0.0000  0.0000  0.0000
14562SI     SI114562   8.558   4.471   9.430  0.0000  0.0000  0.0000
14563SI     SI114563   0.513   5.850   0.440  0.0000  0.0000  0.0000
14564SI     SI114564   3.500   4.785   8.749  0.0000  0.0000  0.0000
14565SI     SI114565   2.809   2.787   9.096  0.0000  0.0000  0.0000
14566SI     SI114566   8.768   4.534   0.756  0.0000  0.0000  0.0000
14567SI     SI114567   2.491   2.178   0.249  0.0000  0.0000  0.0000
14568SI     SI114568   4.186   6.061   9.392  0.0000  0.0000  0.0000
14569SI     SI114569   1.712   3.825   1.126  0.0000  0.0000  0.0000
14570SI     SI114570   9.248   6.189   0.763  0.0000  0.0000  0.0000
14571SI     SI114571   4.280   5.310   8.727  0.0000  0.0000  0.0000
14572SI     SI114572   9.090   6.467   9.568  0.0000  0.0000  0.0000
14573SI     SI114573   1.079   0.899   1.330  0.0000  0.0000  0.0000
14574SI     SI114574   6.628   9.484   0.109  0.0000  0.0000  0.0000
14575SI     SI114575   1.518   9.102   9.267  0.0000  0.0000  0.0000
14576SI     SI114576   9.152   6.692   9.358  0.0000  0.0000  0.0000
14577SI     SI114577   2.517   5.905   8.719  0.0000  0.0000  0.0000
14578SI     SI114578   7.301   5.411   0.759  0.0000  0.0000  0.0000
14579SI     SI114579   6.222   4.221   0.868  0.0000  0.0000  0.0000
14580SI     SI114580   5.192   5.377   1.357  0.0000  0.0000  0.0000
14581SI     SI114581   2.706   7.452   8.731  0.0000  0.0000  0.0000
14582SI     SI114582   7.118   1.167   1.049  0.0000  0.0000  0.0000
14583SI     SI114583   8.187   7.281   9.462  0.0000  0.0000  0.0000
14584SI     SI114584   0.208   4.744   8.525  0.0000  0.0000  0.0000
14585SI     SI114585   0.688   8.958   0.731  0.0000  0.0000  0.0000
14586SI     SI114586   6.239   2.013   8.991  0.0000  0.0000  0.0000
14587SI     SI114587   1.714   8.061   1.205  0.0000  0.0000  0.0000
14588SI     SI114588   5.979   2.898   9.160  0.0000  0.0000  0.0000
14589SI     SI114589   3.645   3.797   0.397  0.0000  0.0000  0.0000
14590SI     SI114590   6.174   0.540   0.817  0.0000  0.0000  0.0000
14591SI     SI114591   8.585   0.156   9.042  0.0000  0.0000  0.0000
14592SI     SI114592   0.095   3.469   0.556  0.0000  0.0000  0.0000
14593SI     SI114593   2.626   8.171   0.505  0.0000  0.0000  0.0000
14594SI     SI114594   6.320   2.720   9.222  0.0000  0.0000  0.0000
14595SI     SI114595   0.828   7.763   0.472  0.0000  0.0000  0.0000
14596SI     SI114596   0.826   9.453   8.584  0.0000  0.0000  0.0000
14597SI     SI114597   3.617   7.720   1.249  0.0000  0.0000  0.0000
14598SI     SI114598   7.718   8.687   0.271  0.0000  0.0000  0.0000
14599SI     SI114599   2.545   9.320   8.668  0.0000  0.0000  0.0000
14600SI     SI114600   0.977   8.132   8.254  0.0000  0.0000  0.0000
14601SI     SI114601   5.100   9.576   1.286  0.0000  0.0000  0.0000
14602SI     SI114602   2.891   5.418   8.984  0.0000  0.0000  0.0000
14603SI     SI114603   5.846   6.817   0.737  0.0000  0.0000  0.0000
14604SI     SI114604   7.933   4.365   0.697  0.0000  0.0000  0.0000
14605SI     SI114605   4.221   3.179   9.422  0.0000  0.0000  0.0000
14606SI     SI114606   3.192   8.139   0.979  0.0000  0.0000  0.0000
14607SI     SI114607   3.646   0.778   0.182  0.0000  0.0000  0.0000
14608SI     SI114608   3.891   4.324   8.324  0.0000  0.0000  0.0000
14609SI     SI114609   4.734   1.810   0.741  0.0000  0.0000  0.0000
14610SI     SI114610   3.790   4.725   8.682  0.0000  0.0000  0.0000
14611SI     SI114611   7.805   0.473   1.136  0.0000  0.0000  0.0000
14612SI     SI114612   0.077   1.807   8.628  0.0000  0.0000  0.0000
14613SI     SI114613   0.461   5.572   1.192  0.0000  0.0000  0.0000
14614SI     SI114614   6.174   0.102   0.001  0.0000  0.0000  0.0000
14615SI     SI114615   0.544   5.502   0.094  0.0000  0.0000  0.0000
14616SI     SI114616   1.920   6.779   9.282  0.0000  0.0000  0.0000
14617SI     SI114617   3.868   8.985   0.598  0.0000  0.0000  0.0000
14618SI     SI114618   4.235   2.213   9.588  0.0000  0.0000  0.0000
14619SI     SI114619   2.444   6.241   0.919  0.0000  0.0000  0.0000
14620SI     SI114620   9.277   8.424   1.279  0.0000  0.0000  0.0000
14621SI     SI114621   5.834   6.128   9.163  0.0000  0.0000  0.0000
14622SI     SI114622   5.887   5.303   8.588  0.0000  0.0000  0.0000
14623SI     SI114623   5.188   3.768   8.740  0.0000  0.0000  0.0000
14624SI     SI114624   7.806   7.784   1.218  0.0000  0.0000  0.0000
14625SI     SI114625   0.173   8.161   1.107  0.0000  0.0000  0.0000
14626SI     SI114626   8.853   5.760   8.631  0.0000  0.0000  0.0000
14627SI     SI114627   8.076   6.657   0.247  0.0000  0.0000  0.0000
14628SI     SI114628   3.249   4.169   0.966  0.0000  0.0000  0.0000
14629SI     SI114629   2.456   4.427   0.098  0.0000  0.0000  0.0000
14630SI     SI114630   0.833   3.765   9.417  0.0000  0.0000  0.0000
14631SI     SI114631   2.222   7.172   0.480  0.0000  0.0000  0.0000
14632SI     SI114632   5.293   2.650   9.482  0.0000  0.0000  0.0000
14633SI     SI114633   3.451   7.790   9.477  0.0000  0.0000  0.0000
14634SI     SI114634   5.956   6.245   0.908  0.0000  0.0000  0.0000
14635SI     SI114635   3.172   5.917   0.408  0.0000  0.0000  0.0000
14636SI     SI114636   0.621   2.816   0.644  0.0000  0.0000  0.0000
14637SI     SI114637   3.138   9.059   8.979  0.0000  0.0000  0.0000
14638SI     SI114638   6.751   2.485   0.643  0.0000  0.0000  0.0000
14639SI     SI114639   6.312   1.723   0.724  0.0000  0.0000  0.0000
14640SI     SI114640   0.789   1.003   8.865  0.0000  0.0000  0.0000
14641SI     SI114641   6.905   5.385   0.560  0.0000  0.0000  0.0000
14642SI     SI114642   4.421   1.549   1.293  0.0000  0.0000  0.0000
14643SI     SI114643   8.565   7.901   8.472  0.0000  0.0000  0.0000
14644SI     SI114644   8.618   8.175   8.603  0.0000  0.0000  0.0000
14645SI     SI114645   3.307   8.848   8.819  0.0000  0.0000  0.0000
14646SI     SI114646   4.857   6.045   8.236  0.0000  0.0000  0.0000
14647SI     SI114647   8.875   8.730   0.045  0.0000  0.0000  0.0000
14648SI     SI114648   6.952   7.192   9.306  0.0000  0.0000  0.0000
14649SI     SI114649   2.966   8.003   9.497  0.0000  0.0000  0.0000
14650SI     SI114650   3.073   9.478   0.004  0.0000  0.0000  0.0000
14651SI     SI114651   3.075   4.151   0.706  0.0000  0.0000  0.0000
14652SI     SI114652   5.154   8.200   8.482  0.0000  0.0000  0.0000
14653SI     SI114653   1.562   8.283   1.026  0.0000  0.0000  0.0000
14654SI     SI114654   0.668   7.641   0.094  0.0000  0.0000  0.0000
14655SI     SI114655   7.216   4.025   0.898  0.0000  0.0000  0.0000
14656SI     SI114656   6.986   2.576   9.340  0.0000  0.0000  0.0000
14657SI     SI114657   7.137   0.268   8.704  0.0000  0.0000  0.0000
14658SI     SI114658   3.052   7.748   0.052  0.0000  0.0000  0.0000
14659SI     SI114659   8.094   6.963   9.151  0.0000  0.0000  0.0000
14660SI     SI114660   6.278   9.121   9.143  0.0000  0.0000  0.0000
14661SI     SI114661   2.895   4.464   9.113  0.0000  0.0000  0.0000
14662SI     SI114662   8.926   1.392   0.245  0.0000  0.0000  0.0000
14663SI     SI114663   0.972   0.139   9.239  0.0000  0.0000  0.0000
14664SI     SI114664   6.249   4.510   0.366  0.0000  0.0000  0.0000
14665SI     SI114665   3.551   2.559   9.038  0.0000  0.0000  0.0000
14666SI     SI114666   2.413   1.356   0.201  0.0000  0.0000  0.0000
14667SI     SI114667   4.406   2.930   9.366  0.0000  0.0000  0.0000
14668SI     SI114668   8.540   8.642   0.586  0.0000  0.0000  0.0000
14669SI     SI114669   1.992   0.563   0.460  0.0000  0.0000  0.0000
14670SI     SI114670   9.407   9.064   9.316  0.0000  0.0000  0.0000
14671SI     SI114671   6.495   0.267   8.351  0.0000  0.0000  0.0000
14672SI     SI114672   2.249   9.181   9.262  0.0000  0.0000  0.0000
14673SI     SI114673   3.567   7.070   0.399  0.0000  0.0000  0.0000
14674SI     SI114674   6.912   7.588   8.918  0.0000  0.0000  0.0000
14675SI     SI114675   7.136   8.244   0.296  0.0000  0.0000  0.0000
14676SI     SI114676   6.707   8.472   0.990  0.0000  0.0000  0.0000
14677SI     SI114677   3.324   1.495   0.497  0.0000  0.0000  0.0000
14678SI     SI114678   0.786   2.399   8.434  0.0000  0.0000  0.0000
14679SI     SI114679   0.633   6.849   0.226  0.0000  0.0000  0.0000
14680SI     SI114680   4.596   8.186   8.337  0.0000  0.0000  0.0000
14681SI     SI114681   5.211   8.499   8.485  0.0000  0.0000  0.0000
14682SI     SI114682   4.766   1.932   8.545  0.0000  0.0000  0.0000
14683SI     SI114683   6.803   2.227   0.466  0.0000  0.0000  0.0000
14684SI     SI114684   8.570   2.474   0.225  0.0000  0.0000  0.0000
14685SI     SI114685   8.572   8.243   0.133  0.0000  0.0000  0.0000
14686SI     SI114686   4.621   8.804   0.745  0.0000  0.0000  0.0000
14687SI     SI114687   1.419   6.507   0.627  0.0000  0.0000  0.0000
14688SI     SI114688   1.019   9.128   8.543  0.0000  0.0000  0.0000
14689SI     SI114689   7.064   7.775   1.004  0.0000  0.0000  0.0000
14690SI     SI114690   2.639   9.145   0.605  0.0000  0.0000  0.0000
14691SI     SI114691   9.483   6.049   8.486  0.0000  0.0000  0.0000
14692SI     SI114692   4.342   7.590   9.215  0.0000  0.0000  0.0000
14693SI     SI114693   6.632   2.715   9.025  0.0000  0.0000  0.0000
14694SI     SI114694   4.238   8.445   9.506  0.0000  0.0000  0.0000
14695SI     SI114695   7.650   5.256   8.646  0.0000  0.0000  0.0000
14696SI     SI114696   1.273   6.030   0.716  0.0000  0.0000  0.0000
14697SI     SI114697   8.318   5.326   1.368  0.0000  0.0000  0.0000
14698SI     SI114698   2.776   1.060   8.777  0.0000  0.0000  0.0000
14699SI     SI114699   9.181   5.114   1.415  0.0000  0.0000  0.0000
14700SI     SI114700   7.550   8.210   1.005  0.0000  0.0000  0.0000
14701SI     SI114701   5.440   4.217   0.140  0.0000  0.0000  0.0000
14702SI     SI114702   3.950   0.229   0.912  0.0000  0.0000  0.0000
14703SI     SI114703   0.974   6.919   1.015  0.0000  0.0000  0.0000
14704SI     SI114704   6.985   3.402   0.012  0.0000  0.0000  0.0000
14705SI     SI114705   2.949   4.011   8.883  0.0000  0.0000  0.0000
14706SI     SI114706   3.930   8.838   9.341  0.0000  0.0000  0.0000
14707SI     SI114707   3.998   4.868   9.326  0.0000  0.0000  0.0000
14708SI     SI114708   8.987   5.269   1.000  0.0000  0.0000  0.0000
14709SI     SI114709   2.158   5.273   9.333  0.0000  0.0000  0.0000
14710SI     SI114710   9.279   7.472   9.174  0.0000  0.0000  0.0000
14711SI     SI114711   9.169   4.316   1.063  0.0000  0.0000  0.0000
14712SI     SI114712   2.540   5.104   1.125  0.0000  0.0000  0.0000
14713SI     SI114713   9.352   3.386   0.804  0.0000  0.0000  0.0000
14714SI     SI114714   3.699   8.723   0.200  0.0000  0.0000  0.0000
14715SI     SI114715   4.305   6.501   0.767  0.0000  0.0000  0.0000
14716SI     SI114716   7.790   1.724   0.602  0.0000  0.0000  0.0000
14717SI     SI114717   1.345   5.905   0.256  0.0000  0.0000  0.0000
14718SI     SI114718   6.003   1.054   9.351  0.0000  0.0000  0.0000
14719SI     SI114719   1.141   1.761   0.223  0.0000  0.0000  0.0000
14720SI     SI114720   1.895   7.116   1.162  0.0000  0.0000  0.0000
14721SI     SI114721   4.660   5.773   8.807  0.0000  0.0000  0.0000
14722SI     SI114722   0.383   7.766   8.618  0.0000  0.0000  0.0000
14723SI     SI114723   3.729   4.787   0.539  0.0000  0.0000  0.0000
14724SI     SI114724   9.387   3.111   0.955  0.0000  0.0000  0.0000
14725SI     SI114725   2.271   7.953   0.832  0.0000  0.0000  0.0000
14726SI     SI114726   1.749   2.201   0.046  0.0000  0.0000  0.0000
14727SI     SI114727   7.609   0.999   0.643  0.0000  0.0000  0.0000
14728SI     SI114728   9.248   2.913   8.728  0.0000  0.0000  0.0000
14729SI     SI114729   2.752   1.268   9.460  0.0000  0.0000  0.0000
14730SI     SI114730   5.757   5.335   0.885  0.0000  0.0000  0.0000
14731SI     SI114731   8.915   8.592   8.680  0.0000  0.0000  0.0000
14732SI     SI114732   5.913   0.703   0.346  0.0000  0.0000  0.0000
14733SI     SI114733   3.047   6.718   0.475  0.0000  0.0000  0.0000
14734SI     SI114734   7.506   8.260   8.241  0.0000  0.0000  0.0000
14735SI     SI114735   4.773   1.327   9.319  0.0000  0.0000  0.0000
14736SI     SI114736   8.762   6.636   8.877  0.0000  0.0000  0.0000
14737SI     SI114737   8.976   3.553   9.308  0.0000  0.0000  0.0000
14738SI     SI114738   3.321   1.981   1.409  0.0000  0.0000  0.0000
14739SI     SI114739   1.169   0.296   8.823  0.0000  0.0000  0.0000
14740SI     SI114740   2.694   7.471   8.220  0.0000  0.0000  0.0000
14741SI     SI114741   8.891   8.840   8.518  0.0000  0.0000  0.0000
14742SI     SI114742   2.524   4.135   0.195  0.0000  0.0000  0.0000
14743SI     SI114743   2.997   0.742   8.242  0.0000  0.0000  0.0000
14744SI     SI114744   5.153   1.801   0.305  0.0000  0.0000  0.0000
14745SI     SI114745   5.597   7.480   1.358  0.0000  0.0000  0.0000
14746SI     SI114746   5.210   0.219   1.127  0.0000  0.0000  0.0000
14747SI     SI114747   3.775   5.154   9.039  0.0000  0.0000  0.0000
14748SI     SI114748   5.545   5.982   8.911  0.0000  0.0000  0.0000
14749SI     SI114749   5.622   3.571   0.646  0.0000  0.0000  0.0000
14750SI     SI114750   5.910   9.529   9.055  0.0000  0.0000  0.0000
14751SI     SI114751   8.183   2.760   9.120  0.0000  0.0000  0.0000
14752SI     SI114752   6.764   6.794   9.177  0.0000  0.0000  0.0000
14753SI     SI114753   4.212   2.475   8.457  0.0000  0.0000  0.0000
14754SI     SI114754   4.720   1.531   1.391  0.0000  0.0000  0.0000
14755SI     SI114755   7.428   3.551   0.722  0.0000  0.0000  0.0000
14756SI     SI114756   3.916   0.944   8.656  0.0000  0.0000  0.0000
14757SI     SI114757   0.987   3.459   8.745  0.0000  0.0000  0.0000
14758SI     SI114758   1.886   5.219   9.192  0.0000  0.0000  0.0000
14759SI     SI114759   2.955   0.483   8.988  0.0000  0.0000  0.0000
14760SI     SI114760   7.410   7.382   8.467  0.0000  0.0000  0.0000
14761SI     SI114761   7.514   9.496   9.003  0.0000  0.0000  0.0000
14762SI     SI114762   1.884   0.029   8.742  0.0000  0.0000  0.0000
14763SI     SI114763   2.616   8.908   9.514  0.0000  0.0000  0.0000
14764SI     SI114764   5.484   7.200   9.384  0.0000  0.0000  0.0000
14765SI     SI114765   8.011   3.005   9.190  0.0000  0.0000  0.0000
14766SI     SI114766   6.678   3.897   1.122  0.0000  0.0000  0.0000
14767SI     SI114767   3.030   8.976   0.493  0.0000  0.0000  0.0000
14768SI     SI114768   6.967   8.981   1.193  0.0000  0.0000  0.0000
14769SI     SI114769   7.849   3.513   0.453  0.0000  0.0000  0.0000
14770SI     SI114770   0.545   5.091   0.406  0.0000  0.0000  0.0000
14771SI     SI114771   0.853   4.849   8.686  0.0000  0.0000  0.0000
14772SI     SI114772   7.211   8.226   9.084  0.0000  0.0000  0.0000
14773SI     SI114773   4.936   0.591   0.278  0.0000  0.0000  0.0000
14774SI     SI114774   1.513   1.119   9.431  0.0000  0.0000  0.0000
14775SI     SI114775   5.847   1.974   0.854  0.0000  0.0000  0.0000
14776SI     SI114776   3.658   3.247   9.283  0.0000  0.0000  0.0000
14777SI     SI114777   0.765   2.814   0.010  0.0000  0.0000  0.0000
14778SI     SI114778   0.357   4.034   0.798  0.0000  0.0000  0.0000
14779SI     SI114779   8.985   6.158   8.808  0.0000  0.0000  0.0000
14780SI     SI114780   2.070   7.012   8.849  0.0000  0.0000  0.0000
14781SI     SI114781   3.357   2.387   8.862  0.0000  0.0000  0.0000
14782SI     SI114782   6.679   8.383   0.490  0.0000  0.0000  0.0000
14783SI     SI114783   7.546   1.533   8.760  0.0000  0.0000  0.0000
14784SI     SI114784   3.044   2.722   0.686  0.0000  0.0000  0.0000
14785SI     SI114785   2.672   1.005   9.295  0.0000  0.0000  0.0000
14786SI     SI114786   0.570   4.545   0.285  0.0000  0.0000  0.0000
14787SI     SI114787   8.382   4.766   9.019  0.0000  0.0000  0.0000
14788SI     SI114788   6.117   2.307   9.015  0.0000  0.0000  0.0000
14789SI     SI114789   9.060   0.372   0.800  0.0000  0.0000  0.0000
14790SI     SI114790   2.118   2.292   0.819  0.0000  0.0000  0.0000
14791SI     SI114791   7.310   1.655   9.495  0.0000  0.0000  0.0000
14792SI     SI114792   0.059   9.498   0.909  0.0000  0.0000  0.0000
14793SI     SI114793   2.892   4.205   0.218  0.0000  0.0000  0.0000
14794SI     SI114794   7.482   4.579   9.021  0.0000  0.0000  0.0000
14795SI     SI114795   7.584   7.836   1.408  0.0000  0.0000  0.0000
14796SI     SI114796   2.366   8.972   9.055  0.0000  0.0000  0.0000
14797SI     SI114797   2.940   7.195   9.131  0.0000  0.0000  0.0000
14798SI     SI114798   2.668   6.921   9.359  0.0000  0.0000  0.0000
14799SI     SI114799   1.880   5.750   8.289  0.0000  0.0000  0.0000
14800SI     SI114800   1.661   7.962   9.286  0.0000  0.0000  0.0000
14801SI     SI114801   5.999   4.196   9.045  0.0000  0.0000  0.0000
14802SI     SI114802   9.547   0.922   0.520  0.0000  0.0000  0.0000
14803SI     SI114803   8.132   1.040   0.742  0.0000  0.0000  0.0000
14804SI     SI114804   3.077   8.343   0.508  0.0000  0.0000  0.0000
14805SI     SI114805   8.785   4.505   1.073  0.0000  0.0000  0.0000
14806SI     SI114806   4.711   4.921   9.173  0.0000  0.0000  0.0000
14807SI     SI114807   3.124   4.979   0.195  0.0000  0.0000  0.0000
14808SI     SI114808   3.215   5.807   8.825  0.0000  0.0000  0.0000
14809SI     SI114809   2.873   0.496   0.643  0.0000  0.0000  0.0000
14810SI     SI114810   6.606   0.776   0.628  0.0000  0.0000  0.0000
14811SI     SI114811   2.326   5.433   0.590  0.0000  0.0000  0.0000
14812SI     SI114812   2.115   0.047   0.986  0.0000  0.0000  0.0000
14813SI     SI114813   9.355   3.875   0.809  0.0000  0.0000  0.0000
14814SI     SI114814   1.440   2.853   0.139  0.0000  0.0000  0.0000
14815SI     SI114815   1.225   1.931   9.347  0.0000  0.0000  0.0000
14816SI     SI114816   1.510   5.449   0.057  0.0000  0.0000  0.0000
14817SI     SI114817   2.618   8.477   8.328  0.0000  0.0000  0.0000
14818SI     SI114818   1.904   7.871   8.540  0.0000  0.0000  0.0000
14819SI     SI114819   8.287   3.054   8.733  0.0000  0.0000  0.0000
14820SI     SI114820   4.853   0.684   9.046  0.0000  0.0000  0.0000
14821SI     SI114821   3.246   7.445   0.196  0.0000  0.0000  0.0000
14822SI     SI114822   1.459   8.679   0.743  0.0000  0.0000  0.0000
14823SI     SI114823   5.602   4.022   8.573  0.0000  0.0000  0.0000
14824SI     SI114824   6.803   6.344   9.309  0.0000  0.0000  0.0000
14825SI     SI114825   0.065   9.294   0.477  0.0000  0.0000  0.0000
14826SI     SI114826   8.473   2.353   9.076  0.0000  0.0000  0.0000
14827SI     SI114827   4.503   0.617   9.413  0.0000  0.0000  0.0000
14828SI     SI114828   7.980   1.926   0.212  0.0000  0.0000  0.0000
14829SI     SI114829   0.933   8.216   1.141  0.0000  0.0000  0.0000
14830SI     SI114830   7.643   0.136   0.834  0.0000  0.0000  0.0000
14831SI     SI114831   1.056   3.018   8.976  0.0000  0.0000  0.0000
14832SI     SI114832   5.897   8.446   0.269  0.0000  0.0000  0.0000
14833SI     SI114833   5.487   0.249   0.348  0.0000  0.0000  0.0000
14834SI     SI114834   5.311   2.012   0.759  0.0000  0.0000  0.0000
14835SI     SI114835   8.740   1.075   0.707  0.0000  0.0000  0.0000
14836SI     SI114836   7.226   6.146   0.582  0.0000  0.0000  0.0000
14837SI     SI114837   6.812   7.045   8.818  0.0000  0.0000  0.0000
14838SI     SI114838   5.366   9.367   9.002  0.0000  0.0000  0.0000
14839SI     SI114839   9.144   8.246   8.727  0.0000  0.0000  0.0000
14840SI     SI114840   6.259   6.719   9.130  0.0000  0.0000  0.0000
14841SI     SI114841   5.128   5.795   9.204  0.0000  0.0000  0.0000
14842SI     SI114842   8.959   1.468   8.444  0.0000  0.0000  0.0000
14843SI     SI114843   2.053   9.509   0.167  0.0000  0.0000  0.0000
14844SI     SI114844   6.370   5.789   0.489  0.0000  0.0000  0.0000
14845SI     SI114845   2.447   0.775   0.535  0.0000  0.0000  0.0000
14846SI     SI114846   1.598   9.494   1.330  0.0000  0.0000  0.0000
14847SI     SI114847   6.171   7.422   8.835  0.0000  0.0000  0.0000
14848SI     SI114848   2.591   5.744   0.007  0.0000  0.0000  0.0000
14849SI     SI114849   2.221   3.272   9.469  0.0000  0.0000  0.0000
14850SI     SI114850   8.462   6.674   9.235  0.0000  0.0000  0.0000
14851SI     SI114851   5.992   0.169   0.465  0.0000  0.0000  0.0000
14852SI     SI114852   8.937   3.322   0.073  0.0000  0.0000  0.0000
14853SI     SI114853   9.402   4.927   0.162  0.0000  0.0000  0.0000
14854SI     SI114854   0.617   6.470   0.059  0.0000  0.0000  0.0000
14855SI     SI114855   8.796   8.395   8.466  0.0000  0.0000  0.0000
14856SI     SI114856   3.877   5.318   0.351  0.0000  0.0000  0.0000
14857SI     SI114857   8.772   1.145   1.148  0.0000  0.0000  0.0000
14858SI     SI114858   5.844   0.968   9.593  0.0000  0.0000  0.0000
14859SI     SI114859   3.104   7.679   8.503  0.0000  0.0000  0.0000
14860SI     SI114860   7.734   6.505   9.316  0.0000  0.0000  0.0000
14861SI     SI114861   3.757   1.198   9.054  0.0000  0.0000  0.0000
14862SI     SI114862   3.956   0.645   9.503  0.0000  0.0000  0.0000
14863SI     SI114863   6.985   6.982   9.065  0.0000  0.0000  0.0000
14864SI     SI114864   7.093   1.923   8.285  0.0000  0.0000  0.0000
14865SI     SI114865   7.054   6.542   0.959  0.0000  0.0000  0.0000
14866SI     SI114866   5.868   2.882   0.219  0.0000  0.0000  0.0000
14867SI     SI114867   3.067   4.715   1.361  0.0000  0.0000  0.0000
14868SI     SI114868   1.319   3.943   0.839  0.0000  0.0000  0.0000
14869SI     SI114869   8.848   7.163   0.693  0.0000  0.0000  0.0000
14870SI     SI114870   4.640   0.552   0.920  0.0000  0.0000  0.0000
14871SI     SI114871   7.535   5.431   8.852  0.0000  0.0000  0.0000
14872SI     SI114872   8.940   2.550   9.053  0.0000  0.0000  0.0000
14873SI     SI114873   4.986   5.070   9.205  0.0000  0.0000  0.0000
14874SI     SI114874   4.618   8.460   9.013  0.0000  0.0000  0.0000
14875SI     SI114875   3.017   1.948   1.099  0.0000  0.0000  0.0000
14876SI     SI114876   6.861   1.653   1.030  0.0000  0.0000  0.0000
14877SI     SI114877   3.720   8.801   1.012  0.0000  0.0000  0.0000
14878SI     SI114878   7.240   2.565   8.625  0.0000  0.0000  0.0000
14879SI     SI114879   3.238   3.515   8.833  0.0000  0.0000  0.0000
14880SI     SI114880   1.660   5.190   0.008  0.0000  0.0000  0.0000
14881SI     SI114881   5.043   9.373   9.297  0.0000  0.0000  0.0000
14882SI     SI114882   9.283   6.459   0.663  0.0000  0.0000  0.0000
14883SI     SI114883   7.819   1.281   0.153  0.0000  0.0000  0.0000
14884SI     SI114884   4.338   7.028   0.899  0.0000  0.0000  0.0000
14885SI     SI114885   7.812   6.484   0.193  0.0000  0.0000  0.0000
14886SI     SI114886   0.472   0.404   9.101  0.0000  0.0000  0.0000
14887SI     SI114887   8.124   5.058   9.351  0.0000  0.0000  0.0000
14888SI     SI114888   0.255   6.174   9.334  0.0000  0.0000  0.0000
14889SI     SI114889   3.966   1.651   1.207  0.0000  0.0000  0.0000
14890SI     SI114890   5.301   4.588   1.345  0.0000  0.0000  0.0000
14891SI     SI114891   1.673   7.335   1.136  0.0000  0.0000  0.0000
14892SI     SI114892   4.665   1.074   9.164  0.0000  0.0000  0.0000
14893SI     SI114893   0.258   7.466   8.345  0.0000  0.0000  0.0000
14894SI     SI114894   7.569   7.178   9.018  0.0000  0.0000  0.0000
14895SI     SI114895   8.967   4.631   8.613  0.0000  0.0000  0.0000
14896SI     SI114896   1.011   7.522   1.190  0.0000  0.0000  0.0000
14897SI     SI114897   0.844   0.154   0.656  0.0000  0.0000  0.0000
14898SI     SI114898   1.404   4.800   0.869  0.0000  0.0000  0.0000
14899SI     SI114899   4.715   0.476   8.604  0.0000  0.0000  0.0000
14900SI     SI114900   4.657   9.262   9.511  0.0000  0.0000  0.0000
14901SI     SI114901   1.600   4.754   9.297  0.0000  0.0000  0.0000
14902SI     SI114902   3.816   6.858   0.895  0.0000  0.0000  0.0000
14903SI     SI114903   7.092   2.217   9.005  0.0000  0.0000  0.0000
14904SI     SI114904   1.029   4.961   0.954  0.0000  0.0000  0.0000
14905SI     SI114905   5.239   1.445   8.344  0.0000  0.0000  0.0000
14906SI     SI114906   3.811   1.328   0.580  0.0000  0.0000  0.0000
14907SI     SI114907   8.623   2.929   0.097  0.0000  0.0000  0.0000
14908SI     SI114908   2.939   1.712   9.422  0.0000  0.0000  0.0000
14909SI     SI114909   8.563   2.908   0.791  0.0000  0.0000  0.0000
14910SI     SI114910   7.124   1.788   1.047  0.0000  0.0000  0.0000
14911SI     SI114911   4.730   0.793   9.301  0.0000  0.0000  0.0000
14912SI     SI114912   8.818   6.557   0.913  0.0000  0.0000  0.0000
14913SI     SI114913   1.305   2.695   0.611  0.0000  0.0000  0.0000
14914SI     SI114914   2.880   4.027   9.391  0.0000  0.0000  0.0000
14915SI     SI114915   1.871   9.314   9.599  0.0000  0.0000  0.0000
14916SI     SI114916   7.606   7.903   0.103  0.0000  0.0000  0.0000
14917SI     SI114917   6.336   9.493   8.793  0.0000  0.0000  0.0000
14918SI     SI114918   0.829   4.759   0.009  0.0000  0.0000  0.0000
14919SI     SI114919   6.419   9.253   1.076  0.0000  0.0000  0.0000
14920SI     SI114920   7.983   1.842   9.221  0.0000  0.0000  0.0000
14921SI     SI114921   1.949   5.737   0.365  0.0000  0.0000  0.0000
14922SI     SI114922   6.852   9.047   8.376  0.0000  0.0000  0.0000
14923SI     SI114923   1.448   5.386   8.399  0.0000  0.0000  0.0000
14924SI     SI114924   3.829   3.827   8.249  0.0000  0.0000  0.0000
14925SI     SI114925   4.907   2.768   0.925  0.0000  0.0000  0.0000
14926SI     SI114926   0.707   1.421   8.908  0.0000  0.0000  0.0000
14927SI     SI114927   5.879   7.130   0.721  0.0000  0.0000  0.0000
14928SI     SI114928   6.556   6.217   8.594  0.0000  0.0000  0.0000
14929SI     SI114929   3.546   6.401   9.242  0.0000  0.0000  0.0000
14930SI     SI114930   8.252   6.796   8.431  0.0000  0.0000  0.0000
14931SI     SI114931   2.180   7.498   1.379  0.0000  0.0000  0.0000
14932SI     SI114932   3.067   8.361   8.797  0.0000  0.0000  0.0000
14933SI     SI114933   7.326   4.614   1.012  0.0000  0.0000  0.0000
14934SI     SI114934   2.658   5.641   9.325  0.0000  0.0000  0.0000
14935SI     SI114935   6.156   2.906   8.270  0.0000  0.0000  0.0000
14936SI     SI114936   9.496   5.973   8.795  0.0000  0.0000  0.0000
14937SI     SI114937   1.872   9.061   0.416  0.0000  0.0000  0.0000
14938SI     SI114938   4.919   9.562   9.521  0.0000  0.0000  0.0000
14939SI     SI114939   1.778   4.537   9.211  0.0000  0.0000  0.0000
14940SI     SI114940   3.942   8.608   8.420  0.0000  0.0000  0.0000
14941SI     SI114941   4.274   1.568   8.488  0.0000  0.0000  0.0000
14942SI     SI114942   2.669   2.752   8.643  0.0000  0.0000  0.0000
14943SI     SI114943   1.697   4.062   8.476  0.0000  0.0000  0.0000
14944SI     SI114944   4.247   9.313   9.176  0.0000  0.0000  0.0000
14945SI     SI114945   8.015   8.892   0.081  0.0000  0.0000  0.0000
14946SI     SI114946   6.146   3.555   1.185  0.0000  0.0000  0.0000
14947SI     SI114947   9.402   1.378   0.855  0.0000  0.0000  0.0000
14948SI     SI114948   0.902   2.730   9.353  0.0000  0.0000  0.0000
14949SI     SI114949   7.134   3.512   8.676  0.0000  0.0000  0.0000
14950SI     SI114950   4.208   7.376   0.561  0.0000  0.0000  0.0000
14951SI     SI114951   7.871   7.524   0.775  0.0000  0.0000  0.0000
14952SI     SI114952   0.781   7.995   0.680  0.0000  0.0000  0.0000
14953SI     SI114953   7.535   8.896   0.373  0.0000  0.0000  0.0000
14954SI     SI114954   6.157   9.430   0.681  0.0000  0.0000  0.0000
14955SI     SI114955   6.248   3.907   0.843  0.0000  0.0000  0.0000
14956SI     SI114956   3.761   0.055   0.552  0.0000  0.0000  0.0000
14957SI     SI114957   8.957   2.160   8.512  0.0000  0.0000  0.0000
14958SI     SI114958   7.743   5.040   0.590  0.0000  0.0000  0.0000
14959SI     SI114959   0.063   1.509   8.518  0.0000  0.0000  0.0000
14960SI     SI114960   6.430   9.512   9.247  0.0000  0.0000  0.0000
14961SI     SI114961   9.229   0.538   8.297  0.0000  0.0000  0.0000
14962SI     SI114962   9.425   7.674   0.692  0.0000  0.0000  0.0000
14963SI     SI114963   5.046   7.968   0.018  0.0000  0.0000  0.0000
14964SI     SI114964   4.617   1.404   0.454  0.0000  0.0000  0.0000
14965SI     SI114965   7.625   3.971   8.536  0.0000  0.0000  0.0000
14966SI     SI114966   4.985   0.413   8.705  0.0000  0.0000  0.0000
14967SI     SI114967   0.543   2.908   8.757  0.0000  0.0000  0.0000
14968SI     SI114968   2.317   2.400   1.245  0.0000  0.0000  0.0000
14969SI     SI114969   8.981   3.058   0.467  0.0000  0.0000  0.0000
14970SI     SI114970   6.455   5.272   9.297  0.0000  0.0000  0.0000
14971SI     SI114971   3.624   4.118   9.004  0.0000  0.0000  0.0000
14972SI     SI114972   6.019   8.793   1.100  0.0000  0.0000  0.0000
14973SI     SI114973   6.175   8.998   8.416  0.0000  0.0000  0.0000
14974SI     SI114974   0.876   9.482   0.916  0.0000  0.0000  0.0000
14975SI     SI114975   0.794   8.653   8.644  0.0000  0.0000  0.0000
14976SI     SI114976   3.614   2.864   9.049  0.0000  0.0000  0.0000
14977SI     SI114977   6.015   5.172   0.381  0.0000  0.0000  0.0000
14978SI     SI114978   8.354   4.574   1.035  0.0000  0.0000  0.0000
14979SI     SI114979   8.276   6.687   8.835  0.0000  0.0000  0.0000
14980SI     SI114980   1.708   3.076   0.990  0.0000  0.0000  0.0000
14981SI     SI114981   3.788   1.310   9.351  0.0000  0.0000  0.0000
14982SI     SI114982   2.557   8.073   0.801  0.0000  0.0000  0.0000
14983SI     SI114983   0.063   4.140   8.849  0.0000  0.0000  0.0000
14984SI     SI114984   7.244   7.672   0.373  0.0000  0.0000  0.0000
14985SI     SI114985   4.043   1.079   8.400  0.0000  0.0000  0.0000
14986SI     SI114986   5.056   4.541   8.836  0.0000  0.0000  0.0000
14987SI     SI114987   8.045   0.890   1.287  0.0000  0.0000  0.0000
14988SI     SI114988   9.568   8.572   0.317  0.0000  0.0000  0.0000
14989SI     SI114989   5.276   4.317   0.892  0.0000  0.0000  0.0000
14990SI     SI114990   2.851   1.065   1.045  0.0000  0.0000  0.0000
14991SI     SI114991   5.530   0.128   8.307  0.0000  0.0000  0.0000
14992SI     SI114992   1.582   2.813   0.682  0.0000  0.0000  0.0000
14993SI     SI114993   0.281   8.513   8.967  0.0000  0.0000  0.0000
14994SI     SI114994   8.569   0.362   1.210  0.0000  0.0000  0.0000
14995SI     SI114995   8.341   9.241   1.076  0.0000  0.0000  0.0000
14996SI     SI114996   7.639   0.427   9.149  0.0000  0.0000  0.0000
14997SI     SI114997   3.935   1.546   0.736  0.0000  0.0000  0.0000
14998SI     SI114998   4.154   4.072   8.547  0.0000  0.0000  0.0000
14999SI     SI114999   4.901   5.339   9.096  0.0000  0.0000  0.0000
15000SI     SI115000   3.116   2.093   8.559  0.0000  0.0000  0.0000
15001SI     SI115001   4.378   6.499   8.474  0.0000  0.0000  0.0000
15002SI     SI115002   6.695   4.283   9.215  0.0000  0.0000  0.0000
15003SI     SI115003   8.543   5.507   8.253  0.0000  0.0000  0.0000
15004SI     SI115004   0.707   9.521   1.169  0.0000  0.0000  0.0000
15005SI     SI115005   6.116   4.803   8.680  0.0000  0.0000  0.0000
15006SI     SI115006   7.709   1.827   0.321  0.0000  0.0000  0.0000
15007SI     SI115007   1.397   8.064   0.018  0.0000  0.0000  0.0000
15008SI     SI115008   0.180   3.035   1.170  0.0000  0.0000  0.0000
15009SI     SI115009   9.339   4.690   9.338  0.0000  0.0000  0.0000
15010SI     SI115010   2.749   4.235   8.951  0.0000  0.0000  0.0000
15011SI     SI115011   3.711   6.313   8.849  0.0000  0.0000  0.0000
15012SI     SI115012   9.067   0.847   0.536  0.0000  0.0000  0.0000
15013SI     SI115013   5.525   6.051   9.188  0.0000  0.0000  0.0000
15014SI     SI115014   6.604   6.451   8.389  0.0000  0.0000  0.0000
15015SI     SI115015   8.636   0.387   0.486  0.0000  0.0000  0.0000
15016SI     SI115016   1.828   9.402   8.933  0.0000  0.0000  0.0000
15017SI     SI115017   5.291   5.509   0.314  0.0000  0.0000  0.0000
15018SI     SI115018   2.038   0.420   9.024  0.0000  0.0000  0.0000
15019SI     SI115019   3.917   4.471   8.816  0.0000  0.0000  0.0000
15020SI     SI115020   5.572   3.905   1.122  0.0000  0.0000  0.0000
15021SI     SI115021   9.395   3.648   9.290  0.0000  0.0000  0.0000
15022SI     SI115022   4.172   7.193   9.235  0.0000  0.0000  0.0000
15023SI     SI115023   2.924   6.586   8.464  0.0000  0.0000  0.0000
15024SI     SI115024   7.149   2.929   0.012  0.0000  0.0000  0.0000
15025SI     SI115025   7.668   6.355   0.447  0.0000  0.0000  0.0000
15026SI     SI115026   8.347   0.764   8.614  0.0000  0.0000  0.0000
15027SI     SI115027   1.031   2.344   8.609  0.0000  0.0000  0.0000
15028SI     SI115028   2.800   1.006   0.320  0.0000  0.0000  0.0000
15029SI     SI115029   6.370   0.442   0.385  0.0000  0.0000  0.0000
15030SI     SI115030   1.150   5.265   9.241  0.0000  0.0000  0.0000
15031SI     SI115031   1.865   9.421   8.507  0.0000  0.0000  0.0000
15032SI     SI115032   8.551   8.153   0.757  0.0000  0.0000  0.0000
15033SI     SI115033   0.629   8.214   1.198  0.0000  0.0000  0.0000
15034SI     SI115034   9.279   0.276   8.714  0.0000  0.0000  0.0000
15035SI     SI115035   6.256   0.164   0.297  0.0000  0.0000  0.0000
15036SI     SI115036   8.592   7.145   9.085  0.0000  0.0000  0.0000
15037SI     SI115037   8.075   6.619   0.557  0.0000  0.0000  0.0000
15038SI     SI115038   3.573   0.292   0.625  0.0000  0.0000  0.0000
15039SI     SI115039   9.162   3.606   9.075  0.0000  0.0000  0.0000
15040SI     SI115040   2.599   1.996   9.152  0.0000  0.0000  0.0000
15041SI     SI115041   5.117   6.666   1.050  0.0000  0.0000  0.0000
15042SI     SI115042   2.411   7.038   9.261  0.0000  0.0000  0.0000
15043SI     SI115043   6.997   1.248   0.186  0.0000  0.0000  0.0000
15044SI     SI115044   6.725   7.764   8.504  0.0000  0.0000  0.0000
15045SI     SI115045   4.621   2.473   0.021  0.0000  0.0000  0.0000
15046SI     SI115046   7.666   6.977   8.523  0.0000  0.0000  0.0000
15047SI     SI115047   5.296   5.319   1.077  0.0000  0.0000  0.0000
15048SI     SI115048   6.914   8.170   0.949  0.0000  0.0000  0.0000
15049SI     SI115049   7.507   2.308   0.682  0.0000  0.0000  0.0000
15050SI     SI115050   7.132   8.896   8.408  0.0000  0.0000  0.0000
15051SI     SI115051   0.013   2.532   1.057  0.0000  0.0000  0.0000
15052SI     SI115052   5.260   0.913   9.122  0.0000  0.0000  0.0000
15053SI     SI115053   5.888   5.562   1.032  0.0000  0.0000  0.0000
15054SI     SI115054   0.780   4.965   0.235  0.0000  0.0000  0.0000
15055SI     SI115055   5.659   0.703   0.536  0.0000  0.0000  0.0000
15056SI     SI115056   2.006   5.235   1.127  0.0000  0.0000  0.0000
15057SI     SI115057   5.162   3.418   0.679  0.0000  0.0000  0.0000
15058SI     SI115058   6.681   8.171   9.028  0.0000  0.0000  0.0000
15059SI     SI115059   6.432   3.013   9.233  0.0000  0.0000  0.0000
15060SI     SI115060   9.140   1.911   8.593  0.0000  0.0000  0.0000
15061SI     SI115061   9.093   1.912   0.132  0.0000  0.0000  0.0000
15062SI     SI115062   3.812   0.527   1.399  0.0000  0.0000  0.0000
15063SI     SI115063   9.027   3.010   8.519  0.0000  0.0000  0.0000
15064SI     SI115064   0.771   5.112   1.039  0.0000  0.0000  0.0000
15065SI     SI115065   6.141   5.209   0.660  0.0000  0.0000  0.0000
15066SI     SI115066   1.093   2.326   0.978  0.0000  0.0000  0.0000
15067SI     SI115067   4.584   5.744   1.142  0.0000  0.0000  0.0000
15068SI     SI115068   1.483   7.906   8.661  0.0000  0.0000  0.0000
15069SI     SI115069   5.647   5.733   1.163  0.0000  0.0000  0.0000
15070SI     SI115070   6.982   4.026   0.227  0.0000  0.0000  0.0000
15071SI     SI115071   1.233   2.864   0.356  0.0000  0.0000  0.0000
15072SI     SI115072   5.059   9.368   8.660  0.0000  0.0000  0.0000
15073SI     SI115073   6.517   1.206   0.218  0.0000  0.0000  0.0000
15074SI     SI115074   2.253   0.573   8.577  0.0000  0.0000  0.0000
15075SI     SI115075   0.136   7.142   9.291  0.0000  0.0000  0.0000
15076SI     SI115076   3.646   9.172   0.499  0.0000  0.0000  0.0000
15077SI     SI115077   6.740   6.013   8.426  0.0000  0.0000  0.0000
15078SI     SI115078   6.420   6.876   9.586  0.0000  0.0000  0.0000
15079SI     SI115079   2.741   7.210   0.572  0.0000  0.0000  0.0000
15080SI     SI115080   2.816   3.361   0.739  0.0000  0.0000  0.0000
15081SI     SI115081   8.921   7.682   1.310  0.0000  0.0000  0.0000
15082SI     SI115082   2.012   2.191   9.482  0.0000  0.0000  0.0000
15083SI     SI115083   9.076   1.847   8.896  0.0000  0.0000  0.0000
15084SI     SI115084   1.665   1.639   8.804  0.0000  0.0000  0.0000
15085SI     SI115085   9.452   0.971   1.069  0.0000  0.0000  0.0000
15086SI     SI115086   4.234   3.893   8.341  0.0000  0.0000  0.0000
15087SI     SI115087   7.524   7.281   0.594  0.0000  0.0000  0.0000
15088SI     SI115088   2.587   0.506   0.516  0.0000  0.0000  0.0000
15089SI     SI115089   0.227   1.751   0.187  0.0000  0.0000  0.0000
15090SI     SI115090   7.017   6.028   1.036  0.0000  0.0000  0.0000
15091SI     SI115091   1.497   3.847   1.329  0.0000  0.0000  0.0000
15092SI     SI115092   2.728   5.304   8.491  0.0000  0.0000  0.0000
15093SI     SI115093   4.929   5.548   8.427  0.0000  0.0000  0.0000
15094SI     SI115094   3.959   2.011   9.412  0.0000  0.0000  0.0000
15095SI     SI115095   3.387   1.937   8.545  0.0000  0.0000  0.0000
15096SI     SI115096   4.903   6.974   8.631  0.0000  0.0000  0.0000
15097SI     SI115097   8.795   9.438   8.342  0.0000  0.0000  0.0000
15098SI     SI115098   7.115   7.613   9.369  0.0000  0.0000  0.0000
15099SI     SI115099   7.986   1.889   0.776  0.0000  0.0000  0.0000
15100SI     SI115100   1.999   5.708   9.472  0.0000  0.0000  0.0000
15101SI     SI115101   0.281   8.199   9.431  0.0000  0.0000  0.0000
15102SI     SI115102   0.288   4.763   0.529  0.0000  0.0000  0.0000
15103SI     SI115103   3.003   7.488   0.777  0.0000  0.0000  0.0000
15104SI     SI115104   0.755   3.614   0.079  0.0000  0.0000  0.0000
15105SI     SI115105   6.594   1.679   8.973  0.0000  0.0000  0.0000
15106SI     SI115106   8.879   0.995   8.303  0.0000  0.0000  0.0000
15107SI     SI115107   7.526   2.185   1.258  0.0000  0.0000  0.0000
15108SI     SI115108   2.210   5.883   9.324  0.0000  0.0000  0.0000
15109SI     SI115109   8.332   3.110   8.430  0.0000  0.0000  0.0000
15110SI     SI115110   2.182   7.656   9.197  0.0000  0.0000  0.0000
15111SI     SI115111   1.114   4.075   0.283  0.0000  0.0000  0.0000
15112SI     SI115112   6.477   9.325   9.016  0.0000  0.0000  0.0000
15113SI     SI115113   1.052   0.359   8.539  0.0000  0.0000  0.0000
15114SI     SI115114   8.377   2.046   9.446  0.0000  0.0000  0.0000
15115SI     SI115115   9.430   9.068   8.786  0.0000  0.0000  0.0000
15116SI     SI115116   7.051   0.909   9.440  0.0000  0.0000  0.0000
15117SI     SI115117   1.604   8.648   0.474  0.0000  0.0000  0.0000
15118SI     SI115118   0.597   9.577   0.381  0.0000  0.0000  0.0000
15119SI     SI115119   3.029   7.185   8.506  0.0000  0.0000  0.0000
15120SI     SI115120   4.086   8.225   0.800  0.0000  0.0000  0.0000
15121SI     SI115121   3.292   1.769   0.092  0.0000  0.0000  0.0000
15122SI     SI115122   7.328   3.898   9.202  0.0000  0.0000  0.0000
15123SI     SI115123   0.749   5.480   0.607  0.0000  0.0000  0.0000
15124SI     SI115124   8.642   9.501   1.065  0.0000  0.0000  0.0000
15125SI     SI115125   7.632   1.083   1.173  0.0000  0.0000  0.0000
15126SI     SI115126   2.030   3.387   0.320  0.0000  0.0000  0.0000
15127SI     SI115127   0.425   2.899   9.386  0.0000  0.0000  0.0000
15128SI     SI115128   3.757   9.051   8.546  0.0000  0.0000  0.0000
15129SI     SI115129   1.086   7.244   0.022  0.0000  0.0000  0.0000
15130SI     SI115130   2.972   0.147   8.431  0.0000  0.0000  0.0000
15131SI     SI115131   1.082   8.296   0.696  0.0000  0.0000  0.0000
15132SI     SI115132   3.036   0.979   9.493  0.0000  0.0000  0.0000
15133SI     SI115133   5.337   7.497   8.752  0.0000  0.0000  0.0000
15134SI     SI115134   1.712   3.740   0.635  0.0000  0.0000  0.0000
15135SI     SI115135   4.388   1.550   0.840  0.0000  0.0000  0.0000
15136SI     SI115136   3.052   6.937   8.998  0.0000  0.0000  0.0000
15137SI     SI115137   4.394   0.211   0.619  0.0000  0.0000  0.0000
15138SI     SI115138   5.882   3.980   8.662  0.0000  0.0000  0.0000
15139SI     SI115139   7.702   8.657   8.680  0.0000  0.0000  0.0000
15140SI     SI115140   7.924   1.675   0.974  0.0000  0.0000  0.0000
15141SI     SI115141   4.541   8.136   0.509  0.0000  0.0000  0.0000
15142SI     SI115142   7.688   8.903   1.235  0.0000  0.0000  0.0000
15143SI     SI115143   1.332   6.798   0.616  0.0000  0.0000  0.0000
15144SI     SI115144   2.286   6.271   8.775  0.0000  0.0000  0.0000
15145SI     SI115145   6.269   6.645   0.124  0.0000  0.0000  0.0000
15146SI     SI115146   6.155   5.502   0.681  0.0000  0.0000  0.0000
15147SI     SI115147   4.103   7.599   0.136  0.0000  0.0000  0.0000
15148SI     SI115148   0.495   9.395   0.759  0.0000  0.0000  0.0000
15149SI     SI115149   8.858   7.789   8.453  0.0000  0.0000  0.0000
15150SI     SI115150   2.798   4.942   1.076  0.0000  0.0000  0.0000
15151SI     SI115151   6.133   3.370   9.096  0.0000  0.0000  0.0000
15152SI     SI115152   1.225   8.105   9.356  0.0000  0.0000  0.0000
15153SI     SI115153   1.909   8.539   0.958  0.0000  0.0000  0.0000
15154SI     SI115154   5.083   2.599   0.259  0.0000  0.0000  0.0000
15155SI     SI115155   5.718   6.500   9.156  0.0000  0.0000  0.0000
15156SI     SI115156   4.215   0.593   0.535  0.0000  0.0000  0.0000
15157SI     SI115157   2.752   2.534   9.261  0.0000  0.0000  0.0000
15158SI     SI115158   9.202   6.754   0.300  0.0000  0.0000  0.0000
15159SI     SI115159   4.020   0.218   0.149  0.0000  0.0000  0.0000
15160SI     SI115160   6.744   3.158   1.125  0.0000  0.0000  0.0000
15161SI     SI115161   4.464   6.670   8.717  0.0000  0.0000  0.0000
15162SI     SI115162   7.934   1.119   0.382  0.0000  0.0000  0.0000
15163SI     SI115163   2.887   3.672   1.264  0.0000  0.0000  0.0000
15164SI     SI115164   1.242   5.506   9.548  0.0000  0.0000  0.0000
15165SI     SI115165   6.878   0.771   8.816  0.0000  0.0000  0.0000
15166SI     SI115166   7.203   9.182   8.344  0.0000  0.0000  0.0000
15167SI     SI115167   6.566   2.640   8.353  0.0000  0.0000  0.0000
15168SI     SI115168   2.952   9.501   8.821  0.0000  0.0000  0.0000
15169SI     SI115169   7.548   8.433   9.347  0.0000  0.0000  0.0000
15170SI     SI115170   6.946   3.727   1.142  0.0000  0.0000  0.0000
15171SI     SI115171   6.098   6.684   8.889  0.0000  0.0000  0.0000
15172SI     SI115172   2.852   1.167   8.492  0.0000  0.0000  0.0000
15173SI     SI115173   5.644   0.150   8.813  0.0000  0.0000  0.0000
15174SI     SI115174   5.174   2.272   9.366  0.0000  0.0000  0.0000
15175SI     SI115175   2.678   5.074   0.534  0.0000  0.0000  0.0000
15176SI     SI115176   4.056   6.570   8.715  0.0000  0.0000  0.0000
15177SI     SI115177   7.178   4.949   8.802  0.0000  0.0000  0.0000
15178SI     SI115178   3.455   6.270   0.402  0.0000  0.0000  0.0000
15179SI     SI115179   7.821   7.575   9.077  0.0000  0.0000  0.0000
15180SI     SI115180   8.135   1.231   0.977  0.0000  0.0000  0.0000
15181SI     SI115181   2.840   9.486   8.309  0.0000  0.0000  0.0000
15182SI     SI115182   7.349   7.532   9.529  0.0000  0.0000  0.0000
15183SI     SI115183   6.710   3.016   9.381  0.0000  0.0000  0.0000
15184SI     SI115184   2.735   0.148   1.324  0.0000  0.0000  0.0000
15185SI     SI115185   1.833   0.516   1.351  0.0000  0.0000  0.0000
15186SI     SI115186   4.698   2.944   9.281  0.0000  0.0000  0.0000
15187SI     SI115187   2.502   0.962   8.240  0.0000  0.0000  0.0000
15188SI     SI115188   8.699   5.079   9.513  0.0000  0.0000  0.0000
15189SI     SI115189   4.482   4.817   1.204  0.0000  0.0000  0.0000
15190SI     SI115190   7.814   0.855   0.448  0.0000  0.0000  0.0000
15191SI     SI115191   3.469   9.386   8.825  0.0000  0.0000  0.0000
15192SI     SI115192   0.130   4.331   9.394  0.0000  0.0000  0.0000
15193SI     SI115193   6.158   7.806   0.403  0.0000  0.0000  0.0000
15194SI     SI115194   8.158   7.769   8.709  0.0000  0.0000  0.0000
15195SI     SI115195   3.867   7.206   0.024  0.0000  0.0000  0.0000
15196SI     SI115196   1.168   0.731   0.044  0.0000  0.0000  0.0000
15197SI     SI115197   1.493   0.690   8.661  0.0000  0.0000  0.0000
15198SI     SI115198   6.019   7.513   0.735  0.0000  0.0000  0.0000
15199SI     SI115199   1.743   4.938   0.378  0.0000  0.0000  0.0000
15200SI     SI115200   8.840   2.514   0.959  0.0000  0.0000  0.0000
15201SI     SI115201   8.428   6.614   1.189  0.0000  0.0000  0.0000
15202SI     SI115202   4.656   3.929   9.183  0.0000  0.0000  0.0000
15203SI     SI115203   5.575   5.337   8.643  0.0000  0.0000  0.0000
15204SI     SI115204   5.445   8.469   0.555  0.0000  0.0000  0.0000
15205SI     SI115205   1.418   8.732   0.266  0.0000  0.0000  0.0000
15206SI     SI115206   9.162   9.235   0.033  0.0000  0.0000  0.0000
15207SI     SI115207   0.766   3.116   0.028  0.0000  0.0000  0.0000
15208SI     SI115208   8.962   8.965   9.277  0.0000  0.0000  0.0000
15209SI     SI115209   5.065   0.952   0.865  0.0000  0.0000  0.0000
15210SI     SI115210   7.730   3.139   8.598  0.0000  0.0000  0.0000
15211SI     SI115211   4.383   5.254   1.151  0.0000  0.0000  0.0000
15212SI     SI115212   6.467   4.181   9.046  0.0000  0.0000  0.0000
15213SI     SI115213   4.878   8.193   0.165  0.0000  0.0000  0.0000
15214SI     SI115214   1.518   6.523   9.269  0.0000  0.0000  0.0000
15215SI     SI115215   6.325   1.456   8.605  0.0000  0.0000  0.0000
15216SI     SI115216   6.207   4.601   1.175  0.0000  0.0000  0.0000
15217SI     SI115217   0.228   4.162   1.008  0.0000  0.0000  0.0000
15218SI     SI115218   0.143   3.711   8.808  0.0000  0.0000  0.0000
15219SI     SI115219   2.376   7.715   0.429  0.0000  0.0000  0.0000
15220SI     SI115220   8.159   8.509   8.618  0.0000  0.0000  0.0000
15221SI     SI115221   6.923   1.239   1.271  0.0000  0.0000  0.0000
15222SI     SI115222   3.337   5.901   0.669  0.0000  0.0000  0.0000
15223SI     SI115223   3.761   2.995   0.119  0.0000  0.0000  0.0000
15224SI     SI115224   5.477   4.362   8.869  0.0000  0.0000  0.0000
15225SI     SI115225   0.963   5.172   9.015  0.0000  0.0000  0.0000
15226SI     SI115226   1.293   0.439   0.777  0.0000  0.0000  0.0000
15227SI     SI115227   0.088   7.422   9.427  0.0000  0.0000  0.0000
15228SI     SI115228   5.693   0.702   9.526  0.0000  0.0000  0.0000
15229SI     SI115229   4.678   5.281   1.089  0.0000  0.0000  0.0000
15230SI     SI115230   0.085   0.807   0.279  0.0000  0.0000  0.0000
15231SI     SI115231   6.541   4.796   9.196  0.0000  0.0000  0.0000
15232SI     SI115232   0.791   6.217   1.233  0.0000  0.0000  0.0000
15233SI     SI115233   5.566   1.033   0.136  0.0000  0.0000  0.0000
15234SI     SI115234   8.332   0.391   9.580  0.0000  0.0000  0.0000
15235SI     SI115235   0.190   8.115   9.136  0.0000  0.0000  0.0000
15236SI     SI115236   8.685   7.285   8.621  0.0000  0.0000  0.0000
15237SI     SI115237   8.803   7.278   0.416  0.0000  0.0000  0.0000
15238SI     SI115238   3.733   8.523   1.097  0.0000  0.0000  0.0000
15239SI     SI115239   1.312   4.305   8.704  0.0000  0.0000  0.0000
15240SI     SI115240   2.118   6.298   0.104  0.0000  0.0000  0.0000
15241SI     SI115241   5.511   5.712   0.224  0.0000  0.0000  0.0000
15242SI     SI115242   6.557   5.941   0.919  0.0000  0.0000  0.0000
15243SI     SI115243   3.710   9.199   8.805  0.0000  0.0000  0.0000
15244SI     SI115244   2.155   1.852   0.185  0.0000  0.0000  0.0000
15245SI     SI115245   3.730   1.812   9.334  0.0000  0.0000  0.0000
15246SI     SI115246   8.231   4.423   8.213  0.0000  0.0000  0.0000
15247SI     SI115247   0.672   8.196   9.213  0.0000  0.0000  0.0000
15248SI     SI115248   8.055   4.150   8.926  0.0000  0.0000  0.0000
15249SI     SI115249   6.968   0.656   0.379  0.0000  0.0000  0.0000
15250SI     SI115250   2.002   4.570   0.381  0.0000  0.0000  0.0000
15251SI     SI115251   2.288   1.574   1.227  0.0000  0.0000  0.0000
15252SI     SI115252   8.484   8.779   8.812  0.0000  0.0000  0.0000
15253SI     SI115253   1.589   2.420   9.161  0.0000  0.0000  0.0000
15254SI     SI115254   1.416   0.363   0.319  0.0000  0.0000  0.0000
15255SI     SI115255   4.416   3.117   0.379  0.0000  0.0000  0.0000
15256SI     SI115256   1.337   5.874   8.869  0.0000  0.0000  0.0000
15257SI     SI115257   9.298   7.990   8.620  0.0000  0.0000  0.0000
15258SI     SI115258   8.636   1.155   8.420  0.0000  0.0000  0.0000
15259SI     SI115259   7.583   9.416   8.711  0.0000  0.0000  0.0000
15260SI     SI115260   0.625   2.345   1.232  0.0000  0.0000  0.0000
15261SI     SI115261   2.781   7.395   0.009  0.0000  0.0000  0.0000
15262SI     SI115262   7.654   2.539   8.410  0.0000  0.0000  0.0000
15263SI     SI115263   3.949   2.551   8.802  0.0000  0.0000  0.0000
15264SI     SI115264   6.497   4.204   1.374  0.0000  0.0000  0.0000
15265SI     SI115265   0.802   6.215   8.645  0.0000  0.0000  0.0000
15266SI     SI115266   6.792   5.420   0.007  0.0000  0.0000  0.0000
15267SI     SI115267   0.720   6.459   9.072  0.0000  0.0000  0.0000
15268SI     SI115268   0.946   7.752   0.034  0.0000  0.0000  0.0000
15269SI     SI115269   6.130   0.917   8.410  0.0000  0.0000  0.0000
15270SI     SI115270   4.276   8.108   9.186  0.0000  0.0000  0.0000
15271SI     SI115271   2.440   0.756   8.962  0.0000  0.0000  0.0000
15272SI     SI115272   3.890   4.785   8.413  0.0000  0.0000  0.0000
15273SI     SI115273   1.530   9.243   1.173  0.0000  0.0000  0.0000
15274SI     SI115274   2.035   1.811   8.533  0.0000  0.0000  0.0000
15275SI     SI115275   8.440   2.090   0.521  0.0000  0.0000  0.0000
15276SI     SI115276   7.417   0.597   8.247  0.0000  0.0000  0.0000
15277SI     SI115277   2.076   2.799   0.533  0.0000  0.0000  0.0000
15278SI     SI115278   6.687   8.508   8.769  0.0000  0.0000  0.0000
15279SI     SI115279   7.312   7.966   0.695  0.0000  0.0000  0.0000
15280SI     SI115280   0.166   8.063   0.507  0.0000  0.0000  0.0000
15281SI     SI115281   3.375   2.183   0.274  0.0000  0.0000  0.0000
15282SI     SI115282   8.746   3.881   0.375  0.0000  0.0000  0.0000
15283SI     SI115283   4.410   4.011   1.258  0.0000  0.0000  0.0000
15284SI     SI115284   3.078   1.163   0.306  0.0000  0.0000  0.0000
15285SI     SI115285   0.037   8.352   8.711  0.0000  0.0000  0.0000
15286SI     SI115286   3.690   6.984   0.128  0.0000  0.0000  0.0000
15287SI     SI115287   5.028   7.598   0.549  0.0000  0.0000  0.0000
15288SI     SI115288   2.240   3.522   8.544  0.0000  0.0000  0.0000
15289SI     SI115289   8.550   2.275   9.376  0.0000  0.0000  0.0000
15290SI     SI115290   6.392   5.637   8.529  0.0000  0.0000  0.0000
15291SI     SI115291   1.234   3.434   0.516  0.0000  0.0000  0.0000
15292SI     SI115292   3.019   3.442   8.409  0.0000  0.0000  0.0000
15293SI     SI115293   1.566   8.561   0.049  0.0000  0.0000  0.0000
15294SI     SI115294   1.146   4.561   9.056  0.0000  0.0000  0.0000
15295SI     SI115295   6.652   0.872   0.924  0.0000  0.0000  0.0000
15296SI     SI115296   5.120   0.689   8.718  0.0000  0.0000  0.0000
15297SI     SI115297   8.290   2.689   1.061  0.0000  0.0000  0.0000
15298SI     SI115298   5.121   5.166   0.634  0.0000  0.0000  0.0000
15299SI     SI115299   6.353   9.546   0.486  0.0000  0.0000  0.0000
15300SI     SI115300   1.450   7.571   8.332  0.0000  0.0000  0.0000
15301SI     SI115301   2.880   7.460   8.474  0.0000  0.0000  0.0000
15302SI     SI115302   2.217   9.372   1.071  0.0000  0.0000  0.0000
15303SI     SI115303   7.135   7.389   0.307  0.0000  0.0000  0.0000
15304SI     SI115304   8.426   4.834   1.159  0.0000  0.0000  0.0000
15305SI     SI115305   4.989   1.307   9.123  0.0000  0.0000  0.0000
15306SI     SI115306   3.474   5.160   0.796  0.0000  0.0000  0.0000
15307SI     SI115307   6.108   6.583   0.371  0.0000  0.0000  0.0000
15308SI     SI115308   6.349   4.753   8.468  0.0000  0.0000  0.0000
15309SI     SI115309   7.838   4.952   9.291  0.0000  0.0000  0.0000
15310SI     SI115310   5.956   3.908   8.956  0.0000  0.0000  0.0000
15311SI     SI115311   1.810   0.745   9.144  0.0000  0.0000  0.0000
15312SI     SI115312   5.386   7.218   8.866  0.0000  0.0000  0.0000
15313SI     SI115313   2.181   7.227   1.224  0.0000  0.0000  0.0000
15314SI     SI115314   0.696   5.934   0.876  0.0000  0.0000  0.0000
15315SI     SI115315   9.472   3.654   0.434  0.0000  0.0000  0.0000
15316SI     SI115316   8.457   7.302   8.847  0.0000  0.0000  0.0000
15317SI     SI115317   3.616   7.475   0.390  0.0000  0.0000  0.0000
15318SI     SI115318   5.380   4.549   0.417  0.0000  0.0000  0.0000
15319SI     SI115319   1.701   1.772   9.481  0.0000  0.0000  0.0000
15320SI     SI115320   6.381   7.187   8.406  0.0000  0.0000  0.0000
15321SI     SI115321   0.765   5.050   8.466  0.0000  0.0000  0.0000
15322SI     SI115322   3.465   5.186   9.117  0.0000  0.0000  0.0000
15323SI     SI115323   3.629   8.035   9.571  0.0000  0.0000  0.0000
15324SI     SI115324   2.052   4.971   0.758  0.0000  0.0000  0.0000
15325SI     SI115325   3.072   8.658   8.756  0.0000  0.0000  0.0000
15326SI     SI115326   1.528   2.158   8.736  0.0000  0.0000  0.0000
15327SI     SI115327   3.781   3.361   8.447  0.0000  0.0000  0.0000
15328SI     SI115328   8.690   7.565   0.448  0.0000  0.0000  0.0000
15329SI     SI115329   1.450   1.006   0.701  0.0000  0.0000  0.0000
15330SI     SI115330   5.346   2.475   0.750  0.0000  0.0000  0.0000
15331SI     SI115331   3.440   3.297   0.381  0.0000  0.0000  0.0000
15332SI     SI115332   5.311   1.901   0.064  0.0000  0.0000  0.0000
15333SI     SI115333   2.467   7.278   9.061  0.0000  0.0000  0.0000
15334SI     SI115334   7.553   1.826   9.399  0.0000  0.0000  0.0000
15335SI     SI115335   2.464   3.508   0.511  0.0000  0.0000  0.0000
15336SI     SI115336   3.194   4.524   8.311  0.0000  0.0000  0.0000
15337SI     SI115337   2.023   2.070   0.363  0.0000  0.0000  0.0000
15338SI     SI115338   7.617   2.749   0.179  0.0000  0.0000  0.0000
15339SI     SI115339   0.507   3.546   0.564  0.0000  0.0000  0.0000
15340SI     SI115340   3.347   6.919   8.937  0.0000  0.0000  0.0000
15341SI     SI115341   8.810   7.841   0.832  0.0000  0.0000  0.0000
15342SI     SI115342   7.264   4.375   9.047  0.0000  0.0000  0.0000
15343SI     SI115343   2.647   8.242   0.003  0.0000  0.0000  0.0000
15344SI     SI115344   2.637   0.735   9.451  0.0000  0.0000  0.0000
15345SI     SI115345   2.882   8.701   9.011  0.0000  0.0000  0.0000
15346SI     SI115346   1.297   0.885   0.449  0.0000  0.0000  0.0000
15347SI     SI115347   3.974   3.493   8.623  0.0000  0.0000  0.0000
15348SI     SI115348   7.785   2.863   0.930  0.0000  0.0000  0.0000
15349SI     SI115349   9.421   1.557   8.360  0.0000  0.0000  0.0000
15350SI     SI115350   2.232   1.436   0.954  0.0000  0.0000  0.0000
15351SI     SI115351   5.674   3.862   9.040  0.0000  0.0000  0.0000
15352SI     SI115352   8.438   7.708   8.286  0.0000  0.0000  0.0000
15353SI     SI115353   8.239   7.346   0.157  0.0000  0.0000  0.0000
15354SI     SI115354   5.875   6.496   8.241  0.0000  0.0000  0.0000
15355SI     SI115355   8.868   6.524   8.426  0.0000  0.0000  0.0000
15356SI     SI115356   0.710   1.181   1.116  0.0000  0.0000  0.0000
15357SI     SI115357   6.264   9.508   0.965  0.0000  0.0000  0.0000
15358SI     SI115358   3.805   1.173   8.218  0.0000  0.0000  0.0000
15359SI     SI115359   7.137   6.491   1.243  0.0000  0.0000  0.0000
15360SI     SI115360   8.705   9.279   9.587  0.0000  0.0000  0.0000
15361SI     SI115361   8.751   4.888   0.385  0.0000  0.0000  0.0000
15362SI     SI115362   5.217   3.218   0.915  0.0000  0.0000  0.0000
15363SI     SI115363   4.078   1.284   1.100  0.0000  0.0000  0.0000
15364SI     SI115364   8.490   1.128   9.431  0.0000  0.0000  0.0000
15365SI     SI115365   2.532   1.227   0.709  0.0000  0.0000  0.0000
15366SI     SI115366   3.417   3.725   1.115  0.0000  0.0000  0.0000
15367SI     SI115367   1.189   0.871   8.527  0.0000  0.0000  0.0000
15368SI     SI115368   0.799   5.661   0.038  0.0000  0.0000  0.0000
15369SI     SI115369   4.890   2.393   9.308  0.0000  0.0000  0.0000
15370SI     SI115370   0.820   0.524   0.838  0.0000  0.0000  0.0000
15371SI     SI115371   6.417   0.430   9.284  0.0000  0.0000  0.0000
15372SI     SI115372   7.660   1.075   0.005  0.0000  0.0000  0.0000
15373SI     SI115373   4.803   3.229   1.086  0.0000  0.0000  0.0000
15374SI     SI115374   0.931   2.228   9.349  0.0000  0.0000  0.0000
15375SI     SI115375   0.190   1.951   9.123  0.0000  0.0000  0.0000
15376SI     SI115376   4.709   0.440   8.201  0.0000  0.0000  0.0000
15377SI     SI115377   1.545   3.770   0.873  0.0000  0.0000  0.0000
15378SI     SI115378   3.376   3.085   0.597  0.0000  0.0000  0.0000
15379SI     SI115379   2.928   9.399   0.704  0.0000  0.0000  0.0000
15380SI     SI115380   5.924   0.305   8.798  0.0000  0.0000  0.0000
15381SI     SI115381   5.192   3.101   9.218  0.0000  0.0000  0.0000
15382SI     SI115382   1.437   4.678   9.047  0.0000  0.0000  0.0000
15383SI     SI115383   5.049   3.553   9.145  0.0000  0.0000  0.0000
15384SI     SI115384   1.978   3.159   0.860  0.0000  0.0000  0.0000
15385SI     SI115385   8.578   7.759   0.645  0.0000  0.0000  0.0000
15386SI     SI115386   0.248   2.035   0.071  0.0000  0.0000  0.0000
15387SI     SI115387   7.234   5.086   1.203  0.0000  0.0000  0.0000
15388SI     SI115388   7.642   2.056   8.902  0.0000  0.0000  0.0000
15389SI     SI115389   6.607   3.136   8.774  0.0000  0.0000  0.0000
15390SI     SI115390   5.705   0.283   1.170  0.0000  0.0000  0.0000
15391SI     SI115391   6.666   9.019   8.599  0.0000  0.0000  0.0000
15392SI     SI115392   1.863   5.527   8.677  0.0000  0.0000  0.0000
15393SI     SI115393   4.462   0.085   9.099  0.0000  0.0000  0.0000
15394SI     SI115394   4.522   8.629   0.962  0.0000  0.0000  0.0000
15395SI     SI115395   0.084   2.364   8.504  0.0000  0.0000  0.0000
15396SI     SI115396   2.147   6.254   0.831  0.0000  0.0000  0.0000
15397SI     SI115397   5.476   7.195   1.368  0.0000  0.0000  0.0000
15398SI     SI115398   2.975   2.122   8.844  0.0000  0.0000  0.0000
15399SI     SI115399   4.354   1.068   9.152  0.0000  0.0000  0.0000
15400SI     SI115400   6.154   5.764   0.015  0.0000  0.0000  0.0000
15401SI     SI115401   7.171   1.975   0.211  0.0000  0.0000  0.0000
15402SI     SI115402   3.641   5.974   0.688  0.0000  0.0000  0.0000
15403SI     SI115403   0.548   1.093   0.290  0.0000  0.0000  0.0000
15404SI     SI115404   9.233   0.216   0.164  0.0000  0.0000  0.0000
15405SI     SI115405   1.155   8.805   9.478  0.0000  0.0000  0.0000
15406SI     SI115406   9.295   1.420   8.916  0.0000  0.0000  0.0000
15407SI     SI115407   0.654   2.440   8.956  0.0000  0.0000  0.0000
15408SI     SI115408   0.778   6.471   0.883  0.0000  0.0000  0.0000
15409SI     SI115409   0.539   7.763   0.343  0.0000  0.0000  0.0000
15410SI     SI115410   2.813   4.961   0.273  0.0000  0.0000  0.0000
15411SI     SI115411   4.074   5.691   1.160  0.0000  0.0000  0.0000
15412SI     SI115412   0.268   2.135   1.061  0.0000  0.0000  0.0000
15413SI     SI115413   9.511   4.704   9.602  0.0000  0.0000  0.0000
15414SI     SI115414   3.500   7.719   8.815  0.0000  0.0000  0.0000
15415SI     SI115415   2.310   3.434   9.114  0.0000  0.0000  0.0000
15416SI     SI115416   0.340   2.183   8.474  0.0000  0.0000  0.0000
15417SI     SI115417   1.425   8.357   8.563  0.0000  0.0000  0.0000
15418SI     SI115418   2.504   4.114   9.104  0.0000  0.0000  0.0000
15419SI     SI115419   1.816   9.026   0.102  0.0000  0.0000  0.0000
15420SI     SI115420   6.307   7.077   0.464  0.0000  0.0000  0.0000
15421SI     SI115421   6.390   1.520   9.491  0.0000  0.0000  0.0000
15422SI     SI115422   9.369   7.249   8.961  0.0000  0.0000  0.0000
15423SI     SI115423   7.894   3.999   9.459  0.0000  0.0000  0.0000
15424SI     SI115424   8.673   3.139   0.435  0.0000  0.0000  0.0000
15425SI     SI115425   7.582   3.125   9.565  0.0000  0.0000  0.0000
15426SI     SI115426   4.216   2.576   9.407  0.0000  0.0000  0.0000
15427SI     SI115427   7.894   7.862   9.196  0.0000  0.0000  0.0000
15428SI     SI115428   3.272   6.321   9.133  0.0000  0.0000  0.0000
15429SI     SI115429   4.793   6.180   9.269  0.0000  0.0000  0.0000
15430SI     SI115430   3.943   0.739   0.577  0.0000  0.0000  0.0000
15431SI     SI115431   7.399   4.144   9.382  0.0000  0.0000  0.0000
15432SI     SI115432   1.642   5.789   1.335  0.0000  0.0000  0.0000
15433SI     SI115433   1.620   4.153   8.992  0.0000  0.0000  0.0000
15434SI     SI115434   7.862   7.408   8.652  0.0000  0.0000  0.0000
15435SI     SI115435   1.311   2.108   8.959  0.0000  0.0000  0.0000
15436SI     SI115436   6.012   2.869   0.477  0.0000  0.0000  0.0000
15437SI     SI115437   0.026   6.385   9.369  0.0000  0.0000  0.0000
15438SI     SI115438   8.622   0.814   8.683  0.0000  0.0000  0.0000
15439SI     SI115439   3.901   4.234   8.622  0.0000  0.0000  0.0000
15440SI     SI115440   4.753   8.357   9.255  0.0000  0.0000  0.0000
15441SI     SI115441   9.428   0.705   0.930  0.0000  0.0000  0.0000
15442SI     SI115442   8.164   2.465   0.403  0.0000  0.0000  0.0000
15443SI     SI115443   1.939   3.674   0.295  0.0000  0.0000  0.0000
15444SI     SI115444   6.385   4.437   8.896  0.0000  0.0000  0.0000
15445SI     SI115445   6.644   0.228   9.555  0.0000  0.0000  0.0000
15446SI     SI115446   4.203   2.599   1.126  0.0000  0.0000  0.0000
15447SI     SI115447   7.778   9.187   8.814  0.0000  0.0000  0.0000
15448SI     SI115448   5.076   1.071   9.308  0.0000  0.0000  0.0000
15449SI     SI115449   2.352   0.085   0.397  0.0000  0.0000  0.0000
15450SI     SI115450   8.139   5.181   1.182  0.0000  0.0000  0.0000
15451SI     SI115451   2.177   2.853   8.270  0.0000  0.0000  0.0000
15452SI     SI115452   4.398   3.933   0.491  0.0000  0.0000  0.0000
15453SI     SI115453   2.265   2.551   0.481  0.0000  0.0000  0.0000
15454SI     SI115454   5.921   7.417   8.271  0.0000  0.0000  0.0000
15455SI     SI115455   3.240   8.467   0.020  0.0000  0.0000  0.0000
15456SI     SI115456   4.356   8.873   9.282  0.0000  0.0000  0.0000
15457SI     SI115457   3.654   0.758   8.631  0.0000  0.0000  0.0000
15458SI     SI115458   9.566   5.667   8.741  0.0000  0.0000  0.0000
15459SI     SI115459   2.572   6.744   1.003  0.0000  0.0000  0.0000
15460SI     SI115460   1.463   3.081   0.805  0.0000  0.0000  0.0000
15461SI     SI115461   0.911   3.522   8.444  0.0000  0.0000  0.0000
15462SI     SI115462   5.885   7.341   8.735  0.0000  0.0000  0.0000
15463SI     SI115463   0.674   6.181   9.196  0.0000  0.0000  0.0000
15464SI     SI115464   4.348   3.628   8.834  0.0000  0.0000  0.0000
15465SI     SI115465   4.493   2.280   1.235  0.0000  0.0000  0.0000
15466SI     SI115466   5.749   2.772   9.042  0.0000  0.0000  0.0000
15467SI     SI115467   1.598   8.826   8.551  0.0000  0.0000  0.0000
15468SI     SI115468   3.584   8.455   0.315  0.0000  0.0000  0.0000
15469SI     SI115469   8.404   6.001   9.538  0.0000  0.0000  0.0000
15470SI     SI115470   0.037   5.883   0.491  0.0000  0.0000  0.0000
15471SI     SI115471   8.842   4.736   9.131  0.0000  0.0000  0.0000
15472SI     SI115472   1.474   4.725   9.567  0.0000  0.0000  0.0000
15473SI     SI115473   1.530   8.986   1.331  0.0000  0.0000  0.0000
15474SI     SI115474   8.192   5.248   0.505  0.0000  0.0000  0.0000
15475SI     SI115475   6.760   2.675   0.183  0.0000  0.0000  0.0000
15476SI     SI115476   2.356   4.139   8.643  0.0000  0.0000  0.0000
15477SI     SI115477   4.630   6.318   0.219  0.0000  0.0000  0.0000
15478SI     SI115478   3.052   8.760   9.274  0.0000  0.0000  0.0000
15479SI     SI115479   8.343   0.805   1.293  0.0000  0.0000  0.0000
15480SI     SI115480   4.383   9.268   8.883  0.0000  0.0000  0.0000
15481SI     SI115481   8.191   4.572   8.906  0.0000  0.0000  0.0000
15482SI     SI115482   7.406   9.228   8.552  0.0000  0.0000  0.0000
15483SI     SI115483   8.558   9.305   8.759  0.0000  0.0000  0.0000
15484SI     SI115484   5.160   2.816   9.113  0.0000  0.0000  0.0000
15485SI     SI115485   2.495   4.808   9.288  0.0000  0.0000  0.0000
15486SI     SI115486   0.893   1.248   8.713  0.0000  0.0000  0.0000
15487SI     SI115487   1.397   2.910   9.344  0.0000  0.0000  0.0000
15488SI     SI115488   0.692   0.631   9.492  0.0000  0.0000  0.0000
15489SI     SI115489   5.063   1.971   1.408  0.0000  0.0000  0.0000
15490SI     SI115490   3.671   9.185   9.231  0.0000  0.0000  0.0000
15491SI     SI115491   2.050   5.694   0.850  0.0000  0.0000  0.0000
15492SI     SI115492   2.847   8.404   9.448  0.0000  0.0000  0.0000
15493SI     SI115493   0.721   7.054   1.074  0.0000  0.0000  0.0000
15494SI     SI115494   7.782   6.971   0.011  0.0000  0.0000  0.0000
15495SI     SI115495   5.779   6.673   0.990  0.0000  0.0000  0.0000
15496SI     SI115496   7.124   5.728   1.065  0.0000  0.0000  0.0000
15497SI     SI115497   2.481   7.705   9.288  0.0000  0.0000  0.0000
15498SI     SI115498   4.318   8.540   0.622  0.0000  0.0000  0.0000
15499SI     SI115499   4.868   3.493   0.660  0.0000  0.0000  0.0000
15500SI     SI115500   4.552   8.743   9.087  0.0000  0.0000  0.0000
15501SI     SI115501   9.494   7.485   0.264  0.0000  0.0000  0.0000
15502SI     SI115502   7.231   6.802   9.088  0.0000  0.0000  0.0000
15503SI     SI115503   1.543   8.345   0.431  0.0000  0.0000  0.0000
15504SI     SI115504   1.426   3.896   8.995  0.0000  0.0000  0.0000
15505SI     SI115505   9.557   5.514   9.014  0.0000  0.0000  0.0000
15506SI     SI115506   4.386   2.644   8.945  0.0000  0.0000  0.0000
15507SI     SI115507   2.547   4.015   8.155  0.0000  0.0000  0.0000
15508SI     SI115508   4.209   3.564   1.371  0.0000  0.0000  0.0000
15509SI     SI115509   3.827   4.181   9.605  0.0000  0.0000  0.0000
15510SI     SI115510   5.174   9.281   1.321  0.0000  0.0000  0.0000
15511SI     SI115511   2.725   7.984   0.095  0.0000  0.0000  0.0000
15512SI     SI115512   2.324   2.363   8.961  0.0000  0.0000  0.0000
15513SI     SI115513   8.866   6.469   0.397  0.0000  0.0000  0.0000
15514SI     SI115514   6.807   1.661   9.187  0.0000  0.0000  0.0000
15515SI     SI115515   0.560   8.455   0.507  0.0000  0.0000  0.0000
15516SI     SI115516   0.504   8.644   0.971  0.0000  0.0000  0.0000
15517SI     SI115517   1.233   0.602   8.796  0.0000  0.0000  0.0000
15518SI     SI115518   8.648   8.926   0.648  0.0000  0.0000  0.0000
15519SI     SI115519   2.141   7.433   8.723  0.0000  0.0000  0.0000
15520SI     SI115520   0.527   0.560   0.756  0.0000  0.0000  0.0000
15521SI     SI115521   8.894   8.262   9.062  0.0000  0.0000  0.0000
15522SI     SI115522   7.895   0.594   0.616  0.0000  0.0000  0.0000
15523SI     SI115523   4.229   7.712   8.798  0.0000  0.0000  0.0000
15524SI     SI115524   1.943   7.567   0.563  0.0000  0.0000  0.0000
15525SI     SI115525   7.982   8.261   8.946  0.0000  0.0000  0.0000
15526SI     SI115526   6.112   4.635   0.883  0.0000  0.0000  0.0000
15527SI     SI115527   6.247   2.363   8.737  0.0000  0.0000  0.0000
15528SI     SI115528   0.435   3.079   1.344  0.0000  0.0000  0.0000
15529SI     SI115529   4.596   8.200   0.048  0.0000  0.0000  0.0000
15530SI     SI115530   1.867   7.157   0.044  0.0000  0.0000  0.0000
15531SI     SI115531   1.535   4.880   1.128  0.0000  0.0000  0.0000
15532SI     SI115532   2.655   8.876   8.678  0.0000  0.0000  0.0000
15533SI     SI115533   8.107   4.406   9.376  0.0000  0.0000  0.0000
15534SI     SI115534   5.013   1.421   8.552  0.0000  0.0000  0.0000
15535SI     SI115535   5.663   7.862   0.813  0.0000  0.0000  0.0000
15536SI     SI115536   3.396   0.476   8.907  0.0000  0.0000  0.0000
15537SI     SI115537   5.375   6.762   0.706  0.0000  0.0000  0.0000
15538SI     SI115538   3.073   5.322   0.732  0.0000  0.0000  0.0000
15539SI     SI115539   3.993   2.626   1.336  0.0000  0.0000  0.0000
15540SI     SI115540   4.200   3.132   8.767  0.0000  0.0000  0.0000
15541SI     SI115541   5.441   7.021   8.622  0.0000  0.0000  0.0000
15542SI     SI115542   0.859   2.487   0.358  0.0000  0.0000  0.0000
15543SI     SI115543   8.725   0.157   8.755  0.0000  0.0000  0.0000
15544SI     SI115544   5.671   5.035   9.449  0.0000  0.0000  0.0000
15545SI     SI115545   9.529   2.825   8.607  0.0000  0.0000  0.0000
15546SI     SI115546   5.456   7.812   0.359  0.0000  0.0000  0.0000
15547SI     SI115547   0.670   7.681   9.188  0.0000  0.0000  0.0000
15548SI     SI115548   6.429   0.586   9.025  0.0000  0.0000  0.0000
15549SI     SI115549   6.605   5.811   0.301  0.0000  0.0000  0.0000
15550SI     SI115550   4.263   1.074   9.456  0.0000  0.0000  0.0000
15551SI     SI115551   2.758   4.240   8.496  0.0000  0.0000  0.0000
15552SI     SI115552   5.586   7.195   0.679  0.0000  0.0000  0.0000
15553SI     SI115553   9.052   4.826   9.310  0.0000  0.0000  0.0000
15554SI     SI115554   0.800   8.895   0.298  0.0000  0.0000  0.0000
15555SI     SI115555   0.497   4.975   0.965  0.0000  0.0000  0.0000
15556SI     SI115556   4.211   4.591   0.450  0.0000  0.0000  0.0000
15557SI     SI115557   4.665   0.510   0.416  0.0000  0.0000  0.0000
15558SI     SI115558   2.931   2.840   0.175  0.0000  0.0000  0.0000
15559SI     SI115559   6.011   8.093   1.056  0.0000  0.0000  0.0000
15560SI     SI115560   8.518   8.003   0.484  0.0000  0.0000  0.0000
15561SI     SI115561   6.237   6.312   0.446  0.0000  0.0000  0.0000
15562SI     SI115562   5.466   3.578   9.424  0.0000  0.0000  0.0000
15563SI     SI115563   1.740   5.494   9.119  0.0000  0.0000  0.0000
15564SI     SI115564   1.574   4.303   9.249  0.0000  0.0000  0.0000
15565SI     SI115565   6.421   5.741   9.452  0.0000  0.0000  0.0000
15566SI     SI115566   9.166   6.473   0.386  0.0000  0.0000  0.0000
15567SI     SI115567   0.241   3.926   8.986  0.0000  0.0000  0.0000
15568SI     SI115568   4.162   5.988   1.193  0.0000  0.0000  0.0000
15569SI     SI115569   4.208   2.934   0.236  0.0000  0.0000  0.0000
15570SI     SI115570   2.860   6.110   9.279  0.0000  0.0000  0.0000
15571SI     SI115571   8.446   2.376   0.484  0.0000  0.0000  0.0000
15572SI     SI115572   1.430   6.094   0.464  0.0000  0.0000  0.0000
15573SI     SI115573   4.614   6.216   8.778  0.0000  0.0000  0.0000
15574SI     SI115574   6.574   2.597   0.427  0.0000  0.0000  0.0000
15575SI     SI115575   0.460   2.241   8.878  0.0000  0.0000  0.0000
15576SI     SI115576   6.009   5.902   9.034  0.0000  0.0000  0.0000
15577SI     SI115577   0.442   7.448   0.694  0.0000  0.0000  0.0000
15578SI     SI115578   7.295   7.610   1.098  0.0000  0.0000  0.0000
15579SI     SI115579   8.027   4.230   8.619  0.0000  0.0000  0.0000
15580SI     SI115580   5.432   6.307   8.579  0.0000  0.0000  0.0000
15581SI     SI115581   4.057   0.978   0.712  0.0000  0.0000  0.0000
15582SI     SI115582   4.181   0.558   8.669  0.0000  0.0000  0.0000
15583SI     SI115583   3.566   3.962   0.773  0.0000  0.0000  0.0000
15584SI     SI115584   3.252   3.427   1.366  0.0000  0.0000  0.0000
15585SI     SI115585   3.885   1.133   0.925  0.0000  0.0000  0.0000
15586SI     SI115586   2.213   4.098   9.039  0.0000  0.0000  0.0000
15587SI     SI115587   1.489   6.468   8.547  0.0000  0.0000  0.0000
15588SI     SI115588   4.032   2.681   0.868  0.0000  0.0000  0.0000
15589SI     SI115589   4.445   2.199   8.821  0.0000  0.0000  0.0000
15590SI     SI115590   7.831   4.461   8.649  0.0000  0.0000  0.0000
15591SI     SI115591   3.200   4.472   9.055  0.0000  0.0000  0.0000
15592SI     SI115592   1.404   2.570   0.021  0.0000  0.0000  0.0000
15593SI     SI115593   5.111   1.586   8.809  0.0000  0.0000  0.0000
15594SI     SI115594   4.661   6.481   1.114  0.0000  0.0000  0.0000
15595SI     SI115595   0.704   7.126   0.795  0.0000  0.0000  0.0000
15596SI     SI115596   1.216   2.243   9.434  0.0000  0.0000  0.0000
15597SI     SI115597   2.135   8.954   8.540  0.0000  0.0000  0.0000
15598SI     SI115598   5.140   3.730   8.426  0.0000  0.0000  0.0000
15599SI     SI115599   2.864   5.680   0.150  0.0000  0.0000  0.0000
15600SI     SI115600   2.205   2.320   0.291  0.0000  0.0000  0.0000
15601SI     SI115601   1.310   8.771   8.532  0.0000  0.0000  0.0000
15602SI     SI115602   3.476   0.999   0.075  0.0000  0.0000  0.0000
15603SI     SI115603   9.179   8.212   9.038  0.0000  0.0000  0.0000
15604SI     SI115604   3.110   6.480   0.926  0.0000  0.0000  0.0000
15605SI     SI115605   1.171   5.560   9.269  0.0000  0.0000  0.0000
15606SI     SI115606   8.101   9.019   8.525  0.0000  0.0000  0.0000
15607SI     SI115607   7.877   3.307   0.933  0.0000  0.0000  0.0000
15608SI     SI115608   3.978   0.839   9.262  0.0000  0.0000  0.0000
15609SI     SI115609   8.210   0.875   8.359  0.0000  0.0000  0.0000
15610SI     SI115610   4.515   5.790   8.369  0.0000  0.0000  0.0000
15611SI     SI115611   5.252   3.757   0.192  0.0000  0.0000  0.0000
15612SI     SI115612   3.353   4.389   9.327  0.0000  0.0000  0.0000
15613SI     SI115613   7.071   2.660   8.169  0.0000  0.0000  0.0000
15614SI     SI115614   4.128   4.879   9.035  0.0000  0.0000  0.0000
15615SI     SI115615   1.917   3.622   8.940  0.0000  0.0000  0.0000
15616SI     SI115616   8.372   5.884   1.216  0.0000  0.0000  0.0000
15617SI     SI115617   4.029   6.385   0.765  0.0000  0.0000  0.0000
15618SI     SI115618   2.372   2.786   9.231  0.0000  0.0000  0.0000
15619SI     SI115619   7.595   9.461   0.728  0.0000  0.0000  0.0000
15620SI     SI115620   2.169   1.721   9.270  0.0000  0.0000  0.0000
15621SI     SI115621   1.119   2.778   8.474  0.0000  0.0000  0.0000
15622SI     SI115622   3.561   9.484   0.894  0.0000  0.0000  0.0000
15623SI     SI115623   6.964   4.710   0.604  0.0000  0.0000  0.0000
15624SI     SI115624   9.595   5.601   0.926  0.0000  0.0000  0.0000
15625SI     SI115625   6.765   3.248   0.187  0.0000  0.0000  0.0000
15626SI     SI115626   0.447   6.727   0.020  0.0000  0.0000  0.0000
15627SI     SI115627   0.609   8.180   0.133  0.0000  0.0000  0.0000
15628SI     SI115628   2.162   6.636   8.500  0.0000  0.0000  0.0000
15629SI     SI115629   5.314   2.755   0.157  0.0000  0.0000  0.0000
15630SI     SI115630   4.151   1.619   0.529  0.0000  0.0000  0.0000
15631SI     SI115631   8.301   6.487   8.378  0.0000  0.0000  0.0000
15632SI     SI115632   9.339   5.194   9.322  0.0000  0.0000  0.0000
15633SI     SI115633   3.109   1.887   0.579  0.0000  0.0000  0.0000
15634SI     SI115634   0.269   4.151   0.270  0.0000  0.0000  0.0000
15635SI     SI115635   4.205   1.656   9.210  0.0000  0.0000  0.0000
15636SI     SI115636   2.917   6.501   8.758  0.0000  0.0000  0.0000
15637SI     SI115637   8.359   5.807   0.921  0.0000  0.0000  0.0000
15638SI     SI115638   2.962   3.935   0.065  0.0000  0.0000  0.0000
15639SI     SI115639   6.627   6.104   0.247  0.0000  0.0000  0.0000
15640SI     SI115640   1.425   7.133   8.613  0.0000  0.0000  0.0000
15641SI     SI115641   4.673   2.717   0.423  0.0000  0.0000  0.0000
15642SI     SI115642   7.717   1.095   8.807  0.0000  0.0000  0.0000
15643SI     SI115643   0.894   4.159   1.403  0.0000  0.0000  0.0000
15644SI     SI115644   3.464   2.408   0.457  0.0000  0.0000  0.0000
15645SI     SI115645   4.922   5.757   9.437  0.0000  0.0000  0.0000
15646SI     SI115646   4.366   1.830   1.150  0.0000  0.0000  0.0000
15647SI     SI115647   8.870   5.296   8.393  0.0000  0.0000  0.0000
15648SI     SI115648   8.920   5.296   0.363  0.0000  0.0000  0.0000
15649SI     SI115649   5.596   0.413   8.416  0.0000  0.0000  0.0000
15650SI     SI115650   3.932   7.550   0.946  0.0000  0.0000  0.0000
15651SI     SI115651   6.922   0.995   0.869  0.0000  0.0000  0.0000
15652SI     SI115652   3.936   5.691   0.902  0.0000  0.0000  0.0000
15653SI     SI115653   5.307   0.194   9.278  0.0000  0.0000  0.0000
15654SI     SI115654   6.113   8.271   9.422  0.0000  0.0000  0.0000
15655SI     SI115655   2.792   0.157   0.350  0.0000  0.0000  0.0000
15656SI     SI115656   8.682   8.008   9.424  0.0000  0.0000  0.0000
15657SI     SI115657   7.306   7.201   0.787  0.0000  0.0000  0.0000
15658SI     SI115658   1.495   4.765   0.429  0.0000  0.0000  0.0000
15659SI     SI115659   3.424   8.473   8.697  0.0000  0.0000  0.0000
15660SI     SI115660   5.299   4.942   8.650  0.0000  0.0000  0.0000
15661SI     SI115661   5.841   1.977   9.257  0.0000  0.0000  0.0000
15662SI     SI115662   7.728   4.481   1.221  0.0000  0.0000  0.0000
15663SI     SI115663   7.239   6.228   1.114  0.0000  0.0000  0.0000
15664SI     SI115664   5.355   1.982   1.298  0.0000  0.0000  0.0000
15665SI     SI115665   7.067   0.979   8.949  0.0000  0.0000  0.0000
15666SI     SI115666   7.931   3.870   1.436  0.0000  0.0000  0.0000
15667SI     SI115667   0.535   4.489   9.328  0.0000  0.0000  0.0000
15668SI     SI115668   3.879   3.388   0.344  0.0000  0.0000  0.0000
15669SI     SI115669   5.257   0.102   0.198  0.0000  0.0000  0.0000
15670SI     SI115670   8.095   2.107   9.342  0.0000  0.0000  0.0000
15671SI     SI115671   7.188   3.935   1.177  0.0000  0.0000  0.0000
15672SI     SI115672   8.955   2.110   0.334  0.0000  0.0000  0.0000
15673SI     SI115673   4.069   3.091   1.290  0.0000  0.0000  0.0000
15674SI     SI115674   7.122   2.011   0.830  0.0000  0.0000  0.0000
15675SI     SI115675   2.767   0.213   9.477  0.0000  0.0000  0.0000
15676SI     SI115676   3.568   1.261   0.175  0.0000  0.0000  0.0000
15677SI     SI115677   0.609   3.194   8.349  0.0000  0.0000  0.0000
15678SI     SI115678   2.042   0.962   0.352  0.0000  0.0000  0.0000
15679SI     SI115679   8.069   3.216   8.288  0.0000  0.0000  0.0000
15680SI     SI115680   8.987   0.069   0.266  0.0000  0.0000  0.0000
15681SI     SI115681   5.805   2.547   9.255  0.0000  0.0000  0.0000
15682SI     SI115682   0.887   7.927   8.621  0.0000  0.0000  0.0000
15683SI     SI115683   3.715   0.286   0.108  0.0000  0.0000  0.0000
15684SI     SI115684   8.945   2.220   0.903  0.0000  0.0000  0.0000
15685SI     SI115685   6.700   4.757   0.460  0.0000  0.0000  0.0000
15686SI     SI115686   8.133   0.017   8.276  0.0000  0.0000  0.0000
15687SI     SI115687   4.564   5.270   0.623  0.0000  0.0000  0.0000
15688SI     SI115688   9.099   2.673   0.905  0.0000  0.0000  0.0000
15689SI     SI115689   4.731   3.017   0.869  0.0000  0.0000  0.0000
15690SI     SI115690   3.635   3.964   9.477  0.0000  0.0000  0.0000
15691SI     SI115691   7.990   4.930   1.251  0.0000  0.0000  0.0000
15692SI     SI115692   9.371   2.762   9.142  0.0000  0.0000  0.0000
15693SI     SI115693   1.855   6.188   0.044  0.0000  0.0000  0.0000
15694SI     SI115694   7.672   3.687   8.607  0.0000  0.0000  0.0000
15695SI     SI115695   4.067   2.135   0.937  0.0000  0.0000  0.0000
15696SI     SI115696   7.394   6.593   9.529  0.0000  0.0000  0.0000
15697SI     SI115697   0.820   5.162   1.351  0.0000  0.0000  0.0000
15698SI     SI115698   3.078   2.992   1.160  0.0000  0.0000  0.0000
15699SI     SI115699   6.428   2.742   1.013  0.0000  0.0000  0.0000
15700SI     SI115700   6.392   7.780   0.911  0.0000  0.0000  0.0000
15701SI     SI115701   0.860   9.097   8.816  0.0000  0.0000  0.0000
15702SI     SI115702   6.670   0.933   9.186  0.0000  0.0000  0.0000
15703SI     SI115703   1.075   4.926   8.877  0.0000  0.0000  0.0000
15704SI     SI115704   7.567   0.385   9.450  0.0000  0.0000  0.0000
15705SI     SI115705   2.728   6.249   9.036  0.0000  0.0000  0.0000
15706SI     SI115706   8.446   8.994   9.543  0.0000  0.0000  0.0000
15707SI     SI115707   2.221   1.430   9.392  0.0000  0.0000  0.0000
15708SI     SI115708   1.820   6.928   9.024  0.0000  0.0000  0.0000
15709SI     SI115709   4.279   1.251   8.470  0.0000  0.0000  0.0000
15710SI     SI115710   7.536   2.916   9.088  0.0000  0.0000  0.0000
15711SI     SI115711   0.766   2.549   0.658  0.0000  0.0000  0.0000
15712SI     SI115712   4.328   9.237   0.530  0.0000  0.0000  0.0000
15713SI     SI115713   3.063   3.010   0.585  0.0000  0.0000  0.0000
15714SI     SI115714   6.263   8.503   9.556  0.0000  0.0000  0.0000
15715SI     SI115715   3.098   4.896   8.803  0.0000  0.0000  0.0000
15716SI     SI115716   4.208   0.662   1.099  0.0000  0.0000  0.0000
15717SI     SI115717   6.454   5.063   9.074  0.0000  0.0000  0.0000
15718SI     SI115718   4.929   8.423   1.005  0.0000  0.0000  0.0000
15719SI     SI115719   8.132   5.160   8.847  0.0000  0.0000  0.0000
15720SI     SI115720   4.144   9.228   8.471  0.0000  0.0000  0.0000
15721SI     SI115721   4.681   1.702   8.707  0.0000  0.0000  0.0000
15722SI     SI115722   7.463   6.814   8.684  0.0000  0.0000  0.0000
15723SI     SI115723   5.989   0.896   9.082  0.0000  0.0000  0.0000
15724SI     SI115724   6.507   4.359   0.907  0.0000  0.0000  0.0000
15725SI     SI115725   1.678   2.972   9.317  0.0000  0.0000  0.0000
15726SI     SI115726   3.280   8.588   0.903  0.0000  0.0000  0.0000
15727SI     SI115727   6.716   2.844   1.088  0.0000  0.0000  0.0000
15728SI     SI115728   1.868   1.199   1.371  0.0000  0.0000  0.0000
15729SI     SI115729   7.374   0.173   8.535  0.0000  0.0000  0.0000
15730SI     SI115730   3.870   1.891   8.975  0.0000  0.0000  0.0000
15731SI     SI115731   8.660   1.911   0.580  0.0000  0.0000  0.0000
15732SI     SI115732   7.989   6.174   8.265  0.0000  0.0000  0.0000
15733SI     SI115733   9.100   9.030   1.196  0.0000  0.0000  0.0000
15734SI     SI115734   7.697   4.157   9.267  0.0000  0.0000  0.0000
15735SI     SI115735   6.105   4.230   0.369  0.0000  0.0000  0.0000
15736SI     SI115736   5.309   3.093   8.547  0.0000  0.0000  0.0000
15737SI     SI115737   7.390   0.756   1.018  0.0000  0.0000  0.0000
15738SI     SI115738   1.424   4.570   0.223  0.0000  0.0000  0.0000
15739SI     SI115739   0.520   7.730   9.443  0.0000  0.0000  0.0000
15740SI     SI115740   1.698   0.222   8.279  0.0000  0.0000  0.0000
15741SI     SI115741   4.643   4.399   9.135  0.0000  0.0000  0.0000
15742SI     SI115742   4.804   2.129   0.190  0.0000  0.0000  0.0000
15743SI     SI115743   2.149   8.375   8.917  0.0000  0.0000  0.0000
15744SI     SI115744   3.142   2.365   1.179  0.0000  0.0000  0.0000
15745SI     SI115745   2.601   3.820   9.154  0.0000  0.0000  0.0000
15746SI     SI115746   3.961   6.661   8.428  0.0000  0.0000  0.0000
15747SI     SI115747   0.652   6.484   8.336  0.0000  0.0000  0.0000
15748SI     SI115748   9.520   3.929   9.205  0.0000  0.0000  0.0000
15749SI     SI115749   7.492   0.491   1.150  0.0000  0.0000  0.0000
15750SI     SI115750   3.931   9.411   8.828  0.0000  0.0000  0.0000
15751SI     SI115751   9.280   2.398   8.842  0.0000  0.0000  0.0000
15752SI     SI115752   9.347   2.481   0.941  0.0000  0.0000  0.0000
15753SI     SI115753   5.714   6.984   9.340  0.0000  0.0000  0.0000
15754SI     SI115754   1.737   4.835   8.600  0.0000  0.0000  0.0000
15755SI     SI115755   0.272   4.457   0.284  0.0000  0.0000  0.0000
15756SI     SI115756   0.386   0.696   9.162  0.0000  0.0000  0.0000
15757SI     SI115757   0.618   7.761   1.060  0.0000  0.0000  0.0000
15758SI     SI115758   2.266   5.964   1.368  0.0000  0.0000  0.0000
15759SI     SI115759   3.152   9.249   0.539  0.0000  0.0000  0.0000
15760SI     SI115760   9.281   2.019   1.186  0.0000  0.0000  0.0000
15761SI     SI115761   0.041   0.582   0.730  0.0000  0.0000  0.0000
15762SI     SI115762   6.039   6.526   0.925  0.0000  0.0000  0.0000
15763SI     SI115763   6.084   4.159   8.525  0.0000  0.0000  0.0000
15764SI     SI115764   4.780   2.487   0.952  0.0000  0.0000  0.0000
15765SI     SI115765   1.873   8.941   8.967  0.0000  0.0000  0.0000
15766SI     SI115766   8.565   6.500   0.017  0.0000  0.0000  0.0000
15767SI     SI115767   3.374   8.895   1.356  0.0000  0.0000  0.0000
15768SI     SI115768   9.353   5.143   0.815  0.0000  0.0000  0.0000
15769SI     SI115769   2.203   6.814   0.242  0.0000  0.0000  0.0000
15770SI     SI115770   6.465   1.440   1.381  0.0000  0.0000  0.0000
15771SI     SI115771   3.282   3.100   9.592  0.0000  0.0000  0.0000
15772SI     SI115772   7.255   0.728   9.294  0.0000  0.0000  0.0000
15773SI     SI115773   3.040   5.191   8.840  0.0000  0.0000  0.0000
15774SI     SI115774   7.723   5.034   1.134  0.0000  0.0000  0.0000
15775SI     SI115775   8.662   5.356   0.227  0.0000  0.0000  0.0000
15776SI     SI115776   2.661   4.731   8.527  0.0000  0.0000  0.0000
15777SI     SI115777   9.147   0.648   0.097  0.0000  0.0000  0.0000
15778SI     SI115778   0.524   7.101   1.279  0.0000  0.0000  0.0000
15779SI     SI115779   1.845   8.425   8.835  0.0000  0.0000  0.0000
15780SI     SI115780   8.223   1.132   0.292  0.0000  0.0000  0.0000
15781SI     SI115781   2.162   7.703   0.975  0.0000  0.0000  0.0000
15782SI     SI115782   3.002   3.176   8.545  0.0000  0.0000  0.0000
15783SI     SI115783   1.438   6.768   9.083  0.0000  0.0000  0.0000
15784SI     SI115784   9.050   5.947   0.748  0.0000  0.0000  0.0000
15785SI     SI115785   5.742   8.457   8.342  0.0000  0.0000  0.0000
15786SI     SI115786   7.413   7.731   8.786  0.0000  0.0000  0.0000
15787SI     SI115787   0.166   2.735   1.236  0.0000  0.0000  0.0000
15788SI     SI115788   6.761   6.314   1.400  0.0000  0.0000  0.0000
15789SI     SI115789   6.119   5.253   0.098  0.0000  0.0000  0.0000
15790SI     SI115790   5.486   2.569   8.659  0.0000  0.0000  0.0000
15791SI     SI115791   5.879   2.713   1.145  0.0000  0.0000  0.0000
15792SI     SI115792   1.205   9.048   9.277  0.0000  0.0000  0.0000
15793SI     SI115793   0.152   0.365   0.906  0.0000  0.0000  0.0000
15794SI     SI115794   7.417   4.182   0.087  0.0000  0.0000  0.0000
15795SI     SI115795   6.249   3.046   0.357  0.0000  0.0000  0.0000
15796SI     SI115796   6.737   0.650   9.048  0.0000  0.0000  0.0000
15797SI     SI115797   8.283   5.531   9.176  0.0000  0.0000  0.0000
15798SI     SI115798   2.649   2.230   9.582  0.0000  0.0000  0.0000
15799SI     SI115799   8.979   3.743   1.309  0.0000  0.0000  0.0000
15800SI     SI115800   4.734   8.974   9.115  0.0000  0.0000  0.0000
15801SI     SI115801   6.680   6.460   0.612  0.0000  0.0000  0.0000
15802SI     SI115802   9.356   8.440   9.169  0.0000  0.0000  0.0000
15803SI     SI115803   8.510   3.979   1.331  0.0000  0.0000  0.0000
15804SI     SI115804   4.310   6.254   9.168  0.0000  0.0000  0.0000
15805SI     SI115805   1.559   7.060   9.106  0.0000  0.0000  0.0000
15806SI     SI115806   4.034   5.540   0.178  0.0000  0.0000  0.0000
15807SI     SI115807   6.469   6.120   1.153  0.0000  0.0000  0.0000
15808SI     SI115808   6.805   3.249   8.981  0.0000  0.0000  0.0000
15809SI     SI115809   7.038   5.560   8.221  0.0000  0.0000  0.0000
15810SI     SI115810   0.668   1.007   0.857  0.0000  0.0000  0.0000
15811SI     SI115811   1.401   1.717   0.810  0.0000  0.0000  0.0000
15812SI     SI115812   0.142   4.840   9.447  0.0000  0.0000  0.0000
15813SI     SI115813   8.042   2.852   1.103  0.0000  0.0000  0.0000
15814SI     SI115814   2.348   7.248   9.469  0.0000  0.0000  0.0000
15815SI     SI115815   3.683   0.348   1.017  0.0000  0.0000  0.0000
15816SI     SI115816   3.034   6.659   1.153  0.0000  0.0000  0.0000
15817SI     SI115817   8.045   7.591   0.200  0.0000  0.0000  0.0000
15818SI     SI115818   8.487   3.219   1.130  0.0000  0.0000  0.0000
15819SI     SI115819   0.416   0.815   0.869  0.0000  0.0000  0.0000
15820SI     SI115820   7.043   8.782   0.427  0.0000  0.0000  0.0000
15821SI     SI115821   7.068   4.440   8.835  0.0000  0.0000  0.0000
15822SI     SI115822   7.304   6.902   0.847  0.0000  0.0000  0.0000
15823SI     SI115823   5.997   4.859   0.441  0.0000  0.0000  0.0000
15824SI     SI115824   0.528   3.360   8.795  0.0000  0.0000  0.0000
15825SI     SI115825   5.442   7.745   9.562  0.0000  0.0000  0.0000
15826SI     SI115826   4.132   9.436   0.889  0.0000  0.0000  0.0000
15827SI     SI115827   2.809   3.681   0.770  0.0000  0.0000  0.0000
15828SI     SI115828   3.337   0.775   8.979  0.0000  0.0000  0.0000
15829SI     SI115829   8.906   9.174   1.003  0.0000  0.0000  0.0000
15830SI     SI115830   7.463   8.952   8.989  0.0000  0.0000  0.0000
15831SI     SI115831   6.747   3.290   9.270  0.0000  0.0000  0.0000
15832SI     SI115832   0.478   2.920   0.898  0.0000  0.0000  0.0000
15833SI     SI115833   9.192   6.095   8.365  0.0000  0.0000  0.0000
15834SI     SI115834   2.051   2.691   8.513  0.0000  0.0000  0.0000
15835SI     SI115835   7.991   3.412   9.467  0.0000  0.0000  0.0000
15836SI     SI115836   3.987   1.683   8.523  0.0000  0.0000  0.0000
15837SI     SI115837   2.112   8.616   0.344  0.0000  0.0000  0.0000
15838SI     SI115838   8.206   1.660   8.517  0.0000  0.0000  0.0000
15839SI     SI115839   3.033   3.280   8.844  0.0000  0.0000  0.0000
15840SI     SI115840   4.868   5.071   8.731  0.0000  0.0000  0.0000
15841SI     SI115841   7.203   6.886   8.538  0.0000  0.0000  0.0000
15842SI     SI115842   5.915   1.455   0.102  0.0000  0.0000  0.0000
15843SI     SI115843   6.688   4.217   1.129  0.0000  0.0000  0.0000
15844SI     SI115844   4.799   3.462   8.695  0.0000  0.0000  0.0000
15845SI     SI115845   0.749   7.942   9.040  0.0000  0.0000  0.0000
15846SI     SI115846   6.281   6.593   1.099  0.0000  0.0000  0.0000
15847SI     SI115847   4.464   1.837   0.845  0.0000  0.0000  0.0000
15848SI     SI115848   4.645   2.675   9.120  0.0000  0.0000  0.0000
15849SI     SI115849   2.422   6.222   9.052  0.0000  0.0000  0.0000
15850SI     SI115850   4.632   6.623   9.445  0.0000  0.0000  0.0000
15851SI     SI115851   1.421   7.600   8.635  0.0000  0.0000  0.0000
15852SI     SI115852   0.239   3.117   0.870  0.0000  0.0000  0.0000
15853SI     SI115853   5.618   5.690   8.974  0.0000  0.0000  0.0000
15854SI     SI115854   6.880   7.576   9.563  0.0000  0.0000  0.0000
15855SI     SI115855   4.771   5.723   0.483  0.0000  0.0000  0.0000
15856SI     SI115856   0.339   6.349   0.776  0.0000  0.0000  0.0000
15857SI     SI115857   8.704   5.177   1.074  0.0000  0.0000  0.0000
15858SI     SI115858   3.229   1.220   0.558  0.0000  0.0000  0.0000
15859SI     SI115859   3.741   1.674   0.184  0.0000  0.0000  0.0000
15860SI     SI115860   8.641   6.077   0.492  0.0000  0.0000  0.0000
15861SI     SI115861   0.819   8.282   0.558  0.0000  0.0000  0.0000
15862SI     SI115862   2.204   6.829   9.201  0.0000  0.0000  0.0000
15863SI     SI115863   7.127   0.048   9.343  0.0000  0.0000  0.0000
15864SI     SI115864   1.035   4.270   8.577  0.0000  0.0000  0.0000
15865SI     SI115865   3.421   6.224   8.753  0.0000  0.0000  0.0000
15866SI     SI115866   3.611   2.493   0.192  0.0000  0.0000  0.0000
15867SI     SI115867   1.204   6.544   8.650  0.0000  0.0000  0.0000
15868SI     SI115868   8.061   7.353   1.172  0.0000  0.0000  0.0000
15869SI     SI115869   5.049   5.685   0.367  0.0000  0.0000  0.0000
15870SI     SI115870   4.919   3.057   0.151  0.0000  0.0000  0.0000
15871SI     SI115871   5.298   6.762   8.945  0.0000  0.0000  0.0000
15872SI     SI115872   8.648   1.239   9.192  0.0000  0.0000  0.0000
15873SI     SI115873   1.833   4.309   0.337  0.0000  0.0000  0.0000
15874SI     SI115874   7.051   2.819   8.650  0.0000  0.0000  0.0000
15875SI     SI115875   7.872   1.392   0.887  0.0000  0.0000  0.0000
15876SI     SI115876   9.060   8.277   8.332  0.0000  0.0000  0.0000
15877SI     SI115877   5.288   6.808   1.262  0.0000  0.0000  0.0000
15878SI     SI115878   9.296   7.722   8.747  0.0000  0.0000  0.0000
15879SI     SI115879   4.672   7.873   0.895  0.0000  0.0000  0.0000
15880SI     SI115880   6.028   0.981   0.238  0.0000  0.0000  0.0000
15881SI     SI115881   6.616   7.198   9.003  0.0000  0.0000  0.0000
15882SI     SI115882   7.482   1.866   9.089  0.0000  0.0000  0.0000
15883SI     SI115883   5.028   0.102   0.408  0.0000  0.0000  0.0000
15884SI     SI115884   4.332   1.331   0.013  0.0000  0.0000  0.0000
15885SI     SI115885   9.312   7.975   9.145  0.0000  0.0000  0.0000
15886SI     SI115886   6.691   7.909   9.213  0.0000  0.0000  0.0000
15887SI     SI115887   5.948   7.899   8.843  0.0000  0.0000  0.0000
15888SI     SI115888   2.375   5.567   0.134  0.0000  0.0000  0.0000
15889SI     SI115889   4.977   3.309   9.305  0.0000  0.0000  0.0000
15890SI     SI115890   5.164   9.576   8.860  0.0000  0.0000  0.0000
15891SI     SI115891   1.477   7.295   0.237  0.0000  0.0000  0.0000
15892SI     SI115892   1.802   6.230   9.350  0.0000  0.0000  0.0000
15893SI     SI115893   8.430   5.034   0.065  0.0000  0.0000  0.0000
15894SI     SI115894   7.716   7.818   9.433  0.0000  0.0000  0.0000
15895SI     SI115895   7.963   4.308   0.230  0.0000  0.0000  0.0000
15896SI     SI115896   4.086   3.011   8.500  0.0000  0.0000  0.0000
15897SI     SI115897   3.866   2.471   0.711  0.0000  0.0000  0.0000
15898SI     SI115898   0.254   7.113   0.396  0.0000  0.0000  0.0000
15899SI     SI115899   5.772   8.529   9.103  0.0000  0.0000  0.0000
15900SI     SI115900   4.680   3.231   8.860  0.0000  0.0000  0.0000
15901SI     SI115901   2.256   8.656   1.213  0.0000  0.0000  0.0000
15902SI     SI115902   0.442   1.565   0.067  0.0000  0.0000  0.0000
15903SI     SI115903   4.507   8.340   0.299  0.0000  0.0000  0.0000
15904SI     SI115904   5.386   0.654   1.323  0.0000  0.0000  0.0000
15905SI     SI115905   1.679   3.062   0.168  0.0000  0.0000  0.0000
15906SI     SI115906   7.478   4.962   8.378  0.0000  0.0000  0.0000
15907SI     SI115907   6.074   2.151   0.049  0.0000  0.0000  0.0000
15908SI     SI115908   8.396   6.203   8.839  0.0000  0.0000  0.0000
15909SI     SI115909   0.536   6.889   0.741  0.0000  0.0000  0.0000
15910SI     SI115910   3.367   7.526   1.213  0.0000  0.0000  0.0000
15911SI     SI115911   0.281   1.483   1.091  0.0000  0.0000  0.0000
15912SI     SI115912   0.108   8.675   9.472  0.0000  0.0000  0.0000
15913SI     SI115913   9.447   4.192   9.366  0.0000  0.0000  0.0000
15914SI     SI115914   1.153   1.914   0.762  0.0000  0.0000  0.0000
15915SI     SI115915   9.168   2.857   0.113  0.0000  0.0000  0.0000
15916SI     SI115916   7.780   3.708   9.071  0.0000  0.0000  0.0000
15917SI     SI115917   8.589   3.672   9.380  0.0000  0.0000  0.0000
15918SI     SI115918   3.506   1.260   8.869  0.0000  0.0000  0.0000
15919SI     SI115919   5.937   5.075   0.839  0.0000  0.0000  0.0000
15920SI     SI115920   1.163   7.037   0.530  0.0000  0.0000  0.0000
15921SI     SI115921   4.511   2.493   9.343  0.0000  0.0000  0.0000
15922SI     SI115922   7.535   7.033   0.423  0.0000  0.0000  0.0000
15923SI     SI115923   9.212   3.947   0.552  0.0000  0.0000  0.0000
15924SI     SI115924   0.200   3.898   1.330  0.0000  0.0000  0.0000
15925SI     SI115925   1.004   4.738   0.546  0.0000  0.0000  0.0000
15926SI     SI115926   2.003   8.420   0.123  0.0000  0.0000  0.0000
15927SI     SI115927   4.998   0.478   0.017  0.0000  0.0000  0.0000
15928SI     SI115928   4.098   5.576   0.666  0.0000  0.0000  0.0000
15929SI     SI115929   1.288   3.887   9.275  0.0000  0.0000  0.0000
15930SI     SI115930   4.377   4.264   0.832  0.0000  0.0000  0.0000
15931SI     SI115931   8.675   6.980   8.546  0.0000  0.0000  0.0000
15932SI     SI115932   1.983   2.725   9.017  0.0000  0.0000  0.0000
15933SI     SI115933   6.896   3.934   9.050  0.0000  0.0000  0.0000
15934SI     SI115934   8.428   9.312   9.169  0.0000  0.0000  0.0000
15935SI     SI115935   6.337   8.880   0.624  0.0000  0.0000  0.0000
15936SI     SI115936   2.819   4.709   0.110  0.0000  0.0000  0.0000
15937SI     SI115937   4.740   3.212   0.623  0.0000  0.0000  0.0000
15938SI     SI115938   3.497   4.061   0.505  0.0000  0.0000  0.0000
15939SI     SI115939   3.559   2.110   1.011  0.0000  0.0000  0.0000
15940SI     SI115940   3.152   3.129   9.093  0.0000  0.0000  0.0000
15941SI     SI115941   1.088   5.684   0.914  0.0000  0.0000  0.0000
15942SI     SI115942   2.169   7.275   8.972  0.0000  0.0000  0.0000
15943SI     SI115943   8.031   9.475   0.887  0.0000  0.0000  0.0000
15944SI     SI115944   0.445   7.120   9.228  0.0000  0.0000  0.0000
15945SI     SI115945   4.824   0.713   8.292  0.0000  0.0000  0.0000
15946SI     SI115946   2.150   2.043   0.655  0.0000  0.0000  0.0000
15947SI     SI115947   2.473   8.501   0.069  0.0000  0.0000  0.0000
15948SI     SI115948   4.003   2.737   0.342  0.0000  0.0000  0.0000
15949SI     SI115949   7.736   3.976   0.930  0.0000  0.0000  0.0000
15950SI     SI115950   2.128   6.004   8.766  0.0000  0.0000  0.0000
15951SI     SI115951   3.213   6.432   8.858  0.0000  0.0000  0.0000
15952SI     SI115952   9.015   5.539   1.152  0.0000  0.0000  0.0000
15953SI     SI115953   8.604   5.597   0.407  0.0000  0.0000  0.0000
15954SI     SI115954   7.758   7.453   0.155  0.0000  0.0000  0.0000
15955SI     SI115955   2.825   8.832   0.120  0.0000  0.0000  0.0000
15956SI     SI115956   5.461   3.090   0.026  0.0000  0.0000  0.0000
15957SI     SI115957   5.539   4.609   9.444  0.0000  0.0000  0.0000
15958SI     SI115958   9.205   5.979   8.928  0.0000  0.0000  0.0000
15959SI     SI115959   2.334   4.200   0.544  0.0000  0.0000  0.0000
15960SI     SI115960   8.705   8.210   0.381  0.0000  0.0000  0.0000
15961SI     SI115961   0.548   5.404   0.386  0.0000  0.0000  0.0000
15962SI     SI115962   0.364   0.751   1.152  0.0000  0.0000  0.0000
15963SI     SI115963   5.421   3.626   1.079  0.0000  0.0000  0.0000
15964SI     SI115964   9.602   0.985   9.036  0.0000  0.0000  0.0000
15965SI     SI115965   5.010   8.847   9.108  0.0000  0.0000  0.0000
15966SI     SI115966   2.013   2.051   8.700  0.0000  0.0000  0.0000
15967SI     SI115967   1.225   7.486   8.859  0.0000  0.0000  0.0000
15968SI     SI115968   6.764   6.422   0.910  0.0000  0.0000  0.0000
15969SI     SI115969   2.930   8.868   8.578  0.0000  0.0000  0.0000
15970SI     SI115970   7.186   8.045   0.949  0.0000  0.0000  0.0000
15971SI     SI115971   4.125   1.547   0.977  0.0000  0.0000  0.0000
15972SI     SI115972   2.732   8.198   1.267  0.0000  0.0000  0.0000
15973SI     SI115973   5.274   4.132   9.494  0.0000  0.0000  0.0000
15974SI     SI115974   5.182   4.126   1.286  0.0000  0.0000  0.0000
15975SI     SI115975   7.478   3.285   8.509  0.0000  0.0000  0.0000
15976SI     SI115976   2.679   5.709   1.383  0.0000  0.0000  0.0000
15977SI     SI115977   2.251   3.750   9.491  0.0000  0.0000  0.0000
15978SI     SI115978   5.014   6.077   0.752  0.0000  0.0000  0.0000
15979SI     SI115979   5.815   4.590   9.308  0.0000  0.0000  0.0000
15980SI     SI115980   8.189   2.026   8.837  0.0000  0.0000  0.0000
15981SI     SI115981   2.502   5.936   9.027  0.0000  0.0000  0.0000
15982SI     SI115982   4.065   5.752   0.407  0.0000  0.0000  0.0000
15983SI     SI115983   1.223   4.061   8.834  0.0000  0.0000  0.0000
15984SI     SI115984   2.236   0.198   1.240  0.0000  0.0000  0.0000
15985SI     SI115985   3.556   0.310   9.127  0.0000  0.0000  0.0000
15986SI     SI115986   4.613   0.612   8.873  0.0000  0.0000  0.0000
15987SI     SI115987   0.657   0.076   8.534  0.0000  0.0000  0.0000
15988SI     SI115988   3.212   0.342   0.251  0.0000  0.0000  0.0000
15989SI     SI115989   6.375   8.086   0.937  0.0000  0.0000  0.0000
15990SI     SI115990   3.515   0.368   0.331  0.0000  0.0000  0.0000
15991SI     SI115991   7.246   5.597   9.221  0.0000  0.0000  0.0000
15992SI     SI115992   5.181   5.451   8.804  0.0000  0.0000  0.0000
15993SI     SI115993   8.299   5.636   1.387  0.0000  0.0000  0.0000
15994SI     SI115994   7.210   1.434   0.314  0.0000  0.0000  0.0000
15995SI     SI115995   2.195   4.992   0.490  0.0000  0.0000  0.0000
15996SI     SI115996   9.594   7.417   0.718  0.0000  0.0000  0.0000
15997SI     SI115997   9.174   7.265   1.066  0.0000  0.0000  0.0000
15998SI     SI115998   2.797   1.608   0.436  0.0000  0.0000  0.0000
15999SI     SI115999   4.630   7.644   1.096  0.0000  0.0000  0.0000
16000SI     SI116000   6.850   5.636   0.750  0.0000  0.0000  0.0000
16001SI     SI116001   6.573   8.734   9.262  0.0000  0.0000  0.0000
16002SI     SI116002   6.373   6.210   9.093  0.0000  0.0000  0.0000
16003SI     SI116003   0.616   0.114   8.842  0.0000  0.0000  0.0000
16004SI     SI116004   5.766   4.819   8.431  0.0000  0.0000  0.0000
16005SI     SI116005   0.990   9.360   0.263  0.0000  0.0000  0.0000
16006SI     SI116006   5.087   8.025   8.725  0.0000  0.0000  0.0000
16007SI     SI116007   0.158   2.518   0.775  0.0000  0.0000  0.0000
16008SI     SI116008   0.020   3.989   8.361  0.0000  0.0000  0.0000
16009SI     SI116009   7.243   4.292   8.391  0.0000  0.0000  0.0000
16010SI     SI116010   1.789   9.378   0.786  0.0000  0.0000  0.0000
16011SI     SI116011   0.190   5.696   9.121  0.0000  0.0000  0.0000
16012SI     SI116012   0.000   0.542   0.418  0.0000  0.0000  0.0000
16013SI     SI116013   4.716   3.980   8.873  0.0000  0.0000  0.0000
16014SI     SI116014   8.667   6.789   1.064  0.0000  0.0000  0.0000
16015SI     SI116015   7.274   2.475   0.262  0.0000  0.0000  0.0000
16016SI     SI116016   8.019   1.043   8.748  0.0000  0.0000  0.0000
16017SI     SI116017   5.658   3.414   1.054  0.0000  0.0000  0.0000
16018SI     SI116018   3.355   1.093   8.326  0.0000  0.0000  0.0000
16019SI     SI116019   0.061   4.443   0.072  0.0000  0.0000  0.0000
16020SI     SI116020   0.123   5.891   9.356  0.0000  0.0000  0.0000
16021SI     SI116021   7.831   1.627   8.860  0.0000  0.0000  0.0000
16022SI     SI116022   2.267   5.759   8.629  0.0000  0.0000  0.0000
16023SI     SI116023   5.710   5.999   8.499  0.0000  0.0000  0.0000
16024SI     SI116024   3.751   7.265   0.561  0.0000  0.0000  0.0000
16025SI     SI116025   4.681   1.717   0.447  0.0000  0.0000  0.0000
16026SI     SI116026   0.327   5.887   8.921  0.0000  0.0000  0.0000
16027SI     SI116027   4.346   3.904   9.228  0.0000  0.0000  0.0000
16028SI     SI116028   5.463   5.925   0.655  0.0000  0.0000  0.0000
16029SI     SI116029   6.084   7.275   0.549  0.0000  0.0000  0.0000
16030SI     SI116030   1.720   6.213   0.453  0.0000  0.0000  0.0000
16031SI     SI116031   3.650   1.739   1.373  0.0000  0.0000  0.0000
16032SI     SI116032   2.219   0.443   9.278  0.0000  0.0000  0.0000
16033SI     SI116033   8.050   6.346   8.512  0.0000  0.0000  0.0000
16034SI     SI116034   7.370   6.304   0.350  0.0000  0.0000  0.0000
16035SI     SI116035   0.397   1.168   8.630  0.0000  0.0000  0.0000
16036SI     SI116036   9.138   4.328   0.403  0.0000  0.0000  0.0000
16037SI     SI116037   0.375   2.669   8.627  0.0000  0.0000  0.0000
16038SI     SI116038   9.278   8.962   9.592  0.0000  0.0000  0.0000
16039SI     SI116039   2.723   5.509   8.273  0.0000  0.0000  0.0000
16040SI     SI116040   3.641   2.112   8.975  0.0000  0.0000  0.0000
16041SI     SI116041   3.935   3.590   9.414  0.0000  0.0000  0.0000
16042SI     SI116042   8.260   7.513   9.295  0.0000  0.0000  0.0000
16043SI     SI116043   4.039   9.119   9.586  0.0000  0.0000  0.0000
16044SI     SI116044   9.345   5.621   9.484  0.0000  0.0000  0.0000
16045SI     SI116045   4.655   7.724   8.584  0.0000  0.0000  0.0000
16046SI     SI116046   9.236   4.517   0.825  0.0000  0.0000  0.0000
16047SI     SI116047   1.123   6.743   9.102  0.0000  0.0000  0.0000
16048SI     SI116048   6.851   8.368   0.228  0.0000  0.0000  0.0000
16049SI     SI116049   7.082   5.611   8.709  0.0000  0.0000  0.0000
16050SI     SI116050   4.634   6.317   8.476  0.0000  0.0000  0.0000
16051SI     SI116051   7.543   0.544   8.882  0.0000  0.0000  0.0000
16052SI     SI116052   0.829   0.706   0.351  0.0000  0.0000  0.0000
16053SI     SI116053   0.924   4.061   8.389  0.0000  0.0000  0.0000
16054SI     SI116054   7.572   4.119   8.791  0.0000  0.0000  0.0000
16055SI     SI116055   1.220   2.704   0.918  0.0000  0.0000  0.0000
16056SI     SI116056   6.714   9.188   8.856  0.0000  0.0000  0.0000
16057SI     SI116057   1.027   2.645   8.729  0.0000  0.0000  0.0000
16058SI     SI116058   9.211   8.548   8.710  0.0000  0.0000  0.0000
16059SI     SI116059   1.269   8.275   0.447  0.0000  0.0000  0.0000
16060SI     SI116060   1.056   5.454   8.564  0.0000  0.0000  0.0000
16061SI     SI116061   2.826   1.876   8.974  0.0000  0.0000  0.0000
16062SI     SI116062   6.053   7.901   8.356  0.0000  0.0000  0.0000
16063SI     SI116063   1.946   2.832   9.303  0.0000  0.0000  0.0000
16064SI     SI116064   5.882   5.695   8.823  0.0000  0.0000  0.0000
16065SI     SI116065   4.416   2.613   0.560  0.0000  0.0000  0.0000
16066SI     SI116066   8.327   0.461   8.519  0.0000  0.0000  0.0000
16067SI     SI116067   1.301   3.471   8.732  0.0000  0.0000  0.0000
16068SI     SI116068   0.129   4.402   0.839  0.0000  0.0000  0.0000
16069SI     SI116069   8.256   2.496   8.687  0.0000  0.0000  0.0000
16070SI     SI116070   1.015   0.389   0.660  0.0000  0.0000  0.0000
16071SI     SI116071   8.039   6.769   8.653  0.0000  0.0000  0.0000
16072SI     SI116072   3.363   7.292   0.435  0.0000  0.0000  0.0000
16073SI     SI116073   1.254   8.495   8.795  0.0000  0.0000  0.0000
16074SI     SI116074   3.107   8.024   0.485  0.0000  0.0000  0.0000
16075SI     SI116075   9.045   0.074   9.115  0.0000  0.0000  0.0000
16076SI     SI116076   0.974   4.168   8.993  0.0000  0.0000  0.0000
16077SI     SI116077   6.536   3.840   0.849  0.0000  0.0000  0.0000
16078SI     SI116078   5.459   0.332   8.671  0.0000  0.0000  0.0000
16079SI     SI116079   4.772   1.058   0.795  0.0000  0.0000  0.0000
16080SI     SI116080   3.756   1.595   8.971  0.0000  0.0000  0.0000
16081SI     SI116081   4.396   2.208   9.316  0.0000  0.0000  0.0000
16082SI     SI116082   3.518   1.396   9.504  0.0000  0.0000  0.0000
16083SI     SI116083   4.886   3.674   8.286  0.0000  0.0000  0.0000
16084SI     SI116084   3.224   6.271   0.010  0.0000  0.0000  0.0000
16085SI     SI116085   9.160   7.118   0.633  0.0000  0.0000  0.0000
16086SI     SI116086   1.382   6.749   8.240  0.0000  0.0000  0.0000
16087SI     SI116087   6.112   4.334   8.788  0.0000  0.0000  0.0000
16088SI     SI116088   5.874   8.871   9.552  0.0000  0.0000  0.0000
16089SI     SI116089   7.269   9.310   0.437  0.0000  0.0000  0.0000
16090SI     SI116090   4.101   7.158   1.025  0.0000  0.0000  0.0000
16091SI     SI116091   1.386   1.678   8.652  0.0000  0.0000  0.0000
16092SI     SI116092   7.768   6.578   0.631  0.0000  0.0000  0.0000
16093SI     SI116093   8.094   2.922   0.009  0.0000  0.0000  0.0000
16094SI     SI116094   2.382   2.266   8.671  0.0000  0.0000  0.0000
16095SI     SI116095   6.799   8.539   0.708  0.0000  0.0000  0.0000
16096SI     SI116096   8.504   6.475   8.824  0.0000  0.0000  0.0000
16097SI     SI116097   5.864   3.515   0.837  0.0000  0.0000  0.0000
16098SI     SI116098   3.321   4.471   1.004  0.0000  0.0000  0.0000
16099SI     SI116099   7.932   4.453   0.992  0.0000  0.0000  0.0000
16100SI     SI116100   1.749   5.727   9.291  0.0000  0.0000  0.0000
16101SI     SI116101   3.711   5.822   8.864  0.0000  0.0000  0.0000
16102SI     SI116102   0.131   5.769   0.028  0.0000  0.0000  0.0000
16103SI     SI116103   5.937   3.269   8.590  0.0000  0.0000  0.0000
16104SI     SI116104   4.550   9.594   8.555  0.0000  0.0000  0.0000
16105SI     SI116105   3.880   5.447   8.981  0.0000  0.0000  0.0000
16106SI     SI116106   8.222   8.624   1.280  0.0000  0.0000  0.0000
16107SI     SI116107   4.640   2.230   0.614  0.0000  0.0000  0.0000
16108SI     SI116108   8.797   9.013   0.392  0.0000  0.0000  0.0000
16109SI     SI116109   1.335   0.778   1.383  0.0000  0.0000  0.0000
16110SI     SI116110   4.474   8.463   8.437  0.0000  0.0000  0.0000
16111SI     SI116111   6.314   2.349   9.238  0.0000  0.0000  0.0000
16112SI     SI116112   5.178   1.499   0.360  0.0000  0.0000  0.0000
16113SI     SI116113   2.532   9.328   9.305  0.0000  0.0000  0.0000
16114SI     SI116114   0.227   7.272   0.836  0.0000  0.0000  0.0000
16115SI     SI116115   3.434   7.461   0.923  0.0000  0.0000  0.0000
16116SI     SI116116   1.217   5.422   0.919  0.0000  0.0000  0.0000
16117SI     SI116117   4.823   4.166   9.248  0.0000  0.0000  0.0000
16118SI     SI116118   4.912   9.563   0.858  0.0000  0.0000  0.0000
16119SI     SI116119   2.004   3.816   0.570  0.0000  0.0000  0.0000
16120SI     SI116120   4.686   9.502   9.062  0.0000  0.0000  0.0000
16121SI     SI116121   0.662   3.479   8.292  0.0000  0.0000  0.0000
16122SI     SI116122   6.159   1.896   0.221  0.0000  0.0000  0.0000
16123SI     SI116123   3.155   5.283   0.213  0.0000  0.0000  0.0000
16124SI     SI116124   3.689   5.258   9.529  0.0000  0.0000  0.0000
16125SI     SI116125   1.646   6.913   8.590  0.0000  0.0000  0.0000
16126SI     SI116126   4.785   3.655   9.263  0.0000  0.0000  0.0000
16127SI     SI116127   5.264   1.746   0.880  0.0000  0.0000  0.0000
16128SI     SI116128   7.086   6.612   8.467  0.0000  0.0000  0.0000
16129SI     SI116129   5.503   2.225   8.320  0.0000  0.0000  0.0000
16130SI     SI116130   4.768   7.738   0.463  0.0000  0.0000  0.0000
16131SI     SI116131   3.829   6.318   9.120  0.0000  0.0000  0.0000
16132SI     SI116132   8.682   3.750   0.973  0.0000  0.0000  0.0000
16133SI     SI116133   3.135   3.370   0.865  0.0000  0.0000  0.0000
16134SI     SI116134   1.083   9.010   0.771  0.0000  0.0000  0.0000
16135SI     SI116135   0.672   4.505   1.085  0.0000  0.0000  0.0000
16136SI     SI116136   4.955   6.430   1.161  0.0000  0.0000  0.0000
16137SI     SI116137   9.447   1.179   0.402  0.0000  0.0000  0.0000
16138SI     SI116138   2.574   4.830   9.578  0.0000  0.0000  0.0000
16139SI     SI116139   0.855   1.437   1.006  0.0000  0.0000  0.0000
16140SI     SI116140   9.286   1.081   0.145  0.0000  0.0000  0.0000
16141SI     SI116141   5.570   3.502   8.729  0.0000  0.0000  0.0000
16142SI     SI116142   7.907   0.594   9.117  0.0000  0.0000  0.0000
16143SI     SI116143   0.786   9.218   8.372  0.0000  0.0000  0.0000
16144SI     SI116144   5.129   6.523   9.305  0.0000  0.0000  0.0000
16145SI     SI116145   3.607   2.882   0.625  0.0000  0.0000  0.0000
16146SI     SI116146   2.901   0.572   0.949  0.0000  0.0000  0.0000
16147SI     SI116147   8.302   9.374   0.819  0.0000  0.0000  0.0000
16148SI     SI116148   0.857   8.809   9.441  0.0000  0.0000  0.0000
16149SI     SI116149   0.523   6.350   1.276  0.0000  0.0000  0.0000
16150SI     SI116150   2.387   0.416   1.073  0.0000  0.0000  0.0000
16151SI     SI116151   4.853   1.649   9.592  0.0000  0.0000  0.0000
16152SI     SI116152   3.132   0.265   1.266  0.0000  0.0000  0.0000
16153SI     SI116153   7.885   8.419   8.685  0.0000  0.0000  0.0000
16154SI     SI116154   8.680   2.512   8.916  0.0000  0.0000  0.0000
16155SI     SI116155   1.099   7.368   8.245  0.0000  0.0000  0.0000
16156SI     SI116156   9.564   1.252   8.868  0.0000  0.0000  0.0000
16157SI     SI116157   6.279   0.850   9.101  0.0000  0.0000  0.0000
16158SI     SI116158   7.220   1.212   0.547  0.0000  0.0000  0.0000
16159SI     SI116159   6.640   8.165   1.045  0.0000  0.0000  0.0000
16160SI     SI116160   7.846   5.066   8.785  0.0000  0.0000  0.0000
16161SI     SI116161   8.665   5.914   1.291  0.0000  0.0000  0.0000
16162SI     SI116162   8.977   7.377   0.863  0.0000  0.0000  0.0000
16163SI     SI116163   9.328   7.254   8.659  0.0000  0.0000  0.0000
16164SI     SI116164   5.390   2.921   9.387  0.0000  0.0000  0.0000
16165SI     SI116165   5.046   4.089   0.865  0.0000  0.0000  0.0000
16166SI     SI116166   3.227   5.456   8.414  0.0000  0.0000  0.0000
16167SI     SI116167   8.291   0.594   8.241  0.0000  0.0000  0.0000
16168SI     SI116168   7.295   2.342   8.828  0.0000  0.0000  0.0000
16169SI     SI116169   7.292   4.955   0.333  0.0000  0.0000  0.0000
16170SI     SI116170   0.528   2.182   0.017  0.0000  0.0000  0.0000
16171SI     SI116171   8.650   3.602   0.476  0.0000  0.0000  0.0000
16172SI     SI116172   5.539   8.982   0.358  0.0000  0.0000  0.0000
16173SI     SI116173   3.449   6.219   0.970  0.0000  0.0000  0.0000
16174SI     SI116174   8.089   5.700   0.506  0.0000  0.0000  0.0000
16175SI     SI116175   5.245   6.936   0.472  0.0000  0.0000  0.0000
16176SI     SI116176   3.561   1.411   8.598  0.0000  0.0000  0.0000
16177SI     SI116177   5.851   7.052   9.073  0.0000  0.0000  0.0000
16178SI     SI116178   3.172   2.663   0.264  0.0000  0.0000  0.0000
16179SI     SI116179   3.145   1.629   0.717  0.0000  0.0000  0.0000
16180SI     SI116180   3.253   3.997   0.071  0.0000  0.0000  0.0000
16181SI     SI116181   8.002   5.694   0.208  0.0000  0.0000  0.0000
16182SI     SI116182   2.704   3.787   1.040  0.0000  0.0000  0.0000
16183SI     SI116183   9.277   7.015   9.133  0.0000  0.0000  0.0000
16184SI     SI116184   3.530   5.031   0.528  0.0000  0.0000  0.0000
16185SI     SI116185   5.874   1.843   1.403  0.0000  0.0000  0.0000
16186SI     SI116186   3.943   4.826   0.767  0.0000  0.0000  0.0000
16187SI     SI116187   1.428   5.176   9.131  0.0000  0.0000  0.0000
16188SI     SI116188   2.409   4.760   0.520  0.0000  0.0000  0.0000
16189SI     SI116189   4.819   3.679   0.417  0.0000  0.0000  0.0000
16190SI     SI116190   3.171   9.288   8.788  0.0000  0.0000  0.0000
16191SI     SI116191   4.275   1.969   8.361  0.0000  0.0000  0.0000
16192SI     SI116192   3.364   7.495   8.500  0.0000  0.0000  0.0000
16193SI     SI116193   6.859   0.682   9.501  0.0000  0.0000  0.0000
16194SI     SI116194   1.644   6.247   8.721  0.0000  0.0000  0.0000
16195SI     SI116195   1.036   3.204   9.498  0.0000  0.0000  0.0000
16196SI     SI116196   1.489   2.061   0.109  0.0000  0.0000  0.0000
16197SI     SI116197   4.128   9.476   1.205  0.0000  0.0000  0.0000
16198SI     SI116198   7.892   8.186   8.492  0.0000  0.0000  0.0000
16199SI     SI116199   0.750   8.710   9.162  0.0000  0.0000  0.0000
16200SI     SI116200   9.316   0.284   8.402  0.0000  0.0000  0.0000
16201SI     SI116201   3.977   6.069   9.186  0.0000  0.0000  0.0000
16202SI     SI116202   5.566   9.239   9.485  0.0000  0.0000  0.0000
16203SI     SI116203   7.211   9.511   9.089  0.0000  0.0000  0.0000
16204SI     SI116204   2.366   8.101   8.605  0.0000  0.0000  0.0000
16205SI     SI116205   8.768   4.023   0.872  0.0000  0.0000  0.0000
16206SI     SI116206   6.230   6.048   8.865  0.0000  0.0000  0.0000
16207SI     SI116207   6.816   9.272   0.802  0.0000  0.0000  0.0000
16208SI     SI116208   7.008   3.773   8.549  0.0000  0.0000  0.0000
16209SI     SI116209   3.124   3.879   8.408  0.0000  0.0000  0.0000
16210SI     SI116210   6.975   4.345   0.261  0.0000  0.0000  0.0000
16211SI     SI116211   4.684   0.526   1.218  0.0000  0.0000  0.0000
16212SI     SI116212   7.458   6.400   8.977  0.0000  0.0000  0.0000
16213SI     SI116213   8.252   6.161   1.272  0.0000  0.0000  0.0000
16214SI     SI116214   3.155   9.584   1.132  0.0000  0.0000  0.0000
16215SI     SI116215   6.970   6.509   0.553  0.0000  0.0000  0.0000
16216SI     SI116216   9.430   4.190   1.424  0.0000  0.0000  0.0000
16217SI     SI116217   2.748   7.353   0.844  0.0000  0.0000  0.0000
16218SI     SI116218   9.401   6.888   9.380  0.0000  0.0000  0.0000
16219SI     SI116219   4.850   7.268   9.414  0.0000  0.0000  0.0000
16220SI     SI116220   4.807   6.975   0.209  0.0000  0.0000  0.0000
16221SI     SI116221   9.053   1.415   8.740  0.0000  0.0000  0.0000
16222SI     SI116222   6.027   3.729   0.976  0.0000  0.0000  0.0000
16223SI     SI116223   1.276   1.097   0.221  0.0000  0.0000  0.0000
16224SI     SI116224   1.028   2.025   1.033  0.0000  0.0000  0.0000
16225SI     SI116225   9.309   5.566   8.624  0.0000  0.0000  0.0000
16226SI     SI116226   7.592   5.092   0.865  0.0000  0.0000  0.0000
16227SI     SI116227   3.404   2.855   8.275  0.0000  0.0000  0.0000
16228SI     SI116228   2.438   6.006   1.112  0.0000  0.0000  0.0000
16229SI     SI116229   2.200   0.151   9.314  0.0000  0.0000  0.0000
16230SI     SI116230   8.979   3.128   0.772  0.0000  0.0000  0.0000
16231SI     SI116231   8.932   9.394   0.156  0.0000  0.0000  0.0000
16232SI     SI116232   7.603   4.176   0.534  0.0000  0.0000  0.0000
16233SI     SI116233   1.774   6.872   9.541  0.0000  0.0000  0.0000
16234SI     SI116234   8.891   4.214   1.083  0.0000  0.0000  0.0000
16235SI     SI116235   9.506   7.511   8.673  0.0000  0.0000  0.0000
16236SI     SI116236   4.404   0.172   1.119  0.0000  0.0000  0.0000
16237SI     SI116237   5.282   8.458   9.225  0.0000  0.0000  0.0000
16238SI     SI116238   9.099   7.195   0.341  0.0000  0.0000  0.0000
16239SI     SI116239   6.268   8.060   8.479  0.0000  0.0000  0.0000
16240SI     SI116240   8.887   3.277   9.244  0.0000  0.0000  0.0000
16241SI     SI116241   5.242   2.234   0.343  0.0000  0.0000  0.0000
16242SI     SI116242   7.269   3.120   8.384  0.0000  0.0000  0.0000
16243SI     SI116243   6.294   4.614   9.144  0.0000  0.0000  0.0000
16244SI     SI116244   4.541   3.510   0.190  0.0000  0.0000  0.0000
16245SI     SI116245   7.780   6.802   8.298  0.0000  0.0000  0.0000
16246SI     SI116246   1.426   1.761   1.126  0.0000  0.0000  0.0000
16247SI     SI116247   0.116   3.073   8.588  0.0000  0.0000  0.0000
16248SI     SI116248   0.171   8.877   0.104  0.0000  0.0000  0.0000
16249SI     SI116249   6.877   2.358   9.162  0.0000  0.0000  0.0000
16250SI     SI116250   3.677   6.637   8.320  0.0000  0.0000  0.0000
16251SI     SI116251   6.948   4.409   0.561  0.0000  0.0000  0.0000
16252SI     SI116252   5.222   5.101   8.387  0.0000  0.0000  0.0000
16253SI     SI116253   3.696   6.992   8.721  0.0000  0.0000  0.0000
16254SI     SI116254   2.420   8.796   9.299  0.0000  0.0000  0.0000
16255SI     SI116255   8.655   2.641   0.735  0.0000  0.0000  0.0000
16256SI     SI116256   2.886   5.817   0.435  0.0000  0.0000  0.0000
16257SI     SI116257   6.141   0.783   8.693  0.0000  0.0000  0.0000
16258SI     SI116258   8.420   1.310   0.990  0.0000  0.0000  0.0000
16259SI     SI116259   5.072   4.839   8.812  0.0000  0.0000  0.0000
16260SI     SI116260   1.295   2.450   9.233  0.0000  0.0000  0.0000
16261SI     SI116261   8.692   6.574   0.627  0.0000  0.0000  0.0000
16262SI     SI116262   4.816   6.156   0.386  0.0000  0.0000  0.0000
16263SI     SI116263   2.010   7.400   9.177  0.0000  0.0000  0.0000
16264SI     SI116264   3.806   5.896   8.577  0.0000  0.0000  0.0000
16265SI     SI116265   7.332   9.193   1.094  0.0000  0.0000  0.0000
16266SI     SI116266   2.349   2.493   0.778  0.0000  0.0000  0.0000
16267SI     SI116267   1.375   9.603   0.485  0.0000  0.0000  0.0000
16268SI     SI116268   4.551   5.226   0.307  0.0000  0.0000  0.0000
16269SI     SI116269   0.349   2.744   8.317  0.0000  0.0000  0.0000
16270SI     SI116270   4.371   4.301   8.555  0.0000  0.0000  0.0000
16271SI     SI116271   7.931   1.266   0.627  0.0000  0.0000  0.0000
16272SI     SI116272   4.282   4.313   0.054  0.0000  0.0000  0.0000
16273SI     SI116273   6.827   4.463   8.990  0.0000  0.0000  0.0000
16274SI     SI116274   3.871   6.473   1.006  0.0000  0.0000  0.0000
16275SI     SI116275   0.614   4.190   9.298  0.0000  0.0000  0.0000
16276SI     SI116276   5.391   6.520   9.465  0.0000  0.0000  0.0000
16277SI     SI116277   2.224   5.234   8.755  0.0000  0.0000  0.0000
16278SI     SI116278   8.472   0.020   0.831  0.0000  0.0000  0.0000
16279SI     SI116279   4.291   6.905   9.269  0.0000  0.0000  0.0000
16280SI     SI116280   7.045   5.103   0.204  0.0000  0.0000  0.0000
16281SI     SI116281   0.774   8.734   1.098  0.0000  0.0000  0.0000
16282SI     SI116282   1.298   0.205   0.989  0.0000  0.0000  0.0000
16283SI     SI116283   9.137   7.539   0.637  0.0000  0.0000  0.0000
16284SI     SI116284   2.432   1.042   9.106  0.0000  0.0000  0.0000
16285SI     SI116285   1.230   2.139   0.548  0.0000  0.0000  0.0000
16286SI     SI116286   1.822   4.198   0.625  0.0000  0.0000  0.0000
16287SI     SI116287   8.303   9.528   0.044  0.0000  0.0000  0.0000
16288SI     SI116288   6.333   1.444   0.616  0.0000  0.0000  0.0000
16289SI     SI116289   4.071   8.518   0.431  0.0000  0.0000  0.0000
16290SI     SI116290   0.916   4.216   0.117  0.0000  0.0000  0.0000
16291SI     SI116291   4.247   6.407   1.298  0.0000  0.0000  0.0000
16292SI     SI116292   7.393   3.030   0.807  0.0000  0.0000  0.0000
16293SI     SI116293   9.553   7.754   1.354  0.0000  0.0000  0.0000
16294SI     SI116294   8.923   8.998   8.763  0.0000  0.0000  0.0000
16295SI     SI116295   3.018   5.695   9.041  0.0000  0.0000  0.0000
16296SI     SI116296   4.842   7.282   8.666  0.0000  0.0000  0.0000
16297SI     SI116297   0.388   8.016   0.278  0.0000  0.0000  0.0000
16298SI     SI116298   5.968   2.702   8.603  0.0000  0.0000  0.0000
16299SI     SI116299   3.166   6.753   8.528  0.0000  0.0000  0.0000
16300SI     SI116300   1.445   2.648   1.112  0.0000  0.0000  0.0000
16301SI     SI116301   1.515   8.092   0.796  0.0000  0.0000  0.0000
16302SI     SI116302   1.802   2.345   0.806  0.0000  0.0000  0.0000
16303SI     SI116303   5.751   2.283   8.488  0.0000  0.0000  0.0000
16304SI     SI116304   0.647   2.275   0.773  0.0000  0.0000  0.0000
16305SI     SI116305   5.595   5.289   1.158  0.0000  0.0000  0.0000
16306SI     SI116306   0.937   4.412   1.220  0.0000  0.0000  0.0000
16307SI     SI116307   2.675   5.107   0.025  0.0000  0.0000  0.0000
16308SI     SI116308   2.219   7.486   0.537  0.0000  0.0000  0.0000
16309SI     SI116309   0.889   8.424   9.160  0.0000  0.0000  0.0000
16310SI     SI116310   8.741   0.560   1.030  0.0000  0.0000  0.0000
16311SI     SI116311   5.872   1.204   8.695  0.0000  0.0000  0.0000
16312SI     SI116312   8.424   8.050   9.044  0.0000  0.0000  0.0000
16313SI     SI116313   5.499   6.624   1.389  0.0000  0.0000  0.0000
16314SI     SI116314   5.572   7.485   9.486  0.0000  0.0000  0.0000
16315SI     SI116315   6.838   1.698   0.547  0.0000  0.0000  0.0000
16316SI     SI116316   8.509   7.471   8.476  0.0000  0.0000  0.0000
16317SI     SI116317   7.772   3.885   0.122  0.0000  0.0000  0.0000
16318SI     SI116318   5.369   0.567   8.837  0.0000  0.0000  0.0000
16319SI     SI116319   7.295   2.536   9.370  0.0000  0.0000  0.0000
16320SI     SI116320   2.454   7.594   8.390  0.0000  0.0000  0.0000
16321SI     SI116321   2.379   2.851   0.101  0.0000  0.0000  0.0000
16322SI     SI116322   0.425   4.873   9.574  0.0000  0.0000  0.0000
16323SI     SI116323   2.682   8.641   0.678  0.0000  0.0000  0.0000
16324SI     SI116324   4.531   2.185   0.324  0.0000  0.0000  0.0000
16325SI     SI116325   1.880   2.152   8.226  0.0000  0.0000  0.0000
16326SI     SI116326   3.784   7.435   8.610  0.0000  0.0000  0.0000
16327SI     SI116327   2.696   7.760   8.774  0.0000  0.0000  0.0000
16328SI     SI116328   0.239   1.910   0.847  0.0000  0.0000  0.0000
16329SI     SI116329   6.271   4.349   9.512  0.0000  0.0000  0.0000
16330SI     SI116330   8.257   7.162   1.071  0.0000  0.0000  0.0000
16331SI     SI116331   9.021   0.992   9.023  0.0000  0.0000  0.0000
16332SI     SI116332   1.301   2.207   8.519  0.0000  0.0000  0.0000
16333SI     SI116333   3.183   4.002   0.466  0.0000  0.0000  0.0000
16334SI     SI116334   9.470   4.731   0.875  0.0000  0.0000  0.0000
16335SI     SI116335   6.589   3.545   0.878  0.0000  0.0000  0.0000
16336SI     SI116336   5.784   5.972   1.085  0.0000  0.0000  0.0000
16337SI     SI116337   5.432   7.021   0.845  0.0000  0.0000  0.0000
16338SI     SI116338   8.831   8.120   0.886  0.0000  0.0000  0.0000
16339SI     SI116339   6.411   0.417   0.914  0.0000  0.0000  0.0000
16340SI     SI116340   0.786   3.439   0.489  0.0000  0.0000  0.0000
16341SI     SI116341   5.567   1.184   8.712  0.0000  0.0000  0.0000
16342SI     SI116342   1.631   3.098   8.225  0.0000  0.0000  0.0000
16343SI     SI116343   1.023   8.649   0.515  0.0000  0.0000  0.0000
16344SI     SI116344   2.134   4.731   0.147  0.0000  0.0000  0.0000
16345SI     SI116345   4.874   1.552   0.848  0.0000  0.0000  0.0000
16346SI     SI116346   3.775   5.882   0.422  0.0000  0.0000  0.0000
16347SI     SI116347   6.393   1.165   1.258  0.0000  0.0000  0.0000
16348SI     SI116348   4.590   0.716   8.438  0.0000  0.0000  0.0000
16349SI     SI116349   3.533   0.660   0.434  0.0000  0.0000  0.0000
16350SI     SI116350   1.834   6.647   0.138  0.0000  0.0000  0.0000
16351SI     SI116351   7.967   2.314   9.150  0.0000  0.0000  0.0000
16352SI     SI116352   8.193   6.967   0.861  0.0000  0.0000  0.0000
16353SI     SI116353   3.003   5.601   0.864  0.0000  0.0000  0.0000
16354SI     SI116354   5.254   5.920   8.420  0.0000  0.0000  0.0000
16355SI     SI116355   3.864   8.789   8.665  0.0000  0.0000  0.0000
16356SI     SI116356   3.830   2.127   0.265  0.0000  0.0000  0.0000
16357SI     SI116357   8.432   6.926   0.302  0.0000  0.0000  0.0000
16358SI     SI116358   7.347   8.437   0.177  0.0000  0.0000  0.0000
16359SI     SI116359   2.866   1.657   8.538  0.0000  0.0000  0.0000
16360SI     SI116360   6.890   3.652   9.442  0.0000  0.0000  0.0000
16361SI     SI116361   8.697   6.068   1.013  0.0000  0.0000  0.0000
16362SI     SI116362   6.477   5.955   9.231  0.0000  0.0000  0.0000
16363SI     SI116363   8.611   5.355   1.307  0.0000  0.0000  0.0000
16364SI     SI116364   6.834   1.480   0.768  0.0000  0.0000  0.0000
16365SI     SI116365   0.240   6.230   1.317  0.0000  0.0000  0.0000
16366SI     SI116366   9.379   3.771   9.575  0.0000  0.0000  0.0000
16367SI     SI116367   7.077   8.400   8.551  0.0000  0.0000  0.0000
16368SI     SI116368   8.612   5.119   0.785  0.0000  0.0000  0.0000
16369SI     SI116369   4.296   9.485   8.420  0.0000  0.0000  0.0000
16370SI     SI116370   4.582   5.111   9.389  0.0000  0.0000  0.0000
16371SI     SI116371   6.300   7.187   8.999  0.0000  0.0000  0.0000
16372SI     SI116372   2.901   5.441   1.118  0.0000  0.0000  0.0000
16373SI     SI116373   6.504   1.932   1.316  0.0000  0.0000  0.0000
16374SI     SI116374   3.059   1.480   0.325  0.0000  0.0000  0.0000
16375SI     SI116375   2.272   2.673   8.948  0.0000  0.0000  0.0000
16376SI     SI116376   5.069   8.767   0.567  0.0000  0.0000  0.0000
16377SI     SI116377   2.919   5.199   9.448  0.0000  0.0000  0.0000
16378SI     SI116378   2.460   3.023   0.783  0.0000  0.0000  0.0000
16379SI     SI116379   5.674   7.953   9.540  0.0000  0.0000  0.0000
16380SI     SI116380   0.165   0.304   0.315  0.0000  0.0000  0.0000
16381SI     SI116381   3.862   9.541   0.814  0.0000  0.0000  0.0000
16382SI     SI116382   4.178   0.366   0.742  0.0000  0.0000  0.0000
16383SI     SI116383   8.225   7.040   8.235  0.0000  0.0000  0.0000
16384SI     SI116384   6.248   6.289   1.042  0.0000  0.0000  0.0000
16385SI     SI116385   4.285   1.895   0.603  0.0000  0.0000  0.0000
16386SI     SI116386   2.854   7.492   0.507  0.0000  0.0000  0.0000
16387SI     SI116387   4.825   9.486   8.484  0.0000  0.0000  0.0000
16388SI     SI116388   2.411   1.862   0.640  0.0000  0.0000  0.0000
16389SI     SI116389   8.605   1.306   0.565  0.0000  0.0000  0.0000
16390SI     SI116390   6.608   9.114   0.369  0.0000  0.0000  0.0000
16391SI     SI116391   1.450   3.224   8.657  0.0000  0.0000  0.0000
16392SI     SI116392   5.674   6.136   0.873  0.0000  0.0000  0.0000
16393SI     SI116393   0.358   9.191   8.754  0.0000  0.0000  0.0000
16394SI     SI116394   4.172   6.318   8.604  0.0000  0.0000  0.0000
16395SI     SI116395   5.465   3.958   0.286  0.0000  0.0000  0.0000
16396SI     SI116396   7.079   4.682   8.673  0.0000  0.0000  0.0000
16397SI     SI116397   4.151   4.480   8.245  0.0000  0.0000  0.0000
16398SI     SI116398   4.728   5.109   8.448  0.0000  0.0000  0.0000
16399SI     SI116399   9.544   0.155   0.895  0.0000  0.0000  0.0000
16400SI     SI116400   1.881   4.768   0.604  0.0000  0.0000  0.0000
16401SI     SI116401   2.454   3.322   8.631  0.0000  0.0000  0.0000
16402SI     SI116402   2.811   3.735   0.256  0.0000  0.0000  0.0000
16403SI     SI116403   7.080   7.575   0.780  0.0000  0.0000  0.0000
16404SI     SI116404   1.075   8.597   8.567  0.0000  0.0000  0.0000
16405SI     SI116405   3.887   7.150   9.331  0.0000  0.0000  0.0000
16406SI     SI116406   1.840   6.801   0.408  0.0000  0.0000  0.0000
16407SI     SI116407   2.489   4.617   8.773  0.0000  0.0000  0.0000
16408SI     SI116408   0.633   7.258   9.431  0.0000  0.0000  0.0000
16409SI     SI116409   5.533   1.164   9.472  0.0000  0.0000  0.0000
16410SI     SI116410   6.933   6.968   0.157  0.0000  0.0000  0.0000
16411SI     SI116411   5.832   3.259   9.442  0.0000  0.0000  0.0000
16412SI     SI116412   7.317   1.144   8.511  0.0000  0.0000  0.0000
16413SI     SI116413   2.922   1.510   1.133  0.0000  0.0000  0.0000
16414SI     SI116414   7.485   2.027   0.237  0.0000  0.0000  0.0000
16415SI     SI116415   6.864   5.204   8.433  0.0000  0.0000  0.0000
16416SI     SI116416   2.252   8.096   9.298  0.0000  0.0000  0.0000
16417SI     SI116417   3.510   8.955   0.303  0.0000  0.0000  0.0000
16418SI     SI116418   6.781   0.525   0.597  0.0000  0.0000  0.0000
16419SI     SI116419   6.979   6.083   8.845  0.0000  0.0000  0.0000
16420SI     SI116420   8.676   6.842   9.086  0.0000  0.0000  0.0000
16421SI     SI116421   8.223   5.448   8.751  0.0000  0.0000  0.0000
16422SI     SI116422   3.615   6.714   8.613  0.0000  0.0000  0.0000
16423SI     SI116423   2.852   8.007   8.676  0.0000  0.0000  0.0000
16424SI     SI116424   7.220   7.346   8.699  0.0000  0.0000  0.0000
16425SI     SI116425   8.207   8.928   1.330  0.0000  0.0000  0.0000
16426SI     SI116426   8.416   5.361   0.802  0.0000  0.0000  0.0000
16427SI     SI116427   8.458   2.819   9.213  0.0000  0.0000  0.0000
16428SI     SI116428   5.218   8.974   8.335  0.0000  0.0000  0.0000
16429SI     SI116429   4.769   4.444   8.842  0.0000  0.0000  0.0000
16430SI     SI116430   8.381   8.041   9.343  0.0000  0.0000  0.0000
16431SI     SI116431   5.136   4.405   1.148  0.0000  0.0000  0.0000
16432SI     SI116432   0.116   3.115   8.901  0.0000  0.0000  0.0000
16433SI     SI116433   6.905   3.567   0.876  0.0000  0.0000  0.0000
16434SI     SI116434   1.526   1.837   8.256  0.0000  0.0000  0.0000
16435SI     SI116435   6.413   3.360   8.672  0.0000  0.0000  0.0000
16436SI     SI116436   3.354   8.802   0.688  0.0000  0.0000  0.0000
16437SI     SI116437   2.823   6.197   8.759  0.0000  0.0000  0.0000
16438SI     SI116438   4.057   7.659   9.200  0.0000  0.0000  0.0000
16439SI     SI116439   6.606   9.088   0.924  0.0000  0.0000  0.0000
16440SI     SI116440   5.031   5.087   0.116  0.0000  0.0000  0.0000
16441SI     SI116441   2.444   0.920   9.599  0.0000  0.0000  0.0000
16442SI     SI116442   1.727   1.469   9.066  0.0000  0.0000  0.0000
16443SI     SI116443   8.096   3.884   0.539  0.0000  0.0000  0.0000
16444SI     SI116444   7.138   4.271   0.729  0.0000  0.0000  0.0000
16445SI     SI116445   7.758   6.777   1.041  0.0000  0.0000  0.0000
16446SI     SI116446   0.176   2.235   8.997  0.0000  0.0000  0.0000
16447SI     SI116447   4.236   7.829   0.583  0.0000  0.0000  0.0000
16448SI     SI116448   2.359   8.507   9.386  0.0000  0.0000  0.0000
16449SI     SI116449   6.307   0.181   9.156  0.0000  0.0000  0.0000
16450SI     SI116450   2.566   5.318   0.187  0.0000  0.0000  0.0000
16451SI     SI116451   0.404   8.913   0.853  0.0000  0.0000  0.0000
16452SI     SI116452   2.474   0.725   8.451  0.0000  0.0000  0.0000
16453SI     SI116453   3.036   8.147   1.222  0.0000  0.0000  0.0000
16454SI     SI116454   2.748   4.925   9.135  0.0000  0.0000  0.0000
16455SI     SI116455   1.056   2.243   0.318  0.0000  0.0000  0.0000
16456SI     SI116456   4.930   8.125   9.213  0.0000  0.0000  0.0000
16457SI     SI116457   2.933   2.997   9.267  0.0000  0.0000  0.0000
16458SI     SI116458   4.224   8.639   0.908  0.0000  0.0000  0.0000
16459SI     SI116459   5.265   6.510   0.852  0.0000  0.0000  0.0000
16460SI     SI116460   8.958   1.123   8.750  0.0000  0.0000  0.0000
16461SI     SI116461   8.020   5.826   9.378  0.0000  0.0000  0.0000
16462SI     SI116462   8.094   0.735   0.808  0.0000  0.0000  0.0000
16463SI     SI116463   8.534   3.577   8.399  0.0000  0.0000  0.0000
16464SI     SI116464   9.464   0.083   9.588  0.0000  0.0000  0.0000
16465SI     SI116465   0.844   1.672   8.844  0.0000  0.0000  0.0000
16466SI     SI116466   7.764   8.150   0.111  0.0000  0.0000  0.0000
16467SI     SI116467   7.736   5.162   9.074  0.0000  0.0000  0.0000
16468SI     SI116468   5.608   2.720   0.225  0.0000  0.0000  0.0000
16469SI     SI116469   5.575   8.236   8.448  0.0000  0.0000  0.0000
16470SI     SI116470   6.132   1.870   9.248  0.0000  0.0000  0.0000
16471SI     SI116471   0.856   0.389   9.550  0.0000  0.0000  0.0000
16472SI     SI116472   4.390   8.829   0.562  0.0000  0.0000  0.0000
16473SI     SI116473   2.138   6.734   1.143  0.0000  0.0000  0.0000
16474SI     SI116474   2.793   9.605   0.085  0.0000  0.0000  0.0000
16475SI     SI116475   4.904   5.360   8.789  0.0000  0.0000  0.0000
16476SI     SI116476   6.839   2.211   0.031  0.0000  0.0000  0.0000
16477SI     SI116477   7.782   5.212   0.167  0.0000  0.0000  0.0000
16478SI     SI116478   1.385   4.950   8.926  0.0000  0.0000  0.0000
16479SI     SI116479   8.324   4.095   0.541  0.0000  0.0000  0.0000
16480SI     SI116480   8.963   8.283   0.202  0.0000  0.0000  0.0000
16481SI     SI116481   8.582   6.429   8.516  0.0000  0.0000  0.0000
16482SI     SI116482   0.716   4.476   0.785  0.0000  0.0000  0.0000
16483SI     SI116483   6.188   3.734   1.416  0.0000  0.0000  0.0000
16484SI     SI116484   7.846   4.199   8.202  0.0000  0.0000  0.0000
16485SI     SI116485   6.612   7.498   8.932  0.0000  0.0000  0.0000
16486SI     SI116486   7.118   7.060   9.527  0.0000  0.0000  0.0000
16487SI     SI116487   8.921   3.904   0.112  0.0000  0.0000  0.0000
16488SI     SI116488   8.367   7.669   0.857  0.0000  0.0000  0.0000
16489SI     SI116489   3.739   4.724   9.389  0.0000  0.0000  0.0000
16490SI     SI116490   5.363   6.873   0.180  0.0000  0.0000  0.0000
16491SI     SI116491   5.902   0.002   0.114  0.0000  0.0000  0.0000
16492SI     SI116492   3.272   4.886   0.450  0.0000  0.0000  0.0000
16493SI     SI116493   5.871   6.580   8.532  0.0000  0.0000  0.0000
16494SI     SI116494   2.789   1.755   1.022  0.0000  0.0000  0.0000
16495SI     SI116495   7.190   4.922   0.629  0.0000  0.0000  0.0000
16496SI     SI116496   9.023   1.329   1.075  0.0000  0.0000  0.0000
16497SI     SI116497   4.471   6.052   0.594  0.0000  0.0000  0.0000
16498SI     SI116498   7.833   7.516   1.065  0.0000  0.0000  0.0000
16499SI     SI116499   6.348   6.855   0.655  0.0000  0.0000  0.0000
16500SI     SI116500   8.665   2.146   8.623  0.0000  0.0000  0.0000
16501SI     SI116501   7.591   9.576   9.413  0.0000  0.0000  0.0000
16502SI     SI116502   5.514   6.995   1.140  0.0000  0.0000  0.0000
16503SI     SI116503   6.078   5.379   1.205  0.0000  0.0000  0.0000
16504SI     SI116504   0.332   8.318   8.592  0.0000  0.0000  0.0000
16505SI     SI116505   7.456   3.765   1.188  0.0000  0.0000  0.0000
16506SI     SI116506   2.047   5.427   0.685  0.0000  0.0000  0.0000
16507SI     SI116507   6.280   8.777   0.341  0.0000  0.0000  0.0000
16508SI     SI116508   7.421   5.340   1.236  0.0000  0.0000  0.0000
16509SI     SI116509   2.792   8.488   0.930  0.0000  0.0000  0.0000
16510SI     SI116510   5.881   3.929   1.157  0.0000  0.0000  0.0000
16511SI     SI116511   1.659   7.867   0.968  0.0000  0.0000  0.0000
16512SI     SI116512   7.543   0.863   8.871  0.0000  0.0000  0.0000
16513SI     SI116513   0.728   1.781   9.339  0.0000  0.0000  0.0000
16514SI     SI116514   6.644   7.835   0.389  0.0000  0.0000  0.0000
16515SI     SI116515   5.359   7.229   0.487  0.0000  0.0000  0.0000
16516SI     SI116516   3.956   3.754   0.455  0.0000  0.0000  0.0000
16517SI     SI116517   7.643   6.014   1.012  0.0000  0.0000  0.0000
16518SI     SI116518   0.281   3.602   0.118  0.0000  0.0000  0.0000
16519SI     SI116519   4.736   7.344   1.053  0.0000  0.0000  0.0000
16520SI     SI116520   6.103   4.565   9.386  0.0000  0.0000  0.0000
16521SI     SI116521   4.197   4.812   1.096  0.0000  0.0000  0.0000
16522SI     SI116522   5.104   2.545   0.575  0.0000  0.0000  0.0000
16523SI     SI116523   1.050   4.847   9.422  0.0000  0.0000  0.0000
16524SI     SI116524   7.611   7.175   0.154  0.0000  0.0000  0.0000
16525SI     SI116525   6.640   5.425   1.141  0.0000  0.0000  0.0000
16526SI     SI116526   4.580   0.813   0.770  0.0000  0.0000  0.0000
16527SI     SI116527   0.370   0.292   0.718  0.0000  0.0000  0.0000
16528SI     SI116528   0.853   1.394   8.438  0.0000  0.0000  0.0000
16529SI     SI116529   1.352   8.560   9.430  0.0000  0.0000  0.0000
16530SI     SI116530   1.738   6.403   0.979  0.0000  0.0000  0.0000
16531SI     SI116531   9.259   8.492   9.454  0.0000  0.0000  0.0000
16532SI     SI116532   6.001   7.353   0.260  0.0000  0.0000  0.0000
16533SI     SI116533   7.660   7.515   9.468  0.0000  0.0000  0.0000
16534SI     SI116534   2.841   4.381   1.125  0.0000  0.0000  0.0000
16535SI     SI116535   5.729   2.243   8.862  0.0000  0.0000  0.0000
16536SI     SI116536   7.350   6.134   0.084  0.0000  0.0000  0.0000
16537SI     SI116537   6.545   8.497   9.437  0.0000  0.0000  0.0000
16538SI     SI116538   9.257   3.123   8.963  0.0000  0.0000  0.0000
16539SI     SI116539   7.621   9.203   9.079  0.0000  0.0000  0.0000
16540SI     SI116540   9.385   4.447   8.481  0.0000  0.0000  0.0000
16541SI     SI116541   1.013   8.008   8.894  0.0000  0.0000  0.0000
16542SI     SI116542   5.654   2.666   8.161  0.0000  0.0000  0.0000
16543SI     SI116543   6.346   4.021   0.392  0.0000  0.0000  0.0000
16544SI     SI116544   4.471   3.578   0.914  0.0000  0.0000  0.0000
16545SI     SI116545   0.537   1.288   9.103  0.0000  0.0000  0.0000
16546SI     SI116546   0.666   7.505   8.926  0.0000  0.0000  0.0000
16547SI     SI116547   4.991   6.391   0.739  0.0000  0.0000  0.0000
16548SI     SI116548   3.069   2.886   9.518  0.0000  0.0000  0.0000
16549SI     SI116549   5.422   2.276   1.221  0.0000  0.0000  0.0000
16550SI     SI116550   5.269   5.553   0.860  0.0000  0.0000  0.0000
16551SI     SI116551   5.389   8.719   8.382  0.0000  0.0000  0.0000
16552SI     SI116552   8.476   4.453   0.767  0.0000  0.0000  0.0000
16553SI     SI116553   5.177   8.068   9.354  0.0000  0.0000  0.0000
16554SI     SI116554   0.370   2.866   0.455  0.0000  0.0000  0.0000
16555SI     SI116555   4.474   0.100   0.332  0.0000  0.0000  0.0000
16556SI     SI116556   0.738   0.969   8.377  0.0000  0.0000  0.0000
16557SI     SI116557   0.730   1.894   0.413  0.0000  0.0000  0.0000
16558SI     SI116558   7.792   9.577   0.052  0.0000  0.0000  0.0000
16559SI     SI116559   6.533   7.007   0.849  0.0000  0.0000  0.0000
16560SI     SI116560   3.199   7.807   8.779  0.0000  0.0000  0.0000
16561SI     SI116561   1.717   5.779   8.562  0.0000  0.0000  0.0000
16562SI     SI116562   1.662   1.852   0.688  0.0000  0.0000  0.0000
16563SI     SI116563   3.878   5.358   0.656  0.0000  0.0000  0.0000
16564SI     SI116564   6.361   2.657   0.081  0.0000  0.0000  0.0000
16565SI     SI116565   8.736   0.261   0.220  0.0000  0.0000  0.0000
16566SI     SI116566   7.821   5.450   0.884  0.0000  0.0000  0.0000
16567SI     SI116567   5.911   6.224   9.458  0.0000  0.0000  0.0000
16568SI     SI116568   9.017   8.804   0.312  0.0000  0.0000  0.0000
16569SI     SI116569   4.101   7.113   0.215  0.0000  0.0000  0.0000
16570SI     SI116570   4.226   9.327   0.098  0.0000  0.0000  0.0000
16571SI     SI116571   1.633   7.356   9.593  0.0000  0.0000  0.0000
16572SI     SI116572   9.071   2.595   0.618  0.0000  0.0000  0.0000
16573SI     SI116573   8.541   0.767   9.200  0.0000  0.0000  0.0000
16574SI     SI116574   8.484   1.768   0.791  0.0000  0.0000  0.0000
16575SI     SI116575   5.332   7.832   9.293  0.0000  0.0000  0.0000
16576SI     SI116576   9.216   0.606   9.228  0.0000  0.0000  0.0000
16577SI     SI116577   1.782   0.496   8.395  0.0000  0.0000  0.0000
16578SI     SI116578   6.457   1.116   0.950  0.0000  0.0000  0.0000
16579SI     SI116579   2.127   1.356   0.069  0.0000  0.0000  0.0000
16580SI     SI116580   1.436   3.346   0.069  0.0000  0.0000  0.0000
16581SI     SI116581   0.931   7.660   9.355  0.0000  0.0000  0.0000
16582SI     SI116582   8.495   1.304   8.928  0.0000  0.0000  0.0000
16583SI     SI116583   6.790   2.658   1.339  0.0000  0.0000  0.0000
16584SI     SI116584   1.921   0.638   1.081  0.0000  0.0000  0.0000
16585SI     SI116585   0.979   5.423   0.081  0.0000  0.0000  0.0000
16586SI     SI116586   4.804   5.043   0.312  0.0000  0.0000  0.0000
16587SI     SI116587   7.089   5.993   0.168  0.0000  0.0000  0.0000
16588SI     SI116588   5.767   2.502   8.715  0.0000  0.0000  0.0000
16589SI     SI116589   2.027   0.676   9.350  0.0000  0.0000  0.0000
16590SI     SI116590   0.837   8.342   8.662  0.0000  0.0000  0.0000
16591SI     SI116591   8.604   8.554   8.951  0.0000  0.0000  0.0000
16592SI     SI116592   3.341   0.973   9.422  0.0000  0.0000  0.0000
16593SI     SI116593   8.545   3.546   9.091  0.0000  0.0000  0.0000
16594SI     SI116594   7.009   0.040   8.888  0.0000  0.0000  0.0000
16595SI     SI116595   9.597   4.820   0.596  0.0000  0.0000  0.0000
16596SI     SI116596   2.934   0.948   9.189  0.0000  0.0000  0.0000
16597SI     SI116597   2.433   4.708   0.230  0.0000  0.0000  0.0000
16598SI     SI116598   8.286   9.549   0.456  0.0000  0.0000  0.0000
16599SI     SI116599   6.191   8.427   1.381  0.0000  0.0000  0.0000
16600SI     SI116600   4.084   0.581   8.385  0.0000  0.0000  0.0000
16601SI     SI116601   8.869   3.921   8.856  0.0000  0.0000  0.0000
16602SI     SI116602   4.529   9.037   0.389  0.0000  0.0000  0.0000
16603SI     SI116603   7.236   3.779   0.729  0.0000  0.0000  0.0000
16604SI     SI116604   3.119   8.268   9.418  0.0000  0.0000  0.0000
16605SI     SI116605   6.752   6.725   0.239  0.0000  0.0000  0.0000
16606SI     SI116606   5.638   4.087   0.649  0.0000  0.0000  0.0000
16607SI     SI116607   0.588   8.743   8.427  0.0000  0.0000  0.0000
16608SI     SI116608   6.838   9.235   0.507  0.0000  0.0000  0.0000
16609SI     SI116609   8.466   8.575   1.086  0.0000  0.0000  0.0000
16610SI     SI116610   7.098   5.342   8.862  0.0000  0.0000  0.0000
16611SI     SI116611   1.059   6.907   1.284  0.0000  0.0000  0.0000
16612SI     SI116612   4.688   8.548   1.162  0.0000  0.0000  0.0000
16613SI     SI116613   6.687   6.071   9.418  0.0000  0.0000  0.0000
16614SI     SI116614   7.427   4.838   0.823  0.0000  0.0000  0.0000
16615SI     SI116615   5.481   6.331   9.253  0.0000  0.0000  0.0000
16616SI     SI116616   3.922   5.090   8.345  0.0000  0.0000  0.0000
16617SI     SI116617   1.424   4.728   1.380  0.0000  0.0000  0.0000
16618SI     SI116618   1.689   1.026   9.210  0.0000  0.0000  0.0000
16619SI     SI116619   5.518   3.918   8.296  0.0000  0.0000  0.0000
16620SI     SI116620   1.153   5.436   0.327  0.0000  0.0000  0.0000
16621SI     SI116621   2.074   9.036   1.349  0.0000  0.0000  0.0000
16622SI     SI116622   2.804   4.915   0.766  0.0000  0.0000  0.0000
16623SI     SI116623   0.658   0.489   8.336  0.0000  0.0000  0.0000
16624SI     SI116624   2.263   6.128   9.499  0.0000  0.0000  0.0000
16625SI     SI116625   5.543   4.146   0.943  0.0000  0.0000  0.0000
16626SI     SI116626   5.230   0.420   9.080  0.0000  0.0000  0.0000
16627SI     SI116627   7.173   0.480   9.167  0.0000  0.0000  0.0000
16628SI     SI116628   1.467   5.434   0.361  0.0000  0.0000  0.0000
16629SI     SI116629   2.658   4.295   8.217  0.0000  0.0000  0.0000
16630SI     SI116630   0.897   6.634   0.647  0.0000  0.0000  0.0000
16631SI     SI116631   6.956   0.504   0.112  0.0000  0.0000  0.0000
16632SI     SI116632   9.385   4.114   0.978  0.0000  0.0000  0.0000
16633SI     SI116633   5.491   1.476   0.390  0.0000  0.0000  0.0000
16634SI     SI116634   3.804   1.821   0.643  0.0000  0.0000  0.0000
16635SI     SI116635   2.421   3.672   8.942  0.0000  0.0000  0.0000
16636SI     SI116636   7.635   7.001   1.228  0.0000  0.0000  0.0000
16637SI     SI116637   6.338   0.958   0.278  0.0000  0.0000  0.0000
16638SI     SI116638   1.728   1.977   9.104  0.0000  0.0000  0.0000
16639SI     SI116639   8.494   1.625   8.562  0.0000  0.0000  0.0000
16640SI     SI116640   4.588   1.259   0.184  0.0000  0.0000  0.0000
16641SI     SI116641   0.771   1.663   8.548  0.0000  0.0000  0.0000
16642SI     SI116642   7.240   1.472   9.237  0.0000  0.0000  0.0000
16643SI     SI116643   0.906   7.176   8.620  0.0000  0.0000  0.0000
16644SI     SI116644   5.752   5.342   0.387  0.0000  0.0000  0.0000
16645SI     SI116645   0.785   2.157   8.254  0.0000  0.0000  0.0000
16646SI     SI116646   6.695   2.037   8.806  0.0000  0.0000  0.0000
16647SI     SI116647   2.928   3.259   0.456  0.0000  0.0000  0.0000
16648SI     SI116648   5.459   4.480   8.576  0.0000  0.0000  0.0000
16649SI     SI116649   8.637   4.948   9.246  0.0000  0.0000  0.0000
16650SI     SI116650   0.259   7.873   0.701  0.0000  0.0000  0.0000
16651SI     SI116651   8.408   9.554   9.354  0.0000  0.0000  0.0000
16652SI     SI116652   1.494   0.259   0.029  0.0000  0.0000  0.0000
16653SI     SI116653   5.147   2.009   0.505  0.0000  0.0000  0.0000
16654SI     SI116654   7.356   5.861   0.608  0.0000  0.0000  0.0000
16655SI     SI116655   1.352   3.535   0.913  0.0000  0.0000  0.0000
16656SI     SI116656   2.354   9.178   8.486  0.0000  0.0000  0.0000
16657SI     SI116657   3.782   5.557   9.599  0.0000  0.0000  0.0000
16658SI     SI116658   9.033   8.836   9.009  0.0000  0.0000  0.0000
16659SI     SI116659   1.092   7.012   0.226  0.0000  0.0000  0.0000
16660SI     SI116660   7.598   2.017   1.010  0.0000  0.0000  0.0000
16661SI     SI116661   6.593   4.027   0.592  0.0000  0.0000  0.0000
16662SI     SI116662   1.003   3.668   8.955  0.0000  0.0000  0.0000
16663SI     SI116663   3.814   1.001   1.183  0.0000  0.0000  0.0000
16664SI     SI116664   1.990   5.594   8.962  0.0000  0.0000  0.0000
16665SI     SI116665   7.610   8.067   8.478  0.0000  0.0000  0.0000
16666SI     SI116666   5.672   6.151   0.051  0.0000  0.0000  0.0000
16667SI     SI116667   9.163   2.277   1.078  0.0000  0.0000  0.0000
16668SI     SI116668   3.840   6.519   9.537  0.0000  0.0000  0.0000
16669SI     SI116669   6.063   9.156   0.293  0.0000  0.0000  0.0000
16670SI     SI116670   3.347   5.397   0.664  0.0000  0.0000  0.0000
16671SI     SI116671   2.564   2.972   9.081  0.0000  0.0000  0.0000
16672SI     SI116672   0.820   0.249   8.368  0.0000  0.0000  0.0000
16673SI     SI116673   4.345   6.802   0.386  0.0000  0.0000  0.0000
16674SI     SI116674   2.161   6.106   0.569  0.0000  0.0000  0.0000
16675SI     SI116675   3.519   8.766   9.039  0.0000  0.0000  0.0000
16676SI     SI116676   0.823   4.623   8.459  0.0000  0.0000  0.0000
16677SI     SI116677   4.992   6.043   9.054  0.0000  0.0000  0.0000
16678SI     SI116678   1.387   7.233   1.206  0.0000  0.0000  0.0000
16679SI     SI116679   8.191   2.322   8.940  0.0000  0.0000  0.0000
16680SI     SI116680   0.328   6.077   8.383  0.0000  0.0000  0.0000
16681SI     SI116681   0.600   9.053   1.387  0.0000  0.0000  0.0000
16682SI     SI116682   7.176   4.583   9.498  0.0000  0.0000  0.0000
16683SI     SI116683   1.605   1.753   0.432  0.0000  0.0000  0.0000
16684SI     SI116684   3.970   3.664   1.195  0.0000  0.0000  0.0000
16685SI     SI116685   4.328   4.364   9.103  0.0000  0.0000  0.0000
16686SI     SI116686   1.127   9.399   8.617  0.0000  0.0000  0.0000
16687SI     SI116687   5.065   8.690   1.084  0.0000  0.0000  0.0000
16688SI     SI116688   7.286   8.806   9.194  0.0000  0.0000  0.0000
16689SI     SI116689   4.096   6.473   9.127  0.0000  0.0000  0.0000
16690SI     SI116690   5.751   3.129   0.095  0.0000  0.0000  0.0000
16691SI     SI116691   8.336   6.702   0.107  0.0000  0.0000  0.0000
16692SI     SI116692   4.330   3.592   9.149  0.0000  0.0000  0.0000
16693SI     SI116693   0.968   8.003   0.940  0.0000  0.0000  0.0000
16694SI     SI116694   0.518   7.948   0.833  0.0000  0.0000  0.0000
16695SI     SI116695   1.159   4.285   0.510  0.0000  0.0000  0.0000
16696SI     SI116696   2.535   6.215   0.325  0.0000  0.0000  0.0000
16697SI     SI116697   2.797   2.960   8.441  0.0000  0.0000  0.0000
16698SI     SI116698   4.831   2.378   8.740  0.0000  0.0000  0.0000
16699SI     SI116699   6.805   2.939   0.464  0.0000  0.0000  0.0000
16700SI     SI116700   6.084   4.695   0.180  0.0000  0.0000  0.0000
16701SI     SI116701   4.876   5.202   9.471  0.0000  0.0000  0.0000
16702SI     SI116702   1.901   7.060   0.850  0.0000  0.0000  0.0000
16703SI     SI116703   1.530   9.091   9.585  0.0000  0.0000  0.0000
16704SI     SI116704   3.843   4.601   0.055  0.0000  0.0000  0.0000
16705SI     SI116705   5.425   9.134   8.509  0.0000  0.0000  0.0000
16706SI     SI116706   5.130   1.276   0.137  0.0000  0.0000  0.0000
16707SI     SI116707   9.369   6.515   1.206  0.0000  0.0000  0.0000
16708SI     SI116708   8.326   5.484   9.483  0.0000  0.0000  0.0000
16709SI     SI116709   9.497   1.146   9.257  0.0000  0.0000  0.0000
16710SI     SI116710   5.418   8.743   9.270  0.0000  0.0000  0.0000
16711SI     SI116711   3.081   3.706   0.420  0.0000  0.0000  0.0000
16712SI     SI116712   9.091   9.489   8.415  0.0000  0.0000  0.0000
16713SI     SI116713   3.032   2.396   9.297  0.0000  0.0000  0.0000
16714SI     SI116714   7.357   8.584   0.661  0.0000  0.0000  0.0000
16715SI     SI116715   7.833   0.143   0.455  0.0000  0.0000  0.0000
16716SI     SI116716   8.031   3.571   9.200  0.0000  0.0000  0.0000
16717SI     SI116717   7.887   6.944   0.806  0.0000  0.0000  0.0000
16718SI     SI116718   4.201   5.081   0.967  0.0000  0.0000  0.0000
16719SI     SI116719   0.124   5.227   1.238  0.0000  0.0000  0.0000
16720SI     SI116720   5.937   7.012   9.555  0.0000  0.0000  0.0000
16721SI     SI116721   0.670   6.087   0.369  0.0000  0.0000  0.0000
16722SI     SI116722   7.955   8.947   0.620  0.0000  0.0000  0.0000
16723SI     SI116723   6.152   3.867   9.293  0.0000  0.0000  0.0000
16724SI     SI116724   5.205   0.948   8.399  0.0000  0.0000  0.0000
16725SI     SI116725   8.406   4.050   0.034  0.0000  0.0000  0.0000
16726SI     SI116726   3.562   7.740   0.533  0.0000  0.0000  0.0000
16727SI     SI116727   7.657   0.884   0.927  0.0000  0.0000  0.0000
16728SI     SI116728   5.521   4.953   0.642  0.0000  0.0000  0.0000
16729SI     SI116729   7.513   3.144   0.408  0.0000  0.0000  0.0000
16730SI     SI116730   8.389   8.581   9.178  0.0000  0.0000  0.0000
16731SI     SI116731   5.659   3.293   8.914  0.0000  0.0000  0.0000
16732SI     SI116732   4.583   9.218   0.965  0.0000  0.0000  0.0000
16733SI     SI116733   9.540   4.828   8.652  0.0000  0.0000  0.0000
16734SI     SI116734   5.552   1.029   0.944  0.0000  0.0000  0.0000
16735SI     SI116735   7.098   3.295   8.888  0.0000  0.0000  0.0000
16736SI     SI116736   1.548   1.269   0.584  0.0000  0.0000  0.0000
16737SI     SI116737   4.956   4.512   0.694  0.0000  0.0000  0.0000
16738SI     SI116738   4.818   5.089   0.626  0.0000  0.0000  0.0000
16739SI     SI116739   8.383   8.871   8.528  0.0000  0.0000  0.0000
16740SI     SI116740   0.533   1.796   1.280  0.0000  0.0000  0.0000
16741SI     SI116741   6.010   1.210   8.417  0.0000  0.0000  0.0000
16742SI     SI116742   4.024   2.052   0.633  0.0000  0.0000  0.0000
16743SI     SI116743   9.510   8.201   0.128  0.0000  0.0000  0.0000
16744SI     SI116744   7.225   3.031   8.803  0.0000  0.0000  0.0000
16745SI     SI116745   1.861   7.897   9.051  0.0000  0.0000  0.0000
16746SI     SI116746   3.218   2.615   9.440  0.0000  0.0000  0.0000
16747SI     SI116747   1.306   4.014   1.135  0.0000  0.0000  0.0000
16748SI     SI116748   3.190   3.711   1.307  0.0000  0.0000  0.0000
16749SI     SI116749   8.119   8.668   9.268  0.0000  0.0000  0.0000
16750SI     SI116750   8.110   4.267   1.153  0.0000  0.0000  0.0000
16751SI     SI116751   7.913   2.543   0.580  0.0000  0.0000  0.0000
16752SI     SI116752   9.104   8.753   9.453  0.0000  0.0000  0.0000
16753SI     SI116753   3.975   4.848   1.288  0.0000  0.0000  0.0000
16754SI     SI116754   5.372   2.855   8.715  0.0000  0.0000  0.0000
16755SI     SI116755   1.505   5.405   8.936  0.0000  0.0000  0.0000
16756SI     SI116756   2.613   9.423   0.673  0.0000  0.0000  0.0000
16757SI     SI116757   7.631   6.276   8.760  0.0000  0.0000  0.0000
16758SI     SI116758   9.009   0.069   0.763  0.0000  0.0000  0.0000
16759SI     SI116759   1.997   6.156   8.374  0.0000  0.0000  0.0000
16760SI     SI116760   6.260   2.105   9.410  0.0000  0.0000  0.0000
16761SI     SI116761   7.776   3.269   0.278  0.0000  0.0000  0.0000
16762SI     SI116762   5.734   2.774   0.887  0.0000  0.0000  0.0000
16763SI     SI116763   4.098   8.129   0.200  0.0000  0.0000  0.0000
16764SI     SI116764   6.034   3.493   9.523  0.0000  0.0000  0.0000
16765SI     SI116765   1.781   3.191   9.523  0.0000  0.0000  0.0000
16766SI     SI116766   7.559   9.367   1.215  0.0000  0.0000  0.0000
16767SI     SI116767   2.520   1.472   9.391  0.0000  0.0000  0.0000
16768SI     SI116768   2.287   6.762   0.879  0.0000  0.0000  0.0000
16769SI     SI116769   0.991   6.118   0.027  0.0000  0.0000  0.0000
16770SI     SI116770   8.925   8.793   1.322  0.0000  0.0000  0.0000
16771SI     SI116771   9.490   5.088   8.776  0.0000  0.0000  0.0000
16772SI     SI116772   5.965   6.497   9.352  0.0000  0.0000  0.0000
16773SI     SI116773   7.626   8.385   0.243  0.0000  0.0000  0.0000
16774SI     SI116774   8.588   3.076   8.831  0.0000  0.0000  0.0000
16775SI     SI116775   7.259   0.935   1.225  0.0000  0.0000  0.0000
16776SI     SI116776   5.081   7.532   0.239  0.0000  0.0000  0.0000
16777SI     SI116777   2.531   4.410   1.178  0.0000  0.0000  0.0000
16778SI     SI116778   2.189   5.671   1.327  0.0000  0.0000  0.0000
16779SI     SI116779   9.288   6.490   8.612  0.0000  0.0000  0.0000
16780SI     SI116780   4.040   7.131   0.534  0.0000  0.0000  0.0000
16781SI     SI116781   3.628   7.837   9.071  0.0000  0.0000  0.0000
16782SI     SI116782   7.736   8.683   9.354  0.0000  0.0000  0.0000
16783SI     SI116783   9.109   8.210   0.781  0.0000  0.0000  0.0000
16784SI     SI116784   3.301   3.550   9.292  0.0000  0.0000  0.0000
16785SI     SI116785   6.695   2.395   1.211  0.0000  0.0000  0.0000
16786SI     SI116786   3.866   6.238   0.056  0.0000  0.0000  0.0000
16787SI     SI116787   9.598   1.604   9.461  0.0000  0.0000  0.0000
16788SI     SI116788   3.705   4.834   1.138  0.0000  0.0000  0.0000
16789SI     SI116789   2.149   0.668   8.858  0.0000  0.0000  0.0000
16790SI     SI116790   4.617   8.079   8.863  0.0000  0.0000  0.0000
16791SI     SI116791   3.484   5.065   8.616  0.0000  0.0000  0.0000
16792SI     SI116792   8.780   2.653   0.307  0.0000  0.0000  0.0000
16793SI     SI116793   2.256   6.457   1.244  0.0000  0.0000  0.0000
16794SI     SI116794   3.316   9.169   8.401  0.0000  0.0000  0.0000
16795SI     SI116795   5.303   5.029   0.423  0.0000  0.0000  0.0000
16796SI     SI116796   2.383   8.775   0.358  0.0000  0.0000  0.0000
16797SI     SI116797   0.082   6.844   9.382  0.0000  0.0000  0.0000
16798SI     SI116798   1.870   0.928   0.969  0.0000  0.0000  0.0000
16799SI     SI116799   5.636   6.718   0.546  0.0000  0.0000  0.0000
16800SI     SI116800   1.356   3.603   1.208  0.0000  0.0000  0.0000
16801SI     SI116801   7.887   4.569   8.939  0.0000  0.0000  0.0000
16802SI     SI116802   8.536   5.480   8.787  0.0000  0.0000  0.0000
16803SI     SI116803   4.367   7.563   1.242  0.0000  0.0000  0.0000
16804SI     SI116804   1.925   4.389   8.690  0.0000  0.0000  0.0000
16805SI     SI116805   3.108   1.957   9.516  0.0000  0.0000  0.0000
16806SI     SI116806   3.826   5.445   8.671  0.0000  0.0000  0.0000
16807SI     SI116807   9.555   1.860   0.739  0.0000  0.0000  0.0000
16808SI     SI116808   9.350   1.813   0.284  0.0000  0.0000  0.0000
16809SI     SI116809   6.400   7.636   0.038  0.0000  0.0000  0.0000
16810SI     SI116810   7.750   2.496   0.312  0.0000  0.0000  0.0000
16811SI     SI116811   6.387   3.538   0.452  0.0000  0.0000  0.0000
16812SI     SI116812   0.579   0.186   1.121  0.0000  0.0000  0.0000
16813SI     SI116813   7.071   4.498   0.930  0.0000  0.0000  0.0000
16814SI     SI116814   4.834   7.753   9.526  0.0000  0.0000  0.0000
16815SI     SI116815   8.010   9.522   0.596  0.0000  0.0000  0.0000
16816SI     SI116816   6.801   5.693   9.067  0.0000  0.0000  0.0000
16817SI     SI116817   1.446   1.575   9.457  0.0000  0.0000  0.0000
16818SI     SI116818   7.835   4.680   8.428  0.0000  0.0000  0.0000
16819SI     SI116819   8.615   7.028   0.068  0.0000  0.0000  0.0000
16820SI     SI116820   3.017   5.965   8.661  0.0000  0.0000  0.0000
16821SI     SI116821   3.875   7.159   8.546  0.0000  0.0000  0.0000
16822SI     SI116822   4.526   8.438   9.460  0.0000  0.0000  0.0000
16823SI     SI116823   0.908   3.934   0.473  0.0000  0.0000  0.0000
16824SI     SI116824   8.461   7.264   0.861  0.0000  0.0000  0.0000
16825SI     SI116825   1.805   0.310   0.009  0.0000  0.0000  0.0000
16826SI     SI116826   4.867   6.476   8.338  0.0000  0.0000  0.0000
16827SI     SI116827   6.672   3.528   8.918  0.0000  0.0000  0.0000
16828SI     SI116828   5.514   1.290   9.009  0.0000  0.0000  0.0000
16829SI     SI116829   5.311   5.398   0.597  0.0000  0.0000  0.0000
16830SI     SI116830   5.017   6.822   0.791  0.0000  0.0000  0.0000
16831SI     SI116831   5.480   4.747   1.150  0.0000  0.0000  0.0000
16832SI     SI116832   5.232   7.792   0.180  0.0000  0.0000  0.0000
16833SI     SI116833   8.239   1.685   9.146  0.0000  0.0000  0.0000
16834SI     SI116834   2.955   1.234   0.660  0.0000  0.0000  0.0000
16835SI     SI116835   2.879   3.959   8.581  0.0000  0.0000  0.0000
16836SI     SI116836   5.957   0.663   0.991  0.0000  0.0000  0.0000
16837SI     SI116837   4.700   1.451   8.552  0.0000  0.0000  0.0000
16838SI     SI116838   8.688   4.956   1.280  0.0000  0.0000  0.0000
16839SI     SI116839   1.851   5.878   0.095  0.0000  0.0000  0.0000
16840SI     SI116840   3.900   5.149   9.322  0.0000  0.0000  0.0000
16841SI     SI116841   9.169   0.808   9.449  0.0000  0.0000  0.0000
16842SI     SI116842   1.300   7.534   0.331  0.0000  0.0000  0.0000
16843SI     SI116843   6.475   0.159   8.897  0.0000  0.0000  0.0000
16844SI     SI116844   7.243   0.511   8.863  0.0000  0.0000  0.0000
16845SI     SI116845   9.473   4.776   9.080  0.0000  0.0000  0.0000
16846SI     SI116846   1.685   6.373   0.194  0.0000  0.0000  0.0000
16847SI     SI116847   4.767   4.149   8.415  0.0000  0.0000  0.0000
16848SI     SI116848   7.029   7.862   8.506  0.0000  0.0000  0.0000
16849SI     SI116849   6.627   5.243   0.194  0.0000  0.0000  0.0000
16850SI     SI116850   8.369   6.006   9.073  0.0000  0.0000  0.0000
16851SI     SI116851   9.576   6.544   0.607  0.0000  0.0000  0.0000
16852SI     SI116852   6.161   3.636   8.560  0.0000  0.0000  0.0000
16853SI     SI116853   4.548   5.464   0.098  0.0000  0.0000  0.0000
16854SI     SI116854   8.166   8.335   0.878  0.0000  0.0000  0.0000
16855SI     SI116855   5.350   8.442   8.929  0.0000  0.0000  0.0000
16856SI     SI116856   3.591   8.258   9.354  0.0000  0.0000  0.0000
16857SI     SI116857   5.247   7.525   0.964  0.0000  0.0000  0.0000
16858SI     SI116858   2.699   7.858   0.976  0.0000  0.0000  0.0000
16859SI     SI116859   1.498   1.986   9.429  0.0000  0.0000  0.0000
16860SI     SI116860   2.197   8.960   9.461  0.0000  0.0000  0.0000
16861SI     SI116861   9.281   0.440   0.588  0.0000  0.0000  0.0000
16862SI     SI116862   2.526   9.463   9.596  0.0000  0.0000  0.0000
16863SI     SI116863   4.470   1.353   1.069  0.0000  0.0000  0.0000
16864SI     SI116864   2.643   1.713   9.535  0.0000  0.0000  0.0000
16865SI     SI116865   0.881   7.812   1.182  0.0000  0.0000  0.0000
16866SI     SI116866   7.500   8.696   8.458  0.0000  0.0000  0.0000
16867SI     SI116867   0.454   7.069   8.564  0.0000  0.0000  0.0000
16868SI     SI116868   7.760   9.342   0.977  0.0000  0.0000  0.0000
16869SI     SI116869   3.421   7.725   0.788  0.0000  0.0000  0.0000
16870SI     SI116870   6.542   1.380   0.837  0.0000  0.0000  0.0000
16871SI     SI116871   8.162   1.397   9.094  0.0000  0.0000  0.0000
16872SI     SI116872   7.531   6.274   9.256  0.0000  0.0000  0.0000
16873SI     SI116873   0.746   2.702   8.872  0.0000  0.0000  0.0000
16874SI     SI116874   3.850   8.299   9.176  0.0000  0.0000  0.0000
16875SI     SI116875   2.319   8.206   0.453  0.0000  0.0000  0.0000
16876SI     SI116876   7.751   7.329   9.237  0.0000  0.0000  0.0000
16877SI     SI116877   0.651   5.766   8.668  0.0000  0.0000  0.0000
16878SI     SI116878   0.991   8.441   0.067  0.0000  0.0000  0.0000
16879SI     SI116879   8.193   8.203   8.608  0.0000  0.0000  0.0000
16880SI     SI116880   6.804   3.241   0.506  0.0000  0.0000  0.0000
16881SI     SI116881   5.689   5.795   0.472  0.0000  0.0000  0.0000
16882SI     SI116882   1.485   1.483   0.136  0.0000  0.0000  0.0000
16883SI     SI116883   5.579   7.204   8.397  0.0000  0.0000  0.0000
16884SI     SI116884   3.356   5.238   8.830  0.0000  0.0000  0.0000
16885SI     SI116885   8.770   2.194   0.672  0.0000  0.0000  0.0000
16886SI     SI116886   0.984   5.289   0.536  0.0000  0.0000  0.0000
16887SI     SI116887   0.680   7.031   8.765  0.0000  0.0000  0.0000
16888SI     SI116888   7.043   1.450   8.651  0.0000  0.0000  0.0000
16889SI     SI116889   0.602   5.931   9.058  0.0000  0.0000  0.0000
16890SI     SI116890   4.909   9.011   8.411  0.0000  0.0000  0.0000
16891SI     SI116891   6.580   3.452   0.062  0.0000  0.0000  0.0000
16892SI     SI116892   8.858   7.808   0.328  0.0000  0.0000  0.0000
16893SI     SI116893   1.374   6.869   0.907  0.0000  0.0000  0.0000
16894SI     SI116894   1.906   8.849   9.481  0.0000  0.0000  0.0000
16895SI     SI116895   4.016   2.683   9.219  0.0000  0.0000  0.0000
16896SI     SI116896   3.095   8.637   8.362  0.0000  0.0000  0.0000
16897SI     SI116897   6.211   3.758   8.845  0.0000  0.0000  0.0000
16898SI     SI116898   6.977   5.080   9.324  0.0000  0.0000  0.0000
16899SI     SI116899   1.314   2.878   1.286  0.0000  0.0000  0.0000
16900SI     SI116900   4.563   7.896   9.565  0.0000  0.0000  0.0000
16901SI     SI116901   8.071   8.954   8.971  0.0000  0.0000  0.0000
16902SI     SI116902   2.437   1.872   0.323  0.0000  0.0000  0.0000
16903SI     SI116903   2.126   0.200   8.823  0.0000  0.0000  0.0000
16904SI     SI116904   5.343   4.797   0.232  0.0000  0.0000  0.0000
16905SI     SI116905   6.606   1.888   8.560  0.0000  0.0000  0.0000
16906SI     SI116906   0.901   6.828   0.079  0.0000  0.0000  0.0000
16907SI     SI116907   3.909   4.091   9.142  0.0000  0.0000  0.0000
16908SI     SI116908   8.534   6.829   0.583  0.0000  0.0000  0.0000
16909SI     SI116909   0.955   2.763   0.249  0.0000  0.0000  0.0000
16910SI     SI116910   9.142   5.783   0.992  0.0000  0.0000  0.0000
16911SI     SI116911   6.319   1.681   1.285  0.0000  0.0000  0.0000
16912SI     SI116912   4.466   3.005   8.849  0.0000  0.0000  0.0000
16913SI     SI116913   3.334   7.728   0.155  0.0000  0.0000  0.0000
16914SI     SI116914   2.899   2.644   8.841  0.0000  0.0000  0.0000
16915SI     SI116915   7.806   8.565   0.869  0.0000  0.0000  0.0000
16916SI     SI116916   2.428   3.700   1.177  0.0000  0.0000  0.0000
16917SI     SI116917   5.342   4.821   0.873  0.0000  0.0000  0.0000
16918SI     SI116918   7.428   2.011   0.738  0.0000  0.0000  0.0000
16919SI     SI116919   7.481   8.082   9.042  0.0000  0.0000  0.0000
16920SI     SI116920   8.220   1.766   0.609  0.0000  0.0000  0.0000
16921SI     SI116921   0.035   9.060   0.682  0.0000  0.0000  0.0000
16922SI     SI116922   5.814   0.349   9.277  0.0000  0.0000  0.0000
16923SI     SI116923   2.317   7.492   0.831  0.0000  0.0000  0.0000
16924SI     SI116924   1.616   9.387   9.172  0.0000  0.0000  0.0000
16925SI     SI116925   7.131   8.825   8.719  0.0000  0.0000  0.0000
16926SI     SI116926   0.111   2.777   0.601  0.0000  0.0000  0.0000
16927SI     SI116927   6.141   5.293   8.759  0.0000  0.0000  0.0000
16928SI     SI116928   4.921   0.220   0.681  0.0000  0.0000  0.0000
16929SI     SI116929   2.124   0.998   0.809  0.0000  0.0000  0.0000
16930SI     SI116930   4.187   4.420   9.383  0.0000  0.0000  0.0000
16931SI     SI116931   7.549   8.140   0.697  0.0000  0.0000  0.0000
16932SI     SI116932   2.116   7.115   8.347  0.0000  0.0000  0.0000
16933SI     SI116933   9.087   5.586   0.060  0.0000  0.0000  0.0000
16934SI     SI116934   3.971   7.526   8.837  0.0000  0.0000  0.0000
16935SI     SI116935   0.576   2.372   0.274  0.0000  0.0000  0.0000
16936SI     SI116936   6.379   2.960   0.096  0.0000  0.0000  0.0000
16937SI     SI116937   1.653   5.067   9.320  0.0000  0.0000  0.0000
16938SI     SI116938   9.047   0.897   0.242  0.0000  0.0000  0.0000
16939SI     SI116939   8.295   2.773   8.834  0.0000  0.0000  0.0000
16940SI     SI116940   9.149   5.366   0.757  0.0000  0.0000  0.0000
16941SI     SI116941   9.508   8.501   0.019  0.0000  0.0000  0.0000
16942SI     SI116942   0.588   3.880   0.921  0.0000  0.0000  0.0000
16943SI     SI116943   8.168   6.672   9.129  0.0000  0.0000  0.0000
16944SI     SI116944   5.052   7.053   8.385  0.0000  0.0000  0.0000
16945SI     SI116945   2.566   8.286   1.028  0.0000  0.0000  0.0000
16946SI     SI116946   0.723   1.855   9.047  0.0000  0.0000  0.0000
16947SI     SI116947   0.302   7.576   9.605  0.0000  0.0000  0.0000
16948SI     SI116948   5.709   3.088   8.457  0.0000  0.0000  0.0000
16949SI     SI116949   5.006   3.086   8.488  0.0000  0.0000  0.0000
16950SI     SI116950   6.550   2.028   9.366  0.0000  0.0000  0.0000
16951SI     SI116951   6.954   5.479   1.162  0.0000  0.0000  0.0000
16952SI     SI116952   4.370   1.516   8.985  0.0000  0.0000  0.0000
16953SI     SI116953   8.709   5.620   1.193  0.0000  0.0000  0.0000
16954SI     SI116954   2.993   7.743   0.965  0.0000  0.0000  0.0000
16955SI     SI116955   2.385   4.132   1.144  0.0000  0.0000  0.0000
16956SI     SI116956   4.522   7.761   0.665  0.0000  0.0000  0.0000
16957SI     SI116957   1.115   2.392   1.275  0.0000  0.0000  0.0000
16958SI     SI116958   6.589   4.092   8.579  0.0000  0.0000  0.0000
16959SI     SI116959   8.148   2.624   9.546  0.0000  0.0000  0.0000
16960SI     SI116960   7.707   8.843   0.005  0.0000  0.0000  0.0000
16961SI     SI116961   2.696   2.191   0.477  0.0000  0.0000  0.0000
16962SI     SI116962   2.848   4.326   9.379  0.0000  0.0000  0.0000
16963SI     SI116963   1.477   6.906   9.525  0.0000  0.0000  0.0000
16964SI     SI116964   8.941   4.761   0.163  0.0000  0.0000  0.0000
16965SI     SI116965   1.154   1.872   9.044  0.0000  0.0000  0.0000
16966SI     SI116966   7.200   5.819   8.255  0.0000  0.0000  0.0000
16967SI     SI116967   3.330   0.057   0.909  0.0000  0.0000  0.0000
16968SI     SI116968   5.522   8.913   1.321  0.0000  0.0000  0.0000
16969SI     SI116969   0.850   2.948   0.479  0.0000  0.0000  0.0000
16970SI     SI116970   4.615   8.091   1.122  0.0000  0.0000  0.0000
16971SI     SI116971   1.181   7.812   9.278  0.0000  0.0000  0.0000
16972SI     SI116972   4.114   0.165   9.456  0.0000  0.0000  0.0000
16973SI     SI116973   2.040   3.189   0.093  0.0000  0.0000  0.0000
16974SI     SI116974   0.350   9.331   1.031  0.0000  0.0000  0.0000
16975SI     SI116975   3.261   6.755   0.253  0.0000  0.0000  0.0000
16976SI     SI116976   7.919   5.400   1.177  0.0000  0.0000  0.0000
16977SI     SI116977   8.878   0.661   8.615  0.0000  0.0000  0.0000
16978SI     SI116978   0.184   1.864   9.428  0.0000  0.0000  0.0000
16979SI     SI116979   5.243   3.748   9.278  0.0000  0.0000  0.0000
16980SI     SI116980   2.926   6.058   1.008  0.0000  0.0000  0.0000
16981SI     SI116981   1.359   2.252   1.418  0.0000  0.0000  0.0000
16982SI     SI116982   3.706   5.755   9.368  0.0000  0.0000  0.0000
16983SI     SI116983   6.005   0.220   9.079  0.0000  0.0000  0.0000
16984SI     SI116984   4.636   9.344   1.240  0.0000  0.0000  0.0000
16985SI     SI116985   3.380   1.656   8.690  0.0000  0.0000  0.0000
16986SI     SI116986   8.949   3.530   0.564  0.0000  0.0000  0.0000
16987SI     SI116987   2.663   0.971   0.606  0.0000  0.0000  0.0000
16988SI     SI116988   2.989   8.646   9.559  0.0000  0.0000  0.0000
16989SI     SI116989   7.144   3.032   0.991  0.0000  0.0000  0.0000
16990SI     SI116990   3.517   7.435   8.773  0.0000  0.0000  0.0000
16991SI     SI116991   0.818   5.970   8.836  0.0000  0.0000  0.0000
16992SI     SI116992   6.213   4.326   1.333  0.0000  0.0000  0.0000
16993SI     SI116993   5.883   3.005   0.725  0.0000  0.0000  0.0000
16994SI     SI116994   5.984   4.368   0.778  0.0000  0.0000  0.0000
16995SI     SI116995   9.594   2.386   8.809  0.0000  0.0000  0.0000
16996SI     SI116996   8.503   5.043   8.586  0.0000  0.0000  0.0000
16997SI     SI116997   6.126   1.895   8.717  0.0000  0.0000  0.0000
16998SI     SI116998   8.546   4.123   0.312  0.0000  0.0000  0.0000
16999SI     SI116999   6.705   9.218   9.567  0.0000  0.0000  0.0000
17000SI     SI117000   8.042   1.541   0.519  0.0000  0.0000  0.0000
17001SI     SI117001   4.863   8.486   8.816  0.0000  0.0000  0.0000
17002SI     SI117002   1.807   2.380   1.100  0.0000  0.0000  0.0000
17003SI     SI117003   0.082   5.056   0.200  0.0000  0.0000  0.0000
17004SI     SI117004   4.283   5.981   0.821  0.0000  0.0000  0.0000
17005SI     SI117005   2.808   2.180   0.869  0.0000  0.0000  0.0000
17006SI     SI117006   3.494   0.320   8.656  0.0000  0.0000  0.0000
17007SI     SI117007   5.652   9.592   0.773  0.0000  0.0000  0.0000
17008SI     SI117008   9.531   6.079   0.674  0.0000  0.0000  0.0000
17009SI     SI117009   8.911   2.067   9.053  0.0000  0.0000  0.0000
17010SI     SI117010   4.270   1.229   8.911  0.0000  0.0000  0.0000
17011SI     SI117011   3.532   2.266   9.395  0.0000  0.0000  0.0000
17012SI     SI117012   0.525   2.387   8.603  0.0000  0.0000  0.0000
17013SI     SI117013   8.563   2.855   0.382  0.0000  0.0000  0.0000
17014SI     SI117014   2.239   3.105   8.729  0.0000  0.0000  0.0000
17015SI     SI117015   3.194   9.033   9.272  0.0000  0.0000  0.0000
17016SI     SI117016   8.874   8.128   8.782  0.0000  0.0000  0.0000
17017SI     SI117017   1.083   9.576   0.451  0.0000  0.0000  0.0000
17018TPSG   HA217018   0.812   3.302   8.012  0.0000  0.0000  0.0000
17018TPSG   CA217019   0.839   3.210   7.961  0.0000  0.0000  0.0000
17018TPSG   CA117020   0.864   3.091   8.031  0.0000  0.0000  0.0000
17018TPSG    Si17021   0.864   3.091   8.217  0.0000  0.0000  0.0000
17018TPSG   CA617022   0.905   2.977   7.959  0.0000  0.0000  0.0000
17018TPSG   HH617023   0.920   2.881   8.008  0.0000  0.0000  0.0000
17018TPSG   CA517024   0.928   2.984   7.820  0.0000  0.0000  0.0000
17018TPSG   HA517025   0.960   2.897   7.765  0.0000  0.0000  0.0000
17018TPSG   CA417026   0.905   3.105   7.752  0.0000  0.0000  0.0000
17018TPSG   HA417027   0.924   3.111   7.645  0.0000  0.0000  0.0000
17018TPSG   CA317028   0.858   3.217   7.822  0.0000  0.0000  0.0000
17018TPSG   HA317029   0.841   3.310   7.768  0.0000  0.0000  0.0000
17018TPSG    O117030   0.980   3.091   8.101  0.0000  0.0000  0.0000
17018TPSG    H617031   0.980   3.091   8.003  0.0000  0.0000  0.0000
17019TPSG   HA217032   2.245   3.716   1.555  0.0000  0.0000  0.0000
17019TPSG   CA217033   2.272   3.808   1.606  0.0000  0.0000  0.0000
17019TPSG   CA117034   2.297   3.927   1.536  0.0000  0.0000  0.0000
17019TPSG    Si17035   2.297   3.927   1.350  0.0000  0.0000  0.0000
17019TPSG   CA617036   2.338   4.041   1.608  0.0000  0.0000  0.0000
17019TPSG   HH617037   2.353   4.137   1.559  0.0000  0.0000  0.0000
17019TPSG   CA517038   2.361   4.034   1.747  0.0000  0.0000  0.0000
17019TPSG   HA517039   2.393   4.121   1.802  0.0000  0.0000  0.0000
17019TPSG   CA417040   2.338   3.913   1.815  0.0000  0.0000  0.0000
17019TPSG   HA417041   2.357   3.907   1.922  0.0000  0.0000  0.0000
17019TPSG   CA317042   2.291   3.801   1.745  0.0000  0.0000  0.0000
17019TPSG   HA317043   2.274   3.708   1.799  0.0000  0.0000  0.0000
17019TPSG    O117044   2.413   3.927   1.466  0.0000  0.0000  0.0000
17019TPSG    H617045   2.413   3.927   1.564  0.0000  0.0000  0.0000
17020TPSG   HA217046   7.491   6.849   7.978  0.0000  0.0000  0.0000
17020TPSG   CA217047   7.518   6.757   7.927  0.0000  0.0000  0.0000
17020TPSG   CA117048   7.543   6.638   7.997  0.0000  0.0000  0.0000
17020TPSG    Si17049   7.543   6.638   8.183  0.0000  0.0000  0.0000
17020TPSG   CA617050   7.584   6.524   7.925  0.0000  0.0000  0.0000
17020TPSG   HH617051   7.599   6.428   7.974  0.0000  0.0000  0.0000
17020TPSG   CA517052   7.607   6.531   7.786  0.0000  0.0000  0.0000
17020TPSG   HA517053   7.639   6.444   7.731  0.0000  0.0000  0.0000
17020TPSG   CA417054   7.584   6.652   7.718  0.0000  0.0000  0.0000
17020TPSG   HA417055   7.603   6.658   7.611  0.0000  0.0000  0.0000
17020TPSG   CA317056   7.537   6.764   7.788  0.0000  0.0000  0.0000
17020TPSG   HA317057   7.520   6.857   7.734  0.0000  0.0000  0.0000
17020TPSG    O117058   7.659   6.638   8.067  0.0000  0.0000  0.0000
17020TPSG    H617059   7.659   6.638   7.969  0.0000  0.0000  0.0000
17021TPSG   HA217060   6.798   1.799   8.036  0.0000  0.0000  0.0000
17021TPSG   CA217061   6.759   1.712   7.985  0.0000  0.0000  0.0000
17021TPSG   CA117062   6.702   1.604   8.055  0.0000  0.0000  0.0000
17021TPSG    Si17063   6.702   1.604   8.241  0.0000  0.0000  0.0000
17021TPSG   CA617064   6.660   1.490   7.983  0.0000  0.0000  0.0000
17021TPSG   HH617065   6.610   1.407   8.032  0.0000  0.0000  0.0000
17021TPSG   CA517066   6.682   1.482   7.844  0.0000  0.0000  0.0000
17021TPSG   HA517067   6.651   1.393   7.789  0.0000  0.0000  0.0000
17021TPSG   CA417068   6.742   1.588   7.776  0.0000  0.0000  0.0000
17021TPSG   HA417069   6.761   1.581   7.669  0.0000  0.0000  0.0000
17021TPSG   CA317070   6.778   1.704   7.846  0.0000  0.0000  0.0000
17021TPSG   HA317071   6.825   1.787   7.792  0.0000  0.0000  0.0000
17021TPSG    O117072   6.791   1.529   8.125  0.0000  0.0000  0.0000
17021TPSG    H617073   6.791   1.529   8.027  0.0000  0.0000  0.0000
17022TPSG   HA217074   4.315   9.182   1.602  0.0000  0.0000  0.0000
17022TPSG   CA217075   4.342   9.274   1.653  0.0000  0.0000  0.0000
17022TPSG   CA117076   4.367   9.393   1.583  0.0000  0.0000  0.0000
17022TPSG    Si17077   4.367   9.393   1.397  0.0000  0.0000  0.0000
17022TPSG   CA617078   4.408   9.507   1.655  0.0000  0.0000  0.0000
17022TPSG   HH617079   4.423   9.603   1.606  0.0000  0.0000  0.0000
17022TPSG   CA517080   4.431   9.500   1.794  0.0000  0.0000  0.0000
17022TPSG   HA517081   4.463   9.587   1.849  0.0000  0.0000  0.0000
17022TPSG   CA417082   4.408   9.379   1.862  0.0000  0.0000  0.0000
17022TPSG   HA417083   4.427   9.373   1.969  0.0000  0.0000  0.0000
17022TPSG   CA317084   4.361   9.267   1.792  0.0000  0.0000  0.0000
17022TPSG   HA317085   4.344   9.174   1.846  0.0000  0.0000  0.0000
17022TPSG    O117086   4.483   9.393   1.513  0.0000  0.0000  0.0000
17022TPSG    H617087   4.483   9.393   1.611  0.0000  0.0000  0.0000
17023TPSG   HA217088   0.064   7.812   1.574  0.0000  0.0000  0.0000
17023TPSG   CA217089   0.091   7.904   1.625  0.0000  0.0000  0.0000
17023TPSG   CA117090   0.116   8.023   1.555  0.0000  0.0000  0.0000
17023TPSG    Si17091   0.116   8.023   1.369  0.0000  0.0000  0.0000
17023TPSG   CA617092   0.157   8.137   1.627  0.0000  0.0000  0.0000
17023TPSG   HH617093   0.172   8.233   1.578  0.0000  0.0000  0.0000
17023TPSG   CA517094   0.180   8.130   1.766  0.0000  0.0000  0.0000
17023TPSG   HA517095   0.212   8.217   1.821  0.0000  0.0000  0.0000
17023TPSG   CA417096   0.157   8.009   1.834  0.0000  0.0000  0.0000
17023TPSG   HA417097   0.176   8.003   1.941  0.0000  0.0000  0.0000
17023TPSG   CA317098   0.110   7.897   1.764  0.0000  0.0000  0.0000
17023TPSG   HA317099   0.093   7.804   1.818  0.0000  0.0000  0.0000
17023TPSG    O117100   0.232   8.023   1.485  0.0000  0.0000  0.0000
17023TPSG    H617101   0.232   8.023   1.583  0.0000  0.0000  0.0000
17024TPSG   HA217102   3.941   8.428   8.089  0.0000  0.0000  0.0000
17024TPSG   CA217103   3.968   8.336   8.038  0.0000  0.0000  0.0000
17024TPSG   CA117104   3.993   8.217   8.108  0.0000  0.0000  0.0000
17024TPSG    Si17105   3.993   8.217   8.294  0.0000  0.0000  0.0000
17024TPSG   CA617106   4.034   8.103   8.036  0.0000  0.0000  0.0000
17024TPSG   HH617107   4.049   8.007   8.085  0.0000  0.0000  0.0000
17024TPSG   CA517108   4.057   8.110   7.897  0.0000  0.0000  0.0000
17024TPSG   HA517109   4.089   8.023   7.842  0.0000  0.0000  0.0000
17024TPSG   CA417110   4.034   8.231   7.829  0.0000  0.0000  0.0000
17024TPSG   HA417111   4.053   8.237   7.722  0.0000  0.0000  0.0000
17024TPSG   CA317112   3.987   8.343   7.899  0.0000  0.0000  0.0000
17024TPSG   HA317113   3.970   8.436   7.845  0.0000  0.0000  0.0000
17024TPSG    O117114   4.109   8.217   8.178  0.0000  0.0000  0.0000
17024TPSG    H617115   4.109   8.217   8.080  0.0000  0.0000  0.0000
17025TPSG   HA217116   9.535   0.903   1.558  0.0000  0.0000  0.0000
17025TPSG   CA217117   9.496   0.990   1.609  0.0000  0.0000  0.0000
17025TPSG   CA117118   9.439   1.098   1.539  0.0000  0.0000  0.0000
17025TPSG    Si17119   9.439   1.098   1.353  0.0000  0.0000  0.0000
17025TPSG   CA617120   9.397   1.212   1.611  0.0000  0.0000  0.0000
17025TPSG   HH617121   9.347   1.295   1.562  0.0000  0.0000  0.0000
17025TPSG   CA517122   9.419   1.220   1.750  0.0000  0.0000  0.0000
17025TPSG   HA517123   9.388   1.309   1.805  0.0000  0.0000  0.0000
17025TPSG   CA417124   9.479   1.114   1.818  0.0000  0.0000  0.0000
17025TPSG   HA417125   9.498   1.121   1.925  0.0000  0.0000  0.0000
17025TPSG   CA317126   9.515   0.998   1.748  0.0000  0.0000  0.0000
17025TPSG   HA317127   9.562   0.915   1.802  0.0000  0.0000  0.0000
17025TPSG    O117128   9.528   1.173   1.469  0.0000  0.0000  0.0000
17025TPSG    H617129   9.528   1.173   1.567  0.0000  0.0000  0.0000
17026TPSG   HA217130   1.716   6.483   7.979  0.0000  0.0000  0.0000
17026TPSG   CA217131   1.743   6.391   7.928  0.0000  0.0000  0.0000
17026TPSG   CA117132   1.768   6.272   7.998  0.0000  0.0000  0.0000
17026TPSG    Si17133   1.768   6.272   8.184  0.0000  0.0000  0.0000
17026TPSG   CA617134   1.809   6.158   7.926  0.0000  0.0000  0.0000
17026TPSG   HH617135   1.824   6.062   7.975  0.0000  0.0000  0.0000
17026TPSG   CA517136   1.832   6.165   7.787  0.0000  0.0000  0.0000
17026TPSG   HA517137   1.864   6.078   7.732  0.0000  0.0000  0.0000
17026TPSG   CA417138   1.809   6.286   7.719  0.0000  0.0000  0.0000
17026TPSG   HA417139   1.828   6.292   7.612  0.0000  0.0000  0.0000
17026TPSG   CA317140   1.762   6.398   7.789  0.0000  0.0000  0.0000
17026TPSG   HA317141   1.745   6.491   7.735  0.0000  0.0000  0.0000
17026TPSG    O117142   1.884   6.272   8.068  0.0000  0.0000  0.0000
17026TPSG    H617143   1.884   6.272   7.970  0.0000  0.0000  0.0000
17027TPSG   HA217144   7.591  -0.174   1.496  0.0000  0.0000  0.0000
17027TPSG   CA217145   7.618  -0.082   1.547  0.0000  0.0000  0.0000
17027TPSG   CA117146   7.643   0.037   1.477  0.0000  0.0000  0.0000
17027TPSG    Si17147   7.643   0.037   1.291  0.0000  0.0000  0.0000
17027TPSG   CA617148   7.684   0.151   1.549  0.0000  0.0000  0.0000
17027TPSG   HH617149   7.699   0.247   1.500  0.0000  0.0000  0.0000
17027TPSG   CA517150   7.707   0.144   1.688  0.0000  0.0000  0.0000
17027TPSG   HA517151   7.739   0.231   1.743  0.0000  0.0000  0.0000
17027TPSG   CA417152   7.684   0.023   1.756  0.0000  0.0000  0.0000
17027TPSG   HA417153   7.703   0.017   1.863  0.0000  0.0000  0.0000
17027TPSG   CA317154   7.637  -0.089   1.686  0.0000  0.0000  0.0000
17027TPSG   HA317155   7.620  -0.182   1.740  0.0000  0.0000  0.0000
17027TPSG    O117156   7.759   0.037   1.407  0.0000  0.0000  0.0000
17027TPSG    H617157   7.759   0.037   1.505  0.0000  0.0000  0.0000
17028TPSG   HA217158   7.831   1.777   8.012  0.0000  0.0000  0.0000
17028TPSG   CA217159   7.858   1.685   7.961  0.0000  0.0000  0.0000
17028TPSG   CA117160   7.883   1.566   8.031  0.0000  0.0000  0.0000
17028TPSG    Si17161   7.883   1.566   8.217  0.0000  0.0000  0.0000
17028TPSG   CA617162   7.924   1.452   7.959  0.0000  0.0000  0.0000
17028TPSG   HH617163   7.939   1.356   8.008  0.0000  0.0000  0.0000
17028TPSG   CA517164   7.947   1.459   7.820  0.0000  0.0000  0.0000
17028TPSG   HA517165   7.979   1.372   7.765  0.0000  0.0000  0.0000
17028TPSG   CA417166   7.924   1.580   7.752  0.0000  0.0000  0.0000
17028TPSG   HA417167   7.943   1.586   7.645  0.0000  0.0000  0.0000
17028TPSG   CA317168   7.877   1.692   7.822  0.0000  0.0000  0.0000
17028TPSG   HA317169   7.860   1.785   7.768  0.0000  0.0000  0.0000
17028TPSG    O117170   7.999   1.566   8.101  0.0000  0.0000  0.0000
17028TPSG    H617171   7.999   1.566   8.003  0.0000  0.0000  0.0000
17029TPSG   HA217172   8.927   2.142   1.507  0.0000  0.0000  0.0000
17029TPSG   CA217173   8.954   2.234   1.558  0.0000  0.0000  0.0000
17029TPSG   CA117174   8.979   2.353   1.488  0.0000  0.0000  0.0000
17029TPSG    Si17175   8.979   2.353   1.302  0.0000  0.0000  0.0000
17029TPSG   CA617176   9.020   2.467   1.560  0.0000  0.0000  0.0000
17029TPSG   HH617177   9.035   2.563   1.511  0.0000  0.0000  0.0000
17029TPSG   CA517178   9.043   2.460   1.699  0.0000  0.0000  0.0000
17029TPSG   HA517179   9.075   2.547   1.754  0.0000  0.0000  0.0000
17029TPSG   CA417180   9.020   2.339   1.767  0.0000  0.0000  0.0000
17029TPSG   HA417181   9.039   2.333   1.874  0.0000  0.0000  0.0000
17029TPSG   CA317182   8.973   2.227   1.697  0.0000  0.0000  0.0000
17029TPSG   HA317183   8.956   2.134   1.751  0.0000  0.0000  0.0000
17029TPSG    O117184   9.095   2.353   1.418  0.0000  0.0000  0.0000
17029TPSG    H617185   9.095   2.353   1.516  0.0000  0.0000  0.0000
17030TPSG   HA217186   1.930   8.760   8.027  0.0000  0.0000  0.0000
17030TPSG   CA217187   1.957   8.668   7.976  0.0000  0.0000  0.0000
17030TPSG   CA117188   1.982   8.549   8.046  0.0000  0.0000  0.0000
17030TPSG    Si17189   1.982   8.549   8.232  0.0000  0.0000  0.0000
17030TPSG   CA617190   2.023   8.435   7.974  0.0000  0.0000  0.0000
17030TPSG   HH617191   2.038   8.339   8.023  0.0000  0.0000  0.0000
17030TPSG   CA517192   2.046   8.442   7.835  0.0000  0.0000  0.0000
17030TPSG   HA517193   2.078   8.355   7.780  0.0000  0.0000  0.0000
17030TPSG   CA417194   2.023   8.563   7.767  0.0000  0.0000  0.0000
17030TPSG   HA417195   2.042   8.569   7.660  0.0000  0.0000  0.0000
17030TPSG   CA317196   1.976   8.675   7.837  0.0000  0.0000  0.0000
17030TPSG   HA317197   1.959   8.768   7.783  0.0000  0.0000  0.0000
17030TPSG    O117198   2.098   8.549   8.116  0.0000  0.0000  0.0000
17030TPSG    H617199   2.098   8.549   8.018  0.0000  0.0000  0.0000
17031TPSG   HA217200   4.138   6.925   1.529  0.0000  0.0000  0.0000
17031TPSG   CA217201   4.165   7.017   1.580  0.0000  0.0000  0.0000
17031TPSG   CA117202   4.190   7.136   1.510  0.0000  0.0000  0.0000
17031TPSG    Si17203   4.190   7.136   1.324  0.0000  0.0000  0.0000
17031TPSG   CA617204   4.231   7.250   1.582  0.0000  0.0000  0.0000
17031TPSG   HH617205   4.246   7.346   1.533  0.0000  0.0000  0.0000
17031TPSG   CA517206   4.254   7.243   1.721  0.0000  0.0000  0.0000
17031TPSG   HA517207   4.286   7.330   1.776  0.0000  0.0000  0.0000
17031TPSG   CA417208   4.231   7.122   1.789  0.0000  0.0000  0.0000
17031TPSG   HA417209   4.250   7.116   1.896  0.0000  0.0000  0.0000
17031TPSG   CA317210   4.184   7.010   1.719  0.0000  0.0000  0.0000
17031TPSG   HA317211   4.167   6.917   1.773  0.0000  0.0000  0.0000
17031TPSG    O117212   4.306   7.136   1.440  0.0000  0.0000  0.0000
17031TPSG    H617213   4.306   7.136   1.538  0.0000  0.0000  0.0000
17032TPSG   HA217214   5.190   7.025   1.533  0.0000  0.0000  0.0000
17032TPSG   CA217215   5.184   7.120   1.584  0.0000  0.0000  0.0000
17032TPSG   CA117216   5.167   7.241   1.514  0.0000  0.0000  0.0000
17032TPSG    Si17217   5.167   7.241   1.328  0.0000  0.0000  0.0000
17032TPSG   CA617218   5.167   7.362   1.586  0.0000  0.0000  0.0000
17032TPSG   HH617219   5.148   7.457   1.537  0.0000  0.0000  0.0000
17032TPSG   CA517220   5.190   7.363   1.725  0.0000  0.0000  0.0000
17032TPSG   HA517221   5.191   7.456   1.780  0.0000  0.0000  0.0000
17032TPSG   CA417222   5.210   7.242   1.793  0.0000  0.0000  0.0000
17032TPSG   HA417223   5.230   7.243   1.900  0.0000  0.0000  0.0000
17032TPSG   CA317224   5.204   7.121   1.723  0.0000  0.0000  0.0000
17032TPSG   HA317225   5.220   7.028   1.777  0.0000  0.0000  0.0000
17032TPSG    O117226   5.276   7.281   1.444  0.0000  0.0000  0.0000
17032TPSG    H617227   5.276   7.281   1.542  0.0000  0.0000  0.0000
17033TPSG   HA217228   4.349   4.493   8.042  0.0000  0.0000  0.0000
17033TPSG   CA217229   4.376   4.401   7.991  0.0000  0.0000  0.0000
17033TPSG   CA117230   4.401   4.282   8.061  0.0000  0.0000  0.0000
17033TPSG    Si17231   4.401   4.282   8.247  0.0000  0.0000  0.0000
17033TPSG   CA617232   4.442   4.168   7.989  0.0000  0.0000  0.0000
17033TPSG   HH617233   4.457   4.072   8.038  0.0000  0.0000  0.0000
17033TPSG   CA517234   4.465   4.175   7.850  0.0000  0.0000  0.0000
17033TPSG   HA517235   4.497   4.088   7.795  0.0000  0.0000  0.0000
17033TPSG   CA417236   4.442   4.296   7.782  0.0000  0.0000  0.0000
17033TPSG   HA417237   4.461   4.302   7.675  0.0000  0.0000  0.0000
17033TPSG   CA317238   4.395   4.408   7.852  0.0000  0.0000  0.0000
17033TPSG   HA317239   4.378   4.501   7.798  0.0000  0.0000  0.0000
17033TPSG    O117240   4.517   4.282   8.131  0.0000  0.0000  0.0000
17033TPSG    H617241   4.517   4.282   8.033  0.0000  0.0000  0.0000
17034TPSG   HA217242   6.826   6.697   8.069  0.0000  0.0000  0.0000
17034TPSG   CA217243   6.853   6.605   8.018  0.0000  0.0000  0.0000
17034TPSG   CA117244   6.878   6.486   8.088  0.0000  0.0000  0.0000
17034TPSG    Si17245   6.878   6.486   8.274  0.0000  0.0000  0.0000
17034TPSG   CA617246   6.919   6.372   8.016  0.0000  0.0000  0.0000
17034TPSG   HH617247   6.934   6.276   8.065  0.0000  0.0000  0.0000
17034TPSG   CA517248   6.942   6.379   7.877  0.0000  0.0000  0.0000
17034TPSG   HA517249   6.974   6.292   7.822  0.0000  0.0000  0.0000
17034TPSG   CA417250   6.919   6.500   7.809  0.0000  0.0000  0.0000
17034TPSG   HA417251   6.938   6.506   7.702  0.0000  0.0000  0.0000
17034TPSG   CA317252   6.872   6.612   7.879  0.0000  0.0000  0.0000
17034TPSG   HA317253   6.855   6.705   7.825  0.0000  0.0000  0.0000
17034TPSG    O117254   6.994   6.486   8.158  0.0000  0.0000  0.0000
17034TPSG    H617255   6.994   6.486   8.060  0.0000  0.0000  0.0000
17035TPSG   HA217256   1.744   0.990   8.076  0.0000  0.0000  0.0000
17035TPSG   CA217257   1.771   0.898   8.025  0.0000  0.0000  0.0000
17035TPSG   CA117258   1.796   0.779   8.095  0.0000  0.0000  0.0000
17035TPSG    Si17259   1.796   0.779   8.281  0.0000  0.0000  0.0000
17035TPSG   CA617260   1.837   0.665   8.023  0.0000  0.0000  0.0000
17035TPSG   HH617261   1.852   0.569   8.072  0.0000  0.0000  0.0000
17035TPSG   CA517262   1.860   0.672   7.884  0.0000  0.0000  0.0000
17035TPSG   HA517263   1.892   0.585   7.829  0.0000  0.0000  0.0000
17035TPSG   CA417264   1.837   0.793   7.816  0.0000  0.0000  0.0000
17035TPSG   HA417265   1.856   0.799   7.709  0.0000  0.0000  0.0000
17035TPSG   CA317266   1.790   0.905   7.886  0.0000  0.0000  0.0000
17035TPSG   HA317267   1.773   0.998   7.832  0.0000  0.0000  0.0000
17035TPSG    O117268   1.912   0.779   8.165  0.0000  0.0000  0.0000
17035TPSG    H617269   1.912   0.779   8.067  0.0000  0.0000  0.0000
17036TPSG   HA217270   1.774   9.271   8.026  0.0000  0.0000  0.0000
17036TPSG   CA217271   1.801   9.179   7.975  0.0000  0.0000  0.0000
17036TPSG   CA117272   1.826   9.060   8.045  0.0000  0.0000  0.0000
17036TPSG    Si17273   1.826   9.060   8.231  0.0000  0.0000  0.0000
17036TPSG   CA617274   1.867   8.946   7.973  0.0000  0.0000  0.0000
17036TPSG   HH617275   1.882   8.850   8.022  0.0000  0.0000  0.0000
17036TPSG   CA517276   1.890   8.953   7.834  0.0000  0.0000  0.0000
17036TPSG   HA517277   1.922   8.866   7.779  0.0000  0.0000  0.0000
17036TPSG   CA417278   1.867   9.074   7.766  0.0000  0.0000  0.0000
17036TPSG   HA417279   1.886   9.080   7.659  0.0000  0.0000  0.0000
17036TPSG   CA317280   1.820   9.186   7.836  0.0000  0.0000  0.0000
17036TPSG   HA317281   1.803   9.279   7.782  0.0000  0.0000  0.0000
17036TPSG    O117282   1.942   9.060   8.115  0.0000  0.0000  0.0000
17036TPSG    H617283   1.942   9.060   8.017  0.0000  0.0000  0.0000
17037TPSG   HA217284   6.176   8.952   1.511  0.0000  0.0000  0.0000
17037TPSG   CA217285   6.203   9.044   1.562  0.0000  0.0000  0.0000
17037TPSG   CA117286   6.228   9.163   1.492  0.0000  0.0000  0.0000
17037TPSG    Si17287   6.228   9.163   1.306  0.0000  0.0000  0.0000
17037TPSG   CA617288   6.269   9.277   1.564  0.0000  0.0000  0.0000
17037TPSG   HH617289   6.284   9.373   1.515  0.0000  0.0000  0.0000
17037TPSG   CA517290   6.292   9.270   1.703  0.0000  0.0000  0.0000
17037TPSG   HA517291   6.324   9.357   1.758  0.0000  0.0000  0.0000
17037TPSG   CA417292   6.269   9.149   1.771  0.0000  0.0000  0.0000
17037TPSG   HA417293   6.288   9.143   1.878  0.0000  0.0000  0.0000
17037TPSG   CA317294   6.222   9.037   1.701  0.0000  0.0000  0.0000
17037TPSG   HA317295   6.205   8.944   1.755  0.0000  0.0000  0.0000
17037TPSG    O117296   6.344   9.163   1.422  0.0000  0.0000  0.0000
17037TPSG    H617297   6.344   9.163   1.520  0.0000  0.0000  0.0000
17038TPSG   HA217298   4.459   7.528   8.108  0.0000  0.0000  0.0000
17038TPSG   CA217299   4.486   7.436   8.057  0.0000  0.0000  0.0000
17038TPSG   CA117300   4.511   7.317   8.127  0.0000  0.0000  0.0000
17038TPSG    Si17301   4.511   7.317   8.313  0.0000  0.0000  0.0000
17038TPSG   CA617302   4.552   7.203   8.055  0.0000  0.0000  0.0000
17038TPSG   HH617303   4.567   7.107   8.104  0.0000  0.0000  0.0000
17038TPSG   CA517304   4.575   7.210   7.916  0.0000  0.0000  0.0000
17038TPSG   HA517305   4.607   7.123   7.861  0.0000  0.0000  0.0000
17038TPSG   CA417306   4.552   7.331   7.848  0.0000  0.0000  0.0000
17038TPSG   HA417307   4.571   7.337   7.741  0.0000  0.0000  0.0000
17038TPSG   CA317308   4.505   7.443   7.918  0.0000  0.0000  0.0000
17038TPSG   HA317309   4.488   7.536   7.864  0.0000  0.0000  0.0000
17038TPSG    O117310   4.627   7.317   8.197  0.0000  0.0000  0.0000
17038TPSG    H617311   4.627   7.317   8.099  0.0000  0.0000  0.0000
17039TPSG   HA217312   7.359   0.506   8.042  0.0000  0.0000  0.0000
17039TPSG   CA217313   7.386   0.414   7.991  0.0000  0.0000  0.0000
17039TPSG   CA117314   7.411   0.295   8.061  0.0000  0.0000  0.0000
17039TPSG    Si17315   7.411   0.295   8.247  0.0000  0.0000  0.0000
17039TPSG   CA617316   7.452   0.181   7.989  0.0000  0.0000  0.0000
17039TPSG   HH617317   7.467   0.085   8.038  0.0000  0.0000  0.0000
17039TPSG   CA517318   7.475   0.188   7.850  0.0000  0.0000  0.0000
17039TPSG   HA517319   7.507   0.101   7.795  0.0000  0.0000  0.0000
17039TPSG   CA417320   7.452   0.309   7.782  0.0000  0.0000  0.0000
17039TPSG   HA417321   7.471   0.315   7.675  0.0000  0.0000  0.0000
17039TPSG   CA317322   7.405   0.421   7.852  0.0000  0.0000  0.0000
17039TPSG   HA317323   7.388   0.514   7.798  0.0000  0.0000  0.0000
17039TPSG    O117324   7.527   0.295   8.131  0.0000  0.0000  0.0000
17039TPSG    H617325   7.527   0.295   8.033  0.0000  0.0000  0.0000
17040TPSG   HA217326   6.755   4.666   8.086  0.0000  0.0000  0.0000
17040TPSG   CA217327   6.782   4.574   8.035  0.0000  0.0000  0.0000
17040TPSG   CA117328   6.807   4.455   8.105  0.0000  0.0000  0.0000
17040TPSG    Si17329   6.807   4.455   8.291  0.0000  0.0000  0.0000
17040TPSG   CA617330   6.848   4.341   8.033  0.0000  0.0000  0.0000
17040TPSG   HH617331   6.863   4.245   8.082  0.0000  0.0000  0.0000
17040TPSG   CA517332   6.871   4.348   7.894  0.0000  0.0000  0.0000
17040TPSG   HA517333   6.903   4.261   7.839  0.0000  0.0000  0.0000
17040TPSG   CA417334   6.848   4.469   7.826  0.0000  0.0000  0.0000
17040TPSG   HA417335   6.867   4.475   7.719  0.0000  0.0000  0.0000
17040TPSG   CA317336   6.801   4.581   7.896  0.0000  0.0000  0.0000
17040TPSG   HA317337   6.784   4.674   7.842  0.0000  0.0000  0.0000
17040TPSG    O117338   6.923   4.455   8.175  0.0000  0.0000  0.0000
17040TPSG    H617339   6.923   4.455   8.077  0.0000  0.0000  0.0000
17041TPSG   HA217340   9.454   1.879   1.592  0.0000  0.0000  0.0000
17041TPSG   CA217341   9.481   1.971   1.643  0.0000  0.0000  0.0000
17041TPSG   CA117342   9.506   2.090   1.573  0.0000  0.0000  0.0000
17041TPSG    Si17343   9.506   2.090   1.387  0.0000  0.0000  0.0000
17041TPSG   CA617344   9.547   2.204   1.645  0.0000  0.0000  0.0000
17041TPSG   HH617345   9.562   2.300   1.596  0.0000  0.0000  0.0000
17041TPSG   CA517346   9.570   2.197   1.784  0.0000  0.0000  0.0000
17041TPSG   HA517347   9.602   2.284   1.839  0.0000  0.0000  0.0000
17041TPSG   CA417348   9.547   2.076   1.852  0.0000  0.0000  0.0000
17041TPSG   HA417349   9.566   2.070   1.959  0.0000  0.0000  0.0000
17041TPSG   CA317350   9.500   1.964   1.782  0.0000  0.0000  0.0000
17041TPSG   HA317351   9.483   1.871   1.836  0.0000  0.0000  0.0000
17041TPSG    O117352   9.622   2.090   1.503  0.0000  0.0000  0.0000
17041TPSG    H617353   9.622   2.090   1.601  0.0000  0.0000  0.0000
17042TPSG   HA217354   3.802   6.467   8.098  0.0000  0.0000  0.0000
17042TPSG   CA217355   3.829   6.375   8.047  0.0000  0.0000  0.0000
17042TPSG   CA117356   3.854   6.256   8.117  0.0000  0.0000  0.0000
17042TPSG    Si17357   3.854   6.256   8.303  0.0000  0.0000  0.0000
17042TPSG   CA617358   3.895   6.142   8.045  0.0000  0.0000  0.0000
17042TPSG   HH617359   3.910   6.046   8.094  0.0000  0.0000  0.0000
17042TPSG   CA517360   3.918   6.149   7.906  0.0000  0.0000  0.0000
17042TPSG   HA517361   3.950   6.062   7.851  0.0000  0.0000  0.0000
17042TPSG   CA417362   3.895   6.270   7.838  0.0000  0.0000  0.0000
17042TPSG   HA417363   3.914   6.276   7.731  0.0000  0.0000  0.0000
17042TPSG   CA317364   3.848   6.382   7.908  0.0000  0.0000  0.0000
17042TPSG   HA317365   3.831   6.475   7.854  0.0000  0.0000  0.0000
17042TPSG    O117366   3.970   6.256   8.187  0.0000  0.0000  0.0000
17042TPSG    H617367   3.970   6.256   8.089  0.0000  0.0000  0.0000
17043TPSG   HA217368   4.762   6.721   1.544  0.0000  0.0000  0.0000
17043TPSG   CA217369   4.789   6.813   1.595  0.0000  0.0000  0.0000
17043TPSG   CA117370   4.814   6.932   1.525  0.0000  0.0000  0.0000
17043TPSG    Si17371   4.814   6.932   1.339  0.0000  0.0000  0.0000
17043TPSG   CA617372   4.855   7.046   1.597  0.0000  0.0000  0.0000
17043TPSG   HH617373   4.870   7.142   1.548  0.0000  0.0000  0.0000
17043TPSG   CA517374   4.878   7.039   1.736  0.0000  0.0000  0.0000
17043TPSG   HA517375   4.910   7.126   1.791  0.0000  0.0000  0.0000
17043TPSG   CA417376   4.855   6.918   1.804  0.0000  0.0000  0.0000
17043TPSG   HA417377   4.874   6.912   1.911  0.0000  0.0000  0.0000
17043TPSG   CA317378   4.808   6.806   1.734  0.0000  0.0000  0.0000
17043TPSG   HA317379   4.791   6.713   1.788  0.0000  0.0000  0.0000
17043TPSG    O117380   4.930   6.932   1.455  0.0000  0.0000  0.0000
17043TPSG    H617381   4.930   6.932   1.553  0.0000  0.0000  0.0000
17044TPSG   HA217382   5.347   2.320   1.598  0.0000  0.0000  0.0000
17044TPSG   CA217383   5.374   2.412   1.649  0.0000  0.0000  0.0000
17044TPSG   CA117384   5.399   2.531   1.579  0.0000  0.0000  0.0000
17044TPSG    Si17385   5.399   2.531   1.393  0.0000  0.0000  0.0000
17044TPSG   CA617386   5.440   2.645   1.651  0.0000  0.0000  0.0000
17044TPSG   HH617387   5.455   2.741   1.602  0.0000  0.0000  0.0000
17044TPSG   CA517388   5.463   2.638   1.790  0.0000  0.0000  0.0000
17044TPSG   HA517389   5.495   2.725   1.845  0.0000  0.0000  0.0000
17044TPSG   CA417390   5.440   2.517   1.858  0.0000  0.0000  0.0000
17044TPSG   HA417391   5.459   2.511   1.965  0.0000  0.0000  0.0000
17044TPSG   CA317392   5.393   2.405   1.788  0.0000  0.0000  0.0000
17044TPSG   HA317393   5.376   2.312   1.842  0.0000  0.0000  0.0000
17044TPSG    O117394   5.515   2.531   1.509  0.0000  0.0000  0.0000
17044TPSG    H617395   5.515   2.531   1.607  0.0000  0.0000  0.0000
17045TPSG   HA217396   8.952  -0.040   1.495  0.0000  0.0000  0.0000
17045TPSG   CA217397   8.979   0.052   1.546  0.0000  0.0000  0.0000
17045TPSG   CA117398   9.004   0.171   1.476  0.0000  0.0000  0.0000
17045TPSG    Si17399   9.004   0.171   1.290  0.0000  0.0000  0.0000
17045TPSG   CA617400   9.045   0.285   1.548  0.0000  0.0000  0.0000
17045TPSG   HH617401   9.060   0.381   1.499  0.0000  0.0000  0.0000
17045TPSG   CA517402   9.068   0.278   1.687  0.0000  0.0000  0.0000
17045TPSG   HA517403   9.100   0.365   1.742  0.0000  0.0000  0.0000
17045TPSG   CA417404   9.045   0.157   1.755  0.0000  0.0000  0.0000
17045TPSG   HA417405   9.064   0.151   1.862  0.0000  0.0000  0.0000
17045TPSG   CA317406   8.998   0.045   1.685  0.0000  0.0000  0.0000
17045TPSG   HA317407   8.981  -0.048   1.739  0.0000  0.0000  0.0000
17045TPSG    O117408   9.120   0.171   1.406  0.0000  0.0000  0.0000
17045TPSG    H617409   9.120   0.171   1.504  0.0000  0.0000  0.0000
17046TPSG   HA217410   3.855   6.549   1.558  0.0000  0.0000  0.0000
17046TPSG   CA217411   3.882   6.641   1.609  0.0000  0.0000  0.0000
17046TPSG   CA117412   3.907   6.760   1.539  0.0000  0.0000  0.0000
17046TPSG    Si17413   3.907   6.760   1.353  0.0000  0.0000  0.0000
17046TPSG   CA617414   3.948   6.874   1.611  0.0000  0.0000  0.0000
17046TPSG   HH617415   3.963   6.970   1.562  0.0000  0.0000  0.0000
17046TPSG   CA517416   3.971   6.867   1.750  0.0000  0.0000  0.0000
17046TPSG   HA517417   4.003   6.954   1.805  0.0000  0.0000  0.0000
17046TPSG   CA417418   3.948   6.746   1.818  0.0000  0.0000  0.0000
17046TPSG   HA417419   3.967   6.740   1.925  0.0000  0.0000  0.0000
17046TPSG   CA317420   3.901   6.634   1.748  0.0000  0.0000  0.0000
17046TPSG   HA317421   3.884   6.541   1.802  0.0000  0.0000  0.0000
17046TPSG    O117422   4.023   6.760   1.469  0.0000  0.0000  0.0000
17046TPSG    H617423   4.023   6.760   1.567  0.0000  0.0000  0.0000
17047TPSG   HA217424   1.094   5.927   7.963  0.0000  0.0000  0.0000
17047TPSG   CA217425   1.121   5.835   7.912  0.0000  0.0000  0.0000
17047TPSG   CA117426   1.146   5.716   7.982  0.0000  0.0000  0.0000
17047TPSG    Si17427   1.146   5.716   8.168  0.0000  0.0000  0.0000
17047TPSG   CA617428   1.187   5.602   7.910  0.0000  0.0000  0.0000
17047TPSG   HH617429   1.202   5.506   7.959  0.0000  0.0000  0.0000
17047TPSG   CA517430   1.210   5.609   7.771  0.0000  0.0000  0.0000
17047TPSG   HA517431   1.242   5.522   7.716  0.0000  0.0000  0.0000
17047TPSG   CA417432   1.187   5.730   7.703  0.0000  0.0000  0.0000
17047TPSG   HA417433   1.206   5.736   7.596  0.0000  0.0000  0.0000
17047TPSG   CA317434   1.140   5.842   7.773  0.0000  0.0000  0.0000
17047TPSG   HA317435   1.123   5.935   7.719  0.0000  0.0000  0.0000
17047TPSG    O117436   1.262   5.716   8.052  0.0000  0.0000  0.0000
17047TPSG    H617437   1.262   5.716   7.954  0.0000  0.0000  0.0000
17048TPSG   HA217438   2.430   1.987   1.618  0.0000  0.0000  0.0000
17048TPSG   CA217439   2.457   2.079   1.669  0.0000  0.0000  0.0000
17048TPSG   CA117440   2.482   2.198   1.599  0.0000  0.0000  0.0000
17048TPSG    Si17441   2.482   2.198   1.413  0.0000  0.0000  0.0000
17048TPSG   CA617442   2.523   2.312   1.671  0.0000  0.0000  0.0000
17048TPSG   HH617443   2.538   2.408   1.622  0.0000  0.0000  0.0000
17048TPSG   CA517444   2.546   2.305   1.810  0.0000  0.0000  0.0000
17048TPSG   HA517445   2.578   2.392   1.865  0.0000  0.0000  0.0000
17048TPSG   CA417446   2.523   2.184   1.878  0.0000  0.0000  0.0000
17048TPSG   HA417447   2.542   2.178   1.985  0.0000  0.0000  0.0000
17048TPSG   CA317448   2.476   2.072   1.808  0.0000  0.0000  0.0000
17048TPSG   HA317449   2.459   1.979   1.862  0.0000  0.0000  0.0000
17048TPSG    O117450   2.598   2.198   1.529  0.0000  0.0000  0.0000
17048TPSG    H617451   2.598   2.198   1.627  0.0000  0.0000  0.0000
17049TPSG   HA217452   4.529   3.098   1.476  0.0000  0.0000  0.0000
17049TPSG   CA217453   4.556   3.190   1.527  0.0000  0.0000  0.0000
17049TPSG   CA117454   4.581   3.309   1.457  0.0000  0.0000  0.0000
17049TPSG    Si17455   4.581   3.309   1.271  0.0000  0.0000  0.0000
17049TPSG   CA617456   4.622   3.423   1.529  0.0000  0.0000  0.0000
17049TPSG   HH617457   4.637   3.519   1.480  0.0000  0.0000  0.0000
17049TPSG   CA517458   4.645   3.416   1.668  0.0000  0.0000  0.0000
17049TPSG   HA517459   4.677   3.503   1.723  0.0000  0.0000  0.0000
17049TPSG   CA417460   4.622   3.295   1.736  0.0000  0.0000  0.0000
17049TPSG   HA417461   4.641   3.289   1.843  0.0000  0.0000  0.0000
17049TPSG   CA317462   4.575   3.183   1.666  0.0000  0.0000  0.0000
17049TPSG   HA317463   4.558   3.090   1.720  0.0000  0.0000  0.0000
17049TPSG    O117464   4.697   3.309   1.387  0.0000  0.0000  0.0000
17049TPSG    H617465   4.697   3.309   1.485  0.0000  0.0000  0.0000
17050TPSG   HA217466   5.637   3.183   1.571  0.0000  0.0000  0.0000
17050TPSG   CA217467   5.664   3.275   1.622  0.0000  0.0000  0.0000
17050TPSG   CA117468   5.689   3.394   1.552  0.0000  0.0000  0.0000
17050TPSG    Si17469   5.689   3.394   1.366  0.0000  0.0000  0.0000
17050TPSG   CA617470   5.730   3.508   1.624  0.0000  0.0000  0.0000
17050TPSG   HH617471   5.745   3.604   1.575  0.0000  0.0000  0.0000
17050TPSG   CA517472   5.753   3.501   1.763  0.0000  0.0000  0.0000
17050TPSG   HA517473   5.785   3.588   1.818  0.0000  0.0000  0.0000
17050TPSG   CA417474   5.730   3.380   1.831  0.0000  0.0000  0.0000
17050TPSG   HA417475   5.749   3.374   1.938  0.0000  0.0000  0.0000
17050TPSG   CA317476   5.683   3.268   1.761  0.0000  0.0000  0.0000
17050TPSG   HA317477   5.666   3.175   1.815  0.0000  0.0000  0.0000
17050TPSG    O117478   5.805   3.394   1.482  0.0000  0.0000  0.0000
17050TPSG    H617479   5.805   3.394   1.580  0.0000  0.0000  0.0000
17051TPS    HA217480   8.971   1.465   8.027  0.0000  0.0000  0.0000
17051TPS    CA217481   8.998   1.373   7.976  0.0000  0.0000  0.0000
17051TPS    CA117482   9.023   1.254   8.046  0.0000  0.0000  0.0000
17051TPS     Si17483   9.023   1.254   8.232  0.0000  0.0000  0.0000
17051TPS    CA617484   9.064   1.140   7.974  0.0000  0.0000  0.0000
17051TPS    HH617485   9.079   1.044   8.023  0.0000  0.0000  0.0000
17051TPS    CA517486   9.087   1.147   7.835  0.0000  0.0000  0.0000
17051TPS    HA517487   9.119   1.060   7.780  0.0000  0.0000  0.0000
17051TPS    CA417488   9.064   1.268   7.767  0.0000  0.0000  0.0000
17051TPS    HA417489   9.083   1.274   7.660  0.0000  0.0000  0.0000
17051TPS    CA317490   9.017   1.380   7.837  0.0000  0.0000  0.0000
17051TPS    HA317491   9.000   1.473   7.783  0.0000  0.0000  0.0000
17052TPS    HA217492   0.018   0.790   8.069  0.0000  0.0000  0.0000
17052TPS    CA217493   0.045   0.698   8.018  0.0000  0.0000  0.0000
17052TPS    CA117494   0.070   0.579   8.088  0.0000  0.0000  0.0000
17052TPS     Si17495   0.070   0.579   8.274  0.0000  0.0000  0.0000
17052TPS    CA617496   0.111   0.465   8.016  0.0000  0.0000  0.0000
17052TPS    HH617497   0.126   0.369   8.065  0.0000  0.0000  0.0000
17052TPS    CA517498   0.134   0.472   7.877  0.0000  0.0000  0.0000
17052TPS    HA517499   0.166   0.385   7.822  0.0000  0.0000  0.0000
17052TPS    CA417500   0.111   0.593   7.809  0.0000  0.0000  0.0000
17052TPS    HA417501   0.130   0.599   7.702  0.0000  0.0000  0.0000
17052TPS    CA317502   0.064   0.705   7.879  0.0000  0.0000  0.0000
17052TPS    HA317503   0.047   0.798   7.825  0.0000  0.0000  0.0000
17053TPS    HA217504   3.936   4.933   1.599  0.0000  0.0000  0.0000
17053TPS    CA217505   3.963   5.025   1.650  0.0000  0.0000  0.0000
17053TPS    CA117506   3.988   5.144   1.580  0.0000  0.0000  0.0000
17053TPS     Si17507   3.988   5.144   1.394  0.0000  0.0000  0.0000
17053TPS    CA617508   4.029   5.258   1.652  0.0000  0.0000  0.0000
17053TPS    HH617509   4.044   5.354   1.603  0.0000  0.0000  0.0000
17053TPS    CA517510   4.052   5.251   1.791  0.0000  0.0000  0.0000
17053TPS    HA517511   4.084   5.338   1.846  0.0000  0.0000  0.0000
17053TPS    CA417512   4.029   5.130   1.859  0.0000  0.0000  0.0000
17053TPS    HA417513   4.048   5.124   1.966  0.0000  0.0000  0.0000
17053TPS    CA317514   3.982   5.018   1.789  0.0000  0.0000  0.0000
17053TPS    HA317515   3.965   4.925   1.843  0.0000  0.0000  0.0000
17054TPS    HA217516   0.349   3.650   8.076  0.0000  0.0000  0.0000
17054TPS    CA217517   0.283   3.582   8.025  0.0000  0.0000  0.0000
17054TPS    CA117518   0.192   3.500   8.095  0.0000  0.0000  0.0000
17054TPS     Si17519   0.192   3.500   8.281  0.0000  0.0000  0.0000
17054TPS    CA617520   0.114   3.407   8.023  0.0000  0.0000  0.0000
17054TPS    HH617521   0.039   3.346   8.072  0.0000  0.0000  0.0000
17054TPS    CA517522   0.131   3.392   7.884  0.0000  0.0000  0.0000
17054TPS    HA517523   0.072   3.320   7.829  0.0000  0.0000  0.0000
17054TPS    CA417524   0.224   3.471   7.816  0.0000  0.0000  0.0000
17054TPS    HA417525   0.239   3.458   7.709  0.0000  0.0000  0.0000
17054TPS    CA317526   0.298   3.568   7.886  0.0000  0.0000  0.0000
17054TPS    HA317527   0.370   3.630   7.832  0.0000  0.0000  0.0000
17055TPS    HA217528   2.303   5.991   8.122  0.0000  0.0000  0.0000
17055TPS    CA217529   2.330   5.899   8.071  0.0000  0.0000  0.0000
17055TPS    CA117530   2.355   5.780   8.141  0.0000  0.0000  0.0000
17055TPS     Si17531   2.355   5.780   8.327  0.0000  0.0000  0.0000
17055TPS    CA617532   2.396   5.666   8.069  0.0000  0.0000  0.0000
17055TPS    HH617533   2.411   5.570   8.118  0.0000  0.0000  0.0000
17055TPS    CA517534   2.419   5.673   7.930  0.0000  0.0000  0.0000
17055TPS    HA517535   2.451   5.586   7.875  0.0000  0.0000  0.0000
17055TPS    CA417536   2.396   5.794   7.862  0.0000  0.0000  0.0000
17055TPS    HA417537   2.415   5.800   7.755  0.0000  0.0000  0.0000
17055TPS    CA317538   2.349   5.906   7.932  0.0000  0.0000  0.0000
17055TPS    HA317539   2.332   5.999   7.878  0.0000  0.0000  0.0000
17056TPS    HA217540   3.678   3.386   1.592  0.0000  0.0000  0.0000
17056TPS    CA217541   3.705   3.478   1.643  0.0000  0.0000  0.0000
17056TPS    CA117542   3.730   3.597   1.573  0.0000  0.0000  0.0000
17056TPS     Si17543   3.730   3.597   1.387  0.0000  0.0000  0.0000
17056TPS    CA617544   3.771   3.711   1.645  0.0000  0.0000  0.0000
17056TPS    HH617545   3.786   3.807   1.596  0.0000  0.0000  0.0000
17056TPS    CA517546   3.794   3.704   1.784  0.0000  0.0000  0.0000
17056TPS    HA517547   3.826   3.791   1.839  0.0000  0.0000  0.0000
17056TPS    CA417548   3.771   3.583   1.852  0.0000  0.0000  0.0000
17056TPS    HA417549   3.790   3.577   1.959  0.0000  0.0000  0.0000
17056TPS    CA317550   3.724   3.471   1.782  0.0000  0.0000  0.0000
17056TPS    HA317551   3.707   3.378   1.836  0.0000  0.0000  0.0000
17057TPS    HA217552   6.008   0.608   8.077  0.0000  0.0000  0.0000
17057TPS    CA217553   6.035   0.516   8.026  0.0000  0.0000  0.0000
17057TPS    CA117554   6.060   0.397   8.096  0.0000  0.0000  0.0000
17057TPS     Si17555   6.060   0.397   8.282  0.0000  0.0000  0.0000
17057TPS    CA617556   6.101   0.283   8.024  0.0000  0.0000  0.0000
17057TPS    HH617557   6.116   0.187   8.073  0.0000  0.0000  0.0000
17057TPS    CA517558   6.124   0.290   7.885  0.0000  0.0000  0.0000
17057TPS    HA517559   6.156   0.203   7.830  0.0000  0.0000  0.0000
17057TPS    CA417560   6.101   0.411   7.817  0.0000  0.0000  0.0000
17057TPS    HA417561   6.120   0.417   7.710  0.0000  0.0000  0.0000
17057TPS    CA317562   6.054   0.523   7.887  0.0000  0.0000  0.0000
17057TPS    HA317563   6.037   0.616   7.833  0.0000  0.0000  0.0000
17058TPS    HA217564   8.199   5.376   7.962  0.0000  0.0000  0.0000
17058TPS    CA217565   8.226   5.284   7.911  0.0000  0.0000  0.0000
17058TPS    CA117566   8.251   5.165   7.981  0.0000  0.0000  0.0000
17058TPS     Si17567   8.251   5.165   8.167  0.0000  0.0000  0.0000
17058TPS    CA617568   8.292   5.051   7.909  0.0000  0.0000  0.0000
17058TPS    HH617569   8.307   4.955   7.958  0.0000  0.0000  0.0000
17058TPS    CA517570   8.315   5.058   7.770  0.0000  0.0000  0.0000
17058TPS    HA517571   8.347   4.971   7.715  0.0000  0.0000  0.0000
17058TPS    CA417572   8.292   5.179   7.702  0.0000  0.0000  0.0000
17058TPS    HA417573   8.311   5.185   7.595  0.0000  0.0000  0.0000
17058TPS    CA317574   8.245   5.291   7.772  0.0000  0.0000  0.0000
17058TPS    HA317575   8.228   5.384   7.718  0.0000  0.0000  0.0000
17059TPS    HA217576   3.889   5.421   1.632  0.0000  0.0000  0.0000
17059TPS    CA217577   3.916   5.513   1.683  0.0000  0.0000  0.0000
17059TPS    CA117578   3.941   5.632   1.613  0.0000  0.0000  0.0000
17059TPS     Si17579   3.941   5.632   1.427  0.0000  0.0000  0.0000
17059TPS    CA617580   3.982   5.746   1.685  0.0000  0.0000  0.0000
17059TPS    HH617581   3.997   5.842   1.636  0.0000  0.0000  0.0000
17059TPS    CA517582   4.005   5.739   1.824  0.0000  0.0000  0.0000
17059TPS    HA517583   4.037   5.826   1.879  0.0000  0.0000  0.0000
17059TPS    CA417584   3.982   5.618   1.892  0.0000  0.0000  0.0000
17059TPS    HA417585   4.001   5.612   1.999  0.0000  0.0000  0.0000
17059TPS    CA317586   3.935   5.506   1.822  0.0000  0.0000  0.0000
17059TPS    HA317587   3.918   5.413   1.876  0.0000  0.0000  0.0000
17060TPS    HA217588   2.448   5.043   1.613  0.0000  0.0000  0.0000
17060TPS    CA217589   2.475   5.135   1.664  0.0000  0.0000  0.0000
17060TPS    CA117590   2.500   5.254   1.594  0.0000  0.0000  0.0000
17060TPS     Si17591   2.500   5.254   1.408  0.0000  0.0000  0.0000
17060TPS    CA617592   2.541   5.368   1.666  0.0000  0.0000  0.0000
17060TPS    HH617593   2.556   5.464   1.617  0.0000  0.0000  0.0000
17060TPS    CA517594   2.564   5.361   1.805  0.0000  0.0000  0.0000
17060TPS    HA517595   2.596   5.448   1.860  0.0000  0.0000  0.0000
17060TPS    CA417596   2.541   5.240   1.873  0.0000  0.0000  0.0000
17060TPS    HA417597   2.560   5.234   1.980  0.0000  0.0000  0.0000
17060TPS    CA317598   2.494   5.128   1.803  0.0000  0.0000  0.0000
17060TPS    HA317599   2.477   5.035   1.857  0.0000  0.0000  0.0000
17061TPS    HA217600   6.588   9.174   1.467  0.0000  0.0000  0.0000
17061TPS    CA217601   6.615   9.266   1.518  0.0000  0.0000  0.0000
17061TPS    CA117602   6.640   9.385   1.448  0.0000  0.0000  0.0000
17061TPS     Si17603   6.640   9.385   1.262  0.0000  0.0000  0.0000
17061TPS    CA617604   6.681   9.499   1.520  0.0000  0.0000  0.0000
17061TPS    HH617605   6.696   9.595   1.471  0.0000  0.0000  0.0000
17061TPS    CA517606   6.704   9.492   1.659  0.0000  0.0000  0.0000
17061TPS    HA517607   6.736   9.579   1.714  0.0000  0.0000  0.0000
17061TPS    CA417608   6.681   9.371   1.727  0.0000  0.0000  0.0000
17061TPS    HA417609   6.700   9.365   1.834  0.0000  0.0000  0.0000
17061TPS    CA317610   6.634   9.259   1.657  0.0000  0.0000  0.0000
17061TPS    HA317611   6.617   9.166   1.711  0.0000  0.0000  0.0000
17062TPS    HA217612   4.747   7.908   8.094  0.0000  0.0000  0.0000
17062TPS    CA217613   4.774   7.816   8.043  0.0000  0.0000  0.0000
17062TPS    CA117614   4.799   7.697   8.113  0.0000  0.0000  0.0000
17062TPS     Si17615   4.799   7.697   8.299  0.0000  0.0000  0.0000
17062TPS    CA617616   4.840   7.583   8.041  0.0000  0.0000  0.0000
17062TPS    HH617617   4.855   7.487   8.090  0.0000  0.0000  0.0000
17062TPS    CA517618   4.863   7.590   7.902  0.0000  0.0000  0.0000
17062TPS    HA517619   4.895   7.503   7.847  0.0000  0.0000  0.0000
17062TPS    CA417620   4.840   7.711   7.834  0.0000  0.0000  0.0000
17062TPS    HA417621   4.859   7.717   7.727  0.0000  0.0000  0.0000
17062TPS    CA317622   4.793   7.823   7.904  0.0000  0.0000  0.0000
17062TPS    HA317623   4.776   7.916   7.850  0.0000  0.0000  0.0000
17063TPS    HA217624   7.387   4.157   1.390  0.0000  0.0000  0.0000
17063TPS    CA217625   7.414   4.249   1.441  0.0000  0.0000  0.0000
17063TPS    CA117626   7.439   4.368   1.371  0.0000  0.0000  0.0000
17063TPS     Si17627   7.439   4.368   1.185  0.0000  0.0000  0.0000
17063TPS    CA617628   7.480   4.482   1.443  0.0000  0.0000  0.0000
17063TPS    HH617629   7.495   4.578   1.394  0.0000  0.0000  0.0000
17063TPS    CA517630   7.503   4.475   1.582  0.0000  0.0000  0.0000
17063TPS    HA517631   7.535   4.562   1.637  0.0000  0.0000  0.0000
17063TPS    CA417632   7.480   4.354   1.650  0.0000  0.0000  0.0000
17063TPS    HA417633   7.499   4.348   1.757  0.0000  0.0000  0.0000
17063TPS    CA317634   7.433   4.242   1.580  0.0000  0.0000  0.0000
17063TPS    HA317635   7.416   4.149   1.634  0.0000  0.0000  0.0000
17064TPS    HA217636   0.269   7.244   1.483  0.0000  0.0000  0.0000
17064TPS    CA217637   0.296   7.336   1.534  0.0000  0.0000  0.0000
17064TPS    CA117638   0.321   7.455   1.464  0.0000  0.0000  0.0000
17064TPS     Si17639   0.321   7.455   1.278  0.0000  0.0000  0.0000
17064TPS    CA617640   0.362   7.569   1.536  0.0000  0.0000  0.0000
17064TPS    HH617641   0.377   7.665   1.487  0.0000  0.0000  0.0000
17064TPS    CA517642   0.385   7.562   1.675  0.0000  0.0000  0.0000
17064TPS    HA517643   0.417   7.649   1.730  0.0000  0.0000  0.0000
17064TPS    CA417644   0.362   7.441   1.743  0.0000  0.0000  0.0000
17064TPS    HA417645   0.381   7.435   1.850  0.0000  0.0000  0.0000
17064TPS    CA317646   0.315   7.329   1.673  0.0000  0.0000  0.0000
17064TPS    HA317647   0.298   7.236   1.727  0.0000  0.0000  0.0000
17065TPS    HA217648   6.336   5.741   1.610  0.0000  0.0000  0.0000
17065TPS    CA217649   6.363   5.833   1.661  0.0000  0.0000  0.0000
17065TPS    CA117650   6.388   5.952   1.591  0.0000  0.0000  0.0000
17065TPS     Si17651   6.388   5.952   1.405  0.0000  0.0000  0.0000
17065TPS    CA617652   6.429   6.066   1.663  0.0000  0.0000  0.0000
17065TPS    HH617653   6.444   6.162   1.614  0.0000  0.0000  0.0000
17065TPS    CA517654   6.452   6.059   1.802  0.0000  0.0000  0.0000
17065TPS    HA517655   6.484   6.146   1.857  0.0000  0.0000  0.0000
17065TPS    CA417656   6.429   5.938   1.870  0.0000  0.0000  0.0000
17065TPS    HA417657   6.448   5.932   1.977  0.0000  0.0000  0.0000
17065TPS    CA317658   6.382   5.826   1.800  0.0000  0.0000  0.0000
17065TPS    HA317659   6.365   5.733   1.854  0.0000  0.0000  0.0000
17066TPS    HA217660   3.230   2.375   1.540  0.0000  0.0000  0.0000
17066TPS    CA217661   3.257   2.467   1.591  0.0000  0.0000  0.0000
17066TPS    CA117662   3.282   2.586   1.521  0.0000  0.0000  0.0000
17066TPS     Si17663   3.282   2.586   1.335  0.0000  0.0000  0.0000
17066TPS    CA617664   3.323   2.700   1.593  0.0000  0.0000  0.0000
17066TPS    HH617665   3.338   2.796   1.544  0.0000  0.0000  0.0000
17066TPS    CA517666   3.346   2.693   1.732  0.0000  0.0000  0.0000
17066TPS    HA517667   3.378   2.780   1.787  0.0000  0.0000  0.0000
17066TPS    CA417668   3.323   2.572   1.800  0.0000  0.0000  0.0000
17066TPS    HA417669   3.342   2.566   1.907  0.0000  0.0000  0.0000
17066TPS    CA317670   3.276   2.460   1.730  0.0000  0.0000  0.0000
17066TPS    HA317671   3.259   2.367   1.784  0.0000  0.0000  0.0000
17067TPS    HA217672   3.614   8.257   1.602  0.0000  0.0000  0.0000
17067TPS    CA217673   3.641   8.349   1.653  0.0000  0.0000  0.0000
17067TPS    CA117674   3.666   8.468   1.583  0.0000  0.0000  0.0000
17067TPS     Si17675   3.666   8.468   1.397  0.0000  0.0000  0.0000
17067TPS    CA617676   3.707   8.582   1.655  0.0000  0.0000  0.0000
17067TPS    HH617677   3.722   8.678   1.606  0.0000  0.0000  0.0000
17067TPS    CA517678   3.730   8.575   1.794  0.0000  0.0000  0.0000
17067TPS    HA517679   3.762   8.662   1.849  0.0000  0.0000  0.0000
17067TPS    CA417680   3.707   8.454   1.862  0.0000  0.0000  0.0000
17067TPS    HA417681   3.726   8.448   1.969  0.0000  0.0000  0.0000
17067TPS    CA317682   3.660   8.342   1.792  0.0000  0.0000  0.0000
17067TPS    HA317683   3.643   8.249   1.846  0.0000  0.0000  0.0000
17068TPS    HA217684   3.168   4.252   1.497  0.0000  0.0000  0.0000
17068TPS    CA217685   3.195   4.344   1.548  0.0000  0.0000  0.0000
17068TPS    CA117686   3.220   4.463   1.478  0.0000  0.0000  0.0000
17068TPS     Si17687   3.220   4.463   1.292  0.0000  0.0000  0.0000
17068TPS    CA617688   3.261   4.577   1.550  0.0000  0.0000  0.0000
17068TPS    HH617689   3.276   4.673   1.501  0.0000  0.0000  0.0000
17068TPS    CA517690   3.284   4.570   1.689  0.0000  0.0000  0.0000
17068TPS    HA517691   3.316   4.657   1.744  0.0000  0.0000  0.0000
17068TPS    CA417692   3.261   4.449   1.757  0.0000  0.0000  0.0000
17068TPS    HA417693   3.280   4.443   1.864  0.0000  0.0000  0.0000
17068TPS    CA317694   3.214   4.337   1.687  0.0000  0.0000  0.0000
17068TPS    HA317695   3.197   4.244   1.741  0.0000  0.0000  0.0000
17069TPS    HA217696   3.126   8.050   8.044  0.0000  0.0000  0.0000
17069TPS    CA217697   3.087   7.963   7.993  0.0000  0.0000  0.0000
17069TPS    CA117698   3.030   7.855   8.063  0.0000  0.0000  0.0000
17069TPS     Si17699   3.030   7.855   8.249  0.0000  0.0000  0.0000
17069TPS    CA617700   2.988   7.741   7.991  0.0000  0.0000  0.0000
17069TPS    HH617701   2.938   7.658   8.040  0.0000  0.0000  0.0000
17069TPS    CA517702   3.010   7.733   7.852  0.0000  0.0000  0.0000
17069TPS    HA517703   2.979   7.644   7.797  0.0000  0.0000  0.0000
17069TPS    CA417704   3.070   7.839   7.784  0.0000  0.0000  0.0000
17069TPS    HA417705   3.089   7.832   7.677  0.0000  0.0000  0.0000
17069TPS    CA317706   3.106   7.955   7.854  0.0000  0.0000  0.0000
17069TPS    HA317707   3.153   8.038   7.800  0.0000  0.0000  0.0000
17070TPS    HA217708   1.290   1.502   8.115  0.0000  0.0000  0.0000
17070TPS    CA217709   1.317   1.410   8.064  0.0000  0.0000  0.0000
17070TPS    CA117710   1.342   1.291   8.134  0.0000  0.0000  0.0000
17070TPS     Si17711   1.342   1.291   8.320  0.0000  0.0000  0.0000
17070TPS    CA617712   1.383   1.177   8.062  0.0000  0.0000  0.0000
17070TPS    HH617713   1.398   1.081   8.111  0.0000  0.0000  0.0000
17070TPS    CA517714   1.406   1.184   7.923  0.0000  0.0000  0.0000
17070TPS    HA517715   1.438   1.097   7.868  0.0000  0.0000  0.0000
17070TPS    CA417716   1.383   1.305   7.855  0.0000  0.0000  0.0000
17070TPS    HA417717   1.402   1.311   7.748  0.0000  0.0000  0.0000
17070TPS    CA317718   1.336   1.417   7.925  0.0000  0.0000  0.0000
17070TPS    HA317719   1.319   1.510   7.871  0.0000  0.0000  0.0000
17071TPS    HA217720   6.478   7.529   1.565  0.0000  0.0000  0.0000
17071TPS    CA217721   6.505   7.621   1.616  0.0000  0.0000  0.0000
17071TPS    CA117722   6.530   7.740   1.546  0.0000  0.0000  0.0000
17071TPS     Si17723   6.530   7.740   1.360  0.0000  0.0000  0.0000
17071TPS    CA617724   6.571   7.854   1.618  0.0000  0.0000  0.0000
17071TPS    HH617725   6.586   7.950   1.569  0.0000  0.0000  0.0000
17071TPS    CA517726   6.594   7.847   1.757  0.0000  0.0000  0.0000
17071TPS    HA517727   6.626   7.934   1.812  0.0000  0.0000  0.0000
17071TPS    CA417728   6.571   7.726   1.825  0.0000  0.0000  0.0000
17071TPS    HA417729   6.590   7.720   1.932  0.0000  0.0000  0.0000
17071TPS    CA317730   6.524   7.614   1.755  0.0000  0.0000  0.0000
17071TPS    HA317731   6.507   7.521   1.809  0.0000  0.0000  0.0000
17072TPS    HA217732   3.335   0.178   1.562  0.0000  0.0000  0.0000
17072TPS    CA217733   3.362   0.270   1.613  0.0000  0.0000  0.0000
17072TPS    CA117734   3.387   0.389   1.543  0.0000  0.0000  0.0000
17072TPS     Si17735   3.387   0.389   1.357  0.0000  0.0000  0.0000
17072TPS    CA617736   3.428   0.503   1.615  0.0000  0.0000  0.0000
17072TPS    HH617737   3.443   0.599   1.566  0.0000  0.0000  0.0000
17072TPS    CA517738   3.451   0.496   1.754  0.0000  0.0000  0.0000
17072TPS    HA517739   3.483   0.583   1.809  0.0000  0.0000  0.0000
17072TPS    CA417740   3.428   0.375   1.822  0.0000  0.0000  0.0000
17072TPS    HA417741   3.447   0.369   1.929  0.0000  0.0000  0.0000
17072TPS    CA317742   3.381   0.263   1.752  0.0000  0.0000  0.0000
17072TPS    HA317743   3.364   0.170   1.806  0.0000  0.0000  0.0000
17073TPS    HA217744   7.179   1.587   7.946  0.0000  0.0000  0.0000
17073TPS    CA217745   7.206   1.495   7.895  0.0000  0.0000  0.0000
17073TPS    CA117746   7.231   1.376   7.965  0.0000  0.0000  0.0000
17073TPS     Si17747   7.231   1.376   8.151  0.0000  0.0000  0.0000
17073TPS    CA617748   7.272   1.262   7.893  0.0000  0.0000  0.0000
17073TPS    HH617749   7.287   1.166   7.942  0.0000  0.0000  0.0000
17073TPS    CA517750   7.295   1.269   7.754  0.0000  0.0000  0.0000
17073TPS    HA517751   7.327   1.182   7.699  0.0000  0.0000  0.0000
17073TPS    CA417752   7.272   1.390   7.686  0.0000  0.0000  0.0000
17073TPS    HA417753   7.291   1.396   7.579  0.0000  0.0000  0.0000
17073TPS    CA317754   7.225   1.502   7.756  0.0000  0.0000  0.0000
17073TPS    HA317755   7.208   1.595   7.702  0.0000  0.0000  0.0000
17074TPS    HA217756   8.586   0.304   8.049  0.0000  0.0000  0.0000
17074TPS    CA217757   8.613   0.212   7.998  0.0000  0.0000  0.0000
17074TPS    CA117758   8.638   0.093   8.068  0.0000  0.0000  0.0000
17074TPS     Si17759   8.638   0.093   8.254  0.0000  0.0000  0.0000
17074TPS    CA617760   8.679  -0.021   7.996  0.0000  0.0000  0.0000
17074TPS    HH617761   8.694  -0.117   8.045  0.0000  0.0000  0.0000
17074TPS    CA517762   8.702  -0.014   7.857  0.0000  0.0000  0.0000
17074TPS    HA517763   8.734  -0.101   7.802  0.0000  0.0000  0.0000
17074TPS    CA417764   8.679   0.107   7.789  0.0000  0.0000  0.0000
17074TPS    HA417765   8.698   0.113   7.682  0.0000  0.0000  0.0000
17074TPS    CA317766   8.632   0.219   7.859  0.0000  0.0000  0.0000
17074TPS    HA317767   8.615   0.312   7.805  0.0000  0.0000  0.0000
17075TPS    HA217768   6.249   1.946   1.531  0.0000  0.0000  0.0000
17075TPS    CA217769   6.276   2.038   1.582  0.0000  0.0000  0.0000
17075TPS    CA117770   6.301   2.157   1.512  0.0000  0.0000  0.0000
17075TPS     Si17771   6.301   2.157   1.326  0.0000  0.0000  0.0000
17075TPS    CA617772   6.342   2.271   1.584  0.0000  0.0000  0.0000
17075TPS    HH617773   6.357   2.367   1.535  0.0000  0.0000  0.0000
17075TPS    CA517774   6.365   2.264   1.723  0.0000  0.0000  0.0000
17075TPS    HA517775   6.397   2.351   1.778  0.0000  0.0000  0.0000
17075TPS    CA417776   6.342   2.143   1.791  0.0000  0.0000  0.0000
17075TPS    HA417777   6.361   2.137   1.898  0.0000  0.0000  0.0000
17075TPS    CA317778   6.295   2.031   1.721  0.0000  0.0000  0.0000
17075TPS    HA317779   6.278   1.938   1.775  0.0000  0.0000  0.0000
17076TPS    HA217780   8.321   9.126   1.582  0.0000  0.0000  0.0000
17076TPS    CA217781   8.348   9.218   1.633  0.0000  0.0000  0.0000
17076TPS    CA117782   8.373   9.337   1.563  0.0000  0.0000  0.0000
17076TPS     Si17783   8.373   9.337   1.377  0.0000  0.0000  0.0000
17076TPS    CA617784   8.414   9.451   1.635  0.0000  0.0000  0.0000
17076TPS    HH617785   8.429   9.547   1.586  0.0000  0.0000  0.0000
17076TPS    CA517786   8.437   9.444   1.774  0.0000  0.0000  0.0000
17076TPS    HA517787   8.469   9.531   1.829  0.0000  0.0000  0.0000
17076TPS    CA417788   8.414   9.323   1.842  0.0000  0.0000  0.0000
17076TPS    HA417789   8.433   9.317   1.949  0.0000  0.0000  0.0000
17076TPS    CA317790   8.367   9.211   1.772  0.0000  0.0000  0.0000
17076TPS    HA317791   8.350   9.118   1.826  0.0000  0.0000  0.0000
17077TPS    HA217792   6.803   6.846   1.440  0.0000  0.0000  0.0000
17077TPS    CA217793   6.830   6.938   1.491  0.0000  0.0000  0.0000
17077TPS    CA117794   6.855   7.057   1.421  0.0000  0.0000  0.0000
17077TPS     Si17795   6.855   7.057   1.235  0.0000  0.0000  0.0000
17077TPS    CA617796   6.896   7.171   1.493  0.0000  0.0000  0.0000
17077TPS    HH617797   6.911   7.267   1.444  0.0000  0.0000  0.0000
17077TPS    CA517798   6.919   7.164   1.632  0.0000  0.0000  0.0000
17077TPS    HA517799   6.951   7.251   1.687  0.0000  0.0000  0.0000
17077TPS    CA417800   6.896   7.043   1.700  0.0000  0.0000  0.0000
17077TPS    HA417801   6.915   7.037   1.807  0.0000  0.0000  0.0000
17077TPS    CA317802   6.849   6.931   1.630  0.0000  0.0000  0.0000
17077TPS    HA317803   6.832   6.838   1.684  0.0000  0.0000  0.0000
17078TPS    HA217804   3.808   9.146   1.505  0.0000  0.0000  0.0000
17078TPS    CA217805   3.835   9.238   1.556  0.0000  0.0000  0.0000
17078TPS    CA117806   3.860   9.357   1.486  0.0000  0.0000  0.0000
17078TPS     Si17807   3.860   9.357   1.300  0.0000  0.0000  0.0000
17078TPS    CA617808   3.901   9.471   1.558  0.0000  0.0000  0.0000
17078TPS    HH617809   3.916   9.567   1.509  0.0000  0.0000  0.0000
17078TPS    CA517810   3.924   9.464   1.697  0.0000  0.0000  0.0000
17078TPS    HA517811   3.956   9.551   1.752  0.0000  0.0000  0.0000
17078TPS    CA417812   3.901   9.343   1.765  0.0000  0.0000  0.0000
17078TPS    HA417813   3.920   9.337   1.872  0.0000  0.0000  0.0000
17078TPS    CA317814   3.854   9.231   1.695  0.0000  0.0000  0.0000
17078TPS    HA317815   3.837   9.138   1.749  0.0000  0.0000  0.0000
17079TPS    HA217816   0.790   4.478   7.980  0.0000  0.0000  0.0000
17079TPS    CA217817   0.817   4.386   7.929  0.0000  0.0000  0.0000
17079TPS    CA117818   0.842   4.267   7.999  0.0000  0.0000  0.0000
17079TPS     Si17819   0.842   4.267   8.185  0.0000  0.0000  0.0000
17079TPS    CA617820   0.883   4.153   7.927  0.0000  0.0000  0.0000
17079TPS    HH617821   0.898   4.057   7.976  0.0000  0.0000  0.0000
17079TPS    CA517822   0.906   4.160   7.788  0.0000  0.0000  0.0000
17079TPS    HA517823   0.938   4.073   7.733  0.0000  0.0000  0.0000
17079TPS    CA417824   0.883   4.281   7.720  0.0000  0.0000  0.0000
17079TPS    HA417825   0.902   4.287   7.613  0.0000  0.0000  0.0000
17079TPS    CA317826   0.836   4.393   7.790  0.0000  0.0000  0.0000
17079TPS    HA317827   0.819   4.486   7.736  0.0000  0.0000  0.0000
17080TPS    HA217828   0.038   3.968   7.956  0.0000  0.0000  0.0000
17080TPS    CA217829   0.065   3.876   7.905  0.0000  0.0000  0.0000
17080TPS    CA117830   0.090   3.757   7.975  0.0000  0.0000  0.0000
17080TPS     Si17831   0.090   3.757   8.161  0.0000  0.0000  0.0000
17080TPS    CA617832   0.131   3.643   7.903  0.0000  0.0000  0.0000
17080TPS    HH617833   0.146   3.547   7.952  0.0000  0.0000  0.0000
17080TPS    CA517834   0.154   3.650   7.764  0.0000  0.0000  0.0000
17080TPS    HA517835   0.186   3.563   7.709  0.0000  0.0000  0.0000
17080TPS    CA417836   0.131   3.771   7.696  0.0000  0.0000  0.0000
17080TPS    HA417837   0.150   3.777   7.589  0.0000  0.0000  0.0000
17080TPS    CA317838   0.084   3.883   7.766  0.0000  0.0000  0.0000
17080TPS    HA317839   0.067   3.976   7.712  0.0000  0.0000  0.0000
17081TPS    HA217840   6.156   0.118   1.349  0.0000  0.0000  0.0000
17081TPS    CA217841   6.183   0.210   1.400  0.0000  0.0000  0.0000
17081TPS    CA117842   6.208   0.329   1.330  0.0000  0.0000  0.0000
17081TPS     Si17843   6.208   0.329   1.144  0.0000  0.0000  0.0000
17081TPS    CA617844   6.249   0.443   1.402  0.0000  0.0000  0.0000
17081TPS    HH617845   6.264   0.539   1.353  0.0000  0.0000  0.0000
17081TPS    CA517846   6.272   0.436   1.541  0.0000  0.0000  0.0000
17081TPS    HA517847   6.304   0.523   1.596  0.0000  0.0000  0.0000
17081TPS    CA417848   6.249   0.315   1.609  0.0000  0.0000  0.0000
17081TPS    HA417849   6.268   0.309   1.716  0.0000  0.0000  0.0000
17081TPS    CA317850   6.202   0.203   1.539  0.0000  0.0000  0.0000
17081TPS    HA317851   6.185   0.110   1.593  0.0000  0.0000  0.0000
17082TPS    HA217852   3.137   0.468   8.028  0.0000  0.0000  0.0000
17082TPS    CA217853   3.164   0.376   7.977  0.0000  0.0000  0.0000
17082TPS    CA117854   3.189   0.257   8.047  0.0000  0.0000  0.0000
17082TPS     Si17855   3.189   0.257   8.233  0.0000  0.0000  0.0000
17082TPS    CA617856   3.230   0.143   7.975  0.0000  0.0000  0.0000
17082TPS    HH617857   3.245   0.047   8.024  0.0000  0.0000  0.0000
17082TPS    CA517858   3.253   0.150   7.836  0.0000  0.0000  0.0000
17082TPS    HA517859   3.285   0.063   7.781  0.0000  0.0000  0.0000
17082TPS    CA417860   3.230   0.271   7.768  0.0000  0.0000  0.0000
17082TPS    HA417861   3.249   0.277   7.661  0.0000  0.0000  0.0000
17082TPS    CA317862   3.183   0.383   7.838  0.0000  0.0000  0.0000
17082TPS    HA317863   3.166   0.476   7.784  0.0000  0.0000  0.0000
17083TPS    HA217864   1.863   3.328   1.394  0.0000  0.0000  0.0000
17083TPS    CA217865   1.857   3.423   1.445  0.0000  0.0000  0.0000
17083TPS    CA117866   1.840   3.544   1.375  0.0000  0.0000  0.0000
17083TPS     Si17867   1.840   3.544   1.189  0.0000  0.0000  0.0000
17083TPS    CA617868   1.840   3.665   1.447  0.0000  0.0000  0.0000
17083TPS    HH617869   1.821   3.760   1.398  0.0000  0.0000  0.0000
17083TPS    CA517870   1.863   3.666   1.586  0.0000  0.0000  0.0000
17083TPS    HA517871   1.864   3.759   1.641  0.0000  0.0000  0.0000
17083TPS    CA417872   1.883   3.545   1.654  0.0000  0.0000  0.0000
17083TPS    HA417873   1.903   3.546   1.761  0.0000  0.0000  0.0000
17083TPS    CA317874   1.877   3.424   1.584  0.0000  0.0000  0.0000
17083TPS    HA317875   1.893   3.331   1.638  0.0000  0.0000  0.0000
17084TPS    HA217876   4.629   3.121   8.149  0.0000  0.0000  0.0000
17084TPS    CA217877   4.656   3.029   8.098  0.0000  0.0000  0.0000
17084TPS    CA117878   4.681   2.910   8.168  0.0000  0.0000  0.0000
17084TPS     Si17879   4.681   2.910   8.354  0.0000  0.0000  0.0000
17084TPS    CA617880   4.722   2.796   8.096  0.0000  0.0000  0.0000
17084TPS    HH617881   4.737   2.700   8.145  0.0000  0.0000  0.0000
17084TPS    CA517882   4.745   2.803   7.957  0.0000  0.0000  0.0000
17084TPS    HA517883   4.777   2.716   7.902  0.0000  0.0000  0.0000
17084TPS    CA417884   4.722   2.924   7.889  0.0000  0.0000  0.0000
17084TPS    HA417885   4.741   2.930   7.782  0.0000  0.0000  0.0000
17084TPS    CA317886   4.675   3.036   7.959  0.0000  0.0000  0.0000
17084TPS    HA317887   4.658   3.129   7.905  0.0000  0.0000  0.0000
17085TPS    HA217888   0.725   0.723   1.508  0.0000  0.0000  0.0000
17085TPS    CA217889   0.752   0.815   1.559  0.0000  0.0000  0.0000
17085TPS    CA117890   0.777   0.934   1.489  0.0000  0.0000  0.0000
17085TPS     Si17891   0.777   0.934   1.303  0.0000  0.0000  0.0000
17085TPS    CA617892   0.818   1.048   1.561  0.0000  0.0000  0.0000
17085TPS    HH617893   0.833   1.144   1.512  0.0000  0.0000  0.0000
17085TPS    CA517894   0.841   1.041   1.700  0.0000  0.0000  0.0000
17085TPS    HA517895   0.873   1.128   1.755  0.0000  0.0000  0.0000
17085TPS    CA417896   0.818   0.920   1.768  0.0000  0.0000  0.0000
17085TPS    HA417897   0.837   0.914   1.875  0.0000  0.0000  0.0000
17085TPS    CA317898   0.771   0.808   1.698  0.0000  0.0000  0.0000
17085TPS    HA317899   0.754   0.715   1.752  0.0000  0.0000  0.0000
17086TPS    HA217900   7.121   6.842   1.436  0.0000  0.0000  0.0000
17086TPS    CA217901   7.148   6.934   1.487  0.0000  0.0000  0.0000
17086TPS    CA117902   7.173   7.053   1.417  0.0000  0.0000  0.0000
17086TPS     Si17903   7.173   7.053   1.231  0.0000  0.0000  0.0000
17086TPS    CA617904   7.214   7.167   1.489  0.0000  0.0000  0.0000
17086TPS    HH617905   7.229   7.263   1.440  0.0000  0.0000  0.0000
17086TPS    CA517906   7.237   7.160   1.628  0.0000  0.0000  0.0000
17086TPS    HA517907   7.269   7.247   1.683  0.0000  0.0000  0.0000
17086TPS    CA417908   7.214   7.039   1.696  0.0000  0.0000  0.0000
17086TPS    HA417909   7.233   7.033   1.803  0.0000  0.0000  0.0000
17086TPS    CA317910   7.167   6.927   1.626  0.0000  0.0000  0.0000
17086TPS    HA317911   7.150   6.834   1.680  0.0000  0.0000  0.0000
17087TPS    HA217912   1.018   5.145   1.384  0.0000  0.0000  0.0000
17087TPS    CA217913   1.045   5.237   1.435  0.0000  0.0000  0.0000
17087TPS    CA117914   1.070   5.356   1.365  0.0000  0.0000  0.0000
17087TPS     Si17915   1.070   5.356   1.179  0.0000  0.0000  0.0000
17087TPS    CA617916   1.111   5.470   1.437  0.0000  0.0000  0.0000
17087TPS    HH617917   1.126   5.566   1.388  0.0000  0.0000  0.0000
17087TPS    CA517918   1.134   5.463   1.576  0.0000  0.0000  0.0000
17087TPS    HA517919   1.166   5.550   1.631  0.0000  0.0000  0.0000
17087TPS    CA417920   1.111   5.342   1.644  0.0000  0.0000  0.0000
17087TPS    HA417921   1.130   5.336   1.751  0.0000  0.0000  0.0000
17087TPS    CA317922   1.064   5.230   1.574  0.0000  0.0000  0.0000
17087TPS    HA317923   1.047   5.137   1.628  0.0000  0.0000  0.0000
17088TPS    HA217924   7.237   3.373   1.578  0.0000  0.0000  0.0000
17088TPS    CA217925   7.264   3.465   1.629  0.0000  0.0000  0.0000
17088TPS    CA117926   7.289   3.584   1.559  0.0000  0.0000  0.0000
17088TPS     Si17927   7.289   3.584   1.373  0.0000  0.0000  0.0000
17088TPS    CA617928   7.330   3.698   1.631  0.0000  0.0000  0.0000
17088TPS    HH617929   7.345   3.794   1.582  0.0000  0.0000  0.0000
17088TPS    CA517930   7.353   3.691   1.770  0.0000  0.0000  0.0000
17088TPS    HA517931   7.385   3.778   1.825  0.0000  0.0000  0.0000
17088TPS    CA417932   7.330   3.570   1.838  0.0000  0.0000  0.0000
17088TPS    HA417933   7.349   3.564   1.945  0.0000  0.0000  0.0000
17088TPS    CA317934   7.283   3.458   1.768  0.0000  0.0000  0.0000
17088TPS    HA317935   7.266   3.365   1.822  0.0000  0.0000  0.0000
17089TPS    HA217936   6.560   2.371   1.605  0.0000  0.0000  0.0000
17089TPS    CA217937   6.474   2.413   1.656  0.0000  0.0000  0.0000
17089TPS    CA117938   6.361   2.459   1.586  0.0000  0.0000  0.0000
17089TPS     Si17939   6.361   2.459   1.400  0.0000  0.0000  0.0000
17089TPS    CA617940   6.256   2.519   1.658  0.0000  0.0000  0.0000
17089TPS    HH617941   6.164   2.551   1.609  0.0000  0.0000  0.0000
17089TPS    CA517942   6.267   2.540   1.797  0.0000  0.0000  0.0000
17089TPS    HA517943   6.186   2.587   1.852  0.0000  0.0000  0.0000
17089TPS    CA417944   6.382   2.497   1.865  0.0000  0.0000  0.0000
17089TPS    HA417945   6.391   2.515   1.972  0.0000  0.0000  0.0000
17089TPS    CA317946   6.484   2.431   1.795  0.0000  0.0000  0.0000
17089TPS    HA317947   6.572   2.398   1.849  0.0000  0.0000  0.0000
17090TPS    HA217948   6.291   4.834   1.404  0.0000  0.0000  0.0000
17090TPS    CA217949   6.318   4.926   1.455  0.0000  0.0000  0.0000
17090TPS    CA117950   6.343   5.045   1.385  0.0000  0.0000  0.0000
17090TPS     Si17951   6.343   5.045   1.199  0.0000  0.0000  0.0000
17090TPS    CA617952   6.384   5.159   1.457  0.0000  0.0000  0.0000
17090TPS    HH617953   6.399   5.255   1.408  0.0000  0.0000  0.0000
17090TPS    CA517954   6.407   5.152   1.596  0.0000  0.0000  0.0000
17090TPS    HA517955   6.439   5.239   1.651  0.0000  0.0000  0.0000
17090TPS    CA417956   6.384   5.031   1.664  0.0000  0.0000  0.0000
17090TPS    HA417957   6.403   5.025   1.771  0.0000  0.0000  0.0000
17090TPS    CA317958   6.337   4.919   1.594  0.0000  0.0000  0.0000
17090TPS    HA317959   6.320   4.826   1.648  0.0000  0.0000  0.0000
17091TPS    HA217960   7.523   3.008   1.492  0.0000  0.0000  0.0000
17091TPS    CA217961   7.550   3.100   1.543  0.0000  0.0000  0.0000
17091TPS    CA117962   7.575   3.219   1.473  0.0000  0.0000  0.0000
17091TPS     Si17963   7.575   3.219   1.287  0.0000  0.0000  0.0000
17091TPS    CA617964   7.616   3.333   1.545  0.0000  0.0000  0.0000
17091TPS    HH617965   7.631   3.429   1.496  0.0000  0.0000  0.0000
17091TPS    CA517966   7.639   3.326   1.684  0.0000  0.0000  0.0000
17091TPS    HA517967   7.671   3.413   1.739  0.0000  0.0000  0.0000
17091TPS    CA417968   7.616   3.205   1.752  0.0000  0.0000  0.0000
17091TPS    HA417969   7.635   3.199   1.859  0.0000  0.0000  0.0000
17091TPS    CA317970   7.569   3.093   1.682  0.0000  0.0000  0.0000
17091TPS    HA317971   7.552   3.000   1.736  0.0000  0.0000  0.0000
17092TPS    HA217972   9.246   7.552   1.403  0.0000  0.0000  0.0000
17092TPS    CA217973   9.273   7.644   1.454  0.0000  0.0000  0.0000
17092TPS    CA117974   9.298   7.763   1.384  0.0000  0.0000  0.0000
17092TPS     Si17975   9.298   7.763   1.198  0.0000  0.0000  0.0000
17092TPS    CA617976   9.339   7.877   1.456  0.0000  0.0000  0.0000
17092TPS    HH617977   9.354   7.973   1.407  0.0000  0.0000  0.0000
17092TPS    CA517978   9.362   7.870   1.595  0.0000  0.0000  0.0000
17092TPS    HA517979   9.394   7.957   1.650  0.0000  0.0000  0.0000
17092TPS    CA417980   9.339   7.749   1.663  0.0000  0.0000  0.0000
17092TPS    HA417981   9.358   7.743   1.770  0.0000  0.0000  0.0000
17092TPS    CA317982   9.292   7.637   1.593  0.0000  0.0000  0.0000
17092TPS    HA317983   9.275   7.544   1.647  0.0000  0.0000  0.0000
17093TPS    HA217984   0.116   5.540   8.066  0.0000  0.0000  0.0000
17093TPS    CA217985   0.143   5.448   8.015  0.0000  0.0000  0.0000
17093TPS    CA117986   0.168   5.329   8.085  0.0000  0.0000  0.0000
17093TPS     Si17987   0.168   5.329   8.271  0.0000  0.0000  0.0000
17093TPS    CA617988   0.209   5.215   8.013  0.0000  0.0000  0.0000
17093TPS    HH617989   0.224   5.119   8.062  0.0000  0.0000  0.0000
17093TPS    CA517990   0.232   5.222   7.874  0.0000  0.0000  0.0000
17093TPS    HA517991   0.264   5.135   7.819  0.0000  0.0000  0.0000
17093TPS    CA417992   0.209   5.343   7.806  0.0000  0.0000  0.0000
17093TPS    HA417993   0.228   5.349   7.699  0.0000  0.0000  0.0000
17093TPS    CA317994   0.162   5.455   7.876  0.0000  0.0000  0.0000
17093TPS    HA317995   0.145   5.548   7.822  0.0000  0.0000  0.0000
17094TPS    HA217996   1.796   6.956   7.988  0.0000  0.0000  0.0000
17094TPS    CA217997   1.823   6.864   7.937  0.0000  0.0000  0.0000
17094TPS    CA117998   1.848   6.745   8.007  0.0000  0.0000  0.0000
17094TPS     Si17999   1.848   6.745   8.193  0.0000  0.0000  0.0000
17094TPS    CA618000   1.889   6.631   7.935  0.0000  0.0000  0.0000
17094TPS    HH618001   1.904   6.535   7.984  0.0000  0.0000  0.0000
17094TPS    CA518002   1.912   6.638   7.796  0.0000  0.0000  0.0000
17094TPS    HA518003   1.944   6.551   7.741  0.0000  0.0000  0.0000
17094TPS    CA418004   1.889   6.759   7.728  0.0000  0.0000  0.0000
17094TPS    HA418005   1.908   6.765   7.621  0.0000  0.0000  0.0000
17094TPS    CA318006   1.842   6.871   7.798  0.0000  0.0000  0.0000
17094TPS    HA318007   1.825   6.964   7.744  0.0000  0.0000  0.0000
17095TPS    HA218008   3.891   6.121   1.469  0.0000  0.0000  0.0000
17095TPS    CA218009   3.918   6.213   1.520  0.0000  0.0000  0.0000
17095TPS    CA118010   3.943   6.332   1.450  0.0000  0.0000  0.0000
17095TPS     Si18011   3.943   6.332   1.264  0.0000  0.0000  0.0000
17095TPS    CA618012   3.984   6.446   1.522  0.0000  0.0000  0.0000
17095TPS    HH618013   3.999   6.542   1.473  0.0000  0.0000  0.0000
17095TPS    CA518014   4.007   6.439   1.661  0.0000  0.0000  0.0000
17095TPS    HA518015   4.039   6.526   1.716  0.0000  0.0000  0.0000
17095TPS    CA418016   3.984   6.318   1.729  0.0000  0.0000  0.0000
17095TPS    HA418017   4.003   6.312   1.836  0.0000  0.0000  0.0000
17095TPS    CA318018   3.937   6.206   1.659  0.0000  0.0000  0.0000
17095TPS    HA318019   3.920   6.113   1.713  0.0000  0.0000  0.0000
17096TPS    HA218020   8.612   5.428   8.001  0.0000  0.0000  0.0000
17096TPS    CA218021   8.639   5.336   7.950  0.0000  0.0000  0.0000
17096TPS    CA118022   8.664   5.217   8.020  0.0000  0.0000  0.0000
17096TPS     Si18023   8.664   5.217   8.206  0.0000  0.0000  0.0000
17096TPS    CA618024   8.705   5.103   7.948  0.0000  0.0000  0.0000
17096TPS    HH618025   8.720   5.007   7.997  0.0000  0.0000  0.0000
17096TPS    CA518026   8.728   5.110   7.809  0.0000  0.0000  0.0000
17096TPS    HA518027   8.760   5.023   7.754  0.0000  0.0000  0.0000
17096TPS    CA418028   8.705   5.231   7.741  0.0000  0.0000  0.0000
17096TPS    HA418029   8.724   5.237   7.634  0.0000  0.0000  0.0000
17096TPS    CA318030   8.658   5.343   7.811  0.0000  0.0000  0.0000
17096TPS    HA318031   8.641   5.436   7.757  0.0000  0.0000  0.0000
17097TPS    HA218032   4.232   6.656   1.629  0.0000  0.0000  0.0000
17097TPS    CA218033   4.259   6.748   1.680  0.0000  0.0000  0.0000
17097TPS    CA118034   4.284   6.867   1.610  0.0000  0.0000  0.0000
17097TPS     Si18035   4.284   6.867   1.424  0.0000  0.0000  0.0000
17097TPS    CA618036   4.325   6.981   1.682  0.0000  0.0000  0.0000
17097TPS    HH618037   4.340   7.077   1.633  0.0000  0.0000  0.0000
17097TPS    CA518038   4.348   6.974   1.821  0.0000  0.0000  0.0000
17097TPS    HA518039   4.380   7.061   1.876  0.0000  0.0000  0.0000
17097TPS    CA418040   4.325   6.853   1.889  0.0000  0.0000  0.0000
17097TPS    HA418041   4.344   6.847   1.996  0.0000  0.0000  0.0000
17097TPS    CA318042   4.278   6.741   1.819  0.0000  0.0000  0.0000
17097TPS    HA318043   4.261   6.648   1.873  0.0000  0.0000  0.0000
17098TPS    HA218044   2.028   4.242   1.537  0.0000  0.0000  0.0000
17098TPS    CA218045   2.055   4.334   1.588  0.0000  0.0000  0.0000
17098TPS    CA118046   2.080   4.453   1.518  0.0000  0.0000  0.0000
17098TPS     Si18047   2.080   4.453   1.332  0.0000  0.0000  0.0000
17098TPS    CA618048   2.121   4.567   1.590  0.0000  0.0000  0.0000
17098TPS    HH618049   2.136   4.663   1.541  0.0000  0.0000  0.0000
17098TPS    CA518050   2.144   4.560   1.729  0.0000  0.0000  0.0000
17098TPS    HA518051   2.176   4.647   1.784  0.0000  0.0000  0.0000
17098TPS    CA418052   2.121   4.439   1.797  0.0000  0.0000  0.0000
17098TPS    HA418053   2.140   4.433   1.904  0.0000  0.0000  0.0000
17098TPS    CA318054   2.074   4.327   1.727  0.0000  0.0000  0.0000
17098TPS    HA318055   2.057   4.234   1.781  0.0000  0.0000  0.0000
17099TPS    HA218056   5.822   5.721   8.150  0.0000  0.0000  0.0000
17099TPS    CA218057   5.849   5.629   8.099  0.0000  0.0000  0.0000
17099TPS    CA118058   5.874   5.510   8.169  0.0000  0.0000  0.0000
17099TPS     Si18059   5.874   5.510   8.355  0.0000  0.0000  0.0000
17099TPS    CA618060   5.915   5.396   8.097  0.0000  0.0000  0.0000
17099TPS    HH618061   5.930   5.300   8.146  0.0000  0.0000  0.0000
17099TPS    CA518062   5.938   5.403   7.958  0.0000  0.0000  0.0000
17099TPS    HA518063   5.970   5.316   7.903  0.0000  0.0000  0.0000
17099TPS    CA418064   5.915   5.524   7.890  0.0000  0.0000  0.0000
17099TPS    HA418065   5.934   5.530   7.783  0.0000  0.0000  0.0000
17099TPS    CA318066   5.868   5.636   7.960  0.0000  0.0000  0.0000
17099TPS    HA318067   5.851   5.729   7.906  0.0000  0.0000  0.0000
17100TPS    HA218068   5.906   1.037   8.049  0.0000  0.0000  0.0000
17100TPS    CA218069   5.900   0.942   7.998  0.0000  0.0000  0.0000
17100TPS    CA118070   5.883   0.821   8.068  0.0000  0.0000  0.0000
17100TPS     Si18071   5.883   0.821   8.254  0.0000  0.0000  0.0000
17100TPS    CA618072   5.883   0.700   7.996  0.0000  0.0000  0.0000
17100TPS    HH618073   5.864   0.605   8.045  0.0000  0.0000  0.0000
17100TPS    CA518074   5.906   0.699   7.857  0.0000  0.0000  0.0000
17100TPS    HA518075   5.907   0.606   7.802  0.0000  0.0000  0.0000
17100TPS    CA418076   5.926   0.820   7.789  0.0000  0.0000  0.0000
17100TPS    HA418077   5.946   0.819   7.682  0.0000  0.0000  0.0000
17100TPS    CA318078   5.920   0.941   7.859  0.0000  0.0000  0.0000
17100TPS    HA318079   5.936   1.034   7.805  0.0000  0.0000  0.0000
17101TPS    HA218080   2.670   1.647   8.180  0.0000  0.0000  0.0000
17101TPS    CA218081   2.697   1.555   8.129  0.0000  0.0000  0.0000
17101TPS    CA118082   2.722   1.436   8.199  0.0000  0.0000  0.0000
17101TPS     Si18083   2.722   1.436   8.385  0.0000  0.0000  0.0000
17101TPS    CA618084   2.763   1.322   8.127  0.0000  0.0000  0.0000
17101TPS    HH618085   2.778   1.226   8.176  0.0000  0.0000  0.0000
17101TPS    CA518086   2.786   1.329   7.988  0.0000  0.0000  0.0000
17101TPS    HA518087   2.818   1.242   7.933  0.0000  0.0000  0.0000
17101TPS    CA418088   2.763   1.450   7.920  0.0000  0.0000  0.0000
17101TPS    HA418089   2.782   1.456   7.813  0.0000  0.0000  0.0000
17101TPS    CA318090   2.716   1.562   7.990  0.0000  0.0000  0.0000
17101TPS    HA318091   2.699   1.655   7.936  0.0000  0.0000  0.0000
17102TPS    HA218092   8.651   9.058   8.066  0.0000  0.0000  0.0000
17102TPS    CA218093   8.678   8.966   8.015  0.0000  0.0000  0.0000
17102TPS    CA118094   8.703   8.847   8.085  0.0000  0.0000  0.0000
17102TPS     Si18095   8.703   8.847   8.271  0.0000  0.0000  0.0000
17102TPS    CA618096   8.744   8.733   8.013  0.0000  0.0000  0.0000
17102TPS    HH618097   8.759   8.637   8.062  0.0000  0.0000  0.0000
17102TPS    CA518098   8.767   8.740   7.874  0.0000  0.0000  0.0000
17102TPS    HA518099   8.799   8.653   7.819  0.0000  0.0000  0.0000
17102TPS    CA418100   8.744   8.861   7.806  0.0000  0.0000  0.0000
17102TPS    HA418101   8.763   8.867   7.699  0.0000  0.0000  0.0000
17102TPS    CA318102   8.697   8.973   7.876  0.0000  0.0000  0.0000
17102TPS    HA318103   8.680   9.066   7.822  0.0000  0.0000  0.0000
17103TPS    HA218104   2.611   2.281   8.175  0.0000  0.0000  0.0000
17103TPS    CA218105   2.638   2.189   8.124  0.0000  0.0000  0.0000
17103TPS    CA118106   2.663   2.070   8.194  0.0000  0.0000  0.0000
17103TPS     Si18107   2.663   2.070   8.380  0.0000  0.0000  0.0000
17103TPS    CA618108   2.704   1.956   8.122  0.0000  0.0000  0.0000
17103TPS    HH618109   2.719   1.860   8.171  0.0000  0.0000  0.0000
17103TPS    CA518110   2.727   1.963   7.983  0.0000  0.0000  0.0000
17103TPS    HA518111   2.759   1.876   7.928  0.0000  0.0000  0.0000
17103TPS    CA418112   2.704   2.084   7.915  0.0000  0.0000  0.0000
17103TPS    HA418113   2.723   2.090   7.808  0.0000  0.0000  0.0000
17103TPS    CA318114   2.657   2.196   7.985  0.0000  0.0000  0.0000
17103TPS    HA318115   2.640   2.289   7.931  0.0000  0.0000  0.0000
17104TPS    HA218116   9.270   5.780   1.331  0.0000  0.0000  0.0000
17104TPS    CA218117   9.297   5.872   1.382  0.0000  0.0000  0.0000
17104TPS    CA118118   9.322   5.991   1.312  0.0000  0.0000  0.0000
17104TPS     Si18119   9.322   5.991   1.126  0.0000  0.0000  0.0000
17104TPS    CA618120   9.363   6.105   1.384  0.0000  0.0000  0.0000
17104TPS    HH618121   9.378   6.201   1.335  0.0000  0.0000  0.0000
17104TPS    CA518122   9.386   6.098   1.523  0.0000  0.0000  0.0000
17104TPS    HA518123   9.418   6.185   1.578  0.0000  0.0000  0.0000
17104TPS    CA418124   9.363   5.977   1.591  0.0000  0.0000  0.0000
17104TPS    HA418125   9.382   5.971   1.698  0.0000  0.0000  0.0000
17104TPS    CA318126   9.316   5.865   1.521  0.0000  0.0000  0.0000
17104TPS    HA318127   9.299   5.772   1.575  0.0000  0.0000  0.0000
17105TPS    HA218128   7.563   5.570   1.427  0.0000  0.0000  0.0000
17105TPS    CA218129   7.590   5.662   1.478  0.0000  0.0000  0.0000
17105TPS    CA118130   7.615   5.781   1.408  0.0000  0.0000  0.0000
17105TPS     Si18131   7.615   5.781   1.222  0.0000  0.0000  0.0000
17105TPS    CA618132   7.656   5.895   1.480  0.0000  0.0000  0.0000
17105TPS    HH618133   7.671   5.991   1.431  0.0000  0.0000  0.0000
17105TPS    CA518134   7.679   5.888   1.619  0.0000  0.0000  0.0000
17105TPS    HA518135   7.711   5.975   1.674  0.0000  0.0000  0.0000
17105TPS    CA418136   7.656   5.767   1.687  0.0000  0.0000  0.0000
17105TPS    HA418137   7.675   5.761   1.794  0.0000  0.0000  0.0000
17105TPS    CA318138   7.609   5.655   1.617  0.0000  0.0000  0.0000
17105TPS    HA318139   7.592   5.562   1.671  0.0000  0.0000  0.0000
17106TPS    HA218140   5.982   1.381   1.533  0.0000  0.0000  0.0000
17106TPS    CA218141   6.009   1.473   1.584  0.0000  0.0000  0.0000
17106TPS    CA118142   6.034   1.592   1.514  0.0000  0.0000  0.0000
17106TPS     Si18143   6.034   1.592   1.328  0.0000  0.0000  0.0000
17106TPS    CA618144   6.075   1.706   1.586  0.0000  0.0000  0.0000
17106TPS    HH618145   6.090   1.802   1.537  0.0000  0.0000  0.0000
17106TPS    CA518146   6.098   1.699   1.725  0.0000  0.0000  0.0000
17106TPS    HA518147   6.130   1.786   1.780  0.0000  0.0000  0.0000
17106TPS    CA418148   6.075   1.578   1.793  0.0000  0.0000  0.0000
17106TPS    HA418149   6.094   1.572   1.900  0.0000  0.0000  0.0000
17106TPS    CA318150   6.028   1.466   1.723  0.0000  0.0000  0.0000
17106TPS    HA318151   6.011   1.373   1.777  0.0000  0.0000  0.0000
17107TPS    HA218152   1.316   3.411   8.148  0.0000  0.0000  0.0000
17107TPS    CA218153   1.343   3.319   8.097  0.0000  0.0000  0.0000
17107TPS    CA118154   1.368   3.200   8.167  0.0000  0.0000  0.0000
17107TPS     Si18155   1.368   3.200   8.353  0.0000  0.0000  0.0000
17107TPS    CA618156   1.409   3.086   8.095  0.0000  0.0000  0.0000
17107TPS    HH618157   1.424   2.990   8.144  0.0000  0.0000  0.0000
17107TPS    CA518158   1.432   3.093   7.956  0.0000  0.0000  0.0000
17107TPS    HA518159   1.464   3.006   7.901  0.0000  0.0000  0.0000
17107TPS    CA418160   1.409   3.214   7.888  0.0000  0.0000  0.0000
17107TPS    HA418161   1.428   3.220   7.781  0.0000  0.0000  0.0000
17107TPS    CA318162   1.362   3.326   7.958  0.0000  0.0000  0.0000
17107TPS    HA318163   1.345   3.419   7.904  0.0000  0.0000  0.0000
17108TPS    HA218164   5.981   7.180   7.996  0.0000  0.0000  0.0000
17108TPS    CA218165   6.008   7.088   7.945  0.0000  0.0000  0.0000
17108TPS    CA118166   6.033   6.969   8.015  0.0000  0.0000  0.0000
17108TPS     Si18167   6.033   6.969   8.201  0.0000  0.0000  0.0000
17108TPS    CA618168   6.074   6.855   7.943  0.0000  0.0000  0.0000
17108TPS    HH618169   6.089   6.759   7.992  0.0000  0.0000  0.0000
17108TPS    CA518170   6.097   6.862   7.804  0.0000  0.0000  0.0000
17108TPS    HA518171   6.129   6.775   7.749  0.0000  0.0000  0.0000
17108TPS    CA418172   6.074   6.983   7.736  0.0000  0.0000  0.0000
17108TPS    HA418173   6.093   6.989   7.629  0.0000  0.0000  0.0000
17108TPS    CA318174   6.027   7.095   7.806  0.0000  0.0000  0.0000
17108TPS    HA318175   6.010   7.188   7.752  0.0000  0.0000  0.0000
17109TPS    HA218176   5.118   3.083   1.630  0.0000  0.0000  0.0000
17109TPS    CA218177   5.145   3.175   1.681  0.0000  0.0000  0.0000
17109TPS    CA118178   5.170   3.294   1.611  0.0000  0.0000  0.0000
17109TPS     Si18179   5.170   3.294   1.425  0.0000  0.0000  0.0000
17109TPS    CA618180   5.211   3.408   1.683  0.0000  0.0000  0.0000
17109TPS    HH618181   5.226   3.504   1.634  0.0000  0.0000  0.0000
17109TPS    CA518182   5.234   3.401   1.822  0.0000  0.0000  0.0000
17109TPS    HA518183   5.266   3.488   1.877  0.0000  0.0000  0.0000
17109TPS    CA418184   5.211   3.280   1.890  0.0000  0.0000  0.0000
17109TPS    HA418185   5.230   3.274   1.997  0.0000  0.0000  0.0000
17109TPS    CA318186   5.164   3.168   1.820  0.0000  0.0000  0.0000
17109TPS    HA318187   5.147   3.075   1.874  0.0000  0.0000  0.0000
17110TPS    HA218188   1.345   0.378   8.090  0.0000  0.0000  0.0000
17110TPS    CA218189   1.372   0.286   8.039  0.0000  0.0000  0.0000
17110TPS    CA118190   1.397   0.167   8.109  0.0000  0.0000  0.0000
17110TPS     Si18191   1.397   0.167   8.295  0.0000  0.0000  0.0000
17110TPS    CA618192   1.438   0.053   8.037  0.0000  0.0000  0.0000
17110TPS    HH618193   1.453  -0.043   8.086  0.0000  0.0000  0.0000
17110TPS    CA518194   1.461   0.060   7.898  0.0000  0.0000  0.0000
17110TPS    HA518195   1.493  -0.027   7.843  0.0000  0.0000  0.0000
17110TPS    CA418196   1.438   0.181   7.830  0.0000  0.0000  0.0000
17110TPS    HA418197   1.457   0.187   7.723  0.0000  0.0000  0.0000
17110TPS    CA318198   1.391   0.293   7.900  0.0000  0.0000  0.0000
17110TPS    HA318199   1.374   0.386   7.846  0.0000  0.0000  0.0000
17111TPS    HA218200   3.101   6.068   7.986  0.0000  0.0000  0.0000
17111TPS    CA218201   3.128   5.976   7.935  0.0000  0.0000  0.0000
17111TPS    CA118202   3.153   5.857   8.005  0.0000  0.0000  0.0000
17111TPS     Si18203   3.153   5.857   8.191  0.0000  0.0000  0.0000
17111TPS    CA618204   3.194   5.743   7.933  0.0000  0.0000  0.0000
17111TPS    HH618205   3.209   5.647   7.982  0.0000  0.0000  0.0000
17111TPS    CA518206   3.217   5.750   7.794  0.0000  0.0000  0.0000
17111TPS    HA518207   3.249   5.663   7.739  0.0000  0.0000  0.0000
17111TPS    CA418208   3.194   5.871   7.726  0.0000  0.0000  0.0000
17111TPS    HA418209   3.213   5.877   7.619  0.0000  0.0000  0.0000
17111TPS    CA318210   3.147   5.983   7.796  0.0000  0.0000  0.0000
17111TPS    HA318211   3.130   6.076   7.742  0.0000  0.0000  0.0000
17112SL     Si118212   3.718   6.537   1.343  0.0000  0.0000  0.0000
17112SL      O118213   3.718   6.537   1.507  0.0000  0.0000  0.0000
17112SL      H118214   3.718   6.537   1.605  0.0000  0.0000  0.0000
17113SL     Si118215   7.992   5.884   8.357  0.0000  0.0000  0.0000
17113SL      O118216   7.992   5.884   8.193  0.0000  0.0000  0.0000
17113SL      H118217   7.992   5.884   8.095  0.0000  0.0000  0.0000
17114SL     Si118218   0.859   2.304   1.416  0.0000  0.0000  0.0000
17114SL      O118219   0.859   2.304   1.580  0.0000  0.0000  0.0000
17114SL      H118220   0.859   2.304   1.678  0.0000  0.0000  0.0000
17115SL     Si118221   1.123   2.669   1.409  0.0000  0.0000  0.0000
17115SL      O118222   1.123   2.669   1.573  0.0000  0.0000  0.0000
17115SL      H118223   1.123   2.669   1.671  0.0000  0.0000  0.0000
17116SL     Si118224   0.512   6.963   8.305  0.0000  0.0000  0.0000
17116SL      O118225   0.512   6.963   8.141  0.0000  0.0000  0.0000
17116SL      H118226   0.512   6.963   8.043  0.0000  0.0000  0.0000
17117SL     Si118227   8.499   9.063   8.343  0.0000  0.0000  0.0000
17117SL      O118228   8.499   9.063   8.179  0.0000  0.0000  0.0000
17117SL      H118229   8.499   9.063   8.081  0.0000  0.0000  0.0000
17118SL     Si118230   7.344   5.633   1.265  0.0000  0.0000  0.0000
17118SL      O118231   7.344   5.633   1.429  0.0000  0.0000  0.0000
17118SL      H118232   7.344   5.633   1.527  0.0000  0.0000  0.0000
17119SL     Si118233   8.447   1.779   1.289  0.0000  0.0000  0.0000
17119SL      O118234   8.447   1.779   1.453  0.0000  0.0000  0.0000
17119SL      H118235   8.447   1.779   1.551  0.0000  0.0000  0.0000
17120SL     Si118236   4.579   1.916   8.298  0.0000  0.0000  0.0000
17120SL      O118237   4.579   1.916   8.134  0.0000  0.0000  0.0000
17120SL      H118238   4.579   1.916   8.036  0.0000  0.0000  0.0000
17121SL     Si118239   0.305   0.244   1.257  0.0000  0.0000  0.0000
17121SL      O118240   0.305   0.244   1.421  0.0000  0.0000  0.0000
17121SL      H118241   0.305   0.244   1.519  0.0000  0.0000  0.0000
17122SL     Si118242   2.259   3.733   8.304  0.0000  0.0000  0.0000
17122SL      O118243   2.259   3.733   8.140  0.0000  0.0000  0.0000
17122SL      H118244   2.259   3.733   8.042  0.0000  0.0000  0.0000
17123SL     Si118245   8.515   8.288   1.221  0.0000  0.0000  0.0000
17123SL      O118246   8.515   8.288   1.385  0.0000  0.0000  0.0000
17123SL      H118247   8.515   8.288   1.483  0.0000  0.0000  0.0000
17124SL     Si118248   1.135   5.049   1.234  0.0000  0.0000  0.0000
17124SL      O118249   1.135   5.049   1.398  0.0000  0.0000  0.0000
17124SL      H118250   1.135   5.049   1.496  0.0000  0.0000  0.0000
17125SL     Si118251   3.663   0.258   1.308  0.0000  0.0000  0.0000
17125SL      O118252   3.663   0.258   1.472  0.0000  0.0000  0.0000
17125SL      H118253   3.663   0.258   1.570  0.0000  0.0000  0.0000
17126SL     Si118254   6.754   1.489   1.271  0.0000  0.0000  0.0000
17126SL      O118255   6.754   1.489   1.435  0.0000  0.0000  0.0000
17126SL      H118256   6.754   1.489   1.533  0.0000  0.0000  0.0000
17127SL     Si118257   3.452   9.447   8.395  0.0000  0.0000  0.0000
17127SL      O118258   3.452   9.447   8.231  0.0000  0.0000  0.0000
17127SL      H118259   3.452   9.447   8.133  0.0000  0.0000  0.0000
17128SL     Si118260   0.975   1.598   1.243  0.0000  0.0000  0.0000
17128SL      O118261   0.975   1.598   1.407  0.0000  0.0000  0.0000
17128SL      H118262   0.975   1.598   1.505  0.0000  0.0000  0.0000
17129SL     Si118263   3.193   9.419   1.400  0.0000  0.0000  0.0000
17129SL      O118264   3.193   9.419   1.564  0.0000  0.0000  0.0000
17129SL      H118265   3.193   9.419   1.662  0.0000  0.0000  0.0000
17130SL     Si118266   6.935   7.922   1.213  0.0000  0.0000  0.0000
17130SL      O118267   6.935   7.922   1.377  0.0000  0.0000  0.0000
17130SL      H118268   6.935   7.922   1.475  0.0000  0.0000  0.0000
17131SL     Si118269   6.534   5.583   1.356  0.0000  0.0000  0.0000
17131SL      O118270   6.534   5.583   1.520  0.0000  0.0000  0.0000
17131SL      H118271   6.534   5.583   1.618  0.0000  0.0000  0.0000
17132SL     Si118272   0.544   8.457   1.374  0.0000  0.0000  0.0000
17132SL      O118273   0.544   8.457   1.538  0.0000  0.0000  0.0000
17132SL      H118274   0.544   8.457   1.636  0.0000  0.0000  0.0000
17133SL     Si118275   5.490   3.611   8.236  0.0000  0.0000  0.0000
17133SL      O118276   5.490   3.611   8.072  0.0000  0.0000  0.0000
17133SL      H118277   5.490   3.611   7.974  0.0000  0.0000  0.0000
17134SL     Si118278   7.269   1.094   8.223  0.0000  0.0000  0.0000
17134SL      O118279   7.269   1.094   8.059  0.0000  0.0000  0.0000
17134SL      H118280   7.269   1.094   7.961  0.0000  0.0000  0.0000
17135SL     Si118281   7.822   7.275   8.157  0.0000  0.0000  0.0000
17135SL      O118282   7.822   7.275   7.993  0.0000  0.0000  0.0000
17135SL      H118283   7.822   7.275   7.895  0.0000  0.0000  0.0000
17136SL     Si118284   2.750   0.786   1.096  0.0000  0.0000  0.0000
17136SL      O118285   2.750   0.786   1.260  0.0000  0.0000  0.0000
17136SL      H118286   2.750   0.786   1.358  0.0000  0.0000  0.0000
17137SL     Si118287   8.880   2.080   8.213  0.0000  0.0000  0.0000
17137SL      O118288   8.880   2.080   8.049  0.0000  0.0000  0.0000
17137SL      H118289   8.880   2.080   7.951  0.0000  0.0000  0.0000
17138SL     Si118290   3.608   5.388   1.126  0.0000  0.0000  0.0000
17138SL      O118291   3.608   5.388   1.290  0.0000  0.0000  0.0000
17138SL      H118292   3.608   5.388   1.388  0.0000  0.0000  0.0000
17139SL     Si118293   9.387   0.117   1.137  0.0000  0.0000  0.0000
17139SL      O118294   9.387   0.117   1.301  0.0000  0.0000  0.0000
17139SL      H118295   9.387   0.117   1.399  0.0000  0.0000  0.0000
17140SL     Si118296   1.422   0.720   8.381  0.0000  0.0000  0.0000
17140SL      O118297   1.422   0.720   8.217  0.0000  0.0000  0.0000
17140SL      H118298   1.422   0.720   8.119  0.0000  0.0000  0.0000
17141SL     Si118299   4.498   6.262   1.249  0.0000  0.0000  0.0000
17141SL      O118300   4.498   6.262   1.413  0.0000  0.0000  0.0000
17141SL      H118301   4.498   6.262   1.511  0.0000  0.0000  0.0000
17142SL     Si118302   1.959   8.617   1.254  0.0000  0.0000  0.0000
17142SL      O118303   1.959   8.617   1.418  0.0000  0.0000  0.0000
17142SL      H118304   1.959   8.617   1.516  0.0000  0.0000  0.0000
17143SL     Si118305   4.769   7.777   1.347  0.0000  0.0000  0.0000
17143SL      O118306   4.769   7.777   1.511  0.0000  0.0000  0.0000
17143SL      H118307   4.769   7.777   1.609  0.0000  0.0000  0.0000
17144SL     Si118308   1.900   2.094   1.172  0.0000  0.0000  0.0000
17144SL      O118309   1.900   2.094   1.336  0.0000  0.0000  0.0000
17144SL      H118310   1.900   2.094   1.434  0.0000  0.0000  0.0000
17145SL     Si118311   8.727   2.819   1.324  0.0000  0.0000  0.0000
17145SL      O118312   8.727   2.819   1.488  0.0000  0.0000  0.0000
17145SL      H118313   8.727   2.819   1.586  0.0000  0.0000  0.0000
17146SL     Si118314   6.692   7.483   1.434  0.0000  0.0000  0.0000
17146SL      O118315   6.692   7.483   1.598  0.0000  0.0000  0.0000
17146SL      H118316   6.692   7.483   1.696  0.0000  0.0000  0.0000
17147SL     Si118317   3.307   8.479   8.231  0.0000  0.0000  0.0000
17147SL      O118318   3.307   8.479   8.067  0.0000  0.0000  0.0000
17147SL      H118319   3.307   8.479   7.969  0.0000  0.0000  0.0000
17148SL     Si118320   8.390   1.102   8.231  0.0000  0.0000  0.0000
17148SL      O118321   8.390   1.102   8.067  0.0000  0.0000  0.0000
17148SL      H118322   8.390   1.102   7.969  0.0000  0.0000  0.0000
17149SL     Si118323   2.353   8.588   8.201  0.0000  0.0000  0.0000
17149SL      O118324   2.353   8.588   8.037  0.0000  0.0000  0.0000
17149SL      H118325   2.353   8.588   7.939  0.0000  0.0000  0.0000
17150SL     Si118326   1.667   3.282   1.222  0.0000  0.0000  0.0000
17150SL      O118327   1.667   3.282   1.386  0.0000  0.0000  0.0000
17150SL      H118328   1.667   3.282   1.484  0.0000  0.0000  0.0000
17151SL     Si118329   5.037   2.843   1.183  0.0000  0.0000  0.0000
17151SL      O118330   5.037   2.843   1.347  0.0000  0.0000  0.0000
17151SL      H118331   5.037   2.843   1.445  0.0000  0.0000  0.0000
17152SL     Si118332   6.526   8.647   1.170  0.0000  0.0000  0.0000
17152SL      O118333   6.526   8.647   1.334  0.0000  0.0000  0.0000
17152SL      H118334   6.526   8.647   1.432  0.0000  0.0000  0.0000
17153SL     Si118335   6.166   6.551   8.195  0.0000  0.0000  0.0000
17153SL      O118336   6.166   6.551   8.031  0.0000  0.0000  0.0000
17153SL      H118337   6.166   6.551   7.933  0.0000  0.0000  0.0000
17154SL     Si118338   7.533   3.409   8.222  0.0000  0.0000  0.0000
17154SL      O118339   7.533   3.409   8.058  0.0000  0.0000  0.0000
17154SL      H118340   7.533   3.409   7.960  0.0000  0.0000  0.0000
17155SL     Si118341   8.130   2.132   1.163  0.0000  0.0000  0.0000
17155SL      O118342   8.130   2.132   1.327  0.0000  0.0000  0.0000
17155SL      H118343   8.130   2.132   1.425  0.0000  0.0000  0.0000
17156SL     Si118344   2.656   5.805   8.313  0.0000  0.0000  0.0000
17156SL      O118345   2.656   5.805   8.149  0.0000  0.0000  0.0000
17156SL      H118346   2.656   5.805   8.051  0.0000  0.0000  0.0000
17157SL     Si118347   7.011   1.647   8.198  0.0000  0.0000  0.0000
17157SL      O118348   7.011   1.647   8.034  0.0000  0.0000  0.0000
17157SL      H118349   7.011   1.647   7.936  0.0000  0.0000  0.0000
17158SL     Si118350   2.193   2.427   8.497  0.0000  0.0000  0.0000
17158SL      O118351   2.193   2.427   8.333  0.0000  0.0000  0.0000
17158SL      H118352   2.193   2.427   8.235  0.0000  0.0000  0.0000
17159SL     Si118353   2.800   3.603   8.276  0.0000  0.0000  0.0000
17159SL      O118354   2.800   3.603   8.112  0.0000  0.0000  0.0000
17159SL      H118355   2.800   3.603   8.014  0.0000  0.0000  0.0000
17160SL     Si118356   1.904   0.005   8.271  0.0000  0.0000  0.0000
17160SL      O118357   1.904   0.005   8.107  0.0000  0.0000  0.0000
17160SL      H118358   1.904   0.005   8.009  0.0000  0.0000  0.0000
17161SL     Si118359   4.875   8.431   1.368  0.0000  0.0000  0.0000
17161SL      O118360   4.875   8.431   1.532  0.0000  0.0000  0.0000
17161SL      H118361   4.875   8.431   1.630  0.0000  0.0000  0.0000
17162SL     Si118362   4.677   8.187   1.407  0.0000  0.0000  0.0000
17162SL      O118363   4.677   8.187   1.571  0.0000  0.0000  0.0000
17162SL      H118364   4.677   8.187   1.669  0.0000  0.0000  0.0000
17163SL     Si118365   4.502   4.523   1.277  0.0000  0.0000  0.0000
17163SL      O118366   4.502   4.523   1.441  0.0000  0.0000  0.0000
17163SL      H118367   4.502   4.523   1.539  0.0000  0.0000  0.0000
17164SL     Si118368   1.872   4.907   8.322  0.0000  0.0000  0.0000
17164SL      O118369   1.872   4.907   8.158  0.0000  0.0000  0.0000
17164SL      H118370   1.872   4.907   8.060  0.0000  0.0000  0.0000
17165SL     Si118371   4.962   1.124   8.481  0.0000  0.0000  0.0000
17165SL      O118372   4.962   1.124   8.317  0.0000  0.0000  0.0000
17165SL      H118373   4.962   1.124   8.219  0.0000  0.0000  0.0000
17166SL     Si118374   0.223   6.976   8.200  0.0000  0.0000  0.0000
17166SL      O118375   0.223   6.976   8.036  0.0000  0.0000  0.0000
17166SL      H118376   0.223   6.976   7.938  0.0000  0.0000  0.0000
17167SL     Si118377   4.066   1.931   1.160  0.0000  0.0000  0.0000
17167SL      O118378   4.066   1.931   1.324  0.0000  0.0000  0.0000
17167SL      H118379   4.066   1.931   1.422  0.0000  0.0000  0.0000
17168SL     Si118380   8.747   3.665   1.460  0.0000  0.0000  0.0000
17168SL      O118381   8.747   3.665   1.624  0.0000  0.0000  0.0000
17168SL      H118382   8.747   3.665   1.722  0.0000  0.0000  0.0000
17169SL     Si118383   0.239   1.404   8.284  0.0000  0.0000  0.0000
17169SL      O118384   0.239   1.404   8.120  0.0000  0.0000  0.0000
17169SL      H118385   0.239   1.404   8.022  0.0000  0.0000  0.0000
17170SL     Si118386   0.946   2.594   8.283  0.0000  0.0000  0.0000
17170SL      O118387   0.946   2.594   8.119  0.0000  0.0000  0.0000
17170SL      H118388   0.946   2.594   8.021  0.0000  0.0000  0.0000
17171SL     Si118389   4.668   2.544   1.244  0.0000  0.0000  0.0000
17171SL      O118390   4.668   2.544   1.408  0.0000  0.0000  0.0000
17171SL      H118391   4.668   2.544   1.506  0.0000  0.0000  0.0000
17172SL     Si118392   3.834   2.901   1.366  0.0000  0.0000  0.0000
17172SL      O118393   3.834   2.901   1.530  0.0000  0.0000  0.0000
17172SL      H118394   3.834   2.901   1.628  0.0000  0.0000  0.0000
17173SL     Si118395   7.569   9.121   1.413  0.0000  0.0000  0.0000
17173SL      O118396   7.569   9.121   1.577  0.0000  0.0000  0.0000
17173SL      H118397   7.569   9.121   1.675  0.0000  0.0000  0.0000
17174SL     Si118398   3.326   6.931   8.328  0.0000  0.0000  0.0000
17174SL      O118399   3.326   6.931   8.164  0.0000  0.0000  0.0000
17174SL      H118400   3.326   6.931   8.066  0.0000  0.0000  0.0000
17175SL     Si118401   2.014   8.158   1.247  0.0000  0.0000  0.0000
17175SL      O118402   2.014   8.158   1.411  0.0000  0.0000  0.0000
17175SL      H118403   2.014   8.158   1.509  0.0000  0.0000  0.0000
17176SL     Si118404   9.283   8.499   8.336  0.0000  0.0000  0.0000
17176SL      O118405   9.283   8.499   8.172  0.0000  0.0000  0.0000
17176SL      H118406   9.283   8.499   8.074  0.0000  0.0000  0.0000
17177SL     Si118407   7.617   4.768   1.235  0.0000  0.0000  0.0000
17177SL      O118408   7.617   4.768   1.399  0.0000  0.0000  0.0000
17177SL      H118409   7.617   4.768   1.497  0.0000  0.0000  0.0000
17178SL     Si118410   1.265   0.448   8.326  0.0000  0.0000  0.0000
17178SL      O118411   1.265   0.448   8.162  0.0000  0.0000  0.0000
17178SL      H118412   1.265   0.448   8.064  0.0000  0.0000  0.0000
17179SL     Si118413   3.149   9.103   1.377  0.0000  0.0000  0.0000
17179SL      O118414   3.149   9.103   1.541  0.0000  0.0000  0.0000
17179SL      H118415   3.149   9.103   1.639  0.0000  0.0000  0.0000
17180SL     Si118416   0.650   0.656   1.223  0.0000  0.0000  0.0000
17180SL      O118417   0.650   0.656   1.387  0.0000  0.0000  0.0000
17180SL      H118418   0.650   0.656   1.485  0.0000  0.0000  0.0000
17181SL     Si118419   7.509   1.490   1.220  0.0000  0.0000  0.0000
17181SL      O118420   7.509   1.490   1.384  0.0000  0.0000  0.0000
17181SL      H118421   7.509   1.490   1.482  0.0000  0.0000  0.0000
17182SL     Si118422   5.127   5.673   1.316  0.0000  0.0000  0.0000
17182SL      O118423   5.127   5.673   1.480  0.0000  0.0000  0.0000
17182SL      H118424   5.127   5.673   1.578  0.0000  0.0000  0.0000
17183SL     Si118425   2.387   9.295   8.208  0.0000  0.0000  0.0000
17183SL      O118426   2.387   9.295   8.044  0.0000  0.0000  0.0000
17183SL      H118427   2.387   9.295   7.946  0.0000  0.0000  0.0000
17184SL     Si118428   1.403   9.220   8.243  0.0000  0.0000  0.0000
17184SL      O118429   1.403   9.220   8.079  0.0000  0.0000  0.0000
17184SL      H118430   1.403   9.220   7.981  0.0000  0.0000  0.0000
17185SL     Si118431   3.410   3.283   0.843  0.0000  0.0000  0.0000
17185SL      O118432   3.410   3.283   1.007  0.0000  0.0000  0.0000
17185SL      H118433   3.410   3.283   1.105  0.0000  0.0000  0.0000
17186SL     Si118434   2.704   1.299   1.145  0.0000  0.0000  0.0000
17186SL      O118435   2.704   1.299   1.309  0.0000  0.0000  0.0000
17186SL      H118436   2.704   1.299   1.407  0.0000  0.0000  0.0000
17187SL     Si118437   0.061   6.250   8.334  0.0000  0.0000  0.0000
17187SL      O118438   0.061   6.250   8.170  0.0000  0.0000  0.0000
17187SL      H118439   0.061   6.250   8.072  0.0000  0.0000  0.0000
17188SL     Si118440   7.686   5.272   1.336  0.0000  0.0000  0.0000
17188SL      O118441   7.686   5.272   1.500  0.0000  0.0000  0.0000
17188SL      H118442   7.686   5.272   1.598  0.0000  0.0000  0.0000
17189SL     Si118443   2.022   4.667   8.191  0.0000  0.0000  0.0000
17189SL      O118444   2.022   4.667   8.027  0.0000  0.0000  0.0000
17189SL      H118445   2.022   4.667   7.929  0.0000  0.0000  0.0000
17190SL     Si118446   5.425   3.990   1.368  0.0000  0.0000  0.0000
17190SL      O118447   5.425   3.990   1.532  0.0000  0.0000  0.0000
17190SL      H118448   5.425   3.990   1.630  0.0000  0.0000  0.0000
17191SL     Si118449   0.865   6.690   1.363  0.0000  0.0000  0.0000
17191SL      O118450   0.865   6.690   1.527  0.0000  0.0000  0.0000
17191SL      H118451   0.865   6.690   1.625  0.0000  0.0000  0.0000
17192SL     Si118452   2.388   7.067   1.407  0.0000  0.0000  0.0000
17192SL      O118453   2.388   7.067   1.571  0.0000  0.0000  0.0000
17192SL      H118454   2.388   7.067   1.669  0.0000  0.0000  0.0000
17193SL     Si118455   6.824   9.508   8.239  0.0000  0.0000  0.0000
17193SL      O118456   6.824   9.508   8.075  0.0000  0.0000  0.0000
17193SL      H118457   6.824   9.508   7.977  0.0000  0.0000  0.0000
17194SL     Si118458   3.215   8.385   1.297  0.0000  0.0000  0.0000
17194SL      O118459   3.215   8.385   1.461  0.0000  0.0000  0.0000
17194SL      H118460   3.215   8.385   1.559  0.0000  0.0000  0.0000
17195SL     Si118461   3.109   2.380   8.458  0.0000  0.0000  0.0000
17195SL      O118462   3.109   2.380   8.294  0.0000  0.0000  0.0000
17195SL      H118463   3.109   2.380   8.196  0.0000  0.0000  0.0000
17196SL     Si118464   8.919   2.776   8.334  0.0000  0.0000  0.0000
17196SL      O118465   8.919   2.776   8.170  0.0000  0.0000  0.0000
17196SL      H118466   8.919   2.776   8.072  0.0000  0.0000  0.0000
17197SL     Si118467   4.097   0.178   1.196  0.0000  0.0000  0.0000
17197SL      O118468   4.097   0.178   1.360  0.0000  0.0000  0.0000
17197SL      H118469   4.097   0.178   1.458  0.0000  0.0000  0.0000
17198SL     Si118470   3.491   8.232   1.344  0.0000  0.0000  0.0000
17198SL      O118471   3.491   8.232   1.508  0.0000  0.0000  0.0000
17198SL      H118472   3.491   8.232   1.606  0.0000  0.0000  0.0000
17199SL     Si118473   7.348   2.273   8.213  0.0000  0.0000  0.0000
17199SL      O118474   7.348   2.273   8.049  0.0000  0.0000  0.0000
17199SL      H118475   7.348   2.273   7.951  0.0000  0.0000  0.0000
17200SL     Si118476   6.659   8.015   1.300  0.0000  0.0000  0.0000
17200SL      O118477   6.659   8.015   1.464  0.0000  0.0000  0.0000
17200SL      H118478   6.659   8.015   1.562  0.0000  0.0000  0.0000
17201SL     Si118479   1.114   1.861   8.255  0.0000  0.0000  0.0000
17201SL      O118480   1.114   1.861   8.091  0.0000  0.0000  0.0000
17201SL      H118481   1.114   1.861   7.993  0.0000  0.0000  0.0000
17202SL     Si118482   3.718   7.823   8.295  0.0000  0.0000  0.0000
17202SL      O118483   3.718   7.823   8.131  0.0000  0.0000  0.0000
17202SL      H118484   3.718   7.823   8.033  0.0000  0.0000  0.0000
17203SL     Si118485   8.272   3.594   1.282  0.0000  0.0000  0.0000
17203SL      O118486   8.272   3.594   1.446  0.0000  0.0000  0.0000
17203SL      H118487   8.272   3.594   1.544  0.0000  0.0000  0.0000
17204SL     Si118488   2.887   2.068   1.358  0.0000  0.0000  0.0000
17204SL      O118489   2.887   2.068   1.522  0.0000  0.0000  0.0000
17204SL      H118490   2.887   2.068   1.620  0.0000  0.0000  0.0000
17205SL     Si118491   0.041   7.013   1.232  0.0000  0.0000  0.0000
17205SL      O118492   0.041   7.013   1.396  0.0000  0.0000  0.0000
17205SL      H118493   0.041   7.013   1.494  0.0000  0.0000  0.0000
17206SL     Si118494   2.105   9.348   1.365  0.0000  0.0000  0.0000
17206SL      O118495   2.105   9.348   1.529  0.0000  0.0000  0.0000
17206SL      H118496   2.105   9.348   1.627  0.0000  0.0000  0.0000
17207SL     Si118497   9.581   1.091   8.335  0.0000  0.0000  0.0000
17207SL      O118498   9.581   1.091   8.171  0.0000  0.0000  0.0000
17207SL      H118499   9.581   1.091   8.073  0.0000  0.0000  0.0000
17208SL     Si118500   6.792   3.073   8.320  0.0000  0.0000  0.0000
17208SL      O118501   6.792   3.073   8.156  0.0000  0.0000  0.0000
17208SL      H118502   6.792   3.073   8.058  0.0000  0.0000  0.0000
17209SL     Si118503   5.262   0.008   8.265  0.0000  0.0000  0.0000
17209SL      O118504   5.262   0.008   8.101  0.0000  0.0000  0.0000
17209SL      H118505   5.262   0.008   8.003  0.0000  0.0000  0.0000
17210SL     Si118506   2.146   6.828   8.272  0.0000  0.0000  0.0000
17210SL      O118507   2.146   6.828   8.108  0.0000  0.0000  0.0000
17210SL      H118508   2.146   6.828   8.010  0.0000  0.0000  0.0000
17211SL     Si118509   8.426   2.461   1.232  0.0000  0.0000  0.0000
17211SL      O118510   8.426   2.461   1.396  0.0000  0.0000  0.0000
17211SL      H118511   8.426   2.461   1.494  0.0000  0.0000  0.0000
17212SL     Si118512   7.502   0.449   1.458  0.0000  0.0000  0.0000
17212SL      O118513   7.502   0.449   1.622  0.0000  0.0000  0.0000
17212SL      H118514   7.502   0.449   1.720  0.0000  0.0000  0.0000
17213SL     Si118515   3.407   3.954   8.324  0.0000  0.0000  0.0000
17213SL      O118516   3.407   3.954   8.160  0.0000  0.0000  0.0000
17213SL      H118517   3.407   3.954   8.062  0.0000  0.0000  0.0000
17214SL     Si118518   7.203   0.073   1.204  0.0000  0.0000  0.0000
17214SL      O118519   7.203   0.073   1.368  0.0000  0.0000  0.0000
17214SL      H118520   7.203   0.073   1.466  0.0000  0.0000  0.0000
17215SL     Si118521   7.386   1.173   1.319  0.0000  0.0000  0.0000
17215SL      O118522   7.386   1.173   1.483  0.0000  0.0000  0.0000
17215SL      H118523   7.386   1.173   1.581  0.0000  0.0000  0.0000
17216SL     Si118524   8.796   6.318   1.387  0.0000  0.0000  0.0000
17216SL      O118525   8.796   6.318   1.551  0.0000  0.0000  0.0000
17216SL      H118526   8.796   6.318   1.649  0.0000  0.0000  0.0000
17217SL     Si118527   2.180   7.557   8.245  0.0000  0.0000  0.0000
17217SL      O118528   2.180   7.557   8.081  0.0000  0.0000  0.0000
17217SL      H118529   2.180   7.557   7.983  0.0000  0.0000  0.0000
17218SL     Si118530   0.620   7.388   1.334  0.0000  0.0000  0.0000
17218SL      O118531   0.620   7.388   1.498  0.0000  0.0000  0.0000
17218SL      H118532   0.620   7.388   1.596  0.0000  0.0000  0.0000
17219SL     Si118533   6.957   4.372   1.191  0.0000  0.0000  0.0000
17219SL      O118534   6.957   4.372   1.355  0.0000  0.0000  0.0000
17219SL      H118535   6.957   4.372   1.453  0.0000  0.0000  0.0000
17220SL     Si118536   2.094   0.466   8.327  0.0000  0.0000  0.0000
17220SL      O118537   2.094   0.466   8.163  0.0000  0.0000  0.0000
17220SL      H118538   2.094   0.466   8.065  0.0000  0.0000  0.0000
17221SL     Si118539   8.663   6.942   8.241  0.0000  0.0000  0.0000
17221SL      O118540   8.663   6.942   8.077  0.0000  0.0000  0.0000
17221SL      H118541   8.663   6.942   7.979  0.0000  0.0000  0.0000
17222SL     Si118542   7.908   6.582   1.217  0.0000  0.0000  0.0000
17222SL      O118543   7.908   6.582   1.381  0.0000  0.0000  0.0000
17222SL      H118544   7.908   6.582   1.479  0.0000  0.0000  0.0000
17223SL     Si118545   1.356   3.310   1.268  0.0000  0.0000  0.0000
17223SL      O118546   1.356   3.310   1.432  0.0000  0.0000  0.0000
17223SL      H118547   1.356   3.310   1.530  0.0000  0.0000  0.0000
17224SL     Si118548   2.818   8.683   8.373  0.0000  0.0000  0.0000
17224SL      O118549   2.818   8.683   8.209  0.0000  0.0000  0.0000
17224SL      H118550   2.818   8.683   8.111  0.0000  0.0000  0.0000
17225SL     Si118551   3.937   6.952   8.345  0.0000  0.0000  0.0000
17225SL      O118552   3.937   6.952   8.181  0.0000  0.0000  0.0000
17225SL      H118553   3.937   6.952   8.083  0.0000  0.0000  0.0000
17226SL     Si118554   4.222   5.671   8.327  0.0000  0.0000  0.0000
17226SL      O118555   4.222   5.671   8.163  0.0000  0.0000  0.0000
17226SL      H118556   4.222   5.671   8.065  0.0000  0.0000  0.0000
17227SL     Si118557   7.635   3.765   1.414  0.0000  0.0000  0.0000
17227SL      O118558   7.635   3.765   1.578  0.0000  0.0000  0.0000
17227SL      H118559   7.635   3.765   1.676  0.0000  0.0000  0.0000
17228SL     Si118560   6.921   9.254   1.339  0.0000  0.0000  0.0000
17228SL      O118561   6.921   9.254   1.503  0.0000  0.0000  0.0000
17228SL      H118562   6.921   9.254   1.601  0.0000  0.0000  0.0000
17229SL     Si118563   4.905   8.255   8.306  0.0000  0.0000  0.0000
17229SL      O118564   4.905   8.255   8.142  0.0000  0.0000  0.0000
17229SL      H118565   4.905   8.255   8.044  0.0000  0.0000  0.0000
17230SL     Si118566   8.452   5.888   8.456  0.0000  0.0000  0.0000
17230SL      O118567   8.452   5.888   8.292  0.0000  0.0000  0.0000
17230SL      H118568   8.452   5.888   8.194  0.0000  0.0000  0.0000
17231SL     Si118569   7.274   3.579   8.196  0.0000  0.0000  0.0000
17231SL      O118570   7.274   3.579   8.032  0.0000  0.0000  0.0000
17231SL      H118571   7.274   3.579   7.934  0.0000  0.0000  0.0000
17232SL     Si118572   4.330   5.386   8.242  0.0000  0.0000  0.0000
17232SL      O118573   4.330   5.386   8.078  0.0000  0.0000  0.0000
17232SL      H118574   4.330   5.386   7.980  0.0000  0.0000  0.0000
17233SL     Si118575   1.355   8.319   1.229  0.0000  0.0000  0.0000
17233SL      O118576   1.355   8.319   1.393  0.0000  0.0000  0.0000
17233SL      H118577   1.355   8.319   1.491  0.0000  0.0000  0.0000
17234SL     Si118578   6.938   0.231   1.225  0.0000  0.0000  0.0000
17234SL      O118579   6.938   0.231   1.389  0.0000  0.0000  0.0000
17234SL      H118580   6.938   0.231   1.487  0.0000  0.0000  0.0000
17235SL     Si118581   2.557   3.162   8.381  0.0000  0.0000  0.0000
17235SL      O118582   2.557   3.162   8.217  0.0000  0.0000  0.0000
17235SL      H118583   2.557   3.162   8.119  0.0000  0.0000  0.0000
17236SL     Si118584   2.543   1.754   1.208  0.0000  0.0000  0.0000
17236SL      O118585   2.543   1.754   1.372  0.0000  0.0000  0.0000
17236SL      H118586   2.543   1.754   1.470  0.0000  0.0000  0.0000
17237SL     Si118587   1.374   7.283   8.355  0.0000  0.0000  0.0000
17237SL      O118588   1.374   7.283   8.191  0.0000  0.0000  0.0000
17237SL      H118589   1.374   7.283   8.093  0.0000  0.0000  0.0000
17238SL     Si118590   1.144   6.129   8.356  0.0000  0.0000  0.0000
17238SL      O118591   1.144   6.129   8.192  0.0000  0.0000  0.0000
17238SL      H118592   1.144   6.129   8.094  0.0000  0.0000  0.0000
17239SL     Si118593   6.057   0.057   1.124  0.0000  0.0000  0.0000
17239SL      O118594   6.057   0.057   1.288  0.0000  0.0000  0.0000
17239SL      H118595   6.057   0.057   1.386  0.0000  0.0000  0.0000
17240SL     Si118596   1.650   5.348   8.181  0.0000  0.0000  0.0000
17240SL      O118597   1.650   5.348   8.017  0.0000  0.0000  0.0000
17240SL      H118598   1.650   5.348   7.919  0.0000  0.0000  0.0000
17241SL     Si118599   1.456   5.987   1.198  0.0000  0.0000  0.0000
17241SL      O118600   1.456   5.987   1.362  0.0000  0.0000  0.0000
17241SL      H118601   1.456   5.987   1.460  0.0000  0.0000  0.0000
17242SL     Si118602   2.729   8.499   1.374  0.0000  0.0000  0.0000
17242SL      O118603   2.729   8.499   1.538  0.0000  0.0000  0.0000
17242SL      H118604   2.729   8.499   1.636  0.0000  0.0000  0.0000
17243SL     Si118605   6.410   0.927   8.269  0.0000  0.0000  0.0000
17243SL      O118606   6.410   0.927   8.105  0.0000  0.0000  0.0000
17243SL      H118607   6.410   0.927   8.007  0.0000  0.0000  0.0000
17244SL     Si118608   6.653   7.587   8.247  0.0000  0.0000  0.0000
17244SL      O118609   6.653   7.587   8.083  0.0000  0.0000  0.0000
17244SL      H118610   6.653   7.587   7.985  0.0000  0.0000  0.0000
17245SL     Si118611   9.173   2.592   8.328  0.0000  0.0000  0.0000
17245SL      O118612   9.173   2.592   8.164  0.0000  0.0000  0.0000
17245SL      H118613   9.173   2.592   8.066  0.0000  0.0000  0.0000
17246SL     Si118614   1.308   5.115   8.437  0.0000  0.0000  0.0000
17246SL      O118615   1.308   5.115   8.273  0.0000  0.0000  0.0000
17246SL      H118616   1.308   5.115   8.175  0.0000  0.0000  0.0000
17247SL     Si118617   6.776   0.385   8.263  0.0000  0.0000  0.0000
17247SL      O118618   6.776   0.385   8.099  0.0000  0.0000  0.0000
17247SL      H118619   6.776   0.385   8.001  0.0000  0.0000  0.0000
17248SL     Si118620   3.867   2.701   8.204  0.0000  0.0000  0.0000
17248SL      O118621   3.867   2.701   8.040  0.0000  0.0000  0.0000
17248SL      H118622   3.867   2.701   7.942  0.0000  0.0000  0.0000
17249SL     Si118623   4.451   7.006   8.370  0.0000  0.0000  0.0000
17249SL      O118624   4.451   7.006   8.206  0.0000  0.0000  0.0000
17249SL      H118625   4.451   7.006   8.108  0.0000  0.0000  0.0000
17250SL     Si118626   5.501   3.014   1.222  0.0000  0.0000  0.0000
17250SL      O118627   5.501   3.014   1.386  0.0000  0.0000  0.0000
17250SL      H118628   5.501   3.014   1.484  0.0000  0.0000  0.0000
17251SL     Si118629   5.299   1.714   8.195  0.0000  0.0000  0.0000
17251SL      O118630   5.299   1.714   8.031  0.0000  0.0000  0.0000
17251SL      H118631   5.299   1.714   7.933  0.0000  0.0000  0.0000
17252SL     Si118632   5.738   3.443   8.196  0.0000  0.0000  0.0000
17252SL      O118633   5.738   3.443   8.032  0.0000  0.0000  0.0000
17252SL      H118634   5.738   3.443   7.934  0.0000  0.0000  0.0000
17253SL     Si118635   8.968   5.872   8.390  0.0000  0.0000  0.0000
17253SL      O118636   8.968   5.872   8.226  0.0000  0.0000  0.0000
17253SL      H118637   8.968   5.872   8.128  0.0000  0.0000  0.0000
17254SL     Si118638   8.925   0.506   8.358  0.0000  0.0000  0.0000
17254SL      O118639   8.925   0.506   8.194  0.0000  0.0000  0.0000
17254SL      H118640   8.925   0.506   8.096  0.0000  0.0000  0.0000
17255SL     Si118641   6.783   4.983   1.071  0.0000  0.0000  0.0000
17255SL      O118642   6.783   4.983   1.235  0.0000  0.0000  0.0000
17255SL      H118643   6.783   4.983   1.333  0.0000  0.0000  0.0000
17256SL     Si118644   4.013   7.781   1.431  0.0000  0.0000  0.0000
17256SL      O118645   4.013   7.781   1.595  0.0000  0.0000  0.0000
17256SL      H118646   4.013   7.781   1.693  0.0000  0.0000  0.0000
17257SL     Si118647   1.488   8.514   1.427  0.0000  0.0000  0.0000
17257SL      O118648   1.488   8.514   1.591  0.0000  0.0000  0.0000
17257SL      H118649   1.488   8.514   1.689  0.0000  0.0000  0.0000
17258SL     Si118650   6.461   8.680   8.285  0.0000  0.0000  0.0000
17258SL      O118651   6.461   8.680   8.121  0.0000  0.0000  0.0000
17258SL      H118652   6.461   8.680   8.023  0.0000  0.0000  0.0000
17259SL     Si118653   6.166   6.571   1.385  0.0000  0.0000  0.0000
17259SL      O118654   6.166   6.571   1.549  0.0000  0.0000  0.0000
17259SL      H118655   6.166   6.571   1.647  0.0000  0.0000  0.0000
17260SL     Si118656   0.737   7.669   8.259  0.0000  0.0000  0.0000
17260SL      O118657   0.737   7.669   8.095  0.0000  0.0000  0.0000
17260SL      H118658   0.737   7.669   7.997  0.0000  0.0000  0.0000
17261SL     Si118659   8.897   0.933   1.337  0.0000  0.0000  0.0000
17261SL      O118660   8.897   0.933   1.501  0.0000  0.0000  0.0000
17261SL      H118661   8.897   0.933   1.599  0.0000  0.0000  0.0000
17262SL     Si118662   7.184   8.673   8.185  0.0000  0.0000  0.0000
17262SL      O118663   7.184   8.673   8.021  0.0000  0.0000  0.0000
17262SL      H118664   7.184   8.673   7.923  0.0000  0.0000  0.0000
17263SL     Si118665   7.195   0.018   8.364  0.0000  0.0000  0.0000
17263SL      O118666   7.195   0.018   8.200  0.0000  0.0000  0.0000
17263SL      H118667   7.195   0.018   8.102  0.0000  0.0000  0.0000
17264SL     Si118668   6.244   4.992   8.306  0.0000  0.0000  0.0000
17264SL      O118669   6.244   4.992   8.142  0.0000  0.0000  0.0000
17264SL      H118670   6.244   4.992   8.044  0.0000  0.0000  0.0000
17265SL     Si118671   0.808   7.263   8.331  0.0000  0.0000  0.0000
17265SL      O118672   0.808   7.263   8.167  0.0000  0.0000  0.0000
17265SL      H118673   0.808   7.263   8.069  0.0000  0.0000  0.0000
17266SL     Si118674   3.256   7.023   1.322  0.0000  0.0000  0.0000
17266SL      O118675   3.256   7.023   1.486  0.0000  0.0000  0.0000
17266SL      H118676   3.256   7.023   1.584  0.0000  0.0000  0.0000
17267SL     Si118677   4.945   0.271   8.185  0.0000  0.0000  0.0000
17267SL      O118678   4.945   0.271   8.021  0.0000  0.0000  0.0000
17267SL      H118679   4.945   0.271   7.923  0.0000  0.0000  0.0000
17268SL     Si118680   0.316   7.723   1.161  0.0000  0.0000  0.0000
17268SL      O118681   0.316   7.723   1.325  0.0000  0.0000  0.0000
17268SL      H118682   0.316   7.723   1.423  0.0000  0.0000  0.0000
17269SL     Si118683   8.713   0.093   1.275  0.0000  0.0000  0.0000
17269SL      O118684   8.713   0.093   1.439  0.0000  0.0000  0.0000
17269SL      H118685   8.713   0.093   1.537  0.0000  0.0000  0.0000
17270SL     Si118686   1.171   8.731   1.238  0.0000  0.0000  0.0000
17270SL      O118687   1.171   8.731   1.402  0.0000  0.0000  0.0000
17270SL      H118688   1.171   8.731   1.500  0.0000  0.0000  0.0000
17271SL     Si118689   5.948   4.677   1.318  0.0000  0.0000  0.0000
17271SL      O118690   5.948   4.677   1.482  0.0000  0.0000  0.0000
17271SL      H118691   5.948   4.677   1.580  0.0000  0.0000  0.0000
17272SL     Si118692   2.178   8.216   8.401  0.0000  0.0000  0.0000
17272SL      O118693   2.178   8.216   8.237  0.0000  0.0000  0.0000
17272SL      H118694   2.178   8.216   8.139  0.0000  0.0000  0.0000
17273SL     Si118695   3.791   1.198   1.413  0.0000  0.0000  0.0000
17273SL      O118696   3.791   1.198   1.577  0.0000  0.0000  0.0000
17273SL      H118697   3.791   1.198   1.675  0.0000  0.0000  0.0000
17274SL     Si118698   5.001   7.984   1.368  0.0000  0.0000  0.0000
17274SL      O118699   5.001   7.984   1.532  0.0000  0.0000  0.0000
17274SL      H118700   5.001   7.984   1.630  0.0000  0.0000  0.0000
17275SL     Si118701   1.607   2.786   8.219  0.0000  0.0000  0.0000
17275SL      O118702   1.607   2.786   8.055  0.0000  0.0000  0.0000
17275SL      H118703   1.607   2.786   7.957  0.0000  0.0000  0.0000
17276SL     Si118704   3.576   6.360   8.233  0.0000  0.0000  0.0000
17276SL      O118705   3.576   6.360   8.069  0.0000  0.0000  0.0000
17276SL      H118706   3.576   6.360   7.971  0.0000  0.0000  0.0000
17277SL     Si118707   5.761   2.888   1.365  0.0000  0.0000  0.0000
17277SL      O118708   5.761   2.888   1.529  0.0000  0.0000  0.0000
17277SL      H118709   5.761   2.888   1.627  0.0000  0.0000  0.0000
17278SL     Si118710   6.185   6.090   8.329  0.0000  0.0000  0.0000
17278SL      O118711   6.185   6.090   8.165  0.0000  0.0000  0.0000
17278SL      H118712   6.185   6.090   8.067  0.0000  0.0000  0.0000
17279SL     Si118713   3.632   7.553   8.382  0.0000  0.0000  0.0000
17279SL      O118714   3.632   7.553   8.218  0.0000  0.0000  0.0000
17279SL      H118715   3.632   7.553   8.120  0.0000  0.0000  0.0000
17280SL     Si118716   8.243   5.461   8.195  0.0000  0.0000  0.0000
17280SL      O118717   8.243   5.461   8.031  0.0000  0.0000  0.0000
17280SL      H118718   8.243   5.461   7.933  0.0000  0.0000  0.0000
17281SL     Si118719   7.738   0.888   8.304  0.0000  0.0000  0.0000
17281SL      O118720   7.738   0.888   8.140  0.0000  0.0000  0.0000
17281SL      H118721   7.738   0.888   8.042  0.0000  0.0000  0.0000
17282SL     Si118722   6.682   8.922   1.188  0.0000  0.0000  0.0000
17282SL      O118723   6.682   8.922   1.352  0.0000  0.0000  0.0000
17282SL      H118724   6.682   8.922   1.450  0.0000  0.0000  0.0000
17283SL     Si118725   9.418   3.266   8.261  0.0000  0.0000  0.0000
17283SL      O118726   9.418   3.266   8.097  0.0000  0.0000  0.0000
17283SL      H118727   9.418   3.266   7.999  0.0000  0.0000  0.0000
17284SL     Si118728   0.667   1.255   8.271  0.0000  0.0000  0.0000
17284SL      O118729   0.667   1.255   8.107  0.0000  0.0000  0.0000
17284SL      H118730   0.667   1.255   8.009  0.0000  0.0000  0.0000
17285SL     Si118731   0.337   8.574   8.415  0.0000  0.0000  0.0000
17285SL      O118732   0.337   8.574   8.251  0.0000  0.0000  0.0000
17285SL      H118733   0.337   8.574   8.153  0.0000  0.0000  0.0000
17286SL     Si118734   0.386   7.901   8.332  0.0000  0.0000  0.0000
17286SL      O118735   0.386   7.901   8.168  0.0000  0.0000  0.0000
17286SL      H118736   0.386   7.901   8.070  0.0000  0.0000  0.0000
17287SL     Si118737   3.455   5.389   8.232  0.0000  0.0000  0.0000
17287SL      O118738   3.455   5.389   8.068  0.0000  0.0000  0.0000
17287SL      H118739   3.455   5.389   7.970  0.0000  0.0000  0.0000
17288SL     Si118740   5.100   1.921   8.153  0.0000  0.0000  0.0000
17288SL      O118741   5.100   1.921   7.989  0.0000  0.0000  0.0000
17288SL      H118742   5.100   1.921   7.891  0.0000  0.0000  0.0000
17289SL     Si118743   6.196   5.797   8.367  0.0000  0.0000  0.0000
17289SL      O118744   6.196   5.797   8.203  0.0000  0.0000  0.0000
17289SL      H118745   6.196   5.797   8.105  0.0000  0.0000  0.0000
17290SL     Si118746   9.589   9.227   1.417  0.0000  0.0000  0.0000
17290SL      O118747   9.589   9.227   1.581  0.0000  0.0000  0.0000
17290SL      H118748   9.589   9.227   1.679  0.0000  0.0000  0.0000
17291SL     Si118749   5.883   7.872   1.398  0.0000  0.0000  0.0000
17291SL      O118750   5.883   7.872   1.562  0.0000  0.0000  0.0000
17291SL      H118751   5.883   7.872   1.660  0.0000  0.0000  0.0000
17292SL     Si118752   3.479   6.797   1.333  0.0000  0.0000  0.0000
17292SL      O118753   3.479   6.797   1.497  0.0000  0.0000  0.0000
17292SL      H118754   3.479   6.797   1.595  0.0000  0.0000  0.0000
17293SL     Si118755   9.321   1.165   8.188  0.0000  0.0000  0.0000
17293SL      O118756   9.321   1.165   8.024  0.0000  0.0000  0.0000
17293SL      H118757   9.321   1.165   7.926  0.0000  0.0000  0.0000
17294SL     Si118758   2.277   3.125   8.249  0.0000  0.0000  0.0000
17294SL      O118759   2.277   3.125   8.085  0.0000  0.0000  0.0000
17294SL      H118760   2.277   3.125   7.987  0.0000  0.0000  0.0000
17295SL     Si118761   4.398   8.508   1.285  0.0000  0.0000  0.0000
17295SL      O118762   4.398   8.508   1.449  0.0000  0.0000  0.0000
17295SL      H118763   4.398   8.508   1.547  0.0000  0.0000  0.0000
17296SL     Si118764   3.637   3.461   8.214  0.0000  0.0000  0.0000
17296SL      O118765   3.637   3.461   8.050  0.0000  0.0000  0.0000
17296SL      H118766   3.637   3.461   7.952  0.0000  0.0000  0.0000
17297SL     Si118767   4.661   0.212   1.270  0.0000  0.0000  0.0000
17297SL      O118768   4.661   0.212   1.434  0.0000  0.0000  0.0000
17297SL      H118769   4.661   0.212   1.532  0.0000  0.0000  0.0000
17298SL     Si118770   4.134   0.844   8.236  0.0000  0.0000  0.0000
17298SL      O118771   4.134   0.844   8.072  0.0000  0.0000  0.0000
17298SL      H118772   4.134   0.844   7.974  0.0000  0.0000  0.0000
17299SL     Si118773   7.308   4.789   1.237  0.0000  0.0000  0.0000
17299SL      O118774   7.308   4.789   1.401  0.0000  0.0000  0.0000
17299SL      H118775   7.308   4.789   1.499  0.0000  0.0000  0.0000
17300SL     Si118776   3.668   2.535   8.377  0.0000  0.0000  0.0000
17300SL      O118777   3.668   2.535   8.213  0.0000  0.0000  0.0000
17300SL      H118778   3.668   2.535   8.115  0.0000  0.0000  0.0000
17301SL     Si118779   2.140   1.073   1.300  0.0000  0.0000  0.0000
17301SL      O118780   2.140   1.073   1.464  0.0000  0.0000  0.0000
17301SL      H118781   2.140   1.073   1.562  0.0000  0.0000  0.0000
17302SL     Si118782   2.608   6.888   1.269  0.0000  0.0000  0.0000
17302SL      O118783   2.608   6.888   1.433  0.0000  0.0000  0.0000
17302SL      H118784   2.608   6.888   1.531  0.0000  0.0000  0.0000
17303SL     Si118785   0.567   6.660   1.261  0.0000  0.0000  0.0000
17303SL      O118786   0.567   6.660   1.425  0.0000  0.0000  0.0000
17303SL      H118787   0.567   6.660   1.523  0.0000  0.0000  0.0000
17304SL     Si118788   9.580   0.111   8.380  0.0000  0.0000  0.0000
17304SL      O118789   9.580   0.111   8.216  0.0000  0.0000  0.0000
17304SL      H118790   9.580   0.111   8.118  0.0000  0.0000  0.0000
17305SL     Si118791   3.975   9.105   1.410  0.0000  0.0000  0.0000
17305SL      O118792   3.975   9.105   1.574  0.0000  0.0000  0.0000
17305SL      H118793   3.975   9.105   1.672  0.0000  0.0000  0.0000
17306SL     Si118794   6.197   4.547   8.296  0.0000  0.0000  0.0000
17306SL      O118795   6.197   4.547   8.132  0.0000  0.0000  0.0000
17306SL      H118796   6.197   4.547   8.034  0.0000  0.0000  0.0000
17307SL     Si118797   7.834   3.011   8.328  0.0000  0.0000  0.0000
17307SL      O118798   7.834   3.011   8.164  0.0000  0.0000  0.0000
17307SL      H118799   7.834   3.011   8.066  0.0000  0.0000  0.0000
17308SL     Si118800   5.467   0.086   1.202  0.0000  0.0000  0.0000
17308SL      O118801   5.467   0.086   1.366  0.0000  0.0000  0.0000
17308SL      H118802   5.467   0.086   1.464  0.0000  0.0000  0.0000
17309SL     Si118803   6.813   2.033   8.371  0.0000  0.0000  0.0000
17309SL      O118804   6.813   2.033   8.207  0.0000  0.0000  0.0000
17309SL      H118805   6.813   2.033   8.109  0.0000  0.0000  0.0000
17310SL     Si118806   9.510   6.687   8.226  0.0000  0.0000  0.0000
17310SL      O118807   9.510   6.687   8.062  0.0000  0.0000  0.0000
17310SL      H118808   9.510   6.687   7.964  0.0000  0.0000  0.0000
17311SL     Si118809   9.086   4.073   8.430  0.0000  0.0000  0.0000
17311SL      O118810   9.086   4.073   8.266  0.0000  0.0000  0.0000
17311SL      H118811   9.086   4.073   8.168  0.0000  0.0000  0.0000
17312SL     Si118812   7.813   0.454   1.441  0.0000  0.0000  0.0000
17312SL      O118813   7.813   0.454   1.605  0.0000  0.0000  0.0000
17312SL      H118814   7.813   0.454   1.703  0.0000  0.0000  0.0000
17313SL     Si118815   3.755   9.460   8.320  0.0000  0.0000  0.0000
17313SL      O118816   3.755   9.460   8.156  0.0000  0.0000  0.0000
17313SL      H118817   3.755   9.460   8.058  0.0000  0.0000  0.0000
17314SL     Si118818   5.547   1.510   1.212  0.0000  0.0000  0.0000
17314SL      O118819   5.547   1.510   1.376  0.0000  0.0000  0.0000
17314SL      H118820   5.547   1.510   1.474  0.0000  0.0000  0.0000
17315SL     Si118821   1.368   8.076   8.473  0.0000  0.0000  0.0000
17315SL      O118822   1.368   8.076   8.309  0.0000  0.0000  0.0000
17315SL      H118823   1.368   8.076   8.211  0.0000  0.0000  0.0000
17316SL     Si118824   1.424   6.037   8.329  0.0000  0.0000  0.0000
17316SL      O118825   1.424   6.037   8.165  0.0000  0.0000  0.0000
17316SL      H118826   1.424   6.037   8.067  0.0000  0.0000  0.0000
17317SL     Si118827   6.126   5.844   1.277  0.0000  0.0000  0.0000
17317SL      O118828   6.126   5.844   1.441  0.0000  0.0000  0.0000
17317SL      H118829   6.126   5.844   1.539  0.0000  0.0000  0.0000
17318SL     Si118830   8.669   1.468   8.371  0.0000  0.0000  0.0000
17318SL      O118831   8.669   1.468   8.207  0.0000  0.0000  0.0000
17318SL      H118832   8.669   1.468   8.109  0.0000  0.0000  0.0000
17319SL     Si118833   7.149   8.425   1.311  0.0000  0.0000  0.0000
17319SL      O118834   7.149   8.425   1.475  0.0000  0.0000  0.0000
17319SL      H118835   7.149   8.425   1.573  0.0000  0.0000  0.0000
17320SL     Si118836   1.471   1.031   1.328  0.0000  0.0000  0.0000
17320SL      O118837   1.471   1.031   1.492  0.0000  0.0000  0.0000
17320SL      H118838   1.471   1.031   1.590  0.0000  0.0000  0.0000
17321SL     Si118839   7.094   2.685   1.304  0.0000  0.0000  0.0000
17321SL      O118840   7.094   2.685   1.468  0.0000  0.0000  0.0000
17321SL      H118841   7.094   2.685   1.566  0.0000  0.0000  0.0000
17322SL     Si118842   2.934   3.114   0.853  0.0000  0.0000  0.0000
17322SL      O118843   2.934   3.114   1.017  0.0000  0.0000  0.0000
17322SL      H118844   2.934   3.114   1.115  0.0000  0.0000  0.0000
17323SL     Si118845   1.049   1.281   8.215  0.0000  0.0000  0.0000
17323SL      O118846   1.049   1.281   8.051  0.0000  0.0000  0.0000
17323SL      H118847   1.049   1.281   7.953  0.0000  0.0000  0.0000
17324SL     Si118848   3.775   2.480   1.185  0.0000  0.0000  0.0000
17324SL      O118849   3.775   2.480   1.349  0.0000  0.0000  0.0000
17324SL      H118850   3.775   2.480   1.447  0.0000  0.0000  0.0000
17325SL     Si118851   8.222   3.293   1.237  0.0000  0.0000  0.0000
17325SL      O118852   8.222   3.293   1.401  0.0000  0.0000  0.0000
17325SL      H118853   8.222   3.293   1.499  0.0000  0.0000  0.0000
17326SL     Si118854   2.617   7.492   1.311  0.0000  0.0000  0.0000
17326SL      O118855   2.617   7.492   1.475  0.0000  0.0000  0.0000
17326SL      H118856   2.617   7.492   1.573  0.0000  0.0000  0.0000
17327SL     Si118857   7.918   4.475   8.209  0.0000  0.0000  0.0000
17327SL      O118858   7.918   4.475   8.045  0.0000  0.0000  0.0000
17327SL      H118859   7.918   4.475   7.947  0.0000  0.0000  0.0000
17328SL     Si118860   1.037   7.671   8.253  0.0000  0.0000  0.0000
17328SL      O118861   1.037   7.671   8.089  0.0000  0.0000  0.0000
17328SL      H118862   1.037   7.671   7.991  0.0000  0.0000  0.0000
17329SL     Si118863   0.039   4.305   8.373  0.0000  0.0000  0.0000
17329SL      O118864   0.039   4.305   8.209  0.0000  0.0000  0.0000
17329SL      H118865   0.039   4.305   8.111  0.0000  0.0000  0.0000
17330SL     Si118866   0.352   4.919   8.337  0.0000  0.0000  0.0000
17330SL      O118867   0.352   4.919   8.173  0.0000  0.0000  0.0000
17330SL      H118868   0.352   4.919   8.075  0.0000  0.0000  0.0000
17331SL     Si118869   4.242   7.882   8.538  0.0000  0.0000  0.0000
17331SL      O118870   4.242   7.882   8.374  0.0000  0.0000  0.0000
17331SL      H118871   4.242   7.882   8.276  0.0000  0.0000  0.0000
17332SL     Si118872   2.799   3.395   1.344  0.0000  0.0000  0.0000
17332SL      O118873   2.799   3.395   1.508  0.0000  0.0000  0.0000
17332SL      H118874   2.799   3.395   1.606  0.0000  0.0000  0.0000
17333SL     Si118875   6.196   7.184   1.194  0.0000  0.0000  0.0000
17333SL      O118876   6.196   7.184   1.358  0.0000  0.0000  0.0000
17333SL      H118877   6.196   7.184   1.456  0.0000  0.0000  0.0000
17334SL     Si118878   2.800   2.340   8.392  0.0000  0.0000  0.0000
17334SL      O118879   2.800   2.340   8.228  0.0000  0.0000  0.0000
17334SL      H118880   2.800   2.340   8.130  0.0000  0.0000  0.0000
17335SL     Si118881   1.034   0.978   8.303  0.0000  0.0000  0.0000
17335SL      O118882   1.034   0.978   8.139  0.0000  0.0000  0.0000
17335SL      H118883   1.034   0.978   8.041  0.0000  0.0000  0.0000
17336SL     Si118884   4.888   9.175   8.161  0.0000  0.0000  0.0000
17336SL      O118885   4.888   9.175   7.997  0.0000  0.0000  0.0000
17336SL      H118886   4.888   9.175   7.899  0.0000  0.0000  0.0000
17337SL     Si118887   6.206   3.332   8.474  0.0000  0.0000  0.0000
17337SL      O118888   6.206   3.332   8.310  0.0000  0.0000  0.0000
17337SL      H118889   6.206   3.332   8.212  0.0000  0.0000  0.0000
17338SL     Si118890   5.755   8.008   8.388  0.0000  0.0000  0.0000
17338SL      O118891   5.755   8.008   8.224  0.0000  0.0000  0.0000
17338SL      H118892   5.755   8.008   8.126  0.0000  0.0000  0.0000
17339SL     Si118893   6.451   3.895   1.344  0.0000  0.0000  0.0000
17339SL      O118894   6.451   3.895   1.508  0.0000  0.0000  0.0000
17339SL      H118895   6.451   3.895   1.606  0.0000  0.0000  0.0000
17340SL     Si118896   6.849   0.690   8.318  0.0000  0.0000  0.0000
17340SL      O118897   6.849   0.690   8.154  0.0000  0.0000  0.0000
17340SL      H118898   6.849   0.690   8.056  0.0000  0.0000  0.0000
17341SL     Si118899   0.600   3.625   1.298  0.0000  0.0000  0.0000
17341SL      O118900   0.600   3.625   1.462  0.0000  0.0000  0.0000
17341SL      H118901   0.600   3.625   1.560  0.0000  0.0000  0.0000
17342SL     Si118902   5.032   8.907   1.271  0.0000  0.0000  0.0000
17342SL      O118903   5.032   8.907   1.435  0.0000  0.0000  0.0000
17342SL      H118904   5.032   8.907   1.533  0.0000  0.0000  0.0000
17343SL     Si118905   0.384   8.855   1.349  0.0000  0.0000  0.0000
17343SL      O118906   0.384   8.855   1.513  0.0000  0.0000  0.0000
17343SL      H118907   0.384   8.855   1.611  0.0000  0.0000  0.0000
17344SL     Si118908   6.156   2.785   1.176  0.0000  0.0000  0.0000
17344SL      O118909   6.156   2.785   1.340  0.0000  0.0000  0.0000
17344SL      H118910   6.156   2.785   1.438  0.0000  0.0000  0.0000
17345SL     Si118911   0.343   2.386   1.362  0.0000  0.0000  0.0000
17345SL      O118912   0.343   2.386   1.526  0.0000  0.0000  0.0000
17345SL      H118913   0.343   2.386   1.624  0.0000  0.0000  0.0000
17346SL     Si118914   5.352   6.189   8.301  0.0000  0.0000  0.0000
17346SL      O118915   5.352   6.189   8.137  0.0000  0.0000  0.0000
17346SL      H118916   5.352   6.189   8.039  0.0000  0.0000  0.0000
17347SL     Si118917   0.740   5.950   1.384  0.0000  0.0000  0.0000
17347SL      O118918   0.740   5.950   1.548  0.0000  0.0000  0.0000
17347SL      H118919   0.740   5.950   1.646  0.0000  0.0000  0.0000
17348SL     Si118920   4.373   8.621   8.195  0.0000  0.0000  0.0000
17348SL      O118921   4.373   8.621   8.031  0.0000  0.0000  0.0000
17348SL      H118922   4.373   8.621   7.933  0.0000  0.0000  0.0000
17349SL     Si118923   9.114   3.243   8.327  0.0000  0.0000  0.0000
17349SL      O118924   9.114   3.243   8.163  0.0000  0.0000  0.0000
17349SL      H118925   9.114   3.243   8.065  0.0000  0.0000  0.0000
17350SL     Si118926   6.438   3.459   1.136  0.0000  0.0000  0.0000
17350SL      O118927   6.438   3.459   1.300  0.0000  0.0000  0.0000
17350SL      H118928   6.438   3.459   1.398  0.0000  0.0000  0.0000
17351SL     Si118929   9.078   4.829   8.393  0.0000  0.0000  0.0000
17351SL      O118930   9.078   4.829   8.229  0.0000  0.0000  0.0000
17351SL      H118931   9.078   4.829   8.131  0.0000  0.0000  0.0000
17352SL     Si118932   9.498   1.821   8.229  0.0000  0.0000  0.0000
17352SL      O118933   9.498   1.821   8.065  0.0000  0.0000  0.0000
17352SL      H118934   9.498   1.821   7.967  0.0000  0.0000  0.0000
17353SL     Si118935   3.120   1.035   1.183  0.0000  0.0000  0.0000
17353SL      O118936   3.120   1.035   1.347  0.0000  0.0000  0.0000
17353SL      H118937   3.120   1.035   1.445  0.0000  0.0000  0.0000
17354SL     Si118938   3.597   9.325   1.158  0.0000  0.0000  0.0000
17354SL      O118939   3.597   9.325   1.322  0.0000  0.0000  0.0000
17354SL      H118940   3.597   9.325   1.420  0.0000  0.0000  0.0000
17355SL     Si118941   9.519   0.626   1.320  0.0000  0.0000  0.0000
17355SL      O118942   9.519   0.626   1.484  0.0000  0.0000  0.0000
17355SL      H118943   9.519   0.626   1.582  0.0000  0.0000  0.0000
17356SL     Si118944   1.417   6.968   1.377  0.0000  0.0000  0.0000
17356SL      O118945   1.417   6.968   1.541  0.0000  0.0000  0.0000
17356SL      H118946   1.417   6.968   1.639  0.0000  0.0000  0.0000
17357SL     Si118947   0.214   9.562   1.169  0.0000  0.0000  0.0000
17357SL      O118948   0.214   9.562   1.333  0.0000  0.0000  0.0000
17357SL      H118949   0.214   9.562   1.431  0.0000  0.0000  0.0000
17358SL     Si118950   2.335   1.208   8.284  0.0000  0.0000  0.0000
17358SL      O118951   2.335   1.208   8.120  0.0000  0.0000  0.0000
17358SL      H118952   2.335   1.208   8.022  0.0000  0.0000  0.0000
17359SL     Si118953   2.071   8.854   8.252  0.0000  0.0000  0.0000
17359SL      O118954   2.071   8.854   8.088  0.0000  0.0000  0.0000
17359SL      H118955   2.071   8.854   7.990  0.0000  0.0000  0.0000
17360SL     Si118956   0.846   5.660   8.460  0.0000  0.0000  0.0000
17360SL      O118957   0.846   5.660   8.296  0.0000  0.0000  0.0000
17360SL      H118958   0.846   5.660   8.198  0.0000  0.0000  0.0000
17361SL     Si118959   3.008   5.608   8.247  0.0000  0.0000  0.0000
17361SL      O118960   3.008   5.608   8.083  0.0000  0.0000  0.0000
17361SL      H118961   3.008   5.608   7.985  0.0000  0.0000  0.0000
17362SL     Si118962   7.327   7.678   1.397  0.0000  0.0000  0.0000
17362SL      O118963   7.327   7.678   1.561  0.0000  0.0000  0.0000
17362SL      H118964   7.327   7.678   1.659  0.0000  0.0000  0.0000
17363SL     Si118965   8.161   9.566   1.398  0.0000  0.0000  0.0000
17363SL      O118966   8.161   9.566   1.562  0.0000  0.0000  0.0000
17363SL      H118967   8.161   9.566   1.660  0.0000  0.0000  0.0000
17364SL     Si118968   9.293   9.230   1.342  0.0000  0.0000  0.0000
17364SL      O118969   9.293   9.230   1.506  0.0000  0.0000  0.0000
17364SL      H118970   9.293   9.230   1.604  0.0000  0.0000  0.0000
17365SL     Si118971   4.284   0.362   8.347  0.0000  0.0000  0.0000
17365SL      O118972   4.284   0.362   8.183  0.0000  0.0000  0.0000
17365SL      H118973   4.284   0.362   8.085  0.0000  0.0000  0.0000
17366SL     Si118974   5.336   7.733   8.366  0.0000  0.0000  0.0000
17366SL      O118975   5.336   7.733   8.202  0.0000  0.0000  0.0000
17366SL      H118976   5.336   7.733   8.104  0.0000  0.0000  0.0000
17367SL     Si118977   2.543   9.564   8.257  0.0000  0.0000  0.0000
17367SL      O118978   2.543   9.564   8.093  0.0000  0.0000  0.0000
17367SL      H118979   2.543   9.564   7.995  0.0000  0.0000  0.0000
17368SL     Si118980   1.318   7.529   1.203  0.0000  0.0000  0.0000
17368SL      O118981   1.318   7.529   1.367  0.0000  0.0000  0.0000
17368SL      H118982   1.318   7.529   1.465  0.0000  0.0000  0.0000
17369SL     Si118983   9.256   6.561   8.308  0.0000  0.0000  0.0000
17369SL      O118984   9.256   6.561   8.144  0.0000  0.0000  0.0000
17369SL      H118985   9.256   6.561   8.046  0.0000  0.0000  0.0000
17370SL     Si118986   6.854   3.128   1.403  0.0000  0.0000  0.0000
17370SL      O118987   6.854   3.128   1.567  0.0000  0.0000  0.0000
17370SL      H118988   6.854   3.128   1.665  0.0000  0.0000  0.0000
17371SL     Si118989   5.338   0.945   1.335  0.0000  0.0000  0.0000
17371SL      O118990   5.338   0.945   1.499  0.0000  0.0000  0.0000
17371SL      H118991   5.338   0.945   1.597  0.0000  0.0000  0.0000
17372SL     Si118992   8.485   6.343   1.335  0.0000  0.0000  0.0000
17372SL      O118993   8.485   6.343   1.499  0.0000  0.0000  0.0000
17372SL      H118994   8.485   6.343   1.597  0.0000  0.0000  0.0000
17373SL     Si118995   8.397   2.815   8.326  0.0000  0.0000  0.0000
17373SL      O118996   8.397   2.815   8.162  0.0000  0.0000  0.0000
17373SL      H118997   8.397   2.815   8.064  0.0000  0.0000  0.0000
17374SL     Si118998   2.187   6.374   8.354  0.0000  0.0000  0.0000
17374SL      O118999   2.187   6.374   8.190  0.0000  0.0000  0.0000
17374SL      H119000   2.187   6.374   8.092  0.0000  0.0000  0.0000
17375SL     Si119001   3.791   2.170   8.588  0.0000  0.0000  0.0000
17375SL      O119002   3.791   2.170   8.424  0.0000  0.0000  0.0000
17375SL      H119003   3.791   2.170   8.326  0.0000  0.0000  0.0000
17376SL     Si119004   1.842   1.853   8.287  0.0000  0.0000  0.0000
17376SL      O119005   1.842   1.853   8.123  0.0000  0.0000  0.0000
17376SL      H119006   1.842   1.853   8.025  0.0000  0.0000  0.0000
17377SL     Si119007   7.048   6.047   8.398  0.0000  0.0000  0.0000
17377SL      O119008   7.048   6.047   8.234  0.0000  0.0000  0.0000
17377SL      H119009   7.048   6.047   8.136  0.0000  0.0000  0.0000
17378SL     Si119010   5.934   2.421   1.237  0.0000  0.0000  0.0000
17378SL      O119011   5.934   2.421   1.401  0.0000  0.0000  0.0000
17378SL      H119012   5.934   2.421   1.499  0.0000  0.0000  0.0000
17379SL     Si119013   4.190   4.741   8.425  0.0000  0.0000  0.0000
17379SL      O119014   4.190   4.741   8.261  0.0000  0.0000  0.0000
17379SL      H119015   4.190   4.741   8.163  0.0000  0.0000  0.0000
17380SL     Si119016   3.810   5.368   1.344  0.0000  0.0000  0.0000
17380SL      O119017   3.810   5.368   1.508  0.0000  0.0000  0.0000
17380SL      H119018   3.810   5.368   1.606  0.0000  0.0000  0.0000
17381SL     Si119019   5.597   1.106   1.400  0.0000  0.0000  0.0000
17381SL      O119020   5.597   1.106   1.564  0.0000  0.0000  0.0000
17381SL      H119021   5.597   1.106   1.662  0.0000  0.0000  0.0000
17382SL     Si119022   3.180   1.520   1.291  0.0000  0.0000  0.0000
17382SL      O119023   3.180   1.520   1.455  0.0000  0.0000  0.0000
17382SL      H119024   3.180   1.520   1.553  0.0000  0.0000  0.0000
17383SL     Si119025   3.687   7.158   1.285  0.0000  0.0000  0.0000
17383SL      O119026   3.687   7.158   1.449  0.0000  0.0000  0.0000
17383SL      H119027   3.687   7.158   1.547  0.0000  0.0000  0.0000
17384SL     Si119028   7.156   3.846   8.273  0.0000  0.0000  0.0000
17384SL      O119029   7.156   3.846   8.109  0.0000  0.0000  0.0000
17384SL      H119030   7.156   3.846   8.011  0.0000  0.0000  0.0000
17385SL     Si119031   4.232   6.636   8.258  0.0000  0.0000  0.0000
17385SL      O119032   4.232   6.636   8.094  0.0000  0.0000  0.0000
17385SL      H119033   4.232   6.636   7.996  0.0000  0.0000  0.0000
17386SL     Si119034   3.241   4.834   8.263  0.0000  0.0000  0.0000
17386SL      O119035   3.241   4.834   8.099  0.0000  0.0000  0.0000
17386SL      H119036   3.241   4.834   8.001  0.0000  0.0000  0.0000
17387SL     Si119037   3.843   0.392   8.353  0.0000  0.0000  0.0000
17387SL      O119038   3.843   0.392   8.189  0.0000  0.0000  0.0000
17387SL      H119039   3.843   0.392   8.091  0.0000  0.0000  0.0000
17388SL     Si119040   5.705   2.216   1.255  0.0000  0.0000  0.0000
17388SL      O119041   5.705   2.216   1.419  0.0000  0.0000  0.0000
17388SL      H119042   5.705   2.216   1.517  0.0000  0.0000  0.0000
17389SL     Si119043   0.480   0.011   8.296  0.0000  0.0000  0.0000
17389SL      O119044   0.480   0.011   8.132  0.0000  0.0000  0.0000
17389SL      H119045   0.480   0.011   8.034  0.0000  0.0000  0.0000
17390SL     Si119046   0.033   0.912   1.403  0.0000  0.0000  0.0000
17390SL      O119047   0.033   0.912   1.567  0.0000  0.0000  0.0000
17390SL      H119048   0.033   0.912   1.665  0.0000  0.0000  0.0000
17391SL     Si119049   3.439   5.709   8.182  0.0000  0.0000  0.0000
17391SL      O119050   3.439   5.709   8.018  0.0000  0.0000  0.0000
17391SL      H119051   3.439   5.709   7.920  0.0000  0.0000  0.0000
17392SL     Si119052   0.365   1.655   8.255  0.0000  0.0000  0.0000
17392SL      O119053   0.365   1.655   8.091  0.0000  0.0000  0.0000
17392SL      H119054   0.365   1.655   7.993  0.0000  0.0000  0.0000
17393SL     Si119055   9.531   3.515   1.224  0.0000  0.0000  0.0000
17393SL      O119056   9.531   3.515   1.388  0.0000  0.0000  0.0000
17393SL      H119057   9.531   3.515   1.486  0.0000  0.0000  0.0000
17394SL     Si119058   1.504   4.315   8.461  0.0000  0.0000  0.0000
17394SL      O119059   1.504   4.315   8.297  0.0000  0.0000  0.0000
17394SL      H119060   1.504   4.315   8.199  0.0000  0.0000  0.0000
17395SL     Si119061   1.056   3.683   1.205  0.0000  0.0000  0.0000
17395SL      O119062   1.056   3.683   1.369  0.0000  0.0000  0.0000
17395SL      H119063   1.056   3.683   1.467  0.0000  0.0000  0.0000
17396SL     Si119064   8.815   6.982   1.274  0.0000  0.0000  0.0000
17396SL      O119065   8.815   6.982   1.438  0.0000  0.0000  0.0000
17396SL      H119066   8.815   6.982   1.536  0.0000  0.0000  0.0000
17397SL     Si119067   3.429   7.282   1.378  0.0000  0.0000  0.0000
17397SL      O119068   3.429   7.282   1.542  0.0000  0.0000  0.0000
17397SL      H119069   3.429   7.282   1.640  0.0000  0.0000  0.0000
17398SL     Si119070   7.468   6.350   8.237  0.0000  0.0000  0.0000
17398SL      O119071   7.468   6.350   8.073  0.0000  0.0000  0.0000
17398SL      H119072   7.468   6.350   7.975  0.0000  0.0000  0.0000
17399SL     Si119073   3.031   7.005   8.251  0.0000  0.0000  0.0000
17399SL      O119074   3.031   7.005   8.087  0.0000  0.0000  0.0000
17399SL      H119075   3.031   7.005   7.989  0.0000  0.0000  0.0000
17400SL     Si119076   5.305   3.188   8.261  0.0000  0.0000  0.0000
17400SL      O119077   5.305   3.188   8.097  0.0000  0.0000  0.0000
17400SL      H119078   5.305   3.188   7.999  0.0000  0.0000  0.0000
17401SL     Si119079   3.251   6.596   1.383  0.0000  0.0000  0.0000
17401SL      O119080   3.251   6.596   1.547  0.0000  0.0000  0.0000
17401SL      H119081   3.251   6.596   1.645  0.0000  0.0000  0.0000
17402SL     Si119082   7.410   6.622   1.336  0.0000  0.0000  0.0000
17402SL      O119083   7.410   6.622   1.500  0.0000  0.0000  0.0000
17402SL      H119084   7.410   6.622   1.598  0.0000  0.0000  0.0000
17403SLG    Si119085   1.900   4.205   1.375  0.0000  0.0000  0.0000
17403SLG     O119086   1.900   4.205   1.539  0.0000  0.0000  0.0000
17403SLG     H119087   1.900   4.205   1.637  0.0000  0.0000  0.0000
17403SLG     O219088   2.016   4.205   1.491  0.0000  0.0000  0.0000
17403SLG     H219089   2.016   4.205   1.589  0.0000  0.0000  0.0000
17404SLG    Si119090   1.892   7.029   1.439  0.0000  0.0000  0.0000
17404SLG     O119091   1.892   7.029   1.603  0.0000  0.0000  0.0000
17404SLG     H119092   1.892   7.029   1.701  0.0000  0.0000  0.0000
17404SLG     O219093   2.008   7.029   1.555  0.0000  0.0000  0.0000
17404SLG     H219094   2.008   7.029   1.653  0.0000  0.0000  0.0000
17405SLG    Si119095   6.904   2.180   1.290  0.0000  0.0000  0.0000
17405SLG     O119096   6.904   2.180   1.454  0.0000  0.0000  0.0000
17405SLG     H119097   6.904   2.180   1.552  0.0000  0.0000  0.0000
17405SLG     O219098   7.020   2.180   1.406  0.0000  0.0000  0.0000
17405SLG     H219099   7.020   2.180   1.504  0.0000  0.0000  0.0000
17406SLG    Si119100   6.013   0.551   1.272  0.0000  0.0000  0.0000
17406SLG     O119101   6.013   0.551   1.436  0.0000  0.0000  0.0000
17406SLG     H119102   6.013   0.551   1.534  0.0000  0.0000  0.0000
17406SLG     O219103   6.129   0.551   1.388  0.0000  0.0000  0.0000
17406SLG     H219104   6.129   0.551   1.486  0.0000  0.0000  0.0000
17407SLG    Si119105   6.362   2.437   8.230  0.0000  0.0000  0.0000
17407SLG     O119106   6.362   2.437   8.066  0.0000  0.0000  0.0000
17407SLG     H119107   6.362   2.437   7.968  0.0000  0.0000  0.0000
17407SLG     O219108   6.478   2.437   8.114  0.0000  0.0000  0.0000
17407SLG     H219109   6.478   2.437   8.016  0.0000  0.0000  0.0000
17408SLG    Si119110   8.586   1.970   8.173  0.0000  0.0000  0.0000
17408SLG     O119111   8.586   1.970   8.009  0.0000  0.0000  0.0000
17408SLG     H119112   8.586   1.970   7.911  0.0000  0.0000  0.0000
17408SLG     O219113   8.702   1.970   8.057  0.0000  0.0000  0.0000
17408SLG     H219114   8.702   1.970   7.959  0.0000  0.0000  0.0000
17409SLG    Si119115   7.263   7.527   8.241  0.0000  0.0000  0.0000
17409SLG     O119116   7.263   7.527   8.077  0.0000  0.0000  0.0000
17409SLG     H119117   7.263   7.527   7.979  0.0000  0.0000  0.0000
17409SLG     O219118   7.379   7.527   8.125  0.0000  0.0000  0.0000
17409SLG     H219119   7.379   7.527   8.027  0.0000  0.0000  0.0000
17410SLG    Si119120   2.931   6.318   8.304  0.0000  0.0000  0.0000
17410SLG     O119121   2.931   6.318   8.140  0.0000  0.0000  0.0000
17410SLG     H119122   2.931   6.318   8.042  0.0000  0.0000  0.0000
17410SLG     O219123   3.047   6.318   8.188  0.0000  0.0000  0.0000
17410SLG     H219124   3.047   6.318   8.090  0.0000  0.0000  0.0000
17411SLG    Si119125   5.731   6.832   1.454  0.0000  0.0000  0.0000
17411SLG     O119126   5.731   6.832   1.618  0.0000  0.0000  0.0000
17411SLG     H119127   5.731   6.832   1.716  0.0000  0.0000  0.0000
17411SLG     O219128   5.847   6.832   1.570  0.0000  0.0000  0.0000
17411SLG     H219129   5.847   6.832   1.668  0.0000  0.0000  0.0000
17412SLG    Si119130   6.321   5.272   8.234  0.0000  0.0000  0.0000
17412SLG     O119131   6.321   5.272   8.070  0.0000  0.0000  0.0000
17412SLG     H119132   6.321   5.272   7.972  0.0000  0.0000  0.0000
17412SLG     O219133   6.437   5.272   8.118  0.0000  0.0000  0.0000
17412SLG     H219134   6.437   5.272   8.020  0.0000  0.0000  0.0000
17413SLG    Si119135   1.598   8.765   8.261  0.0000  0.0000  0.0000
17413SLG     O119136   1.598   8.765   8.097  0.0000  0.0000  0.0000
17413SLG     H119137   1.598   8.765   7.999  0.0000  0.0000  0.0000
17413SLG     O219138   1.714   8.765   8.145  0.0000  0.0000  0.0000
17413SLG     H219139   1.714   8.765   8.047  0.0000  0.0000  0.0000
17414SLG    Si119140   0.264   4.436   1.394  0.0000  0.0000  0.0000
17414SLG     O119141   0.264   4.436   1.558  0.0000  0.0000  0.0000
17414SLG     H119142   0.264   4.436   1.656  0.0000  0.0000  0.0000
17414SLG     O219143   0.380   4.436   1.510  0.0000  0.0000  0.0000
17414SLG     H219144   0.380   4.436   1.608  0.0000  0.0000  0.0000
17415SLG    Si119145   7.957   0.262   8.257  0.0000  0.0000  0.0000
17415SLG     O119146   7.957   0.262   8.093  0.0000  0.0000  0.0000
17415SLG     H119147   7.957   0.262   7.995  0.0000  0.0000  0.0000
17415SLG     O219148   8.073   0.262   8.141  0.0000  0.0000  0.0000
17415SLG     H219149   8.073   0.262   8.043  0.0000  0.0000  0.0000
17416SLG    Si119150   6.875   6.037   1.313  0.0000  0.0000  0.0000
17416SLG     O119151   6.875   6.037   1.477  0.0000  0.0000  0.0000
17416SLG     H119152   6.875   6.037   1.575  0.0000  0.0000  0.0000
17416SLG     O219153   6.991   6.037   1.429  0.0000  0.0000  0.0000
17416SLG     H219154   6.991   6.037   1.527  0.0000  0.0000  0.0000
17417SLG    Si119155   1.653   6.334   1.427  0.0000  0.0000  0.0000
17417SLG     O119156   1.653   6.334   1.591  0.0000  0.0000  0.0000
17417SLG     H119157   1.653   6.334   1.689  0.0000  0.0000  0.0000
17417SLG     O219158   1.769   6.334   1.543  0.0000  0.0000  0.0000
17417SLG     H219159   1.769   6.334   1.641  0.0000  0.0000  0.0000
17418SLG    Si119160   5.280   6.940   8.202  0.0000  0.0000  0.0000
17418SLG     O119161   5.280   6.940   8.038  0.0000  0.0000  0.0000
17418SLG     H119162   5.280   6.940   7.940  0.0000  0.0000  0.0000
17418SLG     O219163   5.396   6.940   8.086  0.0000  0.0000  0.0000
17418SLG     H219164   5.396   6.940   7.988  0.0000  0.0000  0.0000
17419SLG    Si119165   9.469   5.383   8.292  0.0000  0.0000  0.0000
17419SLG     O119166   9.469   5.383   8.128  0.0000  0.0000  0.0000
17419SLG     H119167   9.469   5.383   8.030  0.0000  0.0000  0.0000
17419SLG     O219168   9.585   5.383   8.176  0.0000  0.0000  0.0000
17419SLG     H219169   9.585   5.383   8.078  0.0000  0.0000  0.0000
17420SLG    Si119170   1.827   4.900   1.395  0.0000  0.0000  0.0000
17420SLG     O119171   1.827   4.900   1.559  0.0000  0.0000  0.0000
17420SLG     H119172   1.827   4.900   1.657  0.0000  0.0000  0.0000
17420SLG     O219173   1.943   4.900   1.511  0.0000  0.0000  0.0000
17420SLG     H219174   1.943   4.900   1.609  0.0000  0.0000  0.0000
17421SLG    Si119175   9.048   8.220   1.342  0.0000  0.0000  0.0000
17421SLG     O119176   9.048   8.220   1.506  0.0000  0.0000  0.0000
17421SLG     H119177   9.048   8.220   1.604  0.0000  0.0000  0.0000
17421SLG     O219178   9.164   8.220   1.458  0.0000  0.0000  0.0000
17421SLG     H219179   9.164   8.220   1.556  0.0000  0.0000  0.0000
17422SLG    Si119180   0.104   8.040   8.318  0.0000  0.0000  0.0000
17422SLG     O119181   0.104   8.040   8.154  0.0000  0.0000  0.0000
17422SLG     H119182   0.104   8.040   8.056  0.0000  0.0000  0.0000
17422SLG     O219183   0.220   8.040   8.202  0.0000  0.0000  0.0000
17422SLG     H219184   0.220   8.040   8.104  0.0000  0.0000  0.0000
17423SLG    Si119185   1.040   8.020   1.352  0.0000  0.0000  0.0000
17423SLG     O119186   1.040   8.020   1.516  0.0000  0.0000  0.0000
17423SLG     H119187   1.040   8.020   1.614  0.0000  0.0000  0.0000
17423SLG     O219188   1.156   8.020   1.468  0.0000  0.0000  0.0000
17423SLG     H219189   1.156   8.020   1.566  0.0000  0.0000  0.0000
17424SLG    Si119190   7.939   1.587   1.262  0.0000  0.0000  0.0000
17424SLG     O119191   7.939   1.587   1.426  0.0000  0.0000  0.0000
17424SLG     H119192   7.939   1.587   1.524  0.0000  0.0000  0.0000
17424SLG     O219193   8.055   1.587   1.378  0.0000  0.0000  0.0000
17424SLG     H219194   8.055   1.587   1.476  0.0000  0.0000  0.0000
17425THY      O19195   1.549   6.496   3.794  0.6597  0.3859  1.0141
17425THY     HO19196   1.579   6.576   3.748  0.1564 -0.9287  0.4617
17425THY    CA119197   1.649   6.469   3.878  0.0866 -0.2000 -0.6444
17425THY    CA219198   1.637   6.359   3.968  0.6186 -0.7121 -0.1021
17425THY    CP119199   1.494   6.287   3.985  0.4801  0.5163  0.2763
17425THY    HP119200   1.434   6.293   3.893  0.1352  0.6382 -1.0346
17425THY    CP219201   1.413   6.372   4.082  0.0448  0.2458  0.3779
17425THY    HP219202   1.311   6.331   4.078  0.6230 -1.8102 -0.9910
17425THY    HP319203   1.407   6.475   4.044  1.2176 -2.2666 -0.3993
17425THY    HP419204   1.454   6.381   4.184 -1.6093  0.8299  2.1952
17425THY    CP319205   1.508   6.141   4.029 -0.4696  0.0818  0.3688
17425THY    HP519206   1.575   6.088   3.960  0.2414  0.3659  0.8804
17425THY    HP619207   1.412   6.088   4.031  0.4032  0.7001 -1.2341
17425THY    HP719208   1.556   6.135   4.127 -2.6300  1.2348  0.6895
17425THY    CA319209   1.750   6.319   4.047 -0.0206  0.1599  0.1232
17425THY    HA319210   1.738   6.234   4.115  0.0535 -0.9997 -0.8455
17425THY    CA419211   1.869   6.393   4.030 -0.0196 -0.4570 -0.7890
17425THY    HA419212   1.955   6.370   4.093 -0.4001  0.2167 -0.3887
17425THY    CA519213   1.872   6.511   3.949  0.7868 -0.8282 -0.1746
17425THY    CM119214   1.993   6.601   3.962  0.0187  0.2960  0.2710
17425THY    HM119215   1.984   6.644   4.062 -0.4502  0.5307 -0.3630
17425THY    HM219216   1.998   6.690   3.897 -0.5676 -0.5068 -0.2677
17425THY    HM319217   2.086   6.545   3.946 -1.3197 -1.7559 -1.5583
17425THY    CA619218   1.763   6.544   3.867  0.2980 -0.4014 -0.0199
17425THY    HA619219   1.761   6.639   3.814  1.1767  1.0694  0.8603
17426THY      O19220   6.151   6.093   2.355 -0.0038  0.4765 -0.1556
17426THY     HO19221   6.210   6.149   2.301  0.0945 -1.1872 -1.7520
17426THY    CA119222   6.049   6.055   2.273  0.7828 -0.0783 -0.1921
17426THY    CA219223   5.937   5.981   2.318  0.1207 -0.0511 -0.0872
17426THY    CP119224   5.922   5.934   2.462  0.2804  0.2984  0.5170
17426THY    HP119225   6.024   5.911   2.494  0.3135 -0.7478 -0.8892
17426THY    CP219226   5.846   5.804   2.487 -0.4069 -0.1635  0.3352
17426THY    HP219227   5.888   5.725   2.424 -1.7679 -0.7458  0.0468
17426THY    HP319228   5.741   5.818   2.457 -0.6796  1.3484  1.8968
17426THY    HP419229   5.848   5.789   2.595 -1.5548 -0.0324  0.9448
17426THY    CP319230   5.861   6.052   2.537 -0.5543 -0.2672 -0.0678
17426THY    HP519231   5.760   6.060   2.496  0.7245 -3.4412  1.4695
17426THY    HP619232   5.914   6.148   2.528  0.3738 -2.4600 -0.7319
17426THY    HP719233   5.862   6.032   2.645 -0.6698 -0.6026 -2.0791
17426THY    CA319234   5.825   5.964   2.234  0.2570  0.5258  0.4698
17426THY    HA319235   5.739   5.915   2.279  0.2036  2.6062  2.2985
17426THY    CA419236   5.821   6.017   2.105 -0.0001 -0.7946 -0.0449
17426THY    HA419237   5.735   5.998   2.042  1.1998 -2.1780 -1.1242
17426THY    CA519238   5.935   6.091   2.056 -0.2885  0.2679  0.2354
17426THY    CM119239   5.927   6.160   1.919 -0.2208 -0.0360 -0.2379
17426THY    HM119240   5.874   6.256   1.923 -0.5318 -0.5347 -0.3847
17426THY    HM219241   5.871   6.092   1.854  0.4497  0.0680 -0.9083
17426THY    HM319242   6.026   6.181   1.877 -0.9468 -0.4653  2.8220
17426THY    CA619243   6.041   6.105   2.141  0.2414 -0.7141 -0.0853
17426THY    HA619244   6.123   6.166   2.106  0.3332 -1.6495 -0.7335
17427THY      O19245   3.433   5.247   5.698  0.2706  0.2612  0.1543
17427THY     HO19246   3.383   5.292   5.768 -2.1299 -1.7501  0.8161
17427THY    CA119247   3.389   5.118   5.720 -0.5454  0.3850 -0.3805
17427THY    CA219248   3.416   5.020   5.622  0.2500 -0.1660  0.3976
17427THY    CP119249   3.510   5.052   5.501  0.2278  1.0378 -0.2407
17427THY    HP119250   3.532   5.160   5.504 -0.0136  1.3679 -0.1993
17427THY    CP219251   3.439   5.015   5.360 -0.3709 -0.3079 -0.0291
17427THY    HP219252   3.343   5.067   5.354  0.8797 -2.1828  2.2626
17427THY    HP319253   3.425   4.907   5.348  1.5961  1.0324 -0.4868
17427THY    HP419254   3.502   5.053   5.279  0.2667  0.5748  0.8352
17427THY    CP319255   3.643   4.980   5.515  0.2738  0.2578  0.4447
17427THY    HP519256   3.625   4.875   5.490 -1.6620  2.0368  0.2952
17427THY    HP619257   3.679   4.994   5.617 -0.7623  1.0396 -2.0603
17427THY    HP719258   3.712   5.009   5.435  0.2798 -0.5470 -1.5831
17427THY    CA319259   3.372   4.892   5.651 -0.9043  0.0633  0.6477
17427THY    HA319260   3.390   4.810   5.582  1.4208  1.6027 -0.2671
17427THY    CA419261   3.303   4.868   5.769 -0.5061 -0.0490  0.3118
17427THY    HA419262   3.265   4.768   5.788 -0.9957 -4.1470 -0.4760
17427THY    CA519263   3.259   4.975   5.852 -0.2629  0.6812 -0.5242
17427THY    CM119264   3.180   4.943   5.969 -0.1962  0.1913  0.1921
17427THY    HM119265   3.094   4.878   5.948  0.3198 -1.2971 -0.0462
17427THY    HM219266   3.136   5.035   6.009 -0.2530  1.4459 -0.3713
17427THY    HM319267   3.240   4.897   6.047 -2.9769  2.1074 -0.4519
17427THY    CA619268   3.307   5.103   5.826 -0.4074  0.1753  0.2070
17427THY    HA619269   3.285   5.183   5.895 -0.3911 -0.5275  0.8263
17428THY      O19270   8.426   7.018   5.505  0.0557 -0.8259  0.1161
17428THY     HO19271   8.391   7.108   5.512 -0.6187  1.3522 -0.2572
17428THY    CA119272   8.560   7.036   5.480  0.8921 -0.7560 -0.9845
17428THY    CA219273   8.652   6.930   5.477 -0.6502  0.1134 -0.8702
17428THY    CP119274   8.610   6.792   5.516  0.0812  0.5459 -0.0336
17428THY    HP119275   8.503   6.781   5.539  0.2213  0.1859 -2.7075
17428THY    CP219276   8.677   6.769   5.646  0.0031  0.0254 -0.0015
17428THY    HP219277   8.657   6.667   5.681  0.9462  0.4553 -0.0494
17428THY    HP319278   8.633   6.827   5.728  3.3313  2.4924 -0.6553
17428THY    HP419279   8.784   6.791   5.643 -0.5051  1.0308  3.2102
17428THY    CP319280   8.636   6.685   5.401 -0.1481 -0.5138  0.5604
17428THY    HP519281   8.743   6.676   5.379 -0.0912  0.5261 -2.3243
17428THY    HP619282   8.579   6.716   5.313  0.4765 -1.0630  0.1769
17428THY    HP719283   8.588   6.592   5.435 -2.0365  0.5950  1.8683
17428THY    CA319284   8.786   6.959   5.440  0.1877  0.0136 -0.1505
17428THY    HA319285   8.860   6.882   5.463  0.9883 -0.0924  0.5720
17428THY    CA419286   8.820   7.091   5.407 -0.1014 -0.2902 -0.0922
17428THY    HA419287   8.921   7.113   5.374  1.3725  3.1050 -1.1831
17428THY    CA519288   8.721   7.190   5.397  0.0179  0.3271  0.0419
17428THY    CM119289   8.745   7.323   5.336 -0.2029 -0.0273  0.0196
17428THY    HM119290   8.853   7.333   5.320 -0.4611 -1.0745  1.4667
17428THY    HM219291   8.705   7.408   5.393 -1.1624 -1.8492  0.8498
17428THY    HM319292   8.700   7.327   5.236 -0.3859  0.0517 -0.0364
17428THY    CA619293   8.589   7.158   5.429 -0.8540  0.3059  0.0656
17428THY    HA619294   8.512   7.234   5.425 -0.3696  0.7236  0.5844
17429THY      O19295   9.173   3.598   3.159  0.0510  0.1019 -0.5629
17429THY     HO19296   9.194   3.636   3.072 -1.6715 -1.0669 -2.1256
17429THY    CA119297   9.217   3.678   3.254  0.1163 -0.2474 -0.1960
17429THY    CA219298   9.156   3.691   3.383  0.2691  0.3385  0.1883
17429THY    CP119299   9.021   3.624   3.422  0.9616  0.3230 -0.0158
17429THY    HP119300   8.963   3.640   3.331 -1.8854  2.3917  3.1328
17429THY    CP219301   8.933   3.700   3.518  0.3462 -0.1399 -0.2833
17429THY    HP219302   8.917   3.804   3.486 -2.0991  0.6973 -0.3492
17429THY    HP319303   8.985   3.714   3.614 -0.6120  0.1332  1.9045
17429THY    HP419304   8.834   3.653   3.524  0.5016  0.4184 -0.5517
17429THY    CP319305   9.028   3.478   3.466  0.0987  0.9309  0.4675
17429THY    HP519306   9.078   3.470   3.563 -0.1430  1.0953  0.9131
17429THY    HP619307   9.084   3.428   3.386  0.1447  1.6944 -0.7343
17429THY    HP719308   8.929   3.433   3.457  0.6604 -0.8080 -0.5362
17429THY    CA319309   9.230   3.759   3.481  0.0331  0.1375  0.0699
17429THY    HA319310   9.204   3.745   3.586  3.4506  0.9728 -1.2129
17429THY    CA419311   9.347   3.829   3.450 -0.2884 -0.7652 -0.2545
17429THY    HA419312   9.400   3.885   3.527 -0.6625 -0.0156 -0.9077
17429THY    CA519313   9.397   3.821   3.324 -0.0965 -0.5522  0.4707
17429THY    CM119314   9.530   3.886   3.288  0.5395 -0.0991  0.1814
17429THY    HM119315   9.502   3.992   3.289  2.8287  0.4826  0.8299
17429THY    HM219316   9.554   3.866   3.183  0.9299  0.1767 -0.8333
17429THY    HM319317   9.604   3.865   3.365 -1.6866  1.3142 -3.3572
17429THY    CA619318   9.327   3.750   3.225  0.2221 -0.1967 -0.1316
17429THY    HA619319   9.372   3.731   3.128  2.5986  1.2076 -2.3770
17430THY      O19320   6.218   9.090   6.720 -0.3790  0.3099 -0.1933
17430THY     HO19321   6.308   9.058   6.708 -0.5306 -1.5490 -0.0336
17430THY    CA119322   6.140   9.036   6.620 -0.0194 -0.0491  0.2917
17430THY    CA219323   5.999   9.045   6.620 -0.0845 -0.4784  0.3656
17430THY    CP119324   5.914   9.115   6.727 -0.1359 -0.5762 -0.7643
17430THY    HP119325   5.975   9.164   6.804  0.4313 -0.2545 -1.9525
17430THY    CP219326   5.818   9.016   6.801  0.1863 -0.9316  0.8108
17430THY    HP219327   5.872   8.973   6.886 -2.8902  0.4517 -0.6394
17430THY    HP319328   5.781   8.929   6.747  1.9398 -1.2469  0.2186
17430THY    HP419329   5.737   9.075   6.848 -0.1611  0.5463 -0.7637
17430THY    CP319330   5.842   9.234   6.667 -0.0279  0.5429 -0.0877
17430THY    HP519331   5.781   9.209   6.579  0.8253 -0.2634  0.6262
17430THY    HP619332   5.912   9.302   6.619 -0.7904  0.3806  0.6001
17430THY    HP719333   5.795   9.296   6.744  1.3855  1.7314 -0.4564
17430THY    CA319334   5.928   8.982   6.517  0.3199  0.6048  0.2575
17430THY    HA319335   5.822   8.990   6.499  0.4674 -0.0160  0.9271
17430THY    CA419336   5.998   8.916   6.421  0.0732  0.5147  0.0604
17430THY    HA419337   5.953   8.874   6.332  0.2238  0.0734  0.8153
17430THY    CA519338   6.139   8.912   6.420  1.2338 -0.3003 -0.2605
17430THY    CM119339   6.210   8.839   6.313 -0.3277  0.3250 -0.0329
17430THY    HM119340   6.232   8.734   6.336  1.2174  1.9721  0.5870
17430THY    HM219341   6.313   8.873   6.293 -1.2984 -4.4111  0.8516
17430THY    HM319342   6.159   8.851   6.217 -1.4512  0.7058 -1.5038
17430THY    CA619343   6.209   8.974   6.527 -0.1700  0.0900  0.1817
17430THY    HA619344   6.316   8.957   6.523 -0.4905 -1.3430 -2.0418
17431THY      O19345   4.843   7.800   5.942 -0.2793  0.2758 -0.2179
17431THY     HO19346   4.843   7.863   6.017  0.6087 -0.6131  0.8736
17431THY    CA119347   4.720   7.746   5.929 -0.0542  0.0494 -0.0659
17431THY    CA219348   4.706   7.614   5.877 -0.3520  0.1405  0.2599
17431THY    CP119349   4.838   7.534   5.850 -0.0713  0.7579 -1.0902
17431THY    HP119350   4.930   7.586   5.878 -0.1235  1.8428 -1.5594
17431THY    CP219351   4.841   7.494   5.696  0.1386 -0.0421 -0.3559
17431THY    HP219352   4.846   7.590   5.644  1.3881  0.7419  0.0227
17431THY    HP319353   4.754   7.429   5.675  0.4558  0.6979 -1.0448
17431THY    HP419354   4.933   7.440   5.672  0.3279 -2.7377  1.0086
17431THY    CP319355   4.843   7.404   5.929  0.4157  0.2819 -0.0304
17431THY    HP519356   4.744   7.357   5.930  1.5440  2.7422 -2.6393
17431THY    HP619357   4.871   7.433   6.031  2.4447 -0.6563  1.5738
17431THY    HP719358   4.921   7.336   5.894 -1.2282  0.1887 -1.9760
17431THY    CA319359   4.580   7.557   5.860 -0.3369  0.3848  0.4911
17431THY    HA319360   4.569   7.456   5.822  0.7540  0.1951  0.4314
17431THY    CA419361   4.468   7.641   5.888 -0.2846 -0.2278  0.3172
17431THY    HA419362   4.368   7.601   5.873  0.1193  0.9133 -1.2477
17431THY    CA519363   4.483   7.768   5.942 -0.2318 -0.4308 -0.2341
17431THY    CM119364   4.361   7.856   5.961  0.1923  0.3815  0.5078
17431THY    HM119365   4.396   7.949   6.006  1.5681 -0.0069  0.2008
17431THY    HM219366   4.297   7.791   6.022  0.4099  1.2896  1.1296
17431THY    HM319367   4.316   7.879   5.863  0.1715  0.1869 -0.3051
17431THY    CA619368   4.613   7.825   5.950  1.3368 -0.2027  0.2531
17431THY    HA619369   4.618   7.929   5.983 -1.1668 -1.6189  0.9125
17432THY      O19370   5.006   8.152   5.889 -0.2661 -0.0207 -0.6311
17432THY     HO19371   5.024   8.245   5.867 -1.2552 -0.4390 -0.5191
17432THY    CA119372   5.130   8.090   5.898  0.7504 -0.0781  0.6020
17432THY    CA219373   5.161   7.979   5.816  0.2588  0.3298 -0.2772
17432THY    CP119374   5.058   7.929   5.703  0.0727 -0.2710 -1.0577
17432THY    HP119375   4.955   7.944   5.737 -1.2216 -4.0817 -0.2511
17432THY    CP219376   5.073   7.783   5.656 -0.0267  0.3650 -0.4650
17432THY    HP219377   4.995   7.776   5.580  1.3740 -1.4729  2.2313
17432THY    HP319378   5.064   7.706   5.734  1.7490 -0.2039 -1.3196
17432THY    HP419379   5.169   7.764   5.606 -1.4258 -1.9177 -2.1236
17432THY    CP319380   5.096   8.025   5.587 -0.8107  0.3246  0.8589
17432THY    HP519381   5.204   8.032   5.572 -0.6015 -0.4092 -2.3314
17432THY    HP619382   5.059   8.125   5.613  0.6391 -1.6655  1.9579
17432THY    HP719383   5.049   8.007   5.490 -0.2261 -0.0120  1.1359
17432THY    CA319384   5.285   7.917   5.841  0.1121  0.1746  0.4471
17432THY    HA319385   5.313   7.830   5.783  1.2975  0.4482  0.6315
17432THY    CA419386   5.373   7.968   5.944 -0.0669  0.0673  0.0970
17432THY    HA419387   5.470   7.923   5.968  0.3410 -2.1367 -0.3066
17432THY    CA519388   5.337   8.075   6.021 -0.5585 -0.4405 -0.0616
17432THY    CM119389   5.425   8.123   6.140 -0.2081  0.5735  0.1368
17432THY    HM119390   5.529   8.090   6.133 -0.6514  0.2285 -1.2699
17432THY    HM219391   5.385   8.097   6.239 -0.0300  1.3324  2.5049
17432THY    HM319392   5.423   8.233   6.140  0.3240  1.0182  0.1494
17432THY    CA619393   5.218   8.138   5.997  0.3026 -0.4547 -0.1370
17432THY    HA619394   5.203   8.233   6.047  2.1776 -0.2428  0.0758
17433THY      O19395   9.161   6.316   5.680  0.4035 -0.1740  0.1123
17433THY     HO19396   9.153   6.321   5.777 -0.8506 -0.2490 -0.2532
17433THY    CA119397   9.041   6.291   5.621 -1.1108  0.4015 -0.3686
17433THY    CA219398   9.037   6.252   5.489  0.1152  0.1057  0.5890
17433THY    CP119399   9.163   6.219   5.403  0.1672  0.5730 -0.0325
17433THY    HP119400   9.258   6.224   5.457  0.7776 -0.5489  0.8995
17433THY    CP219401   9.179   6.320   5.289  0.4612 -0.1602 -0.5854
17433THY    HP219402   9.163   6.424   5.319 -0.5544  0.4106 -0.8839
17433THY    HP319403   9.104   6.304   5.210 -0.1182  0.1665  0.4077
17433THY    HP419404   9.277   6.308   5.241  0.1498 -0.5818 -1.5397
17433THY    CP319405   9.159   6.080   5.346  0.5782 -0.2514  0.2027
17433THY    HP519406   9.058   6.054   5.312 -0.0468 -1.6008  3.7592
17433THY    HP619407   9.194   6.016   5.427 -0.6948  1.1154  1.1725
17433THY    HP719408   9.232   6.074   5.264 -0.2529 -1.2542  2.4607
17433THY    CA319409   8.910   6.254   5.430 -0.2506  0.7685 -0.0100
17433THY    HA319410   8.899   6.224   5.326  1.0592 -0.0305  2.0661
17433THY    CA419411   8.793   6.273   5.501  0.3323 -0.5968  0.1141
17433THY    HA419412   8.696   6.263   5.454 -0.0176  0.0114  0.6053
17433THY    CA519413   8.792   6.311   5.634  0.4416  0.3300  0.0722
17433THY    CM119414   8.666   6.345   5.701  0.5332 -0.0994 -0.5383
17433THY    HM119415   8.586   6.270   5.691  0.2210  2.1008 -0.5616
17433THY    HM219416   8.632   6.441   5.661  0.7155 -3.5626 -1.7884
17433THY    HM319417   8.680   6.367   5.808 -0.7721 -0.0132 -0.0765
17433THY    CA619418   8.924   6.326   5.693  0.6001 -0.6157 -0.1655
17433THY    HA619419   8.923   6.357   5.797  1.3309 -0.4934 -0.5245
17434THY      O19420   6.215   7.347   6.549 -0.0418  0.0304 -0.2249
17434THY     HO19421   6.280   7.300   6.494 -0.4280  0.6399 -1.5200
17434THY    CA119422   6.148   7.249   6.605 -0.1383  0.1586 -0.2222
17434THY    CA219423   6.034   7.269   6.681  0.7939  0.4961 -0.2995
17434THY    CP119424   5.979   7.410   6.709  0.1944  0.0442 -0.7954
17434THY    HP119425   6.049   7.489   6.680 -0.4080  0.6350 -0.0397
17434THY    CP219426   5.949   7.431   6.864 -0.0594  0.8411  0.3092
17434THY    HP219427   6.037   7.395   6.919  0.9388 -0.8357  0.1032
17434THY    HP319428   5.859   7.378   6.897 -1.4261 -1.9139  0.7312
17434THY    HP419429   5.921   7.532   6.897 -0.9158  0.6585  0.1384
17434THY    CP319430   5.853   7.422   6.620  0.3620  0.8282 -0.4245
17434THY    HP519431   5.882   7.412   6.514  0.1548  0.7085  0.1490
17434THY    HP619432   5.795   7.514   6.635  0.7472  2.0055 -0.3657
17434THY    HP719433   5.782   7.342   6.642 -1.8942  0.1066  1.2482
17434THY    CA319434   5.973   7.158   6.748  0.2148 -0.3754 -0.3023
17434THY    HA319435   5.889   7.168   6.816  0.6055 -0.2319  3.6440
17434THY    CA419436   6.026   7.027   6.724 -0.0204  0.6041  0.2901
17434THY    HA419437   5.982   6.939   6.770 -1.1757 -1.1641 -0.1059
17434THY    CA519438   6.143   7.006   6.644  0.0253 -0.4835  0.5585
17434THY    CM119439   6.182   6.858   6.622  0.0270 -0.1276  0.4232
17434THY    HM119440   6.246   6.830   6.706 -0.8203  0.9091  1.4836
17434THY    HM219441   6.225   6.848   6.522 -1.8821 -1.0618  1.0406
17434THY    HM319442   6.090   6.798   6.616  1.1526 -1.0034 -1.2836
17434THY    CA619443   6.203   7.119   6.583 -0.1684  0.9933 -0.2682
17434THY    HA619444   6.283   7.107   6.509  0.5977  1.1204  3.1259
17435THY      O19445   6.391   4.458   3.302  0.6875  0.1020  0.1400
17435THY     HO19446   6.351   4.393   3.241 -0.2530  0.4670  0.3580
17435THY    CA119447   6.334   4.581   3.287 -0.0165 -0.0157 -0.1382
17435THY    CA219448   6.384   4.685   3.371  0.5874 -0.1588 -0.5883
17435THY    CP119449   6.486   4.650   3.487  0.6866  0.0877 -0.0372
17435THY    HP119450   6.465   4.546   3.512 -0.5619 -1.6286 -0.2548
17435THY    CP219451   6.453   4.738   3.616 -0.7236  0.2531  0.8635
17435THY    HP219452   6.350   4.729   3.652 -0.6903  0.3554  0.8973
17435THY    HP319453   6.472   4.842   3.589 -1.5209 -1.2347  0.6578
17435THY    HP419454   6.527   4.704   3.690 -1.1807 -0.0034 -0.7901
17435THY    CP319455   6.628   4.685   3.449 -0.7737 -0.5339 -0.6418
17435THY    HP519456   6.674   4.597   3.401  2.8632 -0.4770  1.0147
17435THY    HP619457   6.694   4.699   3.535 -2.2969  0.8171 -1.5879
17435THY    HP719458   6.635   4.776   3.387 -1.3564  1.5371  0.8972
17435THY    CA319459   6.338   4.815   3.351 -0.1445  0.5569  0.4280
17435THY    HA319460   6.378   4.887   3.422  2.2671  1.0623 -1.2842
17435THY    CA419461   6.248   4.836   3.242 -0.0643  0.5709 -0.5660
17435THY    HA419462   6.217   4.939   3.231  1.0416  2.3318 -0.0075
17435THY    CA519463   6.193   4.728   3.166 -0.5507 -0.1287 -0.1285
17435THY    CM119464   6.094   4.763   3.057 -0.3350 -0.0126  0.0739
17435THY    HM119465   6.007   4.696   3.056  0.9135  0.1861 -1.6154
17435THY    HM219466   6.143   4.762   2.959  0.7752  0.4964 -2.3716
17435THY    HM319467   6.053   4.864   3.071 -4.3695 -2.1229 -1.0787
17435THY    CA619468   6.241   4.601   3.191 -0.3847  0.8457 -0.4643
17435THY    HA619469   6.202   4.527   3.122  0.2030  1.0035 -0.9255
17436THY      O19470   2.758   0.773   1.852 -0.3616 -0.1295  0.2973
17436THY     HO19471   2.693   0.836   1.817 -0.7692  0.1831  0.0479
17436THY    CA119472   2.883   0.819   1.820  0.0916  0.3592  0.5500
17436THY    CA219473   3.004   0.743   1.830  0.0243 -0.2407  0.0156
17436THY    CP119474   3.010   0.604   1.884  0.2161 -0.0517 -0.5531
17436THY    HP119475   2.910   0.579   1.923  0.9427  1.8313 -0.7206
17436THY    CP219476   3.111   0.596   1.999  0.2651 -0.3741 -0.6748
17436THY    HP219477   3.217   0.594   1.969 -0.3272 -2.6092 -1.1519
17436THY    HP319478   3.087   0.508   2.060  2.2259  1.9682  0.2929
17436THY    HP419479   3.082   0.681   2.062 -2.3012 -1.3909 -0.7164
17436THY    CP319480   3.037   0.497   1.781 -0.6995  0.3194 -0.1024
17436THY    HP519481   3.039   0.402   1.836 -1.5555  1.5435  0.5687
17436THY    HP619482   3.137   0.519   1.743 -0.6475  0.1622 -0.5916
17436THY    HP719483   2.961   0.486   1.702 -0.3696 -0.0595  0.2871
17436THY    CA319484   3.125   0.805   1.796  0.0558  0.4052  0.4287
17436THY    HA319485   3.217   0.748   1.795  1.0212 -1.2166  1.9314
17436THY    CA419486   3.120   0.941   1.769 -0.4873 -0.4065 -0.7266
17436THY    HA419487   3.208   0.994   1.735 -0.7835  1.6726  1.2194
17436THY    CA519488   3.000   1.016   1.767  0.0541  0.0422 -1.3088
17436THY    CM119489   3.003   1.163   1.746 -0.8033 -0.2802  0.0030
17436THY    HM119490   3.104   1.191   1.714  0.1051 -0.2207 -2.9032
17436THY    HM219491   2.982   1.209   1.844  0.6044 -0.5338  1.2697
17436THY    HM319492   2.923   1.184   1.675 -0.0314 -1.2164 -0.1377
17436THY    CA619493   2.882   0.955   1.805  0.3879 -0.0095 -0.3206
17436THY    HA619494   2.787   1.007   1.805 -0.6050  1.5983 -2.0204
17437THY      O19495   8.112   6.278   7.569  0.0112 -0.2056  0.0035
17437THY     HO19496   8.060   6.360   7.564  0.6791  1.0982  0.5433
17437THY    CA119497   8.178   6.278   7.693  0.1868  0.0918  0.0064
17437THY    CA219498   8.277   6.183   7.719 -0.3517 -0.7739 -0.9746
17437THY    CP119499   8.321   6.091   7.605  0.4027  0.2309  0.4216
17437THY    HP119500   8.290   6.127   7.506  0.8620 -0.0652  0.0180
17437THY    CP219501   8.255   5.951   7.629 -0.2132 -1.0257 -0.5058
17437THY    HP219502   8.284   5.879   7.551  1.4371 -0.6491 -0.2809
17437THY    HP319503   8.147   5.967   7.618 -0.1159 -2.5577 -0.7263
17437THY    HP419504   8.285   5.908   7.724  1.4714  0.1578  2.9294
17437THY    CP319505   8.472   6.069   7.605 -0.5217 -0.3012  0.5729
17437THY    HP519506   8.520   6.154   7.556 -3.1289 -2.4935  0.9234
17437THY    HP619507   8.491   5.982   7.540 -1.9750  0.4685 -0.3792
17437THY    HP719508   8.514   6.046   7.704  1.2268 -0.6019  2.2875
17437THY    CA319509   8.325   6.174   7.856  0.2283  1.0577  0.6883
17437THY    HA319510   8.407   6.109   7.884 -0.1137  0.3134 -0.0822
17437THY    CA419511   8.270   6.257   7.956  0.1498 -0.0248 -0.4231
17437THY    HA419512   8.314   6.268   8.055  1.2087 -0.4732 -0.5000
17437THY    CA519513   8.167   6.345   7.925  0.0074  0.8357  1.0439
17437THY    CM119514   8.110   6.435   8.032 -0.3068 -0.2131  0.0205
17437THY    HM119515   8.033   6.372   8.078 -2.2582 -1.9531  1.0075
17437THY    HM219516   8.066   6.522   7.980  1.9482 -0.6540  0.9767
17437THY    HM319517   8.177   6.465   8.113 -1.1911  0.5727 -0.1022
17437THY    CA619518   8.121   6.354   7.792 -0.2028  0.2883 -0.1907
17437THY    HA619519   8.053   6.432   7.762 -1.0589 -0.7534 -1.3181
17438THY      O19520   4.194   8.355   1.680  0.0558  0.1205  0.4356
17438THY     HO19521   4.246   8.273   1.677 -0.0769 -1.9980  0.3837
17438THY    CA119522   4.280   8.457   1.697  0.1584  0.1318 -0.5622
17438THY    CA219523   4.238   8.590   1.695 -0.5655 -0.6346 -0.1917
17438THY    CP119524   4.091   8.619   1.684 -1.0241  0.5701 -0.1320
17438THY    HP119525   4.025   8.532   1.689 -1.8996 -0.9726  0.4105
17438THY    CP219526   4.058   8.689   1.552 -0.2975  0.4128 -0.1955
17438THY    HP219527   4.110   8.785   1.536 -0.6026  2.2143  0.3074
17438THY    HP319528   3.956   8.728   1.544 -1.2993  1.4323 -2.4533
17438THY    HP419529   4.090   8.619   1.473  1.7222  0.3480  0.7394
17438THY    CP319530   4.051   8.724   1.800 -0.8161  0.0980 -0.6367
17438THY    HP519531   4.091   8.695   1.898 -0.1724 -0.2050 -0.8049
17438THY    HP619532   3.942   8.735   1.796 -1.3131  1.3256 -4.0707
17438THY    HP719533   4.089   8.825   1.783 -0.4590 -0.0634 -0.7967
17438THY    CA319534   4.335   8.692   1.732 -0.2012 -0.3340  0.1004
17438THY    HA319535   4.317   8.798   1.741  1.6089  1.4329  0.3120
17438THY    CA419536   4.468   8.660   1.758  0.8806  0.4270  0.2735
17438THY    HA419537   4.535   8.744   1.774 -0.3807  2.3695  0.9924
17438THY    CA519538   4.503   8.526   1.760  0.0999 -0.2551 -0.2263
17438THY    CM119539   4.642   8.492   1.791 -0.6308 -0.1223 -0.0669
17438THY    HM119540   4.669   8.386   1.796  0.5096 -0.9986  0.1484
17438THY    HM219541   4.666   8.536   1.889 -1.3193 -0.4785  1.1526
17438THY    HM319542   4.706   8.524   1.708 -0.1336 -1.1733 -3.4136
17438THY    CA619543   4.409   8.426   1.733 -0.2051 -0.4774  0.4054
17438THY    HA619544   4.438   8.323   1.715 -2.3311  3.5005 -1.1422
17439THY      O19545   5.659   7.509   5.290 -0.0257 -0.1538 -0.0788
17439THY     HO19546   5.742   7.463   5.310  1.0703  0.7424  2.1338
17439THY    CA119547   5.619   7.568   5.400 -0.2099 -0.5665 -0.4053
17439THY    CA219548   5.536   7.675   5.400 -0.2506  0.5450 -0.5403
17439THY    CP119549   5.493   7.744   5.277 -0.1920 -0.3688 -0.0246
17439THY    HP119550   5.517   7.692   5.184  2.1311 -0.6961  1.5077
17439THY    CP219551   5.552   7.885   5.253  0.4179  0.1625  0.6347
17439THY    HP219552   5.512   7.930   5.161 -0.0073  0.5621  1.0924
17439THY    HP319553   5.660   7.875   5.244  0.3493  1.2447 -1.6634
17439THY    HP419554   5.532   7.950   5.339 -1.8319 -0.6668  1.1580
17439THY    CP319555   5.336   7.764   5.270 -0.1815 -0.7963 -0.1929
17439THY    HP519556   5.294   7.784   5.171 -1.5052  0.0280  1.2362
17439THY    HP619557   5.298   7.842   5.337 -2.1529  1.4867 -2.8841
17439THY    HP719558   5.286   7.673   5.305  0.8473 -0.2008 -0.5581
17439THY    CA319559   5.498   7.729   5.524  0.8211  0.2714 -0.0447
17439THY    HA319560   5.430   7.814   5.533  1.1282 -0.1787  0.2572
17439THY    CA419561   5.542   7.673   5.640  0.8847 -0.4814 -0.2068
17439THY    HA419562   5.508   7.706   5.737  2.6599  0.2224 -0.3233
17439THY    CA519563   5.624   7.567   5.644  0.0615 -0.0916  0.6840
17439THY    CM119564   5.671   7.500   5.776  0.2290  0.3007  0.2687
17439THY    HM119565   5.629   7.400   5.797  0.7588  3.1099  0.5484
17439THY    HM219566   5.644   7.572   5.854  0.0357 -0.5707  1.1416
17439THY    HM319567   5.779   7.483   5.773  0.0624 -0.1494 -0.7729
17439THY    CA619568   5.662   7.512   5.519  0.5034 -0.5993  0.5949
17439THY    HA619569   5.721   7.421   5.528 -0.4270  1.1450  0.1254
17440THY      O19570   4.765   5.397   4.787  0.7947 -0.5356  0.1672
17440THY     HO19571   4.818   5.442   4.719 -1.0962 -0.6404  2.4107
17440THY    CA119572   4.702   5.494   4.857  0.5208 -1.2393  0.0552
17440THY    CA219573   4.687   5.481   4.993 -0.0777 -0.6570  0.1373
17440THY    CP119574   4.739   5.349   5.062 -0.0846 -0.4769 -0.1572
17440THY    HP119575   4.833   5.318   5.015  0.1370  1.0147 -1.9382
17440THY    CP219576   4.633   5.240   5.032 -0.3980 -0.2831 -0.2261
17440THY    HP219577   4.532   5.280   5.049 -0.3203  0.1347 -0.2105
17440THY    HP319578   4.640   5.151   5.095 -0.9654  1.0703  0.6559
17440THY    HP419579   4.645   5.212   4.927 -1.1794 -0.6825  0.8572
17440THY    CP319580   4.760   5.364   5.211 -0.8691  0.5735 -0.1487
17440THY    HP519581   4.668   5.345   5.268 -1.5086 -0.7914 -1.4036
17440THY    HP619582   4.798   5.463   5.237 -0.6690 -0.7776  0.1493
17440THY    HP719583   4.846   5.304   5.243 -1.6208 -0.4353 -1.8553
17440THY    CA319584   4.624   5.583   5.064 -0.0291  0.0229  0.4587
17440THY    HA319585   4.613   5.585   5.172 -1.2759 -0.0861  0.4328
17440THY    CA419586   4.572   5.694   4.988  0.2402 -0.2289  0.5123
17440THY    HA419587   4.513   5.772   5.036  0.9537 -2.0999  2.2666
17440THY    CA519588   4.594   5.701   4.855  0.0115 -0.6888  0.7241
17440THY    CM119589   4.543   5.815   4.779  0.0462  0.4618 -1.0015
17440THY    HM119590   4.436   5.834   4.784  0.0162 -2.7641  0.2473
17440THY    HM219591   4.581   5.812   4.676 -1.4260 -0.1507  0.1196
17440THY    HM319592   4.591   5.904   4.823 -0.3474 -0.2590 -0.4215
17440THY    CA619593   4.655   5.602   4.786 -0.7903 -0.7967  0.9380
17440THY    HA619594   4.666   5.602   4.678  1.8873 -0.6226 -0.9836
17441THY      O19595   6.793   8.460   7.599 -0.2600  0.3076  0.4010
17441THY     HO19596   6.795   8.492   7.691 -0.2094  0.5822 -0.3760
17441THY    CA119597   6.819   8.567   7.519  0.1456 -0.3905  0.4854
17441THY    CA219598   6.747   8.589   7.405  0.0916  0.2076 -0.2697
17441THY    CP119599   6.634   8.499   7.368  0.5669 -0.4821  0.0945
17441THY    HP119600   6.644   8.401   7.415 -0.6359 -0.0753  0.1512
17441THY    CP219601   6.621   8.478   7.220  0.1947  0.6884  0.2162
17441THY    HP219602   6.716   8.436   7.186  0.6148  3.1868 -1.0388
17441THY    HP319603   6.575   8.566   7.173  0.2836 -1.0950 -0.6309
17441THY    HP419604   6.548   8.399   7.199 -0.2292  1.4626  0.3936
17441THY    CP319605   6.495   8.551   7.425  0.1072  0.7062  0.0557
17441THY    HP519606   6.421   8.473   7.404  0.8401  1.7851 -0.9601
17441THY    HP619607   6.464   8.641   7.370 -3.3695  1.0767 -0.7762
17441THY    HP719608   6.504   8.579   7.531  0.1956  0.5492  0.6384
17441THY    CA319609   6.776   8.708   7.331 -0.3243 -0.4955  0.5070
17441THY    HA319610   6.731   8.737   7.237  0.6148 -0.7350  1.2581
17441THY    CA419611   6.887   8.789   7.368 -0.1892 -0.0771 -0.2448
17441THY    HA419612   6.918   8.873   7.306 -2.4975 -0.5875  0.2776
17441THY    CA519613   6.959   8.766   7.486 -0.0071 -0.1832  0.8557
17441THY    CM119614   7.071   8.856   7.526 -0.3139 -0.0642  0.2081
17441THY    HM119615   7.136   8.893   7.446 -1.4152 -0.7541  0.6917
17441THY    HM219616   7.134   8.822   7.609  1.9075 -0.6608  2.5556
17441THY    HM319617   7.024   8.940   7.579  0.0848  0.5006  0.0832
17441THY    CA619618   6.918   8.660   7.561  0.3008 -0.7114 -0.5888
17441THY    HA619619   6.971   8.650   7.655  2.0563 -1.3013  2.0339
17442THY      O19620   3.227   5.295   5.483 -0.1396  0.8589  0.5702
17442THY     HO19621   3.312   5.273   5.523  1.1212 -0.2269  3.0781
17442THY    CA119622   3.258   5.360   5.368 -0.6315 -0.0643  0.7115
17442THY    CA219623   3.165   5.378   5.265 -1.0564  0.5003  0.8019
17442THY    CP119624   3.033   5.309   5.259  0.6036 -0.2162  0.8291
17442THY    HP119625   3.030   5.245   5.348  0.7251 -0.2212  0.8150
17442THY    CP219626   3.027   5.205   5.150 -0.5038  0.1567 -0.3262
17442THY    HP219627   3.080   5.115   5.184  0.4026 -0.4115 -0.0286
17442THY    HP319628   3.085   5.246   5.066 -1.9074 -0.9020 -0.4229
17442THY    HP419629   2.922   5.179   5.130 -1.1045  1.4662  0.9808
17442THY    CP319630   2.911   5.408   5.253  0.1626 -0.1591 -0.3087
17442THY    HP519631   2.899   5.468   5.344  0.0878 -0.2773 -0.1438
17442THY    HP619632   2.825   5.341   5.246 -0.1924  1.0100 -0.0113
17442THY    HP719633   2.914   5.478   5.169  0.9339  2.1992  2.7540
17442THY    CA319634   3.207   5.463   5.157  0.4820 -0.1227 -0.7404
17442THY    HA319635   3.133   5.472   5.078 -2.7829  2.7271 -0.6400
17442THY    CA419636   3.337   5.515   5.152  0.3540 -0.1877  0.4963
17442THY    HA419637   3.365   5.572   5.064 -1.7499 -0.4759  1.1921
17442THY    CA519638   3.428   5.488   5.258  0.3198 -0.4585  0.4070
17442THY    CM119639   3.556   5.560   5.260 -0.2425  0.6488 -0.2517
17442THY    HM119640   3.634   5.499   5.307  0.0680  2.2474  1.2665
17442THY    HM219641   3.545   5.653   5.318 -0.3975  1.0556 -0.5226
17442THY    HM319642   3.593   5.609   5.169  0.7423  0.9812 -0.3499
17442THY    CA619643   3.385   5.409   5.366 -0.4784  0.8910 -0.2545
17442THY    HA619644   3.462   5.401   5.443  0.9441 -0.2581  1.4083
17443THY      O19645   4.419   4.458   3.644  0.7704  0.2483 -0.1353
17443THY     HO19646   4.376   4.373   3.627 -2.0830  1.3162  0.9706
17443THY    CA119647   4.538   4.459   3.585  0.4739 -0.4967  0.2753
17443THY    CA219648   4.586   4.567   3.504  0.2479 -0.0728 -0.2555
17443THY    CP119649   4.498   4.683   3.473  0.0170  0.0246 -0.7148
17443THY    HP119650   4.405   4.701   3.528 -1.1888 -2.5543  1.8071
17443THY    CP219651   4.447   4.682   3.325 -0.9007  0.6602 -0.1907
17443THY    HP219652   4.390   4.588   3.313 -0.1191  1.3708 -0.7722
17443THY    HP319653   4.529   4.669   3.254 -1.0675  0.0054  2.0758
17443THY    HP419654   4.390   4.769   3.291  3.3531  0.4653  2.8125
17443THY    CP319655   4.574   4.815   3.511  0.2958  0.5272  0.2537
17443THY    HP519656   4.667   4.808   3.454  1.2961  2.2445 -1.3929
17443THY    HP619657   4.605   4.816   3.616 -1.5463  1.1192  0.2379
17443THY    HP719658   4.497   4.887   3.480  0.1632 -0.4280 -0.2856
17443THY    CA319659   4.705   4.543   3.421 -0.0555 -0.0937 -0.0944
17443THY    HA319660   4.740   4.609   3.342 -0.1926  0.5239  0.7440
17443THY    CA419661   4.779   4.424   3.444  0.7834  0.0793 -0.6253
17443THY    HA419662   4.861   4.399   3.377 -0.0081 -1.0747 -0.1998
17443THY    CA519663   4.742   4.340   3.548 -0.0737 -0.0069  0.6088
17443THY    CM119664   4.819   4.214   3.572 -0.0271  0.0881 -0.3048
17443THY    HM119665   4.918   4.230   3.527 -0.3778  0.0594  2.2845
17443THY    HM219666   4.772   4.127   3.526 -2.1502  0.5457  0.5310
17443THY    HM319667   4.817   4.180   3.676  0.4619 -1.0853 -4.5073
17443THY    CA619668   4.622   4.347   3.615  0.7161 -0.1932 -0.2039
17443THY    HA619669   4.603   4.274   3.693  1.4988 -0.5775 -0.8353
17444THY      O19670   1.863   0.481   6.284 -0.0087  0.0220 -0.5180
17444THY     HO19671   1.801   0.490   6.210  1.2206 -1.0114 -0.1628
17444THY    CA119672   1.967   0.418   6.228  0.1357  1.0253  0.6559
17444THY    CA219673   2.077   0.381   6.303 -0.9609  0.2502  0.8438
17444THY    CP119674   2.082   0.413   6.457  0.3968  0.1091 -0.0140
17444THY    HP119675   1.983   0.388   6.499  0.1382 -0.0720  0.6767
17444THY    CP219676   2.101   0.561   6.483  0.0793  0.3976 -0.0725
17444THY    HP219677   2.194   0.601   6.442 -0.2947  0.3724  0.7849
17444THY    HP319678   2.091   0.576   6.591  1.8814  0.6865 -0.7779
17444THY    HP419679   2.021   0.614   6.430 -0.6002  2.5038  1.0918
17444THY    CP319680   2.189   0.340   6.540  0.4640 -0.6429  0.2934
17444THY    HP519681   2.290   0.354   6.499  0.1825 -1.2922  0.4400
17444THY    HP619682   2.162   0.234   6.527  0.0151 -1.9932  0.5623
17444THY    HP719683   2.183   0.368   6.646 -0.7609 -0.4235 -0.6935
17444THY    CA319684   2.179   0.304   6.245 -0.5691 -0.6853  0.5359
17444THY    HA319685   2.259   0.269   6.310 -1.3706 -0.8536 -1.7700
17444THY    CA419686   2.184   0.276   6.108  0.4559  0.1049  0.5124
17444THY    HA419687   2.266   0.212   6.076  0.0611  1.4134 -0.7209
17444THY    CA519688   2.074   0.317   6.032  0.3513 -0.4443 -0.0393
17444THY    CM119689   2.077   0.294   5.880  0.2727 -0.0587 -0.4954
17444THY    HM119690   2.180   0.272   5.850  0.3828  1.3290 -2.0744
17444THY    HM219691   2.053   0.387   5.827  0.5951 -0.3715 -0.5868
17444THY    HM319692   2.012   0.211   5.848  0.3228 -1.2912 -0.0797
17444THY    CA619693   1.963   0.391   6.092  0.1037  0.6467  0.3027
17444THY    HA619694   1.879   0.415   6.028  1.2911 -0.7288  0.9542
17445THY      O19695   8.783   8.235   6.759 -0.3469  0.1321 -0.1641
17445THY     HO19696   8.753   8.195   6.842 -3.0486 -0.7757 -0.1753
17445THY    CA119697   8.788   8.134   6.667 -0.0446  0.0747 -0.4124
17445THY    CA219698   8.911   8.108   6.604  0.2250 -0.4746 -0.1695
17445THY    CP119699   9.041   8.181   6.646  1.1610  0.4405 -0.5174
17445THY    HP119700   9.015   8.263   6.713  2.6408 -0.8467  1.0754
17445THY    CP219701   9.116   8.248   6.524 -0.7526 -0.3351 -0.6857
17445THY    HP219702   9.215   8.284   6.554  0.3771 -1.6353 -2.5560
17445THY    HP319703   9.060   8.329   6.474 -0.3248  1.3028  0.6849
17445THY    HP419704   9.145   8.171   6.452  1.1750  1.4208 -1.7025
17445THY    CP319705   9.147   8.096   6.717 -0.2214  0.6554  0.0542
17445THY    HP519706   9.202   8.039   6.641 -1.2931 -1.6850  1.9664
17445THY    HP619707   9.109   8.024   6.790  3.9392  1.1339 -1.9912
17445THY    HP719708   9.227   8.150   6.770  0.2280  0.4029 -0.3485
17445THY    CA319709   8.911   8.018   6.498 -0.0007 -0.7787  0.1222
17445THY    HA319710   9.005   7.984   6.455 -1.0845 -1.7144 -1.9036
17445THY    CA419711   8.795   7.957   6.454 -0.4801  0.1092  0.4094
17445THY    HA419712   8.798   7.884   6.373 -0.6704 -0.1699  0.7043
17445THY    CA519713   8.671   7.990   6.512 -0.3693 -0.2079 -0.0876
17445THY    CM119714   8.536   7.929   6.470 -0.1492 -0.0253  0.6312
17445THY    HM119715   8.469   8.015   6.460  1.9460  1.1304  2.5113
17445THY    HM219716   8.486   7.855   6.534  0.2918 -1.5236 -1.0545
17445THY    HM319717   8.536   7.871   6.377  1.2585  0.1729  0.2891
17445THY    CA619718   8.668   8.083   6.618  0.0640  0.0168  0.0733
17445THY    HA619719   8.575   8.102   6.671  0.2481  0.1205  0.7022
17446THY      O19720   5.451   5.632   3.577  0.1658 -0.5859 -0.0551
17446THY     HO19721   5.501   5.574   3.638 -0.0076  0.1231  0.5294
17446THY    CA119722   5.539   5.703   3.512  0.3391  0.7200  0.8532
17446THY    CA219723   5.501   5.785   3.405  0.1197 -0.2999 -1.0269
17446THY    CP119724   5.351   5.797   3.365 -0.4326 -0.2848  0.4029
17446THY    HP119725   5.291   5.766   3.451 -0.2236 -0.5994 -0.9829
17446THY    CP219726   5.320   5.717   3.243 -0.1914 -0.1957  0.0446
17446THY    HP219727   5.363   5.775   3.161 -0.0406  1.2296  2.0821
17446THY    HP319728   5.211   5.704   3.232  0.2888 -3.3643 -2.4123
17446THY    HP419729   5.363   5.617   3.242 -0.9062 -0.0273 -0.2749
17446THY    CP319730   5.320   5.945   3.342  0.1886 -0.2432  0.2108
17446THY    HP519731   5.346   6.000   3.433 -1.2122  1.1227 -1.2745
17446THY    HP619732   5.210   5.944   3.334  0.2513 -1.4411  0.9808
17446THY    HP719733   5.357   5.994   3.251 -1.3450 -0.9532  0.1218
17446THY    CA319734   5.598   5.854   3.339 -0.5380  0.3338 -0.3642
17446THY    HA319735   5.579   5.928   3.262 -0.3335  0.4510 -0.1898
17446THY    CA419736   5.734   5.837   3.369 -0.1560  0.2931  0.4338
17446THY    HA419737   5.812   5.877   3.305  0.3074  1.1755  0.9954
17446THY    CA519738   5.774   5.747   3.478  0.2235  0.2834 -0.8659
17446THY    CM119739   5.914   5.729   3.517 -0.7767 -0.7365 -0.6808
17446THY    HM119740   5.919   5.738   3.626  1.8014 -0.7753 -0.8524
17446THY    HM219741   5.988   5.796   3.471 -0.4556  0.3519 -0.2736
17446THY    HM319742   5.952   5.629   3.491  2.1326  0.9868 -0.1310
17446THY    CA619743   5.669   5.684   3.544  0.5600  0.5791  0.3643
17446THY    HA619744   5.686   5.624   3.634  0.1640 -0.4014 -1.2803
17447THY      O19745   5.086   2.569   6.767 -0.2821 -0.6105  0.1372
17447THY     HO19746   5.009   2.572   6.827  0.8595  0.9009  1.6524
17447THY    CA119747   5.073   2.474   6.676 -0.3160  0.0642  0.1295
17447THY    CA219748   5.186   2.442   6.591 -0.4741 -0.5457 -0.2066
17447THY    CP119749   5.306   2.527   6.586  0.2032 -0.5593 -0.2496
17447THY    HP119750   5.296   2.603   6.664 -1.5677 -0.3495 -0.6395
17447THY    CP219751   5.330   2.594   6.451 -0.3281  0.1237  0.0112
17447THY    HP219752   5.317   2.519   6.373 -1.0195  0.4307 -0.1896
17447THY    HP319753   5.431   2.636   6.441 -0.7460 -3.8977  0.4023
17447THY    HP419754   5.260   2.676   6.429  0.0062 -0.9075  0.0339
17447THY    CP319755   5.432   2.446   6.631 -0.0433 -0.0496 -0.2549
17447THY    HP519756   5.418   2.391   6.724  1.7476 -1.4490 -3.3990
17447THY    HP619757   5.518   2.514   6.632  0.9896 -0.9900 -1.4750
17447THY    HP719758   5.452   2.372   6.552 -0.8367 -0.5145  0.0212
17447THY    CA319759   5.170   2.339   6.502 -0.3607  0.0239 -0.2704
17447THY    HA319760   5.251   2.306   6.437 -0.8526 -1.3792  1.2159
17447THY    CA419761   5.049   2.264   6.492  0.0637 -0.1803 -0.2263
17447THY    HA419762   5.047   2.177   6.427  1.3725  1.0782 -1.2350
17447THY    CA519763   4.941   2.300   6.568 -0.0444 -0.3853 -0.0193
17447THY    CM119764   4.818   2.209   6.568  0.1522 -0.1231 -0.6699
17447THY    HM119765   4.810   2.154   6.474 -2.7960 -0.4789  0.2077
17447THY    HM219766   4.724   2.265   6.573 -0.8058 -1.1562 -2.1063
17447THY    HM319767   4.814   2.144   6.657  0.0778 -0.2393 -0.8239
17447THY    CA619768   4.953   2.399   6.660  0.2458  0.3827 -0.0077
17447THY    HA619769   4.864   2.420   6.718 -1.6809 -2.4948  0.2970
17448THY      O19770   4.951   0.560   7.253  0.0715  0.1408 -0.7447
17448THY     HO19771   4.949   0.563   7.351  1.6973  0.1794  0.1131
17448THY    CA119772   5.059   0.487   7.240 -0.2732 -0.1673 -0.0959
17448THY    CA219773   5.084   0.418   7.118  0.1868  0.5397  0.2826
17448THY    CP119774   4.993   0.442   6.998 -0.0034  0.3968  0.8431
17448THY    HP119775   4.927   0.530   7.001 -0.8107 -1.4028  0.3442
17448THY    CP219776   4.909   0.321   6.969  0.6292 -0.2472 -0.2601
17448THY    HP219777   4.963   0.227   6.954  0.7326  1.8629 -0.5742
17448THY    HP319778   4.857   0.335   6.873 -0.2739  0.0148 -1.6256
17448THY    HP419779   4.827   0.293   7.036 -0.3807  0.0557  2.9783
17448THY    CP319780   5.075   0.483   6.873  0.1174 -0.3052  0.3549
17448THY    HP519781   5.124   0.580   6.888 -2.0527  0.1884  1.4345
17448THY    HP619782   5.010   0.493   6.785 -0.3317  0.1283  1.4147
17448THY    HP719783   5.153   0.412   6.846  0.6209 -0.3272  0.9052
17448THY    CA319784   5.208   0.345   7.111 -0.2161  0.0357 -0.3594
17448THY    HA319785   5.240   0.296   7.019 -1.5447 -0.5031 -0.2417
17448THY    CA419786   5.303   0.362   7.209  0.5520  0.3500 -0.4406
17448THY    HA419787   5.403   0.320   7.211  1.0749  1.2640  0.7917
17448THY    CA519788   5.258   0.413   7.332 -0.5017  0.0386 -0.4490
17448THY    CM119789   5.354   0.423   7.437 -0.1262 -0.6497  0.5380
17448THY    HM119790   5.378   0.524   7.473 -0.2333  0.1703  0.2833
17448THY    HM219791   5.442   0.361   7.420 -0.4737  0.0699 -0.1783
17448THY    HM319792   5.309   0.373   7.524  1.3045  0.6930  1.4761
17448THY    CA619793   5.137   0.482   7.350  0.8510 -0.6346 -0.0868
17448THY    HA619794   5.122   0.539   7.441 -2.7881 -1.3183  0.3146
17449THY      O19795   1.071   6.728   5.750  0.1137  0.3591 -0.6387
17449THY     HO19796   1.162   6.758   5.734  1.6379  5.2224 -1.7198
17449THY    CA119797   1.021   6.813   5.843  0.4857 -0.6839 -0.0080
17449THY    CA219798   0.887   6.809   5.892  0.4995  0.1864  0.4316
17449THY    CP119799   0.799   6.696   5.846  0.4200  0.1682 -0.0532
17449THY    HP119800   0.860   6.607   5.829  0.8705 -0.7019  0.4184
17449THY    CP219801   0.734   6.736   5.709  0.3660 -0.0402 -0.4259
17449THY    HP219802   0.807   6.760   5.630 -0.6582 -1.6172 -2.2271
17449THY    HP319803   0.673   6.827   5.713 -1.0326  1.3803 -1.3878
17449THY    HP419804   0.682   6.654   5.659  0.7633 -1.6013  0.2314
17449THY    CP319805   0.676   6.662   5.936 -0.2739 -0.1648 -0.3957
17449THY    HP519806   0.640   6.562   5.908  3.0857  2.0218 -2.4246
17449THY    HP619807   0.596   6.736   5.934 -0.7209 -1.3510 -0.8782
17449THY    HP719808   0.713   6.657   6.039 -0.4145 -0.1720 -3.7649
17449THY    CA319809   0.842   6.906   5.986  0.0758  0.0524  1.1031
17449THY    HA319810   0.744   6.901   6.031  0.7507  1.5575  0.6803
17449THY    CA419811   0.934   7.009   6.018  0.1173 -0.8297 -0.0893
17449THY    HA419812   0.896   7.087   6.083  0.2516 -1.7209  0.7417
17449THY    CA519813   1.066   7.017   5.964 -0.4377 -0.1246  0.3614
17449THY    CM119814   1.160   7.135   5.986  0.1462 -0.0785 -0.0858
17449THY    HM119815   1.262   7.103   5.964  0.8780 -0.8785  2.5154
17449THY    HM219816   1.169   7.161   6.092  1.0719  0.6219 -2.9172
17449THY    HM319817   1.141   7.212   5.910 -0.7610 -1.7760 -1.9118
17449THY    CA619818   1.102   6.916   5.876 -0.1205  0.1808 -0.1235
17449THY    HA619819   1.201   6.933   5.833  0.1600  1.1063  0.7097
17450THY      O19820   0.692   3.406   2.988  0.1838  0.0619 -0.1396
17450THY     HO19821   0.733   3.418   2.900 -1.4406 -0.3804  4.6822
17450THY    CA119822   0.740   3.516   3.060 -0.6774  0.3336 -0.0102
17450THY    CA219823   0.658   3.597   3.138  0.0419  0.6181 -0.9697
17450THY    CP119824   0.512   3.562   3.158 -0.1053 -0.4769 -0.2385
17450THY    HP119825   0.491   3.455   3.145  0.9386 -1.2324 -0.3604
17450THY    CP219826   0.434   3.645   3.054 -0.1362 -0.6005 -0.5520
17450THY    HP219827   0.417   3.747   3.089  0.5683 -3.3959  0.6242
17450THY    HP319828   0.339   3.594   3.031  0.2444 -0.1799 -1.4657
17450THY    HP419829   0.489   3.661   2.961  2.9004  1.5360  3.1579
17450THY    CP319830   0.455   3.596   3.298  0.3896 -0.3372  0.5780
17450THY    HP519831   0.428   3.702   3.307 -1.3600 -1.3878  0.2632
17450THY    HP619832   0.535   3.565   3.366 -0.4955  1.4281  1.9746
17450THY    HP719833   0.364   3.542   3.323  0.4760 -0.0979  0.5431
17450THY    CA319834   0.711   3.713   3.198 -0.3026 -0.1816 -0.7575
17450THY    HA319835   0.639   3.783   3.237 -3.7641 -1.9099 -3.0826
17450THY    CA419836   0.848   3.737   3.193  0.1024  0.0761  0.2412
17450THY    HA419837   0.889   3.828   3.237  0.1743  1.2671 -0.3403
17450THY    CA519838   0.931   3.648   3.125  0.0116  0.1665 -0.0167
17450THY    CM119839   1.077   3.680   3.097 -0.7627 -0.4166  0.3449
17450THY    HM119840   1.084   3.702   2.990 -1.3116 -0.5668 -0.1721
17450THY    HM219841   1.133   3.588   3.114  1.4857 -3.3221  1.0457
17450THY    HM319842   1.112   3.754   3.170 -0.9308  0.0937 -0.0714
17450THY    CA619843   0.882   3.539   3.054 -0.3845  0.6356 -0.9037
17450THY    HA619844   0.951   3.472   3.006  1.0484  0.5991  0.5399
17451THY      O19845   6.256   3.870   4.721 -0.2217  0.4972 -0.5511
17451THY     HO19846   6.283   3.962   4.736  1.1563  1.7398 -1.1139
17451THY    CA119847   6.324   3.816   4.818  0.5647  0.3859 -0.9908
17451THY    CA219848   6.305   3.685   4.870 -0.4958  0.8087 -0.2865
17451THY    CP119849   6.196   3.589   4.800  0.7286 -0.4491  0.4455
17451THY    HP119850   6.180   3.589   4.692  0.3621 -0.4177 -0.8099
17451THY    CP219851   6.062   3.614   4.866  0.1980 -0.0509  0.1993
17451THY    HP219852   5.997   3.530   4.839 -1.4718 -0.5609  1.6016
17451THY    HP319853   6.025   3.717   4.854  0.1687  0.1408  0.2119
17451THY    HP419854   6.078   3.609   4.975 -0.6072  0.0229 -1.6025
17451THY    CP319855   6.235   3.444   4.830  0.2564  0.6141  0.2331
17451THY    HP519856   6.164   3.369   4.795 -0.4251 -0.7409  1.4523
17451THY    HP619857   6.256   3.430   4.937  0.9582  0.1169 -3.3898
17451THY    HP719858   6.325   3.423   4.772 -0.2094 -1.2364  2.8426
17451THY    CA319859   6.381   3.652   4.986  1.0441  0.0878  0.1881
17451THY    HA319860   6.370   3.559   5.042 -2.8698 -1.0596 -0.1987
17451THY    CA419861   6.470   3.746   5.039 -0.6533 -0.2239  0.3537
17451THY    HA419862   6.524   3.712   5.127  0.7304 -1.3138 -0.3598
17451THY    CA519863   6.490   3.874   4.987  0.0885  0.0469 -0.3594
17451THY    CM119864   6.584   3.974   5.041  0.2671  0.0554 -0.0662
17451THY    HM119865   6.537   4.049   5.106  1.4951  2.6351 -1.4023
17451THY    HM219866   6.634   4.037   4.966  1.7785  0.5286 -0.6638
17451THY    HM319867   6.660   3.925   5.102 -2.0410  2.6696 -0.6307
17451THY    CA619868   6.413   3.910   4.870 -0.7580 -0.4216 -0.2044
17451THY    HA619869   6.431   4.009   4.828 -0.5672  1.9413  0.8182
17452THY      O19870   1.717   7.850   6.902 -0.8165 -0.1367 -0.3237
17452THY     HO19871   1.739   7.888   6.989 -0.1771  0.3983 -1.8276
17452THY    CA119872   1.804   7.898   6.810  0.6319  0.4626  0.2742
17452THY    CA219873   1.840   7.833   6.696 -0.0366  0.9089  0.4223
17452THY    CP119874   1.787   7.696   6.652 -0.4490 -0.1704 -0.6390
17452THY    HP119875   1.716   7.668   6.731 -0.6079 -0.0807  0.0005
17452THY    CP219876   1.899   7.594   6.649  1.4106  0.8594 -0.7529
17452THY    HP219877   1.932   7.581   6.753 -0.5962  1.6120 -0.1907
17452THY    HP319878   1.980   7.617   6.578  0.0805 -0.1143  1.2369
17452THY    HP419879   1.859   7.499   6.610  0.8514  0.3703 -0.3228
17452THY    CP319880   1.714   7.690   6.511 -0.0627 -0.1864  0.6573
17452THY    HP519881   1.655   7.782   6.506 -1.1206  0.8388  0.0724
17452THY    HP619882   1.650   7.604   6.486  0.5955  1.0642 -0.2390
17452THY    HP719883   1.775   7.682   6.421 -2.1849 -1.5754 -1.3314
17452THY    CA319884   1.933   7.897   6.613 -0.0862  0.0474 -0.2232
17452THY    HA319885   1.963   7.845   6.522 -1.4509  0.1998 -1.3219
17452THY    CA419886   1.987   8.027   6.637 -0.3272 -0.4850  0.3782
17452THY    HA419887   2.052   8.069   6.562  0.6656 -0.5793 -1.2320
17452THY    CA519888   1.938   8.092   6.745 -0.3368  1.0669  0.6214
17452THY    CM119889   1.981   8.225   6.784 -0.0971  0.7197 -0.3214
17452THY    HM119890   2.040   8.226   6.876 -1.7387  1.9623 -3.6425
17452THY    HM219891   1.906   8.305   6.789 -1.2993 -1.3612 -1.2380
17452THY    HM319892   2.043   8.258   6.700  1.6879  1.1481 -2.3832
17452THY    CA619893   1.856   8.024   6.830 -0.6022  0.1560  0.1894
17452THY    HA619894   1.833   8.076   6.922  0.8897  0.5172  0.2363
17453THY      O19895   5.258   6.423   2.433 -0.8435  0.0329  0.6203
17453THY     HO19896   5.336   6.464   2.394 -0.7570 -0.0151  0.4126
17453THY    CA119897   5.220   6.328   2.339 -0.0444 -0.1698  0.9701
17453THY    CA219898   5.116   6.231   2.364 -0.3248 -0.0190 -0.9496
17453THY    CP119899   5.044   6.246   2.500 -0.7423 -1.0827  0.3629
17453THY    HP119900   5.089   6.313   2.573 -0.1910 -2.1343  1.1796
17453THY    CP219901   5.031   6.107   2.576 -0.0704  0.7909 -0.8086
17453THY    HP219902   4.971   6.123   2.666  2.0762  1.7282  3.7478
17453THY    HP319903   5.126   6.076   2.621 -0.6688  1.3506 -1.8834
17453THY    HP419904   4.992   6.024   2.515 -0.4625  0.7037 -0.5641
17453THY    CP319905   4.903   6.301   2.461 -0.5501  0.0659  0.0760
17453THY    HP519906   4.916   6.404   2.423  2.2101  1.4988  0.3524
17453THY    HP619907   4.841   6.298   2.551  0.0514  0.5091  0.6423
17453THY    HP719908   4.865   6.235   2.382 -0.0136  1.7501 -2.3602
17453THY    CA319909   5.084   6.138   2.265 -0.7468  0.5656 -0.1082
17453THY    HA319910   5.001   6.069   2.270 -1.6465 -2.2311  0.6342
17453THY    CA419911   5.151   6.152   2.145  0.5130 -0.0706 -0.2657
17453THY    HA419912   5.125   6.078   2.069  2.2058  0.1433 -1.1471
17453THY    CA519913   5.264   6.237   2.125 -0.7679 -0.2802 -0.0916
17453THY    CM119914   5.345   6.232   1.998 -0.5274 -0.6853  0.2259
17453THY    HM119915   5.310   6.300   1.920  0.6776  0.7298  2.6291
17453THY    HM219916   5.337   6.130   1.961 -1.8561 -0.6438  0.2881
17453THY    HM319917   5.450   6.252   2.021  0.1284 -1.6453 -1.8606
17453THY    CA619918   5.298   6.327   2.223  0.3790  0.3072 -0.3832
17453THY    HA619919   5.381   6.395   2.209 -0.5464 -0.8877  0.5537
17454THY      O19920   8.725   4.385   3.615 -0.3084 -0.6319  0.3423
17454THY     HO19921   8.733   4.323   3.690 -0.9215 -0.1653  0.8211
17454THY    CA119922   8.839   4.376   3.543  0.1190  0.0112 -0.3076
17454THY    CA219923   8.857   4.458   3.435  0.0658 -0.0388 -0.1907
17454THY    CP119924   8.752   4.556   3.386  0.0678 -0.7548 -0.9969
17454THY    HP119925   8.668   4.562   3.457  0.7461  0.0726 -1.1430
17454THY    CP219926   8.703   4.513   3.245 -0.0287  0.8223  0.0208
17454THY    HP219927   8.784   4.491   3.175 -0.5928 -0.2316  1.2180
17454THY    HP319928   8.634   4.587   3.203 -1.6456  0.0753 -1.8159
17454THY    HP419929   8.646   4.421   3.263 -3.1715  1.4435  1.9518
17454THY    CP319930   8.807   4.699   3.386  0.4439  0.6767 -0.6287
17454THY    HP519931   8.863   4.724   3.295 -0.1967  0.6948  0.9920
17454THY    HP619932   8.874   4.712   3.471  1.5736 -0.5389  2.2005
17454THY    HP719933   8.733   4.780   3.393  3.6132 -0.9247  2.6765
17454THY    CA319934   8.982   4.450   3.364 -0.7326  0.2334  0.1140
17454THY    HA319935   9.000   4.517   3.281 -0.1599  0.1189 -0.1757
17454THY    CA419936   9.080   4.356   3.406  0.5378  0.9142 -0.5734
17454THY    HA419937   9.167   4.346   3.342  2.4489  2.9731  1.6042
17454THY    CA519938   9.059   4.272   3.516  0.3343 -0.8563 -0.2762
17454THY    CM119939   9.160   4.162   3.558 -0.0698 -0.3837  0.6500
17454THY    HM119940   9.245   4.171   3.489 -0.0546 -0.3284  0.9269
17454THY    HM219941   9.116   4.063   3.539  0.3045 -1.8316  0.7378
17454THY    HM319942   9.190   4.156   3.663  1.0025 -0.7697 -2.0742
17454THY    CA619943   8.939   4.290   3.583  0.6038  0.3466  0.0569
17454THY    HA619944   8.914   4.226   3.667  0.5063  0.4757  0.2613
17455THY      O19945   6.722   2.322   6.127 -0.1050  0.4836 -0.2594
17455THY     HO19946   6.787   2.253   6.107 -0.9654 -1.1427 -0.6387
17455THY    CA119947   6.612   2.253   6.101 -0.7936 -0.1999  0.1313
17455THY    CA219948   6.492   2.301   6.046  0.2162  0.1574  0.2615
17455THY    CP119949   6.476   2.449   6.013 -0.1672  0.0103 -1.0466
17455THY    HP119950   6.574   2.496   5.994 -1.9185 -0.0811  2.9456
17455THY    CP219951   6.407   2.517   6.140 -0.3557  0.9337  0.5866
17455THY    HP219952   6.403   2.626   6.127  1.8691 -1.4472  0.4813
17455THY    HP319953   6.453   2.489   6.235 -0.2622  0.7728  0.1901
17455THY    HP419954   6.300   2.495   6.139 -0.5601  0.3665  1.5774
17455THY    CP319955   6.402   2.481   5.877  0.2679 -0.4228  0.2517
17455THY    HP519956   6.428   2.581   5.839  2.8635 -1.1425 -0.6044
17455THY    HP619957   6.294   2.463   5.868 -0.0197  0.9501  1.1339
17455THY    HP719958   6.444   2.413   5.802  0.3706 -0.1575  0.0209
17455THY    CA319959   6.388   2.209   6.024 -0.0383  0.6834 -0.3876
17455THY    HA319960   6.293   2.242   5.983  0.2848  1.2793  1.4124
17455THY    CA419961   6.407   2.072   6.054 -0.1898  0.6330 -0.3616
17455THY    HA419962   6.325   2.008   6.021 -1.7087  0.3467  1.6199
17455THY    CA519963   6.524   2.029   6.112 -0.3436  1.0643  1.1567
17455THY    CM119964   6.532   1.878   6.138  0.2944 -0.2478 -0.1062
17455THY    HM119965   6.444   1.825   6.101  1.4706 -0.1740 -2.1847
17455THY    HM219966   6.539   1.852   6.244 -1.2946 -0.5641 -2.0425
17455THY    HM319967   6.619   1.825   6.098  1.2010  1.9302 -0.3697
17455THY    CA619968   6.628   2.117   6.136 -0.9754  0.0448  0.0115
17455THY    HA619969   6.718   2.077   6.181 -1.1420 -0.4207 -0.8963
17456THY      O19970   0.841   8.274   5.914  0.0547 -0.2622  0.9605
17456THY     HO19971   0.750   8.245   5.931  0.9889  1.0086 -1.5201
17456THY    CA119972   0.908   8.281   6.032  0.1438 -0.2013  0.1074
17456THY    CA219973   1.027   8.359   6.036 -0.2293  0.3423  0.0227
17456THY    CP119974   1.082   8.432   5.917 -0.4642 -0.3640 -0.8570
17456THY    HP119975   1.018   8.422   5.828  2.7192 -3.0536  0.5316
17456THY    CP219976   1.234   8.393   5.891 -0.2959 -0.1739 -0.4549
17456THY    HP219977   1.255   8.286   5.884 -0.5500 -4.9975 -0.3839
17456THY    HP319978   1.300   8.441   5.965  1.2275 -2.3455  1.0031
17456THY    HP419979   1.253   8.438   5.793 -1.4407 -0.4463 -0.5347
17456THY    CP319980   1.078   8.582   5.942  0.1176  0.3292  0.1879
17456THY    HP519981   1.089   8.628   5.843 -2.4366 -2.1458 -3.9047
17456THY    HP619982   1.159   8.614   6.009  0.6106 -0.1743  0.0031
17456THY    HP719983   0.983   8.623   5.980  0.1869  0.4587  0.2333
17456THY    CA319984   1.092   8.362   6.165  0.4912  0.2014 -0.3572
17456THY    HA319985   1.185   8.417   6.182 -1.3391  2.9769  2.1966
17456THY    CA419986   1.040   8.291   6.271 -0.0192  0.0965  0.2305
17456THY    HA419987   1.086   8.283   6.369  0.3654 -0.1711 -1.0086
17456THY    CA519988   0.923   8.214   6.258  0.7315  0.1245 -0.6232
17456THY    CM119989   0.882   8.109   6.357  0.0071 -0.4101 -0.3419
17456THY    HM119990   0.782   8.140   6.390  0.8114  1.4545  0.4253
17456THY    HM219991   0.941   8.131   6.447 -0.8319  0.1960 -0.5346
17456THY    HM319992   0.893   8.008   6.317  0.4023 -0.4849 -0.2725
17456THY    CA619993   0.850   8.221   6.139  0.4833 -0.6626 -0.3785
17456THY    HA619994   0.759   8.163   6.128 -0.4650 -1.4877  1.1955
17457THY      O19995   6.890   2.202   7.039 -0.1036 -1.0213  0.0754
17457THY     HO19996   6.905   2.267   7.110  1.9087  0.0074 -1.3932
17457THY    CA119997   6.755   2.197   7.024 -0.5628  0.5587  0.5655
17457THY    CA219998   6.683   2.080   7.048  0.2384 -0.5630  0.7458
17457THY    CP119999   6.755   1.944   7.094  0.5820  0.8657 -0.7761
17457THY    HP120000   6.857   1.980   7.115  0.1589  0.0446  0.9636
17457THY    CP220001   6.741   1.838   6.973  0.6774 -0.0826 -0.1809
17457THY    HP220002   6.745   1.887   6.875 -1.6077  0.6639  1.6465
17457THY    HP320003   6.648   1.782   6.986  0.2347 -2.8066 -0.1841
17457THY    HP420004   6.822   1.763   6.977 -0.2730  1.7387 -1.1804
17457THY    CP320005   6.720   1.894   7.235 -0.1675  0.4240  0.3193
17457THY    HP520006   6.613   1.889   7.258  0.1527  2.4950  1.5066
17457THY    HP620007   6.747   1.974   7.306 -1.6830  1.2436  0.1537
17457THY    HP720008   6.764   1.804   7.280  1.0275  1.2473  1.2817
17457THY    CA320009   6.544   2.085   7.023  0.6469  0.3819  0.2264
17457THY    HA320010   6.492   1.991   7.040  0.2996 -0.1532  0.3229
17457THY    CA420011   6.485   2.208   6.998 -0.8008 -0.1103 -0.3503
17457THY    HA420012   6.377   2.213   7.000 -0.7493  0.2120  0.9939
17457THY    CA520013   6.558   2.324   6.986  0.6457  0.2069  0.1314
17457THY    CM120014   6.497   2.463   6.960  0.5834 -0.0096 -0.1894
17457THY    HM120015   6.387   2.458   6.956  0.3093 -2.7999  3.5752
17457THY    HM220016   6.523   2.484   6.855 -0.0760 -1.0768 -3.8569
17457THY    HM320017   6.529   2.547   7.022 -1.5244  0.8163  0.0791
17457THY    CA620018   6.696   2.322   6.990  0.4117 -0.3804  0.2577
17457THY    HA620019   6.753   2.414   6.983  0.7910  1.0134  0.1469
17458THY      O20020   3.311   2.435   1.687 -0.3039 -0.1885  0.5025
17458THY     HO20021   3.330   2.522   1.649  1.0301  0.1749  0.3934
17458THY    CA120022   3.379   2.428   1.803  0.5305 -0.1617 -0.5309
17458THY    CA220023   3.378   2.312   1.884 -0.1668 -0.4489 -0.3775
17458THY    CP120024   3.315   2.179   1.837 -0.0915  0.4643  0.6121
17458THY    HP120025   3.233   2.207   1.771  0.2849  0.5713  2.0099
17458THY    CP220026   3.267   2.094   1.955 -0.8760 -0.2851 -0.3164
17458THY    HP220027   3.184   2.028   1.923 -0.8068 -1.8313  0.2957
17458THY    HP320028   3.214   2.151   2.032  0.0569  0.8276 -0.9285
17458THY    HP420029   3.347   2.034   2.000  0.6442 -2.5986 -0.1211
17458THY    CP320030   3.419   2.088   1.760 -0.0248 -0.2966 -0.3255
17458THY    HP520031   3.492   2.048   1.832 -0.0604  0.1120  0.3377
17458THY    HP620032   3.468   2.139   1.676 -0.6005 -0.1853  0.4277
17458THY    HP720033   3.376   1.994   1.725  0.1701 -0.8869 -0.1988
17458THY    CA320034   3.439   2.326   2.014 -0.8575  0.1949  0.0663
17458THY    HA320035   3.454   2.246   2.086 -0.1395 -1.0418 -0.9546
17458THY    CA420036   3.503   2.447   2.046 -0.0418  0.4379 -0.1108
17458THY    HA420037   3.547   2.456   2.145 -1.0408  1.0943 -1.9765
17458THY    CA520038   3.501   2.557   1.961  0.9363 -0.7592  0.9588
17458THY    CM120039   3.549   2.683   2.011 -0.5138 -0.5545 -0.3514
17458THY    HM120040   3.588   2.741   1.926 -2.6433 -1.4882 -0.2133
17458THY    HM220041   3.628   2.670   2.087 -1.3341  0.3281 -0.2774
17458THY    HM320042   3.458   2.733   2.045 -1.4649 -4.2229  0.6617
17458THY    CA620043   3.436   2.546   1.840  0.2829  0.5896  0.3860
17458THY    HA620044   3.441   2.635   1.779  0.9145  1.6817  1.1244
17459THY      O20045   7.753   4.126   7.521  0.2116 -0.0110 -0.0316
17459THY     HO20046   7.833   4.075   7.543 -1.0835 -0.3747 -2.3491
17459THY    CA120047   7.740   4.248   7.583  0.3174 -0.1482  0.0949
17459THY    CA220048   7.622   4.317   7.574 -0.9329  1.2781 -0.6389
17459THY    CP120049   7.529   4.278   7.462  0.4383  0.9502 -0.2966
17459THY    HP120050   7.537   4.172   7.437 -0.0221 -0.6508  0.0152
17459THY    CP220051   7.562   4.356   7.332 -0.1765 -0.1039 -0.0907
17459THY    HP220052   7.501   4.308   7.254 -1.0042  0.1480  0.5385
17459THY    HP320053   7.667   4.344   7.300  0.5900  1.3519  2.1990
17459THY    HP420054   7.539   4.461   7.349  3.5735  2.7159  0.4854
17459THY    CP320055   7.381   4.290   7.503  0.2453  0.9907 -0.4340
17459THY    HP520056   7.362   4.233   7.595 -0.1884  0.2959 -1.4271
17459THY    HP620057   7.321   4.256   7.418  3.1987 -1.8782  0.9633
17459THY    HP720058   7.357   4.395   7.527 -1.7701  2.4842 -1.1634
17459THY    CA320059   7.606   4.437   7.640 -0.4241  0.6238 -0.1017
17459THY    HA320060   7.518   4.501   7.636  0.6053  1.6755  1.4626
17459THY    CA420061   7.701   4.484   7.729 -0.1148  0.1649 -0.0236
17459THY    HA420062   7.678   4.577   7.781  0.0798  2.1180 -1.0149
17459THY    CA520063   7.819   4.403   7.745  0.3511  0.0711 -0.6755
17459THY    CM120064   7.914   4.431   7.854  0.2740 -0.3546  0.7369
17459THY    HM120065   7.928   4.540   7.849  0.8101  0.8186  0.7373
17459THY    HM220066   8.010   4.386   7.825  0.2280 -0.4162  0.6786
17459THY    HM320067   7.883   4.402   7.955  1.9414 -0.1657 -0.5746
17459THY    CA620068   7.836   4.285   7.675  0.3343  0.2290  0.4224
17459THY    HA620069   7.928   4.228   7.687 -0.1877  1.9598 -0.1269
17460THY      O20070   2.525   3.650   4.845 -0.5741  0.4388 -0.4037
17460THY     HO20071   2.494   3.733   4.805  0.7310 -0.5694 -0.3657
17460THY    CA120072   2.422   3.604   4.921  0.3725 -0.1633  0.1210
17460THY    CA220073   2.436   3.544   5.051 -0.0273  0.3757  0.1370
17460THY    CP120074   2.570   3.535   5.119 -0.1939  0.0189 -0.0109
17460THY    HP120075   2.645   3.547   5.041  0.9229  0.8924 -1.0672
17460THY    CP220076   2.592   3.397   5.185 -0.0090  0.5535  0.5595
17460THY    HP220077   2.596   3.320   5.106  1.5178 -1.0278  2.1573
17460THY    HP320078   2.512   3.383   5.259 -0.2138  1.0359  3.5177
17460THY    HP420079   2.687   3.397   5.239 -0.4914  1.4177  0.7895
17460THY    CP320080   2.602   3.641   5.222 -0.4468 -0.0932 -0.1333
17460THY    HP520081   2.617   3.736   5.171  0.5120 -1.9695 -1.2485
17460THY    HP620082   2.683   3.628   5.294 -1.7466  1.5208  0.2622
17460THY    HP720083   2.520   3.661   5.293  0.9236  1.2062  1.0963
17460THY    CA320084   2.318   3.505   5.120  0.0877 -0.5909  0.4956
17460THY    HA320085   2.333   3.481   5.225 -0.8266 -0.8661 -1.5329
17460THY    CA420086   2.191   3.525   5.060  0.1671 -0.6394  0.2330
17460THY    HA420087   2.114   3.502   5.133  1.7148  1.2741  0.7538
17460THY    CA520088   2.179   3.567   4.928  0.8123 -0.2758 -0.7348
17460THY    CM120089   2.053   3.600   4.852  0.4209 -0.7433  0.1425
17460THY    HM120090   2.062   3.633   4.748 -2.8409 -0.9680  0.6891
17460THY    HM220091   1.998   3.675   4.911 -0.0526 -1.3597  0.2859
17460THY    HM320092   2.000   3.505   4.838 -3.0440 -2.3342  2.1041
17460THY    CA620093   2.295   3.623   4.865  0.1380 -0.7815  0.2196
17460THY    HA620094   2.285   3.659   4.763 -2.0133 -0.6246  0.2245
17461THY      O20095   7.321   9.021   4.654  0.5579  0.0632  0.3315
17461THY     HO20096   7.387   9.080   4.694 -1.1444  0.2974  2.1848
17461THY    CA120097   7.378   8.909   4.602 -0.2604 -0.8978 -0.0722
17461THY    CA220098   7.325   8.842   4.489 -0.5736 -0.3526 -0.0486
17461THY    CP120099   7.196   8.896   4.422 -0.3180 -0.5333  0.7009
17461THY    HP120100   7.189   9.003   4.446  1.0595 -0.1079  0.7110
17461THY    CP220101   7.070   8.820   4.480 -0.1066  0.0902 -0.2066
17461THY    HP220102   7.050   8.849   4.583 -1.6128 -0.3466  0.3862
17461THY    HP320103   7.084   8.711   4.474  0.5809 -1.7823 -0.0616
17461THY    HP420104   6.980   8.851   4.426  0.3306  0.7203  2.3428
17461THY    CP320105   7.191   8.892   4.265 -0.0912  0.0562  0.0168
17461THY    HP520106   7.287   8.940   4.244  1.5312  2.0045 -2.1559
17461THY    HP620107   7.101   8.939   4.224 -1.3129  2.0833 -0.3981
17461THY    HP720108   7.208   8.794   4.218  0.1321  0.9626 -0.3984
17461THY    CA320109   7.390   8.717   4.457  0.7677  0.6592 -0.3728
17461THY    HA320110   7.358   8.659   4.372 -0.3504  1.8488 -1.5883
17461THY    CA420111   7.503   8.679   4.528  0.0685 -0.1065 -0.9964
17461THY    HA420112   7.562   8.593   4.499  2.1451  1.6630 -0.2575
17461THY    CA520113   7.554   8.759   4.630  0.1093 -0.6023  0.7822
17461THY    CM120114   7.681   8.708   4.693 -0.5959  0.4127 -0.2772
17461THY    HM120115   7.725   8.620   4.645 -0.0378  0.9753 -0.3142
17461THY    HM220116   7.676   8.689   4.801  0.1708  0.4099 -0.5243
17461THY    HM320117   7.758   8.784   4.673  1.0392  0.6485 -1.8020
17461THY    CA620118   7.494   8.873   4.673 -0.8113 -0.0715 -0.4205
17461THY    HA620119   7.526   8.928   4.761  0.7468 -0.7162 -0.2656
17462THY      O20120   5.770   2.365   5.043 -0.0559 -0.6149 -0.2513
17462THY     HO20121   5.720   2.446   5.062  0.8761 -0.8440  0.3858
17462THY    CA120122   5.891   2.380   5.102  0.2772 -0.2524 -0.7001
17462THY    CA220123   5.986   2.280   5.122  0.0358  0.0001  0.0329
17462THY    CP120124   5.953   2.137   5.079  0.8704 -0.8845  0.7287
17462THY    HP120125   5.865   2.128   5.014 -0.1477  0.7178 -2.8007
17462THY    CP220126   5.929   2.047   5.200  0.0503  0.2125 -0.5964
17462THY    HP220127   5.888   1.951   5.168  0.3201 -1.3995 -0.1908
17462THY    HP320128   5.854   2.087   5.270  0.2777 -0.2530  0.7108
17462THY    HP420129   6.016   2.020   5.261  0.1993 -0.9528 -2.9950
17462THY    CP320130   6.069   2.080   5.000 -0.3373  0.3460 -0.1027
17462THY    HP520131   6.082   2.128   4.902  0.0346  0.6411  0.3944
17462THY    HP620132   6.045   1.975   4.977 -1.3142  2.2905 -0.3425
17462THY    HP720133   6.165   2.075   5.052 -0.1716  0.1795  1.1973
17462THY    CA320134   6.112   2.302   5.188  0.3410  0.0966 -0.2427
17462THY    HA320135   6.177   2.220   5.215  0.9640  1.7069  0.7449
17462THY    CA420136   6.132   2.439   5.220  0.8555 -0.1814 -0.5361
17462THY    HA420137   6.227   2.477   5.256  1.4937  0.6415 -2.7490
17462THY    CA520138   6.035   2.540   5.196  0.2335  0.5858  0.9768
17462THY    CM120139   6.064   2.685   5.239  0.2008 -0.3287 -0.8632
17462THY    HM120140   6.012   2.705   5.333 -1.7327 -1.0006 -2.3485
17462THY    HM220141   6.020   2.744   5.158 -1.6670  0.4264 -1.1447
17462THY    HM320142   6.171   2.696   5.256  0.5271 -0.3319 -3.3418
17462THY    CA620143   5.920   2.509   5.131 -0.2119  0.1666 -0.2512
17462THY    HA620144   5.859   2.597   5.112 -1.3100  3.2918 -0.2133
17463THY      O20145   6.798   6.085   7.449 -0.9009  0.3546  0.3208
17463THY     HO20146   6.834   6.039   7.526 -1.3722  0.3691 -0.0383
17463THY    CA120147   6.913   6.135   7.383 -0.3730 -1.0678 -0.0183
17463THY    CA220148   6.923   6.275   7.338  0.4723 -0.0102  0.8116
17463THY    CP120149   6.799   6.362   7.339  0.1594 -0.0335 -0.4452
17463THY    HP120150   6.713   6.306   7.376  0.6987  1.1317 -0.5323
17463THY    CP220151   6.755   6.419   7.200  0.2986  0.1785  0.0738
17463THY    HP220152   6.659   6.472   7.208  2.0703 -1.5392  3.9184
17463THY    HP320153   6.762   6.339   7.125 -0.8992  0.9771 -0.8193
17463THY    HP420154   6.812   6.504   7.162 -1.8698 -1.9523  0.7104
17463THY    CP320155   6.802   6.471   7.447  0.4749  0.0530  0.3993
17463THY    HP520156   6.703   6.515   7.462  0.1724 -2.4414  0.7047
17463THY    HP620157   6.879   6.545   7.421  1.7648  2.8021  0.1309
17463THY    HP720158   6.834   6.422   7.539  1.8406  0.2080  1.5105
17463THY    CA320159   7.051   6.312   7.283  0.5075  0.3822 -0.1997
17463THY    HA320160   7.067   6.412   7.243  1.3033  1.6566  0.2092
17463THY    CA420161   7.156   6.225   7.280  0.3409  0.7347 -0.8973
17463THY    HA420162   7.247   6.271   7.242 -0.7359  0.6888  1.3620
17463THY    CA520163   7.149   6.101   7.335 -0.3323  0.7796  0.4133
17463THY    CM120164   7.273   6.013   7.344  0.4840  0.4441 -0.1385
17463THY    HM120165   7.362   6.065   7.380  1.2388  1.0587 -1.7726
17463THY    HM220166   7.295   5.973   7.244 -1.4169 -0.3880  0.7678
17463THY    HM320167   7.251   5.926   7.408 -0.0365  1.2189  0.5429
17463THY    CA620168   7.029   6.055   7.391 -0.9744 -0.2805  0.0592
17463THY    HA620169   7.024   5.957   7.437  0.3027 -1.2054 -0.4737
17464THY      O20170   5.704   8.926   6.223  0.3368 -0.0001  0.2011
17464THY     HO20171   5.639   8.924   6.296 -1.4709 -1.5075  0.5707
17464THY    CA120172   5.717   9.058   6.193 -0.0560 -0.0296  0.0582
17464THY    CA220173   5.811   9.105   6.103 -0.4062 -0.6599 -0.1948
17464THY    CP120174   5.895   9.007   6.023  0.4403 -0.1130  0.0520
17464THY    HP120175   5.888   8.910   6.074 -1.8663  0.2601  0.3605
17464THY    CP220176   6.043   9.040   6.015 -0.2599  0.3434  0.3036
17464THY    HP220177   6.090   9.065   6.111  0.0743  0.5107 -0.9217
17464THY    HP320178   6.055   9.130   5.952  2.1270  2.8855  1.9353
17464THY    HP420179   6.099   8.955   5.973  2.1805  0.2247  1.8618
17464THY    CP320180   5.845   8.985   5.886  0.0811 -0.2573  0.6035
17464THY    HP520181   5.736   8.995   5.886 -0.0015  0.9220 -0.1150
17464THY    HP620182   5.873   8.886   5.848 -1.0918  3.1258 -1.1780
17464THY    HP720183   5.875   9.068   5.821 -1.1797  0.1776  1.4373
17464THY    CA320184   5.813   9.238   6.067 -0.1937  1.0810 -0.1933
17464THY    HA320185   5.868   9.273   5.979 -0.3027  1.2256  0.3604
17464THY    CA420186   5.733   9.326   6.133 -0.4172  0.2263 -0.9984
17464THY    HA420187   5.726   9.432   6.112  0.8172  0.5587 -0.8417
17464THY    CA520188   5.656   9.286   6.237  1.0716  0.4073  0.1085
17464THY    CM120189   5.565   9.371   6.314 -0.7816  0.6246  0.4125
17464THY    HM120190   5.501   9.425   6.243  3.3762 -3.2086  0.9113
17464THY    HM220191   5.626   9.450   6.357  0.4936  0.9802 -0.7250
17464THY    HM320192   5.494   9.324   6.383 -1.7780 -0.2779  0.5235
17464THY    CA620193   5.648   9.150   6.264 -0.3341 -0.8484 -0.2840
17464THY    HA620194   5.589   9.121   6.351 -0.4024 -1.0222 -0.6640
17465THY      O20195   5.888   1.479   2.520  0.7698 -0.3315 -0.5084
17465THY     HO20196   5.945   1.419   2.467  1.1665  0.2901 -0.6891
17465THY    CA120197   5.761   1.453   2.494 -0.1379 -0.5422 -0.4638
17465THY    CA220198   5.661   1.517   2.558 -0.9577 -0.0958 -0.1452
17465THY    CP120199   5.701   1.627   2.660  0.2578  0.3332  0.5000
17465THY    HP120200   5.789   1.587   2.711  0.3494 -0.3083 -0.1455
17465THY    CP220201   5.597   1.642   2.774 -0.6610 -0.3521 -0.2159
17465THY    HP220202   5.576   1.542   2.812  0.5774 -1.0557 -0.7606
17465THY    HP320203   5.511   1.694   2.729  0.0428  0.4751  1.7486
17465THY    HP420204   5.631   1.711   2.852 -0.0260 -1.4351  0.7338
17465THY    CP320205   5.723   1.764   2.577 -0.2093  0.2055 -0.2606
17465THY    HP520206   5.754   1.846   2.643  3.0590 -1.1210 -0.2392
17465THY    HP620207   5.628   1.797   2.532 -0.3123  0.4298 -0.2540
17465THY    HP720208   5.809   1.763   2.508  0.4310  0.9983 -0.5986
17465THY    CA320209   5.527   1.493   2.511  0.1958  0.2276  0.1027
17465THY    HA320210   5.445   1.555   2.547 -0.5525  0.9998 -1.2940
17465THY    CA420211   5.508   1.404   2.405 -0.2863 -0.7445 -0.1567
17465THY    HA420212   5.409   1.377   2.372 -0.0595  0.0341 -2.1202
17465THY    CA520213   5.613   1.328   2.359  0.1365 -0.4083  0.5292
17465THY    CM120214   5.598   1.226   2.257  0.4420 -0.1825 -0.6620
17465THY    HM120215   5.641   1.248   2.159 -1.8938 -1.1586 -0.1168
17465THY    HM220216   5.497   1.223   2.214  0.8258 -1.3672  1.1801
17465THY    HM320217   5.626   1.128   2.298  0.1833  1.1119 -0.2220
17465THY    CA620218   5.741   1.348   2.406  0.3659  0.0241 -0.0272
17465THY    HA620219   5.820   1.284   2.367 -0.0433 -1.4042  0.3171
17466THY      O20220   1.359   3.035   3.987  0.2161 -0.1172  0.0998
17466THY     HO20221   1.287   3.095   4.014 -2.0327  1.3943 -2.9822
17466THY    CA120222   1.336   3.002   3.858 -0.0151 -0.4152 -0.0307
17466THY    CA220223   1.331   2.864   3.810 -0.6130  0.5659  0.3782
17466THY    CP120224   1.365   2.752   3.910  0.0819  0.1397  0.1256
17466THY    HP120225   1.385   2.774   4.016  0.1183  0.0894  0.3362
17466THY    CP220226   1.475   2.658   3.864  0.2906 -0.0982  0.5132
17466THY    HP220227   1.536   2.711   3.790 -0.5900  0.1782  1.9601
17466THY    HP320228   1.430   2.573   3.812  0.4934  3.7140 -2.1684
17466THY    HP420229   1.530   2.607   3.944  0.3497 -0.2889  0.2742
17466THY    CP320230   1.237   2.661   3.927 -0.2305 -0.0299 -0.2139
17466THY    HP520231   1.197   2.616   3.836  0.6332 -1.0142  0.9682
17466THY    HP620232   1.163   2.732   3.968  0.2904 -0.9484  0.8783
17466THY    HP720233   1.244   2.576   3.997 -2.8897 -1.5945 -1.8798
17466THY    CA320234   1.304   2.848   3.669  0.4583  0.0666  0.1232
17466THY    HA320235   1.289   2.747   3.631  0.7440 -0.2291  0.1918
17466THY    CA420236   1.289   2.962   3.589  0.2792  0.2778  0.2526
17466THY    HA420237   1.270   2.941   3.484 -1.5998  1.0328 -2.4243
17466THY    CA520238   1.288   3.093   3.640  0.1818  0.1857  0.2722
17466THY    CM120239   1.248   3.206   3.544  0.0309  0.5027  0.1319
17466THY    HM120240   1.140   3.206   3.526  0.1251 -0.2671  2.1080
17466THY    HM220241   1.286   3.186   3.443  0.9288  0.4712  1.8775
17466THY    HM320242   1.272   3.304   3.586  1.7354 -2.0449  0.9027
17466THY    CA620243   1.300   3.108   3.777 -1.0404 -0.5482  0.2356
17466THY    HA620244   1.294   3.206   3.823  0.0209  1.0419 -0.3908
17467THY      O20245   7.311   1.149   2.675 -0.4282  0.4468  0.1678
17467THY     HO20246   7.396   1.126   2.634 -1.3769 -3.5068  2.6751
17467THY    CA120247   7.294   1.077   2.785 -0.4627  0.7129 -0.0732
17467THY    CA220248   7.240   1.126   2.906  0.3537  0.1107  0.7596
17467THY    CP120249   7.177   1.261   2.920  0.0213 -0.6433  0.2725
17467THY    HP120250   7.226   1.325   2.846 -2.2787 -0.8275  1.9250
17467THY    CP220251   7.197   1.332   3.058  0.2317 -0.0439 -0.1313
17467THY    HP220252   7.263   1.270   3.119 -0.8152  0.2731 -0.9434
17467THY    HP320253   7.100   1.339   3.108 -1.0031 -2.1293 -1.4389
17467THY    HP420254   7.237   1.434   3.055  0.9192  0.6430 -0.3763
17467THY    CP320255   7.038   1.262   2.877 -0.1345  0.3090  0.6257
17467THY    HP520256   7.020   1.360   2.831 -1.4759  0.9770  0.7183
17467THY    HP620257   6.964   1.243   2.956 -1.1565 -0.8462 -0.3730
17467THY    HP720258   7.032   1.182   2.803  1.5636 -1.0752  1.7119
17467THY    CA320259   7.211   1.027   3.012 -0.2066 -0.0615 -0.1389
17467THY    HA320260   7.156   1.050   3.103 -0.6454 -0.4628  0.4467
17467THY    CA420261   7.257   0.889   2.996  0.4797 -1.0108 -0.9942
17467THY    HA420262   7.243   0.821   3.080 -0.0263 -1.6758 -1.7250
17467THY    CA520263   7.311   0.852   2.880 -0.2007 -0.0189  0.1538
17467THY    CM120264   7.335   0.705   2.857  0.6357  0.8872  0.0426
17467THY    HM120265   7.303   0.675   2.757  3.2678  0.1606 -0.5600
17467THY    HM220266   7.286   0.640   2.932 -0.5352 -0.9811 -1.3305
17467THY    HM320267   7.443   0.689   2.853  0.6300 -0.4811  0.2519
17467THY    CA620268   7.335   0.944   2.777 -0.0242  0.4029 -0.1869
17467THY    HA620269   7.370   0.901   2.683 -2.8357 -0.9355  0.1957
17468THY      O20270   6.736   0.801   3.471 -0.5413  0.3692  0.5161
17468THY     HO20271   6.669   0.872   3.479 -2.2864  0.5561 -1.0778
17468THY    CA120272   6.851   0.856   3.447  0.5811 -0.9841  0.1369
17468THY    CA220273   6.971   0.783   3.438  0.2051 -0.6715 -0.3764
17468THY    CP120274   6.978   0.629   3.443  0.5704  0.6763 -0.0253
17468THY    HP120275   6.879   0.590   3.469 -1.2448 -1.9703  2.3536
17468THY    CP220276   7.058   0.585   3.557 -0.1519  0.0452 -0.2622
17468THY    HP220277   7.162   0.620   3.549 -0.4559 -0.2982  0.6001
17468THY    HP320278   7.078   0.478   3.547  0.5489  2.7889 -0.4750
17468THY    HP420279   7.024   0.605   3.660  1.1415  0.5443 -0.5055
17468THY    CP320280   7.022   0.566   3.314 -0.2357 -0.0533  0.1940
17468THY    HP520281   6.998   0.459   3.323 -0.0304  1.8932  0.2809
17468THY    HP620282   7.124   0.599   3.288  0.0825 -1.5896 -1.7709
17468THY    HP720283   6.967   0.604   3.227  1.4385 -1.4543 -0.4299
17468THY    CA320284   7.093   0.857   3.412  0.5549  0.0666  0.9439
17468THY    HA320285   7.183   0.797   3.403  0.3172 -0.7631  0.7039
17468THY    CA420286   7.093   0.992   3.395  0.7979 -0.2796  0.4321
17468THY    HA420287   7.185   1.033   3.355  1.2674  0.3358  0.0016
17468THY    CA520288   6.974   1.063   3.406 -0.4269 -0.1602  0.1582
17468THY    CM120289   6.984   1.211   3.412  0.4807 -0.2167 -0.5768
17468THY    HM120290   6.900   1.276   3.438  1.4679 -1.6499  1.4061
17468THY    HM220291   7.009   1.243   3.310 -0.3585 -0.5275 -0.9132
17468THY    HM320292   7.070   1.244   3.473 -1.6061  1.6433  1.8071
17468THY    CA620293   6.853   0.999   3.443 -0.2670  0.1169  0.7151
17468THY    HA620294   6.761   1.057   3.445 -0.2236  1.4379  0.7528
17469THY      O20295   3.299   6.574   7.917  0.4797 -0.5912 -0.2007
17469THY     HO20296   3.210   6.542   7.939 -0.0944 -3.7245 -1.0476
17469THY    CA120297   3.274   6.610   7.792 -1.0861  0.3335 -0.0244
17469THY    CA220298   3.370   6.648   7.700  0.5103  0.5915  0.4319
17469THY    CP120299   3.516   6.651   7.736  1.0579 -0.3726 -0.4519
17469THY    HP120300   3.524   6.647   7.845  1.3448 -0.3686  0.1891
17469THY    CP220301   3.593   6.772   7.684  0.3844  0.3719 -0.1039
17469THY    HP220302   3.699   6.762   7.711 -0.1198  1.8219 -2.0012
17469THY    HP320303   3.562   6.858   7.745 -1.5531 -0.6089 -0.0629
17469THY    HP420304   3.589   6.783   7.575  1.6407  0.2988 -0.1738
17469THY    CP320305   3.580   6.530   7.678  0.3554  0.3007 -0.0774
17469THY    HP520306   3.684   6.512   7.706  0.4466  0.1260  0.1705
17469THY    HP620307   3.574   6.528   7.569  0.8632  0.2512  0.6010
17469THY    HP720308   3.512   6.450   7.711  2.2602 -0.0190 -1.9341
17469THY    CA320309   3.329   6.678   7.568 -0.2197 -0.1204  0.0154
17469THY    HA320310   3.404   6.691   7.490  2.5607  2.1774 -1.2597
17469THY    CA420311   3.191   6.668   7.536  0.0733  0.0527 -0.0482
17469THY    HA420312   3.157   6.683   7.434 -2.1879  0.8293  0.5465
17469THY    CA520313   3.099   6.656   7.637  0.1096  0.6944  0.0183
17469THY    CM120314   2.954   6.670   7.626 -0.6002  0.1658 -0.1363
17469THY    HM120315   2.888   6.615   7.694 -0.5972 -1.8511 -2.7831
17469THY    HM220316   2.910   6.651   7.528  1.2775 -1.3389  2.5286
17469THY    HM320317   2.932   6.777   7.636 -0.7956  1.7226 -0.2896
17469THY    CA620318   3.140   6.630   7.766  1.2287  0.1696  0.1349
17469THY    HA620319   3.060   6.616   7.839  0.7416 -0.9491 -4.1483
17470THY      O20320   1.841   3.321   6.804 -0.1527  0.3790  0.0567
17470THY     HO20321   1.900   3.246   6.821 -0.8883 -0.6356 -0.7827
17470THY    CA120322   1.735   3.287   6.884  0.4623 -0.1280 -0.0541
17470THY    CA220323   1.603   3.311   6.840  0.3845  0.1317 -0.0387
17470THY    CP120324   1.583   3.366   6.689 -0.0694  0.8513 -0.2940
17470THY    HP120325   1.675   3.352   6.632 -0.8266 -1.1026  2.0252
17470THY    CP220326   1.550   3.512   6.693  0.0239 -0.1311 -0.2841
17470THY    HP220327   1.553   3.561   6.595 -0.1098  0.7416  1.5792
17470THY    HP320328   1.619   3.575   6.751 -0.5947  0.9951 -0.6193
17470THY    HP420329   1.454   3.525   6.745  0.2651  0.1756  0.3331
17470THY    CP320330   1.476   3.293   6.611  0.0300  0.1899 -0.0901
17470THY    HP520331   1.482   3.184   6.623 -0.3372 -2.3789 -0.4570
17470THY    HP620332   1.482   3.301   6.502 -2.1933  0.0146 -0.3270
17470THY    HP720333   1.381   3.339   6.639  1.1223  1.5375  1.4894
17470THY    CA320334   1.490   3.298   6.925 -0.2444 -0.8539 -0.7335
17470THY    HA320335   1.392   3.335   6.898 -0.8100  0.1714 -1.4191
17470THY    CA420336   1.515   3.260   7.058 -0.2711  0.0709 -0.3508
17470THY    HA420337   1.431   3.250   7.127  0.5582  2.3458  4.9821
17470THY    CA520338   1.646   3.232   7.104 -0.2050  0.2288  0.3420
17470THY    CM120339   1.667   3.203   7.245  0.3713  0.2453  0.0297
17470THY    HM120340   1.675   3.295   7.306  0.4761  0.9857 -0.4605
17470THY    HM220341   1.769   3.166   7.260  1.1649 -1.8027  1.2183
17470THY    HM320342   1.585   3.140   7.281 -1.5602 -2.0312  1.0952
17470THY    CA620343   1.755   3.245   7.015  0.0233 -0.4736 -0.2553
17470THY    HA620344   1.856   3.224   7.048  0.8062 -2.6244 -0.0483
17471THY      O20345   8.075   5.990   5.924 -0.1348  0.6517  0.1891
17471THY     HO20346   8.115   6.071   5.890  0.2785 -0.7057 -0.5564
17471THY    CA120347   7.992   5.948   5.826  0.1510 -0.3218  0.3663
17471THY    CA220348   7.978   5.814   5.795 -0.1846  0.5187 -0.0141
17471THY    CP120349   8.062   5.701   5.865 -0.1006 -0.1086 -0.5823
17471THY    HP120350   8.118   5.734   5.953  1.3591 -1.5924  1.1660
17471THY    CP220351   8.169   5.655   5.762 -0.7755 -0.2695 -0.1308
17471THY    HP220352   8.203   5.553   5.781 -2.6432  1.4233 -0.5028
17471THY    HP320353   8.262   5.712   5.761  1.4615 -0.4700 -3.5432
17471THY    HP420354   8.140   5.652   5.656  0.6328 -0.7157  1.1618
17471THY    CP320355   7.972   5.580   5.889 -0.5233 -0.0577 -0.0423
17471THY    HP520356   7.948   5.514   5.805  1.7089 -0.6734 -0.1139
17471THY    HP620357   7.892   5.610   5.958  0.2687  1.2128 -0.7586
17471THY    HP720358   8.031   5.505   5.944 -1.1495 -0.6009 -0.9595
17471THY    CA320359   7.894   5.783   5.681 -0.2749 -0.4614 -0.6446
17471THY    HA320360   7.885   5.679   5.653  1.3476  0.1491 -0.9826
17471THY    CA420361   7.823   5.883   5.614  0.8130 -0.2191  0.3563
17471THY    HA420362   7.749   5.854   5.541  2.2988 -0.7639 -2.4869
17471THY    CA520363   7.840   6.016   5.656  0.1695 -0.1542 -0.3858
17471THY    CM120364   7.774   6.135   5.584 -0.0747 -0.1006 -0.2148
17471THY    HM120365   7.810   6.235   5.614  1.7484 -0.3855 -0.7498
17471THY    HM220366   7.665   6.137   5.591 -0.1181 -0.7199  1.1742
17471THY    HM320367   7.792   6.124   5.477  0.0489 -0.1682  0.5849
17471THY    CA620368   7.934   6.048   5.755  0.4793  0.0557 -0.0310
17471THY    HA620369   7.945   6.153   5.780 -3.0425 -2.7485  1.1883
17472THY      O20370   7.046   4.794   7.687 -0.1145 -0.0493 -0.0777
17472THY     HO20371   7.042   4.860   7.616  1.2274 -0.3177 -0.2531
17472THY    CA120372   7.181   4.779   7.708 -0.4192 -0.3413  0.5108
17472THY    CA220373   7.236   4.678   7.790 -0.3389 -0.3271  0.4501
17472THY    CP120374   7.142   4.562   7.834 -0.0169  0.4171  0.9671
17472THY    HP120375   7.036   4.587   7.822 -0.3908  0.0574 -0.6828
17472THY    CP220376   7.156   4.513   7.977  0.1002 -0.1803  0.6607
17472THY    HP220377   7.180   4.588   8.053  2.2905  2.1936 -2.2408
17472THY    HP320378   7.241   4.444   7.981 -0.0596 -4.1570 -0.0393
17472THY    HP420379   7.073   4.451   8.013  0.0256 -0.4067  0.6273
17472THY    CP320380   7.161   4.445   7.750 -0.7749  0.6232  0.2290
17472THY    HP520381   7.135   4.475   7.647  0.1918  0.7996  1.7697
17472THY    HP620382   7.088   4.370   7.783 -0.5389 -0.5986 -0.5800
17472THY    HP720383   7.257   4.393   7.757 -1.4715  0.5275 -1.1017
17472THY    CA320384   7.371   4.665   7.813 -0.5183  0.0580  0.2808
17472THY    HA320385   7.393   4.574   7.868 -3.9973  0.7452 -0.2823
17472THY    CA420386   7.460   4.764   7.754 -0.3015 -0.1811 -0.3130
17472THY    HA420387   7.567   4.754   7.769 -0.5174  1.0625 -0.8524
17472THY    CA520388   7.405   4.855   7.665 -0.1000  0.7002 -0.0499
17472THY    CM120389   7.499   4.932   7.573 -0.2620  0.3443  0.9947
17472THY    HM120390   7.577   4.867   7.534  0.0101  0.6213  1.1518
17472THY    HM220391   7.549   5.022   7.611 -0.0893 -1.3368  1.6470
17472THY    HM320392   7.453   4.976   7.484  1.9993 -1.4092 -0.0229
17472THY    CA620393   7.266   4.858   7.642 -0.7982  0.4803 -0.2244
17472THY    HA620394   7.235   4.923   7.561 -1.3008 -0.0250 -1.0823
17473THY      O20395   3.414   5.110   2.756  0.0785  0.1464  0.4856
17473THY     HO20396   3.497   5.108   2.705  0.2694  0.4741 -1.0501
17473THY    CA120397   3.303   5.076   2.675 -0.2415 -0.5277  0.2003
17473THY    CA220398   3.171   5.074   2.719  1.2831  0.3161  0.4868
17473THY    CP120399   3.132   5.099   2.860 -0.4242 -0.1544  0.0978
17473THY    HP120400   3.219   5.086   2.926  0.6337 -1.3278  0.9538
17473THY    CP220401   3.021   5.002   2.911  0.1535  0.0255 -0.2648
17473THY    HP220402   3.044   4.898   2.889  1.6433 -0.7330  0.2062
17473THY    HP320403   2.924   5.033   2.870 -0.5477  2.1159  0.5050
17473THY    HP420404   3.011   5.013   3.020  1.3833  0.1642 -0.4570
17473THY    CP320405   3.092   5.242   2.886 -0.6759  0.2421  0.3005
17473THY    HP520406   3.001   5.279   2.836 -1.2421  0.9334 -0.1313
17473THY    HP620407   3.174   5.306   2.852 -1.6622 -1.1468  0.8772
17473THY    HP720408   3.091   5.259   2.994  0.6990  0.2738  0.2790
17473THY    CA320409   3.066   5.043   2.621 -0.1186 -0.1373  0.3474
17473THY    HA320410   2.962   5.035   2.652  0.1582  0.6837 -0.2499
17473THY    CA420411   3.091   5.013   2.491 -0.2672 -0.3876  0.1195
17473THY    HA420412   3.007   4.991   2.425 -0.8237 -0.1837  1.5231
17473THY    CA520413   3.225   5.020   2.449  0.4719  0.2858 -0.2679
17473THY    CM120414   3.247   5.001   2.302 -0.5378  0.3328  0.3313
17473THY    HM120415   3.344   4.949   2.303  0.2937  1.1411  1.8238
17473THY    HM220416   3.275   5.099   2.262 -0.4613  1.5862  0.8455
17473THY    HM320417   3.172   4.945   2.245  0.1638 -1.4117  1.1132
17473THY    CA620418   3.325   5.052   2.544 -0.4684  0.3657  0.1191
17473THY    HA620419   3.428   5.055   2.511 -0.8409 -0.9799 -1.0558
17474THY      O20420   1.381   4.161   6.153 -0.1390  0.9807 -0.3736
17474THY     HO20421   1.362   4.079   6.201  1.4835 -2.6622 -3.1396
17474THY    CA120422   1.337   4.140   6.025  0.0134  0.4107 -0.0193
17474THY    CA220423   1.208   4.186   5.987 -0.5102  0.0587  0.4781
17474THY    CP120424   1.119   4.254   6.093 -0.3206 -0.0249 -0.2063
17474THY    HP120425   1.168   4.278   6.188 -0.0955 -0.6056  1.7686
17474THY    CP220426   0.997   4.170   6.144 -0.2132 -0.5372 -0.2992
17474THY    HP220427   1.035   4.091   6.209  0.3119 -1.0588 -0.4799
17474THY    HP320428   0.939   4.117   6.067 -1.3483  0.2816 -0.2876
17474THY    HP420429   0.925   4.225   6.206 -0.0145 -0.2113 -0.4071
17474THY    CP320430   1.077   4.389   6.038  0.0603 -0.4317 -0.4234
17474THY    HP520431   1.170   4.438   6.007 -0.5567 -1.0896  0.3594
17474THY    HP620432   1.034   4.447   6.120 -1.1560 -1.6924  0.5346
17474THY    HP720433   0.996   4.370   5.966  0.6436 -1.1189 -0.3320
17474THY    CA320434   1.168   4.169   5.855  0.0331 -0.1706  0.2328
17474THY    HA320435   1.071   4.196   5.815 -0.8586  0.8391 -1.3229
17474THY    CA420436   1.259   4.114   5.762  0.0749  0.3030 -0.9364
17474THY    HA420437   1.241   4.109   5.655 -1.2801  0.4245  0.5346
17474THY    CA520438   1.387   4.067   5.808  0.5485  0.5048 -0.4374
17474THY    CM120439   1.481   4.022   5.706  0.4193 -0.5073  0.1855
17474THY    HM120440   1.452   4.016   5.600  0.8633 -0.5553 -2.3701
17474THY    HM220441   1.508   3.919   5.732  2.1493 -2.4550  0.0715
17474THY    HM320442   1.573   4.079   5.723  0.7676  0.0025 -0.5035
17474THY    CA620443   1.419   4.078   5.940 -0.1929 -0.1341  0.6745
17474THY    HA620444   1.519   4.051   5.973 -0.3586 -0.7404 -0.7818
17475THY      O20445   4.937   7.995   6.166 -0.2848 -0.2669  0.2060
17475THY     HO20446   4.959   8.080   6.125 -2.0463  1.0884  1.3907
17475THY    CA120447   4.865   8.022   6.282 -0.0804  0.6743  0.3779
17475THY    CA220448   4.788   8.137   6.308  0.3284  0.3933  0.7468
17475THY    CP120449   4.777   8.238   6.201 -0.0305  0.8417 -0.3921
17475THY    HP120450   4.782   8.187   6.104  0.4123  1.5121 -1.6766
17475THY    CP220451   4.887   8.345   6.209  0.5720  0.4568  0.5281
17475THY    HP220452   4.852   8.408   6.291 -3.6626  0.0118 -0.8593
17475THY    HP320453   4.879   8.399   6.114 -1.2717  0.1405 -0.2058
17475THY    HP420454   4.986   8.300   6.221  1.5076 -0.3882  2.2564
17475THY    CP320455   4.639   8.301   6.178 -0.1298 -0.5723  0.9094
17475THY    HP520456   4.566   8.221   6.191  0.8932 -0.5773 -0.0400
17475THY    HP620457   4.633   8.345   6.078  0.6366 -0.9336  0.2183
17475THY    HP720458   4.621   8.371   6.260 -0.0062  1.1050 -0.9430
17475THY    CA320459   4.723   8.154   6.433 -0.3022  0.5180 -0.3412
17475THY    HA320460   4.659   8.241   6.444 -2.4549 -1.1168 -1.6125
17475THY    CA420461   4.730   8.051   6.523 -0.1887 -0.2692  0.7232
17475THY    HA420462   4.665   8.053   6.610 -0.5274 -0.5030  2.8878
17475THY    CA520463   4.812   7.943   6.500  0.3638  0.2335 -0.2176
17475THY    CM120464   4.800   7.834   6.601  0.8340 -0.6237 -0.0375
17475THY    HM120465   4.787   7.868   6.704  0.5736 -0.6274 -0.1297
17475THY    HM220466   4.890   7.771   6.592  0.7062 -3.0625  0.0541
17475THY    HM320467   4.722   7.762   6.576 -0.3700  0.8987  0.6877
17475THY    CA620468   4.875   7.929   6.381 -0.7774  0.0492  0.1586
17475THY    HA620469   4.922   7.834   6.357  0.4152  0.9161  0.5117
17476THY      O20470   4.540   3.178   1.799 -0.0453 -0.4426  0.1419
17476THY     HO20471   4.564   3.145   1.711 -0.6944 -0.6412  0.1890
17476THY    CA120472   4.440   3.094   1.834  0.4244  0.8708 -0.2191
17476THY    CA220473   4.386   3.095   1.963 -0.9226 -0.4793  0.4904
17476THY    CP120474   4.463   3.160   2.078  0.1209 -0.7651 -0.1875
17476THY    HP120475   4.533   3.237   2.043 -0.8826  2.2426  2.2732
17476THY    CP220476   4.540   3.039   2.138  0.2022  0.0116  0.7206
17476THY    HP220477   4.618   3.083   2.202 -0.5785  0.9975  0.6883
17476THY    HP320478   4.596   2.975   2.069 -0.4445 -0.5282  0.7255
17476THY    HP420479   4.478   2.977   2.204  1.5052  3.1091  2.4551
17476THY    CP320480   4.375   3.250   2.181  0.0333 -0.0598  0.1256
17476THY    HP520481   4.440   3.291   2.258 -0.6622  0.0349  1.0840
17476THY    HP620482   4.298   3.192   2.233 -0.0022 -0.5219 -0.2459
17476THY    HP720483   4.321   3.333   2.134 -1.4314 -0.7498 -1.1709
17476THY    CA320484   4.279   3.006   1.997 -0.4555 -0.0754 -0.2354
17476THY    HA320485   4.245   3.008   2.100  0.9990  0.4668 -1.2803
17476THY    CA420486   4.217   2.934   1.899 -0.5538 -0.1729 -0.1669
17476THY    HA420487   4.132   2.870   1.924  1.0286 -1.0999 -2.7976
17476THY    CA520488   4.264   2.934   1.765 -0.2387 -0.1074 -0.0528
17476THY    CM120489   4.199   2.853   1.654 -0.2767  0.6828  0.5181
17476THY    HM120490   4.191   2.914   1.564  1.1975 -2.4154 -3.4274
17476THY    HM220491   4.102   2.811   1.680  0.4698 -0.6704 -2.2558
17476THY    HM320492   4.265   2.768   1.635  1.3347 -1.6597  2.1647
17476THY    CA620493   4.381   3.007   1.732  0.0550  1.2493 -0.0398
17476THY    HA620494   4.409   3.015   1.627  0.4484  1.3527 -0.0273
17477THY      O20495   8.505   2.456   3.471 -0.0725  0.8637 -0.1073
17477THY     HO20496   8.488   2.501   3.556  0.4619 -0.1140  2.0668
17477THY    CA120497   8.527   2.321   3.489 -0.1636 -0.2051  0.1647
17477THY    CA220498   8.551   2.228   3.379  0.1998 -0.3905 -0.5291
17477THY    CP120499   8.534   2.283   3.235  0.3635  1.1046  0.1670
17477THY    HP120500   8.500   2.387   3.246 -0.9137 -0.8853  0.0091
17477THY    CP220501   8.420   2.203   3.163 -0.1194 -0.9540  0.1081
17477THY    HP220502   8.327   2.205   3.223  1.3902  1.5659 -0.4468
17477THY    HP320503   8.450   2.099   3.152  1.4406  5.2133 -0.4929
17477THY    HP420504   8.394   2.245   3.065  0.8616 -1.3944 -0.2952
17477THY    CP320505   8.670   2.291   3.160 -0.2601  0.5022  0.3713
17477THY    HP520506   8.705   2.190   3.135 -0.4184 -2.6871  1.0204
17477THY    HP620507   8.743   2.343   3.223  0.6015 -0.8724  0.8800
17477THY    HP720508   8.670   2.333   3.059 -0.4897  0.1903 -0.3596
17477THY    CA320509   8.577   2.091   3.399  0.1427 -0.3372  0.6716
17477THY    HA320510   8.578   2.019   3.319  2.1799 -0.3293  0.6348
17477THY    CA420511   8.580   2.051   3.536  0.1327 -0.0618  0.4121
17477THY    HA420512   8.605   1.947   3.551  0.0199 -1.6630  0.1190
17477THY    CA520513   8.560   2.139   3.637  0.5571 -0.2237 -0.3623
17477THY    CM120514   8.578   2.091   3.782 -0.1152 -0.2775 -0.0618
17477THY    HM120515   8.587   1.983   3.797 -2.7235 -0.0580 -0.3144
17477THY    HM220516   8.487   2.110   3.842  0.6109  0.4287  1.3845
17477THY    HM320517   8.656   2.155   3.825  0.8958 -1.8114 -0.2252
17477THY    CA620518   8.531   2.273   3.615  0.3870  0.0270  0.3660
17477THY    HA620519   8.504   2.336   3.700  0.6171  0.9710 -0.7681
17478THY      O20520   4.238   7.936   2.707 -0.0029 -0.0413 -0.1146
17478THY     HO20521   4.194   7.916   2.623  0.8269 -0.8929  1.4343
17478THY    CA120522   4.339   7.838   2.722  0.7026 -0.2568 -0.5997
17478THY    CA220523   4.394   7.811   2.848  0.1011  0.0483 -0.4513
17478THY    CP120524   4.353   7.900   2.976  0.2174 -0.2742  0.3605
17478THY    HP120525   4.314   7.998   2.947  1.5554  0.0336  1.0143
17478THY    CP220526   4.485   7.940   3.054  0.0666 -0.2813  0.7140
17478THY    HP220527   4.472   8.029   3.116 -2.1971  0.5349 -0.1026
17478THY    HP320528   4.570   7.947   2.985  1.1538  0.5890 -2.4721
17478THY    HP420529   4.508   7.862   3.127 -0.4011 -0.6241  0.2452
17478THY    CP320530   4.251   7.844   3.077  0.1562 -0.1509  0.8863
17478THY    HP520531   4.299   7.758   3.127  1.1112 -0.3748  1.2831
17478THY    HP620532   4.155   7.812   3.035 -1.2995  4.2302 -1.4138
17478THY    HP720533   4.227   7.930   3.141 -3.0145  0.7235 -0.4898
17478THY    CA320534   4.488   7.706   2.857 -0.2180 -0.2240 -0.6922
17478THY    HA320535   4.543   7.689   2.949  0.8774  0.0165  3.1854
17478THY    CA420536   4.519   7.638   2.744  0.4366 -0.5371 -0.2325
17478THY    HA420537   4.589   7.555   2.753 -0.9700  1.8519 -1.2590
17478THY    CA520538   4.471   7.674   2.622 -0.7437  0.3667 -0.2943
17478THY    CM120539   4.521   7.608   2.499  0.0073  0.5715 -0.1924
17478THY    HM120540   4.531   7.502   2.525  1.9876 -1.0233 -0.4745
17478THY    HM220541   4.617   7.652   2.469  0.6611  1.7541 -0.7663
17478THY    HM320542   4.450   7.623   2.417 -0.6213  0.8103 -1.7068
17478THY    CA620543   4.375   7.770   2.614 -0.7599  0.3126 -0.2903
17478THY    HA620544   4.333   7.796   2.518 -0.6212  0.3765  0.1697
17479THY      O20545   1.241   0.712   5.649  1.1906 -0.3765 -0.6851
17479THY     HO20546   1.251   0.808   5.639  0.1602  0.0829 -0.5159
17479THY    CA120547   1.346   0.664   5.586 -0.0263 -0.0831  0.4607
17479THY    CA220548   1.422   0.545   5.627  0.6394 -0.6964 -0.0354
17479THY    CP120549   1.388   0.472   5.760  0.3085 -0.7120  0.0411
17479THY    HP120550   1.333   0.537   5.828 -0.6910  0.6236 -2.0717
17479THY    CP220551   1.504   0.413   5.835 -0.0822  0.0154  0.2763
17479THY    HP220552   1.580   0.491   5.824 -0.3605  0.9265  0.6832
17479THY    HP320553   1.545   0.314   5.809  0.2114  0.5209  0.2610
17479THY    HP420554   1.461   0.411   5.936 -2.3987 -0.8978 -1.3884
17479THY    CP320555   1.294   0.357   5.723  0.3686 -0.5823 -0.1247
17479THY    HP520556   1.277   0.298   5.814  2.0984  0.6287  1.1184
17479THY    HP620557   1.331   0.304   5.634 -0.0694 -0.7962 -0.0707
17479THY    HP720558   1.194   0.385   5.689  0.6739 -0.8288  0.6813
17479THY    CA320559   1.518   0.497   5.539 -1.0657  0.0467  0.0583
17479THY    HA320560   1.574   0.408   5.568  0.6430 -0.2220  1.0022
17479THY    CA420561   1.554   0.570   5.430 -0.3268 -0.4716 -0.8257
17479THY    HA420562   1.644   0.544   5.375  0.7025  0.6787  0.1646
17479THY    CA520563   1.479   0.683   5.393 -0.2597  0.2999  0.4495
17479THY    CM120564   1.517   0.759   5.272  0.3277 -0.5792  0.5012
17479THY    HM120565   1.622   0.791   5.268  0.4849  2.0554  0.5438
17479THY    HM220566   1.459   0.851   5.260  0.4467  1.7125  0.9224
17479THY    HM320567   1.495   0.703   5.180 -2.2014 -0.4869  1.2335
17479THY    CA620568   1.380   0.730   5.469  0.2772 -1.2019  0.0226
17479THY    HA620569   1.331   0.820   5.432 -0.1140 -1.0965 -0.1454
17480THY      O20570   9.157   6.061   1.564 -0.9112  0.0572  0.7135
17480THY     HO20571   9.155   6.119   1.485  2.0998 -1.1664 -0.6275
17480THY    CA120572   9.182   6.150   1.667  0.0799 -0.4412 -0.2764
17480THY    CA220573   9.212   6.101   1.797 -0.1368  0.3209 -0.0457
17480THY    CP120574   9.234   5.954   1.837 -0.4492 -0.3549  0.8238
17480THY    HP120575   9.210   5.888   1.753 -2.9994  0.4583  0.5931
17480THY    CP220576   9.123   5.913   1.934 -0.8803 -1.2732 -0.3063
17480THY    HP220577   9.136   5.809   1.967 -0.5756  0.7921  0.3458
17480THY    HP320578   9.024   5.931   1.890 -1.1134 -0.7272 -0.2251
17480THY    HP420579   9.130   5.979   2.021  1.7451 -0.6619 -1.2806
17480THY    CP320580   9.371   5.937   1.896  0.2353 -0.2320  0.1615
17480THY    HP520581   9.371   5.986   1.994 -2.4004 -0.5842  1.0032
17480THY    HP620582   9.443   5.996   1.839 -0.0939 -0.1520  0.6513
17480THY    HP720583   9.392   5.831   1.917  1.2859 -0.5362  0.3004
17480THY    CA320584   9.225   6.201   1.899  0.4125  0.3311 -0.0532
17480THY    HA320585   9.249   6.171   2.001  2.0076 -0.3202 -1.0991
17480THY    CA420586   9.193   6.335   1.868  0.4404  0.7699  0.1038
17480THY    HA420587   9.186   6.406   1.950  3.4574  1.1255  0.1393
17480THY    CA520588   9.177   6.378   1.736 -0.2179  0.6179 -1.0144
17480THY    CM120589   9.162   6.528   1.702 -0.0323 -0.4027  0.2878
17480THY    HM120590   9.176   6.546   1.595  1.8568 -0.2115  0.1923
17480THY    HM220591   9.239   6.587   1.753  2.7071 -2.8158 -0.9584
17480THY    HM320592   9.067   6.562   1.743  0.6003  1.8510 -0.4703
17480THY    CA620593   9.170   6.281   1.635  0.7519 -0.0496 -0.2775
17480THY    HA620594   9.157   6.316   1.533 -1.2050 -0.4714 -2.0035
17481THY      O20595   4.215   4.181   3.885 -0.7212  0.3805  0.0866
17481THY     HO20596   4.162   4.251   3.926 -0.0654  0.1832  0.7149
17481THY    CA120597   4.241   4.095   3.985  0.3183 -0.5415  0.0098
17481THY    CA220598   4.371   4.081   4.033 -0.6771  0.2225 -0.2452
17481THY    CP120599   4.486   4.176   3.991  0.4499  0.3037  0.2013
17481THY    HP120600   4.456   4.232   3.901 -0.4947  0.9408  0.7352
17481THY    CP220601   4.629   4.116   3.958  0.4091  0.0123 -0.2308
17481THY    HP220602   4.694   4.190   3.911  1.5509 -0.5075 -1.5241
17481THY    HP320603   4.609   4.033   3.889 -1.9266 -0.6083  0.7770
17481THY    HP420604   4.670   4.073   4.051 -0.8501  1.6743  1.9455
17481THY    CP320605   4.491   4.296   4.093 -0.4138 -0.3132  1.4100
17481THY    HP520606   4.515   4.257   4.193 -2.0755  0.1645  1.5114
17481THY    HP620607   4.390   4.340   4.094 -0.9242  2.0791  0.3876
17481THY    HP720608   4.556   4.371   4.049 -1.6716 -0.7199  2.2975
17481THY    CA320609   4.388   3.998   4.144 -0.2587  0.1349  0.2381
17481THY    HA320610   4.480   4.002   4.202  0.0164 -0.3503  1.1683
17481THY    CA420611   4.284   3.917   4.190  0.4251 -1.2673 -0.3986
17481THY    HA420612   4.310   3.842   4.264  1.0244  2.4882  3.1712
17481THY    CA520613   4.154   3.936   4.148 -0.7258  0.1193  0.1026
17481THY    CM120614   4.039   3.860   4.211 -0.1620 -0.1001 -0.1680
17481THY    HM120615   4.008   3.775   4.148  2.0646  1.7357 -2.5128
17481THY    HM220616   3.946   3.916   4.224 -1.4582 -1.3570 -1.9307
17481THY    HM320617   4.062   3.824   4.312 -1.3498  0.7565  1.3688
17481THY    CA620618   4.129   4.021   4.037 -0.3304 -0.0195 -0.0735
17481THY    HA620619   4.028   4.038   4.002 -1.0150  1.5514 -0.6947
17482THY      O20620   3.095   0.675   5.520 -0.4856  0.2486  0.5188
17482THY     HO20621   3.031   0.739   5.557 -2.1662 -2.7015  0.7310
17482THY    CA120622   3.063   0.674   5.385 -0.0125 -0.5184  0.3219
17482THY    CA220623   3.113   0.567   5.307  0.5646 -0.2253 -0.8275
17482THY    CP120624   3.203   0.458   5.359  0.2013  0.1066  0.6350
17482THY    HP120625   3.220   0.466   5.467  1.2606 -0.0514  0.6999
17482THY    CP220626   3.348   0.461   5.303  0.2195  0.1991 -0.3008
17482THY    HP220627   3.350   0.416   5.203  0.8345  0.0257  0.1119
17482THY    HP320628   3.414   0.405   5.370  2.8693 -1.3501  0.8089
17482THY    HP420629   3.379   0.565   5.292  0.2570  2.5569 -0.0203
17482THY    CP320630   3.133   0.325   5.321  0.1842  0.7442  0.4657
17482THY    HP520631   3.139   0.319   5.212 -0.0952  0.5914  2.4403
17482THY    HP620632   3.030   0.332   5.357 -0.3274 -0.9372  2.6283
17482THY    HP720633   3.184   0.238   5.364 -2.8831 -1.0391 -2.4485
17482THY    CA320634   3.089   0.567   5.173  0.2647  0.4115 -0.1676
17482THY    HA320635   3.140   0.495   5.108  0.3426  0.1046  0.1648
17482THY    CA420636   2.997   0.663   5.112 -0.1851  0.2563  1.0524
17482THY    HA420637   2.973   0.666   5.006  0.6739  0.0606  1.3475
17482THY    CA520638   2.935   0.756   5.195 -0.4653  0.3735 -0.3892
17482THY    CM120639   2.849   0.862   5.144 -0.5556  0.1560  0.4040
17482THY    HM120640   2.752   0.845   5.193  0.2912  1.1875 -1.8680
17482THY    HM220641   2.844   0.862   5.035 -1.2750  0.1797 -0.3510
17482THY    HM320642   2.892   0.962   5.161 -0.1507 -1.5595  0.5469
17482THY    CA620643   2.972   0.767   5.329  0.2779 -0.4911 -0.1034
17482THY    HA620644   2.929   0.842   5.395  1.8233  0.1138  0.2840
17483THY      O20645   0.421   5.924   6.090 -0.9265  0.4062  0.1181
17483THY     HO20646   0.327   5.909   6.069 -0.8341 -1.3277  1.6890
17483THY    CA120647   0.422   5.975   6.213  0.1364  0.0964 -0.2349
17483THY    CA220648   0.540   6.033   6.267  0.2104 -0.2196  0.5150
17483THY    CP120649   0.658   6.063   6.178 -1.1970  0.7112 -0.1285
17483THY    HP120650   0.664   5.995   6.092  3.2174  0.2585  0.5668
17483THY    CP220651   0.794   6.024   6.234 -0.4034 -0.0252 -1.6865
17483THY    HP220652   0.810   5.916   6.235 -0.9171 -0.3626 -1.7683
17483THY    HP320653   0.815   6.070   6.331  1.7073 -0.3565 -1.8380
17483THY    HP420654   0.874   6.064   6.170 -1.0014  1.1831  1.7575
17483THY    CP320655   0.653   6.211   6.131  0.3975 -0.2465  0.3372
17483THY    HP520656   0.565   6.219   6.066 -2.7691  3.0401 -3.2478
17483THY    HP620657   0.749   6.241   6.089 -0.7096 -1.8758  1.8003
17483THY    HP720658   0.633   6.280   6.214 -0.6225  0.0942 -0.3419
17483THY    CA320659   0.537   6.076   6.396  0.1527 -0.6709  0.3761
17483THY    HA320660   0.619   6.131   6.442  1.9131 -0.2595 -2.3927
17483THY    CA420661   0.425   6.055   6.476  0.1065 -0.5062 -0.3265
17483THY    HA420662   0.428   6.092   6.578  0.8813 -0.5719 -0.1725
17483THY    CA520663   0.315   5.996   6.427  0.0674 -0.1389 -0.5314
17483THY    CM120664   0.188   5.989   6.507  0.0080  0.5280  0.5978
17483THY    HM120665   0.157   5.885   6.515  1.3034 -1.4654  0.0088
17483THY    HM220666   0.108   6.043   6.455 -0.1710 -1.8251 -1.7646
17483THY    HM320667   0.216   6.021   6.608  3.2314 -0.2011  0.5059
17483THY    CA620668   0.317   5.955   6.291 -0.0017 -0.0032 -0.0600
17483THY    HA620669   0.228   5.901   6.260  0.5057 -0.7528 -0.4965
17484THY      O20670   3.557   2.898   4.523  0.4114 -0.2093 -0.3426
17484THY     HO20671   3.503   2.880   4.602 -1.3818 -1.8974 -3.0828
17484THY    CA120672   3.563   2.778   4.459  0.2266  0.1601  0.0694
17484THY    CA220673   3.682   2.735   4.400  0.3560 -0.3146 -0.1625
17484THY    CP120674   3.809   2.824   4.404  0.3553 -0.1427  0.0887
17484THY    HP120675   3.820   2.860   4.507  0.2286  0.1640 -0.7217
17484THY    CP220676   3.795   2.950   4.324 -0.0021  0.7085 -0.4143
17484THY    HP220677   3.897   2.987   4.311  0.3293  2.0538 -0.7810
17484THY    HP320678   3.728   3.022   4.374  0.1137 -1.5870  1.3869
17484THY    HP420679   3.749   2.934   4.226  0.1453  0.8175 -1.5702
17484THY    CP320680   3.935   2.749   4.362  0.7754  0.7469  0.1260
17484THY    HP520681   3.929   2.735   4.253  0.0027  0.8398 -0.3250
17484THY    HP620682   3.932   2.657   4.422 -0.4425  0.1081 -0.2723
17484THY    HP720683   4.030   2.802   4.379  0.5930 -2.4405  1.7235
17484THY    CA320684   3.672   2.613   4.326  0.4918 -0.2443 -0.2691
17484THY    HA320685   3.754   2.578   4.264  2.0471  1.5732 -0.0373
17484THY    CA420686   3.556   2.540   4.324  0.2040  0.1248 -0.2043
17484THY    HA420687   3.546   2.442   4.280 -4.3902  2.4373 -1.0779
17484THY    CA520688   3.443   2.587   4.392 -0.8835 -0.3592  0.5209
17484THY    CM120689   3.316   2.506   4.400 -0.2214  0.1361  0.2762
17484THY    HM120690   3.275   2.509   4.298  2.8418 -1.1882  0.2338
17484THY    HM220691   3.245   2.545   4.474 -0.0294  0.5119 -0.0836
17484THY    HM320692   3.335   2.401   4.424 -0.8278 -1.1769 -0.1565
17484THY    CA620693   3.442   2.713   4.449  0.5768 -0.5116  0.3060
17484THY    HA620694   3.349   2.756   4.485  0.4652 -0.4586  0.0261
17485THY      O20695   1.837   2.726   3.085  0.0720 -0.6177  1.0869
17485THY     HO20696   1.922   2.685   3.061 -0.5010  2.4729 -2.4832
17485THY    CA120697   1.825   2.698   3.220  0.0206 -0.0148 -0.2400
17485THY    CA220698   1.701   2.706   3.284  0.3319 -0.6474  0.7334
17485THY    CP120699   1.565   2.752   3.213 -0.8222 -0.2960  0.3378
17485THY    HP120700   1.594   2.808   3.123  1.3573 -0.5160 -1.0091
17485THY    CP220701   1.483   2.846   3.303 -0.4627 -0.9416  0.4407
17485THY    HP220702   1.408   2.914   3.262 -1.0608  0.9168  0.9754
17485THY    HP320703   1.544   2.911   3.367 -1.8436  1.8508 -0.8203
17485THY    HP420704   1.420   2.784   3.368  0.2090  1.4455  2.1276
17485THY    CP320705   1.475   2.640   3.175  0.6846 -0.7085  0.1521
17485THY    HP520706   1.377   2.663   3.132  0.5305 -0.0988  0.6472
17485THY    HP620707   1.452   2.583   3.266  3.4998 -0.5835 -0.9784
17485THY    HP720708   1.535   2.578   3.107  0.4392  0.7788 -1.8436
17485THY    CA320709   1.699   2.674   3.415  0.5378  0.1171 -0.3375
17485THY    HA320710   1.607   2.676   3.474  1.8303  2.2135  0.5333
17485THY    CA420711   1.806   2.623   3.479  0.6634  0.0242 -0.0156
17485THY    HA420712   1.790   2.580   3.578  0.8007 -0.8874 -2.3478
17485THY    CA520713   1.934   2.612   3.412  0.1939 -0.4841 -0.3073
17485THY    CM120714   2.050   2.564   3.493 -0.3385  0.3818 -0.4865
17485THY    HM120715   2.034   2.558   3.602  2.7438  1.1157  2.0065
17485THY    HM220716   2.127   2.640   3.479  1.4444  1.9719 -1.8777
17485THY    HM320717   2.092   2.472   3.451  1.8826 -0.7288  0.9522
17485THY    CA620718   1.942   2.652   3.277  0.9071 -0.5800  0.2628
17485THY    HA620719   2.034   2.643   3.221  1.8611  1.0595 -0.7482
17486THY      O20720   0.803   5.680   2.118  0.7569 -0.0507  0.2503
17486THY     HO20721   0.728   5.630   2.155  0.4762 -1.3771 -0.3718
17486THY    CA120722   0.758   5.707   1.993 -0.4525 -0.2022 -0.2560
17486THY    CA220723   0.836   5.714   1.880 -0.4646  0.2302  0.2617
17486THY    CP120724   0.990   5.721   1.897  0.8663 -0.6669  0.3073
17486THY    HP120725   1.027   5.726   2.001  0.2189 -0.3453 -1.0324
17486THY    CP220726   1.045   5.841   1.822 -0.0578 -0.5814 -0.1572
17486THY    HP220727   0.989   5.927   1.860 -0.7261  1.5795 -1.4647
17486THY    HP320728   1.045   5.825   1.714  0.8935 -0.4526 -1.2091
17486THY    HP420729   1.148   5.844   1.860 -0.0039 -0.5571 -1.5001
17486THY    CP320730   1.041   5.589   1.835  0.0309 -0.3772 -0.4170
17486THY    HP520731   1.060   5.592   1.727  1.7818 -0.0898 -0.0760
17486THY    HP620732   0.982   5.507   1.878  1.0582  5.2685  1.3815
17486THY    HP720733   1.145   5.579   1.869  0.1306 -1.3127 -3.7161
17486THY    CA320734   0.769   5.721   1.756  0.6161 -0.1252 -0.0871
17486THY    HA320735   0.823   5.718   1.661 -2.8065 -2.2526 -3.3076
17486THY    CA420736   0.630   5.740   1.751  0.3539  0.3016  1.2965
17486THY    HA420737   0.589   5.749   1.651 -0.9912  0.7150  0.1110
17486THY    CA520738   0.554   5.733   1.864  0.3214  0.0832  0.4551
17486THY    CM120739   0.403   5.738   1.862 -0.2251 -0.2297  0.4604
17486THY    HM120740   0.364   5.680   1.946  1.6374  0.7349  0.5527
17486THY    HM220741   0.378   5.686   1.768  0.8463 -0.0819 -0.3682
17486THY    HM320742   0.372   5.842   1.873 -0.6336 -0.2707  0.3444
17486THY    CA620743   0.620   5.711   1.988 -0.1927 -0.9882  0.3704
17486THY    HA620744   0.561   5.706   2.079 -0.5957 -1.1728  1.4422
17487THY      O20745   7.990   6.893   5.455  0.0718  0.1812  0.0670
17487THY     HO20746   8.078   6.853   5.463 -1.1457  0.0908 -2.8398
17487THY    CA120747   7.968   6.958   5.571  0.9765 -0.0486  0.2847
17487THY    CA220748   7.837   6.989   5.607  0.2050 -0.1049  0.0348
17487THY    CP120749   7.715   6.965   5.515 -0.4390 -0.5014 -0.6335
17487THY    HP120750   7.741   6.896   5.434  0.6257  1.2545 -2.3939
17487THY    CP220751   7.679   7.104   5.447  0.0000  0.0645  0.2859
17487THY    HP220752   7.639   7.181   5.514 -2.1309  0.6343 -1.2243
17487THY    HP320753   7.601   7.089   5.372  0.2690  0.2157 -2.3605
17487THY    HP420754   7.772   7.137   5.398 -0.3682 -1.2659 -0.5687
17487THY    CP320755   7.594   6.915   5.601  0.0969  0.3591 -0.1123
17487THY    HP520756   7.632   6.829   5.657  0.5362  0.6357  0.2559
17487THY    HP620757   7.514   6.879   5.536 -1.2249  0.4204  2.4787
17487THY    HP720758   7.550   6.974   5.682 -0.5773  0.0922 -0.2505
17487THY    CA320759   7.816   7.058   5.727  0.6017 -0.1583  0.3590
17487THY    HA320760   7.718   7.095   5.754  0.1348  0.3070 -1.1220
17487THY    CA420761   7.925   7.097   5.806  0.0612  0.7909  0.0879
17487THY    HA420762   7.907   7.147   5.901 -2.7377 -0.5135  1.8675
17487THY    CA520763   8.055   7.061   5.771 -0.3336 -0.5899  0.1515
17487THY    CM120764   8.178   7.103   5.852 -0.5711  0.0984  0.7526
17487THY    HM120765   8.262   7.129   5.786  0.7969  0.6500 -1.9264
17487THY    HM220766   8.223   7.017   5.903 -0.9658 -2.9962 -1.4527
17487THY    HM320767   8.169   7.176   5.933 -1.9986  2.5697 -1.9403
17487THY    CA620768   8.074   6.987   5.652  0.6206  0.6929 -0.2509
17487THY    HA620769   8.173   6.959   5.618  0.9263  1.0652  0.3808
17488THY      O20770   5.248   6.480   2.686 -0.1015  0.3271 -0.1752
17488THY     HO20771   5.225   6.464   2.593  0.4355  0.1772 -0.1029
17488THY    CA120772   5.194   6.600   2.702 -0.6841 -0.8423 -0.3088
17488THY    CA220773   5.256   6.704   2.785  0.4393 -0.0983  0.4320
17488THY    CP120774   5.393   6.681   2.855 -0.3745 -0.2464 -0.9466
17488THY    HP120775   5.422   6.576   2.856  0.2533 -0.1252 -0.7740
17488THY    CP220776   5.383   6.729   3.000 -0.1666 -1.0440  0.8017
17488THY    HP220777   5.381   6.839   3.004 -0.7920 -0.3869  0.7764
17488THY    HP320778   5.473   6.704   3.057 -0.7932 -0.6721 -0.6772
17488THY    HP420779   5.288   6.697   3.044 -1.3469 -2.9682  1.4813
17488THY    CP320780   5.495   6.762   2.783 -0.2235 -0.4723  0.0727
17488THY    HP520781   5.593   6.738   2.827  0.0958 -0.9176  0.5461
17488THY    HP620782   5.473   6.869   2.789 -3.1705  0.1338 -0.4940
17488THY    HP720783   5.502   6.735   2.677  2.4898 -0.7966  1.6263
17488THY    CA320784   5.189   6.827   2.783 -0.2564 -0.2509 -0.3633
17488THY    HA320785   5.231   6.910   2.839  0.9819 -0.7356 -0.6360
17488THY    CA420786   5.074   6.838   2.707  0.0568 -0.2614 -0.0703
17488THY    HA420787   5.011   6.927   2.706 -0.6051 -1.2582 -0.5396
17488THY    CA520788   5.019   6.734   2.643 -0.3824 -0.0393  0.6576
17488THY    CM120789   4.876   6.747   2.591  0.2803  0.2468  0.3432
17488THY    HM120790   4.880   6.777   2.486  1.7611 -0.7675 -2.9062
17488THY    HM220791   4.816   6.819   2.649 -1.2103  1.2249 -1.5936
17488THY    HM320792   4.816   6.656   2.601 -1.4512 -0.5025  1.3396
17488THY    CA620793   5.078   6.610   2.639  0.0668  0.1852  0.2442
17488THY    HA620794   5.045   6.522   2.585  4.6651 -0.9090 -1.0927
17489THY      O20795   8.753   3.542   6.102  0.4068 -0.0156  0.1184
17489THY     HO20796   8.836   3.538   6.051  0.2507 -0.2161 -1.0558
17489THY    CA120797   8.718   3.668   6.114  0.3237  0.5249 -0.5330
17489THY    CA220798   8.591   3.711   6.108  0.1999  0.6671 -0.5548
17489THY    CP120799   8.473   3.621   6.079 -0.2921  0.1148  0.8133
17489THY    HP120800   8.493   3.559   5.991 -2.3689  0.2516 -0.1243
17489THY    CP220801   8.337   3.692   6.036 -0.9307 -0.2012  0.0688
17489THY    HP220802   8.271   3.609   6.008 -1.0050  0.0395  0.0435
17489THY    HP320803   8.356   3.758   5.951 -1.3240 -1.2557 -1.1268
17489THY    HP420804   8.288   3.740   6.121  0.1896  0.6567 -0.2626
17489THY    CP320805   8.437   3.521   6.191  0.7508  0.2549 -0.3886
17489THY    HP520806   8.404   3.582   6.276 -1.6152 -0.4319 -0.6337
17489THY    HP620807   8.525   3.463   6.223  1.8491  0.9510  1.5695
17489THY    HP720808   8.372   3.441   6.153 -0.4045 -1.6816  1.3787
17489THY    CA320809   8.567   3.852   6.110 -0.3281  0.0284  0.6763
17489THY    HA320810   8.468   3.897   6.109 -0.4842  1.1371  0.3969
17489THY    CA420811   8.674   3.945   6.123  0.2791 -0.4513 -0.0184
17489THY    HA420812   8.657   4.051   6.135 -1.8287 -0.8395 -0.2824
17489THY    CA520813   8.809   3.892   6.118 -0.4115 -0.4584 -0.7744
17489THY    CM120814   8.927   3.981   6.163 -0.0171  0.0456 -0.4132
17489THY    HM120815   8.965   4.027   6.072  0.0540  0.7598  1.0061
17489THY    HM220816   9.013   3.942   6.219  1.8040 -1.3366  1.3596
17489THY    HM320817   8.875   4.060   6.219 -0.3247 -1.9144  0.8481
17489THY    CA620818   8.833   3.753   6.120  0.0027 -0.2543  0.0405
17489THY    HA620819   8.927   3.702   6.142  0.0397 -1.3000 -0.3571
17490THY      O20820   3.678   7.926   3.196 -0.1988 -0.2066  0.3967
17490THY     HO20821   3.745   7.924   3.125 -0.1541 -0.2256  1.6602
17490THY    CA120822   3.736   7.972   3.314  0.1515 -0.1141  0.1419
17490THY    CA220823   3.664   7.975   3.435 -1.8475 -0.3815  0.2726
17490THY    CP120824   3.519   7.943   3.433 -0.2051  0.2196 -0.8480
17490THY    HP120825   3.489   7.914   3.332  0.9298 -0.1157 -0.8970
17490THY    CP220826   3.426   8.060   3.470  0.5592 -0.2287 -0.5185
17490THY    HP220827   3.323   8.031   3.444  0.0358 -0.8301  1.7069
17490THY    HP320828   3.442   8.159   3.426 -2.0637 -1.6282 -0.6233
17490THY    HP420829   3.435   8.082   3.577  2.7187 -0.7761  1.7320
17490THY    CP320830   3.485   7.831   3.528 -0.0254  0.3385 -0.0640
17490THY    HP520831   3.380   7.806   3.504  0.1595 -1.5434  0.7624
17490THY    HP620832   3.489   7.846   3.636  0.3313  0.9486 -3.5695
17490THY    HP720833   3.555   7.749   3.509  0.9576 -1.6684  1.1704
17490THY    CA320834   3.733   7.994   3.554 -0.1271  0.6341  0.0821
17490THY    HA320835   3.678   7.990   3.647  2.1987  2.0617 -0.6408
17490THY    CA420836   3.870   8.018   3.560 -0.1447  0.4231 -0.4000
17490THY    HA420837   3.921   8.050   3.650 -1.1602  1.6247 -1.9883
17490THY    CA520838   3.939   8.026   3.437  0.0367  0.4484  0.2067
17490THY    CM120839   4.090   8.058   3.423 -0.6316  0.3889 -0.4807
17490THY    HM120840   4.154   8.041   3.511 -1.2326  0.6618 -1.4507
17490THY    HM220841   4.093   8.167   3.413 -1.9249  0.2860 -0.4386
17490THY    HM320842   4.137   7.999   3.343 -1.9739 -0.0797 -0.9601
17490THY    CA620843   3.875   7.999   3.317  0.0140 -0.7357 -0.8045
17490THY    HA620844   3.927   7.989   3.222  0.6553 -0.6522  1.2188
17491THY      O20845   3.659   8.103   2.344 -0.2170 -0.4021 -0.0268
17491THY     HO20846   3.669   8.126   2.438 -0.6267 -0.6557  1.2563
17491THY    CA120847   3.782   8.128   2.291  0.7209  0.0330 -0.0276
17491THY    CA220848   3.813   8.128   2.151  0.5522 -0.2450  0.1703
17491THY    CP120849   3.700   8.107   2.047  0.1421 -0.1435 -1.0418
17491THY    HP120850   3.607   8.086   2.100 -1.0227 -2.2432 -1.5020
17491THY    CP220851   3.712   7.983   1.963 -0.1564  0.3247 -0.5198
17491THY    HP220852   3.799   7.986   1.897  1.3505  2.2674 -0.2223
17491THY    HP320853   3.628   7.957   1.896 -1.0494  2.2347 -2.9686
17491THY    HP420854   3.716   7.897   2.031  0.4107  3.0507  1.5506
17491THY    CP320855   3.688   8.233   1.952 -0.1990 -0.6339  0.5426
17491THY    HP520856   3.605   8.219   1.882 -2.3185  1.5112  1.5845
17491THY    HP620857   3.783   8.254   1.902  0.8144  1.3841  0.9814
17491THY    HP720858   3.663   8.320   2.013  2.1618 -0.4185  1.1153
17491THY    CA320859   3.943   8.141   2.110 -0.1110 -0.4617  0.2048
17491THY    HA320860   3.968   8.143   2.005 -0.1786 -0.4774  0.2492
17491THY    CA420861   4.034   8.174   2.209 -0.3010  0.6854  0.0331
17491THY    HA420862   4.137   8.190   2.180  0.0946  1.6144 -0.7048
17491THY    CA520863   4.008   8.187   2.343  0.0080  0.5309 -0.3472
17491THY    CM120864   4.114   8.226   2.441  0.4230 -0.3172  0.0716
17491THY    HM120865   4.189   8.285   2.385  0.2411 -1.2675 -0.5700
17491THY    HM220866   4.152   8.132   2.481  2.8390  1.6377  1.7281
17491THY    HM320867   4.069   8.287   2.520  0.8065  0.5640 -0.7828
17491THY    CA620868   3.880   8.162   2.383 -0.0906 -0.5202  0.1200
17491THY    HA620869   3.858   8.168   2.489 -0.2879 -0.4756 -1.0678
17492THY      O20870   9.111   0.914   5.052 -0.2499  0.3609  0.0793
17492THY     HO20871   9.082   0.833   5.007  1.1974 -0.6075  0.0566
17492THY    CA120872   9.190   0.966   4.951  0.7558 -0.6368 -0.0333
17492THY    CA220873   9.299   1.048   4.980 -0.3702 -0.4311 -0.3230
17492THY    CP120874   9.298   1.118   5.117 -0.1853 -0.0113  0.1207
17492THY    HP120875   9.264   1.047   5.194 -1.7887  0.8472  1.7258
17492THY    CP220876   9.197   1.237   5.119 -0.1280 -0.1972  0.1056
17492THY    HP220877   9.114   1.213   5.051 -0.5576 -0.2398  1.6128
17492THY    HP320878   9.230   1.325   5.063  0.4481 -0.2694 -0.1497
17492THY    HP420879   9.163   1.262   5.220 -1.3565 -0.4772 -0.3629
17492THY    CP320880   9.437   1.167   5.163  0.5112 -0.8250  0.2070
17492THY    HP520881   9.518   1.097   5.142  1.1642 -1.6262  1.1760
17492THY    HP620882   9.423   1.190   5.269  0.0379 -0.8518  0.0601
17492THY    HP720883   9.480   1.259   5.122  0.0086 -0.7575  0.4751
17492THY    CA320884   9.371   1.097   4.867  0.6126  0.2549 -0.0569
17492THY    HA320885   9.438   1.182   4.872  1.2144 -0.5400 -0.4679
17492THY    CA420886   9.352   1.037   4.742 -0.0570  0.1650 -0.2678
17492THY    HA420887   9.404   1.088   4.662 -0.0981  0.0049 -0.4783
17492THY    CA520888   9.250   0.954   4.722 -0.1130  0.8772  0.0794
17492THY    CM120889   9.216   0.890   4.588  0.5450 -0.4050  0.7188
17492THY    HM120890   9.235   0.784   4.604 -2.0925 -0.4600  0.1618
17492THY    HM220891   9.268   0.936   4.503 -0.5371 -1.8406 -0.6069
17492THY    HM320892   9.109   0.888   4.565  0.7328 -1.8911  3.0714
17492THY    CA620893   9.171   0.918   4.825 -0.1511  0.5230 -0.0611
17492THY    HA620894   9.105   0.834   4.804 -0.0589  1.0744 -0.2811
17493THY      O20895   3.976   8.926   3.756 -0.3046  0.1356 -0.2809
17493THY     HO20896   3.937   8.843   3.789  0.1261  0.7449 -0.2460
17493THY    CA120897   3.904   8.967   3.645  0.0752 -1.0459  0.8474
17493THY    CA220898   3.957   9.053   3.548 -0.0078  0.4482 -0.0334
17493THY    CP120899   4.095   9.119   3.554 -0.9213 -0.3266 -0.5602
17493THY    HP120900   4.147   9.078   3.641  0.1331 -1.4933 -1.7895
17493THY    CP220901   4.101   9.271   3.574 -0.3159  0.5957  0.0163
17493THY    HP220902   4.058   9.305   3.669  0.3470  0.5653  0.9880
17493THY    HP320903   4.073   9.330   3.486 -0.2343 -0.8368 -1.9920
17493THY    HP420904   4.207   9.296   3.589  0.1779  1.2274 -2.2374
17493THY    CP320905   4.188   9.079   3.440 -0.4500  1.1405 -0.3778
17493THY    HP520906   4.139   9.109   3.346 -1.7776  0.9753 -2.7908
17493THY    HP620907   4.214   8.972   3.437  0.1399 -3.4688 -0.3119
17493THY    HP720908   4.284   9.130   3.448 -0.5134 -2.3669  0.5673
17493THY    CA320909   3.866   9.083   3.443 -0.1491 -0.0354 -0.3165
17493THY    HA320910   3.898   9.157   3.371  1.1099 -0.3505 -1.1566
17493THY    CA420911   3.737   9.030   3.435 -0.8868 -0.3171  0.4931
17493THY    HA420912   3.670   9.044   3.350 -3.0039  0.7449 -2.1384
17493THY    CA520913   3.692   8.948   3.545  0.5889 -0.7329 -0.0890
17493THY    CM120914   3.548   8.897   3.536  0.1340  0.1148 -0.5297
17493THY    HM120915   3.473   8.977   3.524  1.6648 -0.5650  0.8690
17493THY    HM220916   3.521   8.843   3.627 -1.2711 -0.1362 -0.2957
17493THY    HM320917   3.532   8.839   3.445 -0.5704 -0.4449  0.4968
17493THY    CA620918   3.782   8.908   3.640 -0.0032 -0.3462  0.4966
17493THY    HA620919   3.740   8.853   3.724  2.8787  0.1601 -1.1455
17494THY      O20920   4.771   2.452   7.291  0.2570 -0.1896  0.0629
17494THY     HO20921   4.829   2.507   7.346  1.9025 -1.7699  0.0039
17494THY    CA120922   4.846   2.393   7.194 -0.2518  0.0859 -0.0610
17494THY    CA220923   4.800   2.293   7.094 -0.3728  0.0377 -1.1629
17494THY    CP120924   4.651   2.261   7.085  0.7433  0.1171 -0.2483
17494THY    HP120925   4.595   2.297   7.172 -1.0569 -0.4134 -1.6094
17494THY    CP220926   4.625   2.115   7.089 -0.1522 -0.5287  0.0224
17494THY    HP220927   4.704   2.055   7.043  0.0819 -3.2476  2.2266
17494THY    HP320928   4.528   2.086   7.046  1.0708 -1.9808 -2.1178
17494THY    HP420929   4.619   2.075   7.191  1.4196 -1.4049 -2.6524
17494THY    CP320930   4.596   2.333   6.962  0.3176 -0.4147  0.5468
17494THY    HP520931   4.601   2.442   6.978  0.1901 -3.2142  1.0260
17494THY    HP620932   4.491   2.308   6.948  0.5980 -1.3999 -0.1281
17494THY    HP720933   4.651   2.290   6.878 -0.6465  0.2387 -2.1658
17494THY    CA320934   4.901   2.240   7.012 -0.3880  0.8470 -0.2266
17494THY    HA320935   4.873   2.157   6.946 -0.2221  0.0067  0.3700
17494THY    CA420936   5.041   2.273   7.022 -0.7341  0.2997  0.3715
17494THY    HA420937   5.117   2.233   6.955  0.2551 -0.8955  3.9101
17494THY    CA520938   5.076   2.367   7.113  0.0633 -0.8334 -0.1426
17494THY    CM120939   5.222   2.415   7.122 -0.0135  0.2795 -0.9255
17494THY    HM120940   5.264   2.409   7.021 -0.5371 -0.1750  1.7724
17494THY    HM220941   5.284   2.356   7.190  1.4702  1.8682  2.2123
17494THY    HM320942   5.238   2.515   7.165  2.6455 -1.4027 -0.4993
17494THY    CA620943   4.982   2.426   7.194 -0.6195 -0.7008  1.0512
17494THY    HA620944   5.025   2.491   7.270 -0.7285 -1.2086  1.7341
17495THY      O20945   8.289   7.964   2.602  0.4194  0.4543 -0.1338
17495THY     HO20946   8.247   7.878   2.586 -0.2099 -2.5050  0.6089
17495THY    CA120947   8.365   7.956   2.713  0.2742  0.2968 -0.7094
17495THY    CA220948   8.390   8.069   2.793  0.2870 -0.9534 -0.6231
17495THY    CP120949   8.323   8.202   2.758  0.4175  0.0111  0.0476
17495THY    HP120950   8.281   8.200   2.657  1.5524 -0.5330  1.3781
17495THY    CP220951   8.420   8.326   2.770  0.5787 -0.7571  0.4340
17495THY    HP220952   8.358   8.413   2.744 -0.4244  0.6853  0.1893
17495THY    HP320953   8.512   8.320   2.710  1.7673  0.7904  1.9407
17495THY    HP420954   8.444   8.337   2.877 -0.8997 -0.4187  0.5489
17495THY    CP320955   8.206   8.231   2.852  0.4085 -0.0438  0.6173
17495THY    HP520956   8.154   8.322   2.820 -1.9806 -0.7932 -0.9310
17495THY    HP620957   8.230   8.247   2.958  1.1872  0.2452 -2.0482
17495THY    HP720958   8.126   8.158   2.839  0.2671 -0.1837  0.7941
17495THY    CA320959   8.470   8.051   2.911 -0.0436  0.3490 -0.0098
17495THY    HA320960   8.483   8.139   2.973  0.7198 -1.6235  1.3447
17495THY    CA420961   8.515   7.923   2.949 -0.0742  0.0606  0.0592
17495THY    HA420962   8.578   7.908   3.036  1.1581 -1.0011 -1.1639
17495THY    CA520963   8.511   7.828   2.849  0.1202  0.6210  0.2355
17495THY    CM120964   8.590   7.704   2.862 -0.9354  0.2895  0.6153
17495THY    HM120965   8.693   7.711   2.825 -0.1024  1.9503 -1.5301
17495THY    HM220966   8.540   7.628   2.800 -0.9164  0.3995  0.5140
17495THY    HM320967   8.601   7.651   2.957 -0.8814 -0.6480 -1.1411
17495THY    CA620968   8.419   7.838   2.740  0.2692 -0.0829  0.5359
17495THY    HA620969   8.405   7.750   2.678  2.9473 -0.8106  0.5184
17496THY      O20970   5.200   7.002   3.930  0.4740  0.0849  0.1876
17496THY     HO20971   5.200   7.009   4.027  0.8660  0.2371 -1.4039
17496THY    CA120972   5.331   7.023   3.897  0.5169  0.2928  0.2376
17496THY    CA220973   5.389   7.008   3.770  0.5781 -0.3133 -0.3788
17496THY    CP120974   5.301   6.981   3.649  0.4883  0.2276 -0.0389
17496THY    HP120975   5.198   6.959   3.679  0.0058 -1.0887  0.3307
17496THY    CP220976   5.355   6.861   3.564  0.1406  0.8601  0.2498
17496THY    HP220977   5.452   6.881   3.518 -0.7821 -1.7493 -0.8649
17496THY    HP320978   5.293   6.834   3.478  0.0296  0.3869  1.9442
17496THY    HP420979   5.358   6.774   3.631  0.0457  1.3701  0.6366
17496THY    CP320980   5.282   7.103   3.561 -0.9452 -0.1156  0.5739
17496THY    HP520981   5.232   7.182   3.620 -2.4009 -0.3643 -0.1403
17496THY    HP620982   5.225   7.078   3.471 -0.3915 -0.2246 -0.3330
17496THY    HP720983   5.384   7.131   3.532 -1.4227 -2.0392  0.4607
17496THY    CA320984   5.530   7.024   3.762 -0.4582 -0.3199  0.3883
17496THY    HA320985   5.581   7.009   3.668 -1.6522 -1.4450  2.7822
17496THY    CA420986   5.601   7.046   3.876  0.5090 -0.4821  0.4767
17496THY    HA420987   5.708   7.050   3.861  0.5817 -0.9954 -1.8373
17496THY    CA520988   5.538   7.057   4.007 -1.2405  0.4066  0.0437
17496THY    CM120989   5.617   7.072   4.130 -0.6937 -0.0379  0.3632
17496THY    HM120990   5.607   6.981   4.191 -1.3231 -0.3277  0.2330
17496THY    HM220991   5.584   7.149   4.200  0.4822  0.7274  0.2067
17496THY    HM320992   5.725   7.061   4.114 -0.4488 -0.2609  2.6309
17496THY    CA620993   5.399   7.044   4.013 -0.4779 -0.2183  0.2485
17496THY    HA620994   5.351   7.057   4.109 -1.2469 -0.7517  1.5722
17497THY      O20995   1.022   8.189   4.374 -0.1956  0.5897 -0.4760
17497THY     HO20996   1.095   8.133   4.406  2.1940 -0.8733  1.5998
17497THY    CA120997   1.016   8.166   4.242 -0.2392  0.7049  0.0656
17497THY    CA220998   0.938   8.235   4.153  0.3488 -0.3942  0.1636
17497THY    CP120999   0.861   8.361   4.187 -0.2655 -0.2213 -0.4165
17497THY    HP121000   0.893   8.389   4.288  1.5912 -0.1985 -2.3160
17497THY    CP221001   0.715   8.342   4.194  0.0554  0.1789  0.5210
17497THY    HP221002   0.713   8.236   4.221  1.0594  1.2348  0.7652
17497THY    HP321003   0.674   8.363   4.094  0.6435  0.1731  1.7382
17497THY    HP421004   0.669   8.414   4.263 -1.1218 -1.0811  1.0344
17497THY    CP321005   0.886   8.482   4.096  0.0116  1.0561 -0.3845
17497THY    HP521006   0.819   8.566   4.120  0.9119 -0.4112  0.8161
17497THY    HP621007   0.867   8.455   3.991  3.3731  0.4275 -0.7404
17497THY    HP721008   0.989   8.517   4.112 -0.4751  1.3680  0.9772
17497THY    CA321009   0.931   8.197   4.013  0.1504 -0.1548 -0.7988
17497THY    HA321010   0.852   8.244   3.955 -0.1672  0.7935 -0.1260
17497THY    CA421011   1.013   8.086   3.970  0.4522  0.5646  0.4622
17497THY    HA421012   1.009   8.053   3.867  1.4377  0.9372 -0.9202
17497THY    CA521013   1.108   8.027   4.059  0.5026 -0.7159  0.0884
17497THY    CM121014   1.193   7.910   4.011  0.6655 -0.4302  0.0250
17497THY    HM121015   1.249   7.947   3.925  1.1886  0.3552  1.1284
17497THY    HM221016   1.131   7.825   3.978  1.8346  1.4700 -1.6503
17497THY    HM321017   1.257   7.881   4.095  0.9007  0.9032  3.8318
17497THY    CA621018   1.099   8.060   4.193 -0.2411 -0.0835 -0.4802
17497THY    HA621019   1.155   7.997   4.262  1.7160 -1.6359 -0.5378
17498THY      O21020   8.268   5.961   3.454  0.1562 -0.1097  0.1121
17498THY     HO21021   8.330   6.013   3.401  0.2575 -3.3234 -2.8869
17498THY    CA121022   8.225   6.044   3.554  0.9103  0.5228  0.1230
17498THY    CA221023   8.091   6.050   3.603  0.2309  0.1737 -0.3035
17498THY    CP121024   7.986   5.950   3.554 -0.0792  0.7206  0.0461
17498THY    HP121025   8.036   5.870   3.498  0.9875  1.3154  0.2772
17498THY    CP221026   7.872   6.009   3.472 -0.5779 -0.1397  0.2371
17498THY    HP221027   7.825   5.925   3.419  1.5899 -0.5636 -0.7703
17498THY    HP321028   7.906   6.072   3.388 -0.2278 -2.7620 -3.1721
17498THY    HP421029   7.804   6.062   3.540 -0.5833 -0.1385  0.2287
17498THY    CP321030   7.929   5.886   3.674  0.3013  0.6243 -0.0818
17498THY    HP521031   8.007   5.824   3.722  0.5089 -2.7218 -2.6698
17498THY    HP621032   7.845   5.821   3.648 -0.3344 -0.7530  1.2452
17498THY    HP721033   7.884   5.965   3.736 -0.1393  1.5071 -0.9897
17498THY    CA321034   8.059   6.158   3.693 -0.4952 -0.6711  0.2549
17498THY    HA321035   7.961   6.178   3.734 -0.3128 -0.7810  1.4574
17498THY    CA421036   8.159   6.249   3.720  0.6272 -0.3778 -0.4148
17498THY    HA421037   8.133   6.336   3.780  1.6504 -2.7696  1.6593
17498THY    CA521038   8.286   6.239   3.667 -0.6234 -0.0246  0.3085
17498THY    CM121039   8.391   6.329   3.705 -0.4081 -0.3792  0.0072
17498THY    HM121040   8.356   6.391   3.788 -1.1984 -0.3235 -0.5001
17498THY    HM221041   8.413   6.388   3.615 -0.8060 -0.8426 -0.5282
17498THY    HM321042   8.478   6.274   3.744 -1.3795  1.0086 -0.5839
17498THY    CA621043   8.317   6.131   3.588  0.5011  0.3821 -0.2050
17498THY    HA621044   8.421   6.122   3.556  0.8461  0.5240  2.4332
17499THY      O21045   1.946   0.923   4.190  0.2437  0.2847  0.0732
17499THY     HO21046   1.937   0.929   4.093 -1.5077  0.5160  2.1788
17499THY    CA121047   1.826   0.879   4.237  0.0606  0.3322 -0.3450
17499THY    CA221048   1.799   0.863   4.377  0.4142  0.0827 -0.0651
17499THY    CP121049   1.899   0.905   4.490 -0.2573  0.6683  0.5351
17499THY    HP121050   2.004   0.915   4.460 -0.1806  0.6710 -0.1859
17499THY    CP221051   1.905   0.797   4.600 -0.0363 -0.2467  0.4513
17499THY    HP221052   1.990   0.819   4.665 -1.1650  0.7943  1.9455
17499THY    HP321053   1.905   0.701   4.546 -4.7067  2.9395 -1.7849
17499THY    HP421054   1.810   0.802   4.655 -0.8958 -1.6341  0.0206
17499THY    CP321055   1.856   1.038   4.547 -0.1486  0.0334 -0.4400
17499THY    HP521056   1.936   1.081   4.608 -2.8637  0.7597  4.2852
17499THY    HP621057   1.778   1.024   4.623  1.6775  1.8677 -1.1761
17499THY    HP721058   1.837   1.115   4.472 -0.8990  0.0140 -0.6352
17499THY    CA321059   1.669   0.815   4.413 -0.0700  0.1324  0.6123
17499THY    HA321060   1.640   0.810   4.518 -1.0414 -0.1229  0.6473
17499THY    CA421061   1.579   0.773   4.318  0.2190  0.2848 -0.2710
17499THY    HA421062   1.484   0.731   4.349 -0.0502 -0.0834  0.0709
17499THY    CA521063   1.605   0.790   4.182 -0.2520 -0.0977 -0.3393
17499THY    CM121064   1.510   0.735   4.074  0.1259 -0.3219 -0.1824
17499THY    HM121065   1.406   0.749   4.105  0.0084  0.4524 -2.3371
17499THY    HM221066   1.513   0.629   4.046 -4.4338 -1.4376 -0.2227
17499THY    HM321067   1.523   0.784   3.977  0.6445 -0.6728 -0.9890
17499THY    CA621068   1.732   0.841   4.145 -0.8546  0.2033  0.3269
17499THY    HA621069   1.755   0.833   4.039 -1.7121 -0.0340  0.8595
17500THY      O21070   6.695   8.975   2.550 -0.4989 -0.2765 -0.1917
17500THY     HO21071   6.753   8.902   2.520  0.3070  1.8628 -0.4948
17500THY    CA121072   6.604   8.912   2.625  0.1802  0.5309  0.1463
17500THY    CA221073   6.510   8.967   2.709  0.2913  0.7711 -0.1943
17500THY    CP121074   6.505   9.117   2.719 -0.9374 -0.6841 -0.1388
17500THY    HP121075   6.557   9.168   2.638 -1.8784 -0.6063  1.0027
17500THY    CP221076   6.587   9.171   2.846  0.2199 -0.1445 -0.6143
17500THY    HP221077   6.554   9.135   2.944  1.2257  0.2256 -0.5555
17500THY    HP321078   6.589   9.280   2.842 -0.7662 -0.4598 -0.5998
17500THY    HP421079   6.692   9.139   2.841 -0.2897 -1.3747 -2.2411
17500THY    CP321080   6.364   9.185   2.715  0.0286  0.0994 -0.1066
17500THY    HP521081   6.306   9.177   2.622  0.7708 -0.3329 -0.5911
17500THY    HP621082   6.372   9.294   2.728 -0.7593  1.2330 -0.1716
17500THY    HP721083   6.293   9.150   2.790  1.0599 -0.1987 -3.0906
17500THY    CA321084   6.432   8.887   2.795  0.3735  0.1383 -0.2367
17500THY    HA321085   6.366   8.931   2.869 -0.6009  0.5319 -2.2597
17500THY    CA421086   6.443   8.748   2.788  0.1082 -0.2770  0.2730
17500THY    HA421087   6.387   8.680   2.851 -1.3598  0.5723  2.1827
17500THY    CA521088   6.530   8.692   2.705  0.5511  0.1541 -0.2428
17500THY    CM121089   6.537   8.547   2.689 -0.0721 -0.9427  0.8500
17500THY    HM121090   6.487   8.511   2.598  0.0367 -0.2236 -1.2883
17500THY    HM221091   6.491   8.494   2.773  1.1687 -0.2351  0.8610
17500THY    HM321092   6.640   8.510   2.682 -0.8275 -0.1652 -1.6005
17500THY    CA621093   6.611   8.776   2.623 -0.5117 -0.1164  0.3746
17500THY    HA621094   6.685   8.719   2.568 -0.1843  0.6403  0.0449
17501THY      O21095   3.430   0.883   3.331  0.1462 -0.2598 -1.0757
17501THY     HO21096   3.424   0.933   3.248  2.3173 -0.5122 -1.1478
17501THY    CA121097   3.357   0.951   3.433 -0.1736  0.0793 -0.1561
17501THY    CA221098   3.273   0.873   3.518 -0.4005 -0.1192 -0.4704
17501THY    CP121099   3.256   0.722   3.497 -0.0697 -0.6195  0.5896
17501THY    HP121100   3.307   0.688   3.405  1.6803  0.3321  0.5146
17501THY    CP221101   3.105   0.694   3.462  0.0622 -0.2297 -0.0479
17501THY    HP221102   3.092   0.728   3.359 -0.0138 -0.0921  0.3378
17501THY    HP321103   3.031   0.744   3.524  0.7452 -1.1845  2.2549
17501THY    HP421104   3.084   0.586   3.456 -0.3017 -0.6313  0.0430
17501THY    CP321105   3.297   0.616   3.604  0.5658 -0.1542  0.4621
17501THY    HP521106   3.212   0.602   3.672  1.0456  0.5690  1.0070
17501THY    HP621107   3.381   0.653   3.664 -0.8486  0.5544  2.7507
17501THY    HP721108   3.311   0.520   3.554 -0.7930 -1.3903  0.8668
17501THY    CA321109   3.211   0.940   3.622 -0.3207  0.0062  0.2578
17501THY    HA321110   3.164   0.879   3.699  0.2752 -0.1877 -0.4727
17501THY    CA421111   3.214   1.082   3.626  0.5969 -0.5316 -0.4391
17501THY    HA421112   3.170   1.133   3.711  1.1954 -1.1269  1.1457
17501THY    CA521113   3.292   1.156   3.536  0.7811  0.0083  0.4600
17501THY    CM121114   3.311   1.300   3.542 -0.3400 -0.8015  0.2031
17501THY    HM121115   3.219   1.359   3.553  0.5513 -0.3586  1.5681
17501THY    HM221116   3.351   1.344   3.450  2.3014  0.3174  0.2841
17501THY    HM321117   3.382   1.328   3.620 -0.2012  0.0404 -2.2439
17501THY    CA621118   3.366   1.089   3.439  0.0785 -0.4349  0.0765
17501THY    HA621119   3.431   1.144   3.371  1.9391  1.1049 -0.0912
17502THY      O21120   6.142   8.860   2.644  0.4206 -0.6271 -0.1276
17502THY     HO21121   6.228   8.903   2.630 -0.8310  0.8957  3.2497
17502THY    CA121122   6.154   8.755   2.558 -0.5819  0.6265  0.4646
17502THY    CA221123   6.052   8.660   2.527 -0.0683 -0.1774  0.1208
17502THY    CP121124   5.928   8.665   2.614 -0.1503  0.5094 -0.1867
17502THY    HP121125   5.890   8.767   2.626 -2.2131 -0.2520 -0.8212
17502THY    CP221126   5.952   8.603   2.752  0.1670  0.2963  0.1330
17502THY    HP221127   6.041   8.646   2.799 -0.4413 -0.0764  1.8799
17502THY    HP321128   5.970   8.496   2.739  0.2047  0.6262  0.0994
17502THY    HP421129   5.871   8.617   2.824 -0.5013 -0.4428  0.1192
17502THY    CP321130   5.814   8.593   2.552  0.2658 -0.0026 -0.7835
17502THY    HP521131   5.831   8.488   2.525 -2.1732  1.9155 -1.7901
17502THY    HP621132   5.796   8.641   2.456  0.3815  1.0295  1.4505
17502THY    HP721133   5.724   8.591   2.616  1.4530  1.7848 -3.8531
17502THY    CA321134   6.077   8.573   2.420 -0.4127  0.6269  1.1440
17502THY    HA321135   5.996   8.511   2.382  0.5517  0.2489  0.0618
17502THY    CA421136   6.206   8.571   2.353  0.5594 -0.4252 -0.1436
17502THY    HA421137   6.217   8.503   2.269  1.5439 -0.9412  0.6212
17502THY    CA521138   6.309   8.650   2.398 -0.2841  0.0444  0.2709
17502THY    CM121139   6.446   8.652   2.326  0.3253  0.3565  0.1168
17502THY    HM121140   6.489   8.752   2.320 -1.2268 -1.8789  0.7426
17502THY    HM221141   6.425   8.605   2.228 -0.2943  1.9099 -3.1511
17502THY    HM321142   6.506   8.575   2.376  1.2320 -0.2495  0.4012
17502THY    CA621143   6.278   8.751   2.487 -0.6900 -0.3438  0.5440
17502THY    HA621144   6.363   8.816   2.508  1.4139  0.0844 -2.1556
17503THY      O21145   5.275   0.394   5.198 -0.0533  0.3655 -0.3110
17503THY     HO21146   5.259   0.482   5.159  0.6499  0.3864 -0.1670
17503THY    CA121147   5.188   0.312   5.134 -0.0486  0.2897 -0.1872
17503THY    CA221148   5.234   0.216   5.042  0.0035  0.4292  0.4745
17503THY    CP121149   5.385   0.218   5.008  0.5694  0.3627 -0.5269
17503THY    HP121150   5.447   0.250   5.092 -2.2521  1.7383  1.8464
17503THY    CP221151   5.395   0.319   4.895  0.4696  0.2667  0.7770
17503THY    HP221152   5.502   0.338   4.881  0.9894  1.3010 -1.1319
17503THY    HP321153   5.361   0.412   4.943  2.6910  3.7504 -0.0043
17503THY    HP421154   5.326   0.308   4.811 -1.5618  2.0640 -1.4560
17503THY    CP321155   5.427   0.085   4.951 -0.4383  0.3637  0.4480
17503THY    HP521156   5.397   0.003   5.018  0.1065 -0.8354 -0.7789
17503THY    HP621157   5.537   0.079   4.947 -0.5039 -1.4380 -0.1800
17503THY    HP721158   5.394   0.063   4.849  1.1827  0.2849 -2.0893
17503THY    CA321159   5.136   0.125   4.986 -0.1469 -0.3435  0.0937
17503THY    HA321160   5.161   0.047   4.916  0.6632 -0.2472  0.2597
17503THY    CA421161   5.001   0.138   5.024  0.2578 -0.4082  0.6104
17503THY    HA421162   4.929   0.066   4.986 -0.7244  1.4141  0.5551
17503THY    CA521163   4.962   0.243   5.108 -0.1403  0.3067  1.0983
17503THY    CM121164   4.816   0.262   5.137 -0.0448  0.0810  0.0536
17503THY    HM121165   4.806   0.322   5.228 -0.7487  0.4284 -0.5741
17503THY    HM221166   4.766   0.168   5.161  0.2301 -0.3356 -0.2037
17503THY    HM321167   4.762   0.307   5.053 -1.3027 -0.5345 -2.3969
17503THY    CA621168   5.057   0.325   5.171 -0.2670  0.3085  0.0597
17503THY    HA621169   5.022   0.404   5.237  1.1828  0.5050  0.5775
17504THY      O21170   4.695   8.630   3.176 -0.1839  0.4441 -0.1606
17504THY     HO21171   4.631   8.652   3.106 -0.5188  0.4288 -1.1152
17504THY    CA121172   4.820   8.633   3.120  0.3537  0.0228  0.1831
17504THY    CA221173   4.935   8.638   3.198 -0.3496 -0.3422  0.6633
17504THY    CP121174   4.927   8.654   3.353 -0.1769  0.0146 -0.1040
17504THY    HP121175   4.822   8.679   3.372 -0.4942  0.0845 -1.3782
17504THY    CP221176   5.032   8.748   3.407  0.1505 -0.4275 -0.4888
17504THY    HP221177   5.022   8.841   3.351 -1.0023  1.2984  0.4747
17504THY    HP321178   5.133   8.713   3.384  1.6321  0.0832  3.0778
17504THY    HP421179   5.017   8.772   3.513 -0.0627 -0.6909  0.5638
17504THY    CP321180   4.946   8.520   3.423  0.5852 -0.3835  0.8097
17504THY    HP521181   4.871   8.445   3.394  2.4355  1.1261 -1.8003
17504THY    HP621182   4.933   8.539   3.530 -0.6497 -0.2528 -0.5714
17504THY    HP721183   5.046   8.481   3.400  0.7746  1.3063  0.2285
17504THY    CA321184   5.056   8.641   3.131  0.3601  0.2967 -0.1638
17504THY    HA321185   5.152   8.638   3.183  0.8704 -0.6231 -0.1682
17504THY    CA421186   5.057   8.636   2.993 -0.0646 -0.6283 -0.4601
17504THY    HA421187   5.153   8.646   2.943  0.0175 -0.0176  3.2710
17504THY    CA521188   4.939   8.642   2.915 -0.5163 -0.3195 -0.5760
17504THY    CM121189   4.940   8.645   2.761  0.3228  0.2024 -0.2684
17504THY    HM121190   4.847   8.604   2.722 -0.9667  0.9376  1.7821
17504THY    HM221191   5.028   8.581   2.744  0.3324  1.4606 -0.6254
17504THY    HM321192   4.947   8.748   2.724 -3.3209 -0.5390 -0.1507
17504THY    CA621193   4.823   8.633   2.985 -0.5128 -0.1672  0.3045
17504THY    HA621194   4.728   8.626   2.933 -0.2164 -0.5011 -3.3909
17505THY      O21195   5.207   4.233   5.996  0.3865  0.0127  0.0729
17505THY     HO21196   5.217   4.329   5.988  2.7422  1.4296  0.0260
17505THY    CA121197   5.283   4.189   5.891  0.2632  0.5774  0.4757
17505THY    CA221198   5.291   4.052   5.855 -0.1131  1.0402 -0.5154
17505THY    CP121199   5.226   3.942   5.939 -0.1790 -0.0912 -0.0724
17505THY    HP121200   5.160   3.988   6.013 -1.9188  0.2629 -2.8963
17505THY    CP221201   5.330   3.877   6.033 -0.8440  0.0530 -0.1439
17505THY    HP221202   5.399   3.819   5.970  1.5287  0.4306  2.1045
17505THY    HP321203   5.282   3.812   6.108 -1.4115 -1.4744 -1.5599
17505THY    HP421204   5.389   3.956   6.079  0.0191 -0.7658 -0.2957
17505THY    CP321205   5.154   3.849   5.841  0.4740 -0.2013 -0.1208
17505THY    HP521206   5.226   3.774   5.807 -1.1666 -2.7398 -0.6808
17505THY    HP621207   5.121   3.911   5.757 -1.8329  1.2755  0.7860
17505THY    HP721208   5.072   3.791   5.886  0.1213  0.8461  1.1523
17505THY    CA321209   5.381   4.018   5.749 -0.6079  0.7785 -0.1644
17505THY    HA321210   5.387   3.914   5.718 -2.5169  1.0225 -0.3876
17505THY    CA421211   5.438   4.115   5.667  0.4143  0.6387 -0.3813
17505THY    HA421212   5.487   4.098   5.572 -0.7903 -0.4328  1.6940
17505THY    CA521213   5.430   4.248   5.714 -0.3192 -0.9523  0.1940
17505THY    CM121214   5.471   4.359   5.622  0.5245 -0.2766  0.3317
17505THY    HM121215   5.561   4.407   5.663  0.0720  0.6911  0.3765
17505THY    HM221216   5.392   4.435   5.610  0.7270 -1.9735  0.3042
17505THY    HM321217   5.497   4.314   5.526 -1.7087 -0.7249 -0.1140
17505THY    CA621218   5.348   4.288   5.821 -0.4018  0.2407 -0.6499
17505THY    HA621219   5.331   4.392   5.846  2.3320  1.2273 -0.3541
17506THY      O21220   6.374   6.992   3.997 -0.5408  0.6316 -0.1219
17506THY     HO21221   6.428   6.990   3.917 -1.5027 -0.0472  0.1625
17506THY    CA121222   6.366   6.862   4.038 -0.0174 -0.2812 -0.3869
17506THY    CA221223   6.319   6.831   4.167  0.4370 -0.4566 -0.4720
17506THY    CP121224   6.289   6.942   4.263 -0.3648  0.5266 -0.5278
17506THY    HP121225   6.319   7.040   4.223  2.5366 -0.1627 -1.5852
17506THY    CP221226   6.349   6.932   4.407  0.3716  0.0882 -0.2052
17506THY    HP221227   6.370   6.827   4.429 -2.2918 -0.1798 -0.8451
17506THY    HP321228   6.279   6.981   4.475 -3.5008 -2.0646 -2.2988
17506THY    HP421229   6.446   6.984   4.409  0.2260 -0.4529  0.1036
17506THY    CP321230   6.139   6.950   4.276 -0.6417 -0.1437 -0.1108
17506THY    HP521231   6.091   6.949   4.177  1.4085 -1.3081 -4.2591
17506THY    HP621232   6.124   7.041   4.335  0.9057  0.9968 -0.5475
17506THY    HP721233   6.099   6.864   4.331 -0.0842 -1.0836 -1.0025
17506THY    CA321234   6.303   6.694   4.210  0.1272  0.6922 -0.1239
17506THY    HA321235   6.266   6.666   4.308 -0.3319  0.3045 -0.9202
17506THY    CA421236   6.349   6.598   4.115 -0.3665 -0.4449  0.4552
17506THY    HA421237   6.329   6.494   4.139  3.4553  1.2173 -0.0596
17506THY    CA521238   6.386   6.635   3.986 -0.3388 -0.3198 -0.0062
17506THY    CM121239   6.406   6.525   3.886  0.0398 -0.6160 -0.0166
17506THY    HM121240   6.513   6.508   3.868  0.1716 -0.0104  0.1249
17506THY    HM221241   6.368   6.556   3.788  0.5312 -0.2643  1.8140
17506THY    HM321242   6.353   6.434   3.917 -0.7616 -4.4179 -0.9910
17506THY    CA621243   6.395   6.764   3.950  0.0946  0.2213 -0.6774
17506THY    HA621244   6.425   6.790   3.848  3.4180  1.2526 -0.0203
17507THY      O21245   4.733   6.769   4.602 -0.4476  0.1245  0.0268
17507THY     HO21246   4.770   6.833   4.666 -0.1017  2.3444 -2.2278
17507THY    CA121247   4.828   6.671   4.593  0.2793 -0.4178  0.1535
17507THY    CA221248   4.793   6.542   4.572  0.4598  0.0452 -0.2291
17507THY    CP121249   4.647   6.501   4.559  1.4243 -0.8206  0.3067
17507THY    HP121250   4.590   6.586   4.598 -0.2202 -1.5470 -0.4156
17507THY    CP221251   4.613   6.369   4.627 -0.0095  0.5530 -0.6837
17507THY    HP221252   4.504   6.363   4.631 -0.0965  0.5637  0.5843
17507THY    HP321253   4.649   6.374   4.730  0.7764  0.2821 -0.5668
17507THY    HP421254   4.666   6.282   4.586  3.4296  1.7985  0.6676
17507THY    CP321255   4.616   6.502   4.407  0.0681  0.1286 -0.3067
17507THY    HP521256   4.687   6.436   4.356 -0.4055 -0.6285 -0.2475
17507THY    HP621257   4.629   6.601   4.361  1.8104 -0.5156 -0.7936
17507THY    HP721258   4.513   6.466   4.396 -1.5064  4.2368  2.1922
17507THY    CA321259   4.899   6.444   4.574  0.0371 -0.4736  0.0242
17507THY    HA321260   4.880   6.338   4.557  0.2012 -0.3071 -0.0323
17507THY    CA421261   5.035   6.477   4.598  0.5818 -0.1422  0.7474
17507THY    HA421262   5.118   6.407   4.591  0.7645 -0.6945  1.0085
17507THY    CA521263   5.065   6.615   4.616  0.4924 -0.2899  0.4456
17507THY    CM121264   5.204   6.668   4.632  0.5047  0.5391  0.1109
17507THY    HM121265   5.216   6.766   4.585  1.2580  0.3575 -0.0620
17507THY    HM221266   5.270   6.600   4.576 -2.2313  0.0401 -2.3163
17507THY    HM321267   5.243   6.678   4.734 -0.9186  0.8749  3.7138
17507THY    CA621268   4.965   6.708   4.605  0.2588 -0.4440  0.7981
17507THY    HA621269   4.998   6.811   4.619  3.1427  2.0109 -0.3211
17508THY      O21270   2.211   8.422   2.364  0.0550  0.0241 -0.7254
17508THY     HO21271   2.216   8.371   2.282 -0.1421  0.7898 -2.0215
17508THY    CA121272   2.332   8.476   2.390  0.0082 -0.3600  0.9476
17508THY    CA221273   2.368   8.514   2.519  0.8546  0.2805 -0.0368
17508THY    CP121274   2.265   8.488   2.632 -0.2538 -0.4834 -0.0598
17508THY    HP121275   2.166   8.457   2.594  0.4949 -0.8102 -2.2573
17508THY    CP221276   2.260   8.607   2.737  0.3736 -0.1194  0.2652
17508THY    HP221277   2.340   8.601   2.812 -1.4169  1.9448  0.7645
17508THY    HP321278   2.165   8.603   2.791 -1.5180 -3.2019  0.1133
17508THY    HP421279   2.269   8.701   2.682 -0.1512 -0.4925  0.0998
17508THY    CP321280   2.303   8.371   2.726 -0.4365  0.1380  0.3059
17508THY    HP521281   2.286   8.272   2.683  1.8957  1.1982 -0.6260
17508THY    HP621282   2.242   8.358   2.816 -0.9237  0.1129  2.0869
17508THY    HP721283   2.410   8.368   2.753 -0.5041  0.3306 -1.7677
17508THY    CA321284   2.492   8.585   2.534  0.1338  0.0228  0.1284
17508THY    HA321285   2.530   8.617   2.631  2.4858 -0.4662 -0.9749
17508THY    CA421286   2.579   8.594   2.423 -0.3517  0.3690  0.4162
17508THY    HA421287   2.683   8.619   2.442 -0.1513  1.8203 -1.3641
17508THY    CA521288   2.545   8.542   2.299 -0.0476 -0.1994 -0.0999
17508THY    CM121289   2.653   8.535   2.189 -1.0043 -0.1173  0.5889
17508THY    HM121290   2.670   8.639   2.159  1.5959  0.6964  0.4588
17508THY    HM221291   2.619   8.458   2.118 -3.0548  1.3142  0.0904
17508THY    HM321292   2.751   8.509   2.230 -0.5847  0.5447  2.9665
17508THY    CA621293   2.418   8.485   2.276  0.0720  0.0729 -0.6384
17508THY    HA621294   2.386   8.444   2.181 -0.7865  0.1315 -0.1267
17509THY      O21295   3.628   7.018   4.994  0.4584 -0.2833  0.1374
17509THY     HO21296   3.555   6.976   4.945 -0.3492 -0.4107  1.6125
17509THY    CA121297   3.741   6.951   4.986 -0.5097 -0.4957 -0.8116
17509THY    CA221298   3.851   6.991   5.056 -0.3168 -0.7214  0.0729
17509THY    CP121299   3.840   7.097   5.161 -0.2594 -0.3654 -0.6861
17509THY    HP121300   3.742   7.146   5.157  0.8314 -1.7656  1.5175
17509THY    CP221301   3.930   7.218   5.126  0.8980  0.2710 -0.5265
17509THY    HP221302   3.926   7.243   5.019  0.9319  0.3299 -0.2686
17509THY    HP321303   4.038   7.215   5.145  0.7069  1.6622  0.3999
17509THY    HP421304   3.883   7.308   5.168 -0.4329 -1.6324 -0.2602
17509THY    CP321305   3.867   7.046   5.307 -0.2066 -0.7954 -0.0180
17509THY    HP521306   3.970   7.012   5.323 -0.0240 -1.7392  0.0590
17509THY    HP621307   3.796   6.962   5.314  0.0545  0.8070 -0.1488
17509THY    HP721308   3.826   7.115   5.381  1.3066  0.5222 -0.4615
17509THY    CA321309   3.967   6.922   5.046  0.4272 -0.3339  0.3717
17509THY    HA321310   4.053   6.953   5.105  1.6643 -1.3479 -0.9892
17509THY    CA421311   3.972   6.812   4.963  0.0107  0.2038 -0.5631
17509THY    HA421312   4.066   6.756   4.960  0.5204 -2.2990  0.2929
17509THY    CA521313   3.865   6.778   4.889 -0.2056  0.5423  0.9978
17509THY    CM121314   3.878   6.644   4.816  0.2807  0.2687  0.1805
17509THY    HM121315   3.957   6.578   4.855 -1.0856  1.7238 -0.6721
17509THY    HM221316   3.899   6.664   4.711 -0.4715  0.3912  1.7423
17509THY    HM321317   3.780   6.594   4.820  1.1108  1.7812 -1.4400
17509THY    CA621318   3.744   6.840   4.905 -0.0038 -0.0076 -0.4444
17509THY    HA621319   3.656   6.811   4.849  0.0876  0.2741 -1.2948
17510THY      O21320   2.060   2.119   4.590  0.6629 -0.3504 -0.1936
17510THY     HO21321   2.033   2.058   4.520  0.7069 -0.8493  0.3571
17510THY    CA121322   2.125   2.224   4.541 -0.7859  0.4393  0.5921
17510THY    CA221323   2.223   2.288   4.615  0.1720  0.0014 -0.0194
17510THY    CP121324   2.246   2.276   4.769  0.1936 -0.6371  0.1428
17510THY    HP121325   2.187   2.195   4.814  0.0438  1.3772  1.3021
17510THY    CP221326   2.195   2.388   4.859 -1.1832 -0.1923 -0.0025
17510THY    HP221327   2.234   2.487   4.832 -0.8572 -2.1829 -0.6275
17510THY    HP321328   2.217   2.366   4.964  0.5972 -0.7685 -1.2135
17510THY    HP421329   2.088   2.409   4.847 -0.4874 -3.7727  2.4549
17510THY    CP321330   2.400   2.254   4.803  0.3879 -0.4733 -0.2674
17510THY    HP521331   2.447   2.187   4.730 -0.3521 -1.1369 -0.0758
17510THY    HP621332   2.414   2.216   4.905  0.6269 -0.6119 -0.5497
17510THY    HP721333   2.458   2.347   4.795  0.8368  0.9214 -0.4029
17510THY    CA321334   2.295   2.390   4.550 -0.4813  0.7870  0.5510
17510THY    HA321335   2.376   2.440   4.604  2.3271 -2.8832  0.3537
17510THY    CA421336   2.259   2.429   4.414 -0.5512 -0.3379  0.1940
17510THY    HA421337   2.297   2.519   4.367 -2.7827  2.2706  2.7105
17510THY    CA521338   2.166   2.353   4.347  0.1513 -0.0841  0.1064
17510THY    CM121339   2.115   2.396   4.210 -0.1062  0.3116 -0.4524
17510THY    HM121340   2.052   2.315   4.170 -0.3239  0.4889 -0.3736
17510THY    HM221341   2.197   2.418   4.140  2.1913  1.9414 -3.1878
17510THY    HM321342   2.045   2.480   4.219 -0.8143  1.8819 -1.1697
17510THY    CA621343   2.099   2.253   4.410  0.0450  0.1587 -0.2353
17510THY    HA621344   2.016   2.200   4.364 -0.6618  0.4504  0.5946
17511THY      O21345   2.548   5.260   5.788  0.0563 -0.1598  0.1006
17511THY     HO21346   2.482   5.189   5.796 -1.2361 -0.1234  1.2517
17511THY    CA121347   2.473   5.373   5.776 -0.8898 -0.8117 -0.2508
17511THY    CA221348   2.542   5.492   5.794 -0.3189  0.9451 -0.0930
17511THY    CP121349   2.694   5.490   5.807  0.2895 -0.5398  0.9184
17511THY    HP121350   2.731   5.387   5.822 -0.9208 -0.2093  0.5187
17511THY    CP221351   2.738   5.573   5.933  0.2681  0.0233 -0.0818
17511THY    HP221352   2.678   5.551   6.022 -1.7273 -1.0485  0.6993
17511THY    HP321353   2.737   5.679   5.904  1.0642  1.4202  0.3316
17511THY    HP421354   2.842   5.551   5.958  0.5138  0.3339  1.3296
17511THY    CP321355   2.769   5.539   5.682  0.4210  0.2067 -0.4298
17511THY    HP521356   2.873   5.570   5.697  0.2796 -0.6321  0.4832
17511THY    HP621357   2.723   5.632   5.647  0.1231 -2.4156 -1.4703
17511THY    HP721358   2.761   5.469   5.598  0.9127  0.3049 -0.6013
17511THY    CA321359   2.469   5.609   5.775  0.1559 -0.5078  0.0545
17511THY    HA321360   2.519   5.705   5.779 -1.7815 -2.5302  1.2505
17511THY    CA421361   2.329   5.597   5.758  0.1173 -0.3119  0.0933
17511THY    HA421362   2.277   5.692   5.759  0.9855  0.3685  0.5749
17511THY    CA521363   2.261   5.476   5.753 -0.0300 -0.5380  0.3595
17511THY    CM121364   2.112   5.472   5.758 -0.4633 -0.4493 -0.2273
17511THY    HM121365   2.072   5.569   5.727  0.4566  0.1061  0.3461
17511THY    HM221366   2.080   5.437   5.857  1.1778 -0.5868 -2.3235
17511THY    HM321367   2.075   5.393   5.692 -0.9686  0.8088 -1.0862
17511THY    CA621368   2.336   5.361   5.762  0.1530 -1.2237  0.1883
17511THY    HA621369   2.290   5.263   5.754 -0.9368 -1.2249  0.6783
17512THY      O21370   1.972   8.274   2.599  0.1277  0.3929 -0.4227
17512THY     HO21371   1.940   8.333   2.528  3.3128 -0.1630  0.8451
17512THY    CA121372   1.952   8.331   2.716  0.0625  0.1878  0.8498
17512THY    CA221373   1.949   8.254   2.835  0.1352 -0.2014  0.5371
17512THY    CP121374   1.998   8.115   2.836  0.4308  0.0210  0.3280
17512THY    HP121375   2.074   8.094   2.760  1.5552  2.2187 -5.1323
17512THY    CP221376   1.880   8.023   2.802 -0.1365  0.1230 -0.1875
17512THY    HP221377   1.837   8.048   2.704  0.5909 -0.5789 -1.5770
17512THY    HP321378   1.798   8.046   2.872 -0.5618 -1.0344  2.1325
17512THY    HP421379   1.910   7.918   2.806  0.4044  0.6424 -0.0169
17512THY    CP321380   2.054   8.066   2.970  0.6182  0.2549  0.1933
17512THY    HP521381   2.154   8.107   2.991  0.4684  1.3840 -0.0122
17512THY    HP621382   2.062   7.957   2.957  1.3854  0.6951  0.1872
17512THY    HP721383   1.994   8.085   3.059  2.0192  1.2448  0.1017
17512THY    CA321384   1.907   8.318   2.956 -1.1720  0.5587  0.3846
17512THY    HA321385   1.907   8.267   3.052 -2.7721  1.4430  1.9778
17512THY    CA421386   1.883   8.450   2.954 -0.5696 -0.1307 -1.2352
17512THY    HA421387   1.849   8.505   3.041 -1.1847 -1.6590  0.9868
17512THY    CA521388   1.884   8.527   2.838 -1.0370  0.3086 -0.3096
17512THY    CM121389   1.853   8.676   2.837 -0.2129 -0.1301 -0.1282
17512THY    HM121390   1.884   8.731   2.747  0.9134  0.8134  0.8221
17512THY    HM221391   1.915   8.727   2.912 -0.2394 -0.5534  0.5307
17512THY    HM321392   1.749   8.680   2.869  0.1113  1.0368 -0.7593
17512THY    CA621393   1.916   8.465   2.719  0.4092 -0.3581  0.1066
17512THY    HA621394   1.922   8.519   2.625  0.3977 -1.0978 -1.1312
17513THY      O21395   4.892   4.808   6.681  0.0900  0.3925 -0.2669
17513THY     HO21396   4.943   4.783   6.602 -0.6374  0.4518 -2.1740
17513THY    CA121397   4.845   4.695   6.725 -0.8958  0.2894  0.3358
17513THY    CA221398   4.845   4.662   6.863 -0.4170  0.7598 -0.4542
17513THY    CP121399   4.908   4.761   6.961 -0.4155 -0.3138  0.1900
17513THY    HP121400   4.893   4.868   6.940  1.3002  0.1783  0.5589
17513THY    CP221401   5.061   4.746   6.951 -0.0856  0.2069 -0.2097
17513THY    HP221402   5.116   4.827   7.002 -0.8237 -0.6764  0.8860
17513THY    HP321403   5.099   4.739   6.848  3.2245  1.3848 -1.6308
17513THY    HP421404   5.090   4.650   6.994  0.3574  0.3555 -0.0149
17513THY    CP321405   4.854   4.745   7.106 -0.6399  0.1464  0.0028
17513THY    HP521406   4.745   4.746   7.118 -0.6524  0.0109  0.4150
17513THY    HP621407   4.893   4.820   7.175  0.4998  2.1225 -2.2571
17513THY    HP721408   4.877   4.650   7.156  1.2682 -0.3287  0.1779
17513THY    CA321409   4.811   4.528   6.895  0.5666  0.2096 -0.4630
17513THY    HA321410   4.811   4.494   6.998 -1.7937  0.5070  0.2651
17513THY    CA421411   4.771   4.433   6.790  0.1296 -0.3694 -0.4607
17513THY    HA421412   4.762   4.328   6.814 -0.8099  3.3019  0.3363
17513THY    CA521413   4.776   4.472   6.659 -0.4270  0.1400  0.1739
17513THY    CM121414   4.739   4.382   6.546  0.4613  0.2788  0.6701
17513THY    HM121415   4.826   4.381   6.479  0.4813  0.3085 -0.3064
17513THY    HM221416   4.655   4.424   6.490 -0.3457  0.4990 -0.6215
17513THY    HM321417   4.722   4.277   6.573  2.1362 -0.7201  0.0961
17513THY    CA621418   4.809   4.602   6.633 -0.0798  0.3363 -0.1549
17513THY    HA621419   4.818   4.630   6.529 -1.6215  0.4913  1.0137
17514THY      O21420   4.661   7.344   3.410  0.0923 -0.6716  0.0876
17514THY     HO21421   4.598   7.393   3.354 -1.3415  1.0039  0.2928
17514THY    CA121422   4.590   7.305   3.522  0.2703 -0.4101  0.6407
17514THY    CA221423   4.651   7.264   3.644 -0.0494  0.1135  0.4770
17514THY    CP121424   4.798   7.294   3.674  0.0065 -0.0518 -0.5691
17514THY    HP121425   4.852   7.340   3.591 -0.3187  0.4776  0.8531
17514THY    CP221426   4.879   7.164   3.718  0.2823  0.3235 -0.2251
17514THY    HP221427   4.981   7.192   3.744  0.5651 -1.9956  1.2094
17514THY    HP321428   4.899   7.105   3.628  2.0535 -0.1384  0.9979
17514THY    HP421429   4.816   7.098   3.779 -2.3678 -2.7919 -0.8713
17514THY    CP321430   4.811   7.409   3.785  0.1354  0.1098  0.0469
17514THY    HP521431   4.915   7.414   3.820 -0.2480  1.5074 -1.1024
17514THY    HP621432   4.740   7.375   3.862  1.4880  0.8500 -1.2378
17514THY    HP721433   4.787   7.507   3.741  3.0977  0.1777  0.9163
17514THY    CA321434   4.569   7.222   3.754  0.3259  0.7510  0.2426
17514THY    HA321435   4.610   7.207   3.853 -2.4105  2.2146  1.7881
17514THY    CA421436   4.431   7.205   3.738 -0.5409  0.6112 -0.7098
17514THY    HA421437   4.370   7.180   3.824 -1.0933  0.7456  0.9211
17514THY    CA521438   4.373   7.257   3.618  0.3194 -0.2047  0.3754
17514THY    CM121439   4.218   7.236   3.590 -0.3253 -0.7916 -0.2151
17514THY    HM121440   4.177   7.320   3.532 -1.2087 -0.2157 -0.2367
17514THY    HM221441   4.153   7.218   3.676 -1.3653 -1.7910 -1.4029
17514THY    HM321442   4.206   7.154   3.519  0.2079 -1.3231  0.1523
17514THY    CA621443   4.453   7.302   3.513 -0.0650 -0.0708 -0.2247
17514THY    HA621444   4.412   7.326   3.415  2.1595 -0.9040  0.4499
17515THY      O21445   0.308   1.822   6.090 -0.7348  0.2778  0.1901
17515THY     HO21446   0.257   1.866   6.021 -0.8708  0.1994 -0.0860
17515THY    CA121447   0.332   1.903   6.200 -0.1998 -0.4731  0.8518
17515THY    CA221448   0.410   1.857   6.313 -0.5381  0.8616  0.2430
17515THY    CP121449   0.484   1.723   6.301 -0.4736 -0.1729 -0.5306
17515THY    HP121450   0.484   1.677   6.202 -1.1039 -0.2306 -0.4138
17515THY    CP221451   0.410   1.622   6.394  0.1654 -0.4677  0.8146
17515THY    HP221452   0.304   1.623   6.366 -0.2244  0.9186  0.3894
17515THY    HP321453   0.413   1.646   6.501 -2.3193 -0.2090  0.2425
17515THY    HP421454   0.445   1.519   6.384  0.1886  2.2138  0.4941
17515THY    CP321455   0.629   1.726   6.339  0.1472  0.5592  1.6373
17515THY    HP521456   0.636   1.750   6.446 -1.4209  0.9379  0.6227
17515THY    HP621457   0.684   1.799   6.280  0.5691  0.4599  1.2461
17515THY    HP721458   0.672   1.626   6.323 -0.2947 -1.4040  1.7391
17515THY    CA321459   0.419   1.936   6.422 -0.7369 -0.0638 -0.2833
17515THY    HA321460   0.486   1.906   6.502 -2.8315  2.1687  0.6570
17515THY    CA421461   0.374   2.070   6.415  0.8108  0.7388  0.2047
17515THY    HA421462   0.401   2.137   6.497  1.1813 -0.6786  1.8442
17515THY    CA521463   0.299   2.114   6.301  0.3400 -0.5177 -0.1078
17515THY    CM121464   0.248   2.254   6.308 -1.1275  1.2234 -0.2149
17515THY    HM121465   0.316   2.325   6.259  0.6980 -0.7446 -3.1056
17515THY    HM221466   0.219   2.275   6.412 -1.8578  0.5778  2.2896
17515THY    HM321467   0.156   2.257   6.248 -0.3992 -0.0378 -1.8342
17515THY    CA621468   0.283   2.031   6.194  0.0838 -0.0299 -0.0524
17515THY    HA621469   0.226   2.064   6.108  1.0170 -0.2151  1.1479
17516THY      O21470   1.474   4.106   4.844 -0.3897 -0.4539  0.2926
17516THY     HO21471   1.531   4.135   4.770 -1.3035 -1.4802 -0.4357
17516THY    CA121472   1.355   4.140   4.796  0.0692 -0.5974  0.0892
17516THY    CA221473   1.239   4.099   4.860  0.2834  0.3733  0.6452
17516THY    CP121474   1.244   4.015   4.981  0.2218  0.3691 -0.5175
17516THY    HP121475   1.331   3.949   4.989 -0.1945 -1.6722 -1.3923
17516THY    CP221476   1.135   3.903   4.976 -0.1744  0.2186 -0.3555
17516THY    HP221477   1.035   3.944   4.996 -1.1300  1.5203 -3.0794
17516THY    HP321478   1.161   3.831   5.055  0.6048  0.6913  0.4160
17516THY    HP421479   1.136   3.859   4.876 -2.9514 -0.8692  1.7774
17516THY    CP321480   1.218   4.094   5.109 -0.0728  0.0821 -0.1281
17516THY    HP521481   1.292   4.172   5.126 -0.9921  2.8068  0.2603
17516THY    HP621482   1.232   4.029   5.196 -2.4285 -0.4158 -1.4212
17516THY    HP721483   1.119   4.141   5.103  0.3777 -4.1372  0.6695
17516THY    CA321484   1.114   4.147   4.815 -0.2113  0.0603  0.5713
17516THY    HA321485   1.025   4.132   4.875  0.2639  0.6504  0.0473
17516THY    CA421486   1.120   4.239   4.717  0.4805  0.4406 -0.5002
17516THY    HA421487   1.031   4.292   4.685  1.3246  0.4033  0.9484
17516THY    CA521488   1.234   4.282   4.651  0.6931 -0.5263  0.0942
17516THY    CM121489   1.227   4.387   4.547 -1.0155  0.4510 -0.0047
17516THY    HM121490   1.225   4.339   4.448  3.1065  1.3046 -2.4070
17516THY    HM221491   1.308   4.461   4.555 -0.5345 -0.5519 -0.3983
17516THY    HM321492   1.138   4.450   4.557  0.6953  2.0030  2.3457
17516THY    CA621493   1.350   4.225   4.686 -0.1053 -0.0236 -0.5801
17516THY    HA621494   1.441   4.261   4.641 -0.6696  1.8901  3.9486
17517THY      O21495   9.209   3.319   3.162  0.1580  0.0779  0.3473
17517THY     HO21496   9.153   3.398   3.153 -1.0672 -0.0189 -0.4935
17517THY    CA121497   9.121   3.216   3.151 -0.1983  0.4021 -0.7519
17517THY    CA221498   9.171   3.091   3.105  0.0853  0.5380 -0.0512
17517THY    CP121499   9.328   3.074   3.075 -0.4412 -0.5129  0.3410
17517THY    HP121500   9.365   3.165   3.027  2.1006 -0.2247 -0.4577
17517THY    CP221501   9.356   2.959   2.970  0.2276 -0.3569 -0.7125
17517THY    HP221502   9.334   2.866   3.025 -1.4571  2.0499  0.9704
17517THY    HP321503   9.464   2.959   2.953  0.5745  1.5928  0.0688
17517THY    HP421504   9.297   2.956   2.878 -0.3732  0.0271 -2.2829
17517THY    CP321505   9.424   3.060   3.203  0.0806  0.0671 -0.7040
17517THY    HP521506   9.528   3.064   3.169  0.1038  0.1220  2.7104
17517THY    HP621507   9.395   2.983   3.275 -2.7521 -0.6238 -0.4226
17517THY    HP721508   9.419   3.152   3.263  1.2325  1.8710 -1.7751
17517THY    CA321509   9.083   2.979   3.107 -0.0116  0.2333  0.2247
17517THY    HA321510   9.123   2.882   3.079 -1.3341  0.5322 -0.4266
17517THY    CA421511   8.954   2.996   3.159  0.4429 -0.0924 -0.2989
17517THY    HA421512   8.887   2.910   3.163 -2.0634  0.8133  1.5614
17517THY    CA521513   8.900   3.124   3.177  0.0420 -0.7133  0.0570
17517THY    CM121514   8.753   3.139   3.203  0.9506 -0.0029  0.3351
17517THY    HM121515   8.693   3.128   3.112 -1.6049  1.7500 -1.3997
17517THY    HM221516   8.713   3.229   3.252  0.7512  0.4223  0.0154
17517THY    HM321517   8.736   3.061   3.278 -0.1149  1.5908  1.9935
17517THY    CA621518   8.983   3.236   3.171  0.6013  1.0562 -0.3360
17517THY    HA621519   8.936   3.333   3.185  0.4166 -1.2491 -0.0366
17518THY      O21520   3.030   2.851   5.935 -0.5055 -0.4239 -0.2793
17518THY     HO21521   2.999   2.773   5.983 -3.4436 -0.9750  0.4291
17518THY    CA121522   3.143   2.899   6.003  0.7683  0.0451  0.2648
17518THY    CA221523   3.191   3.033   5.981  0.0708  0.1321  0.4941
17518THY    CP121524   3.109   3.123   5.893 -0.0481 -0.3144  0.0220
17518THY    HP121525   3.006   3.088   5.877 -0.5870 -0.2706  1.5104
17518THY    CP221526   3.174   3.121   5.753  0.3795  0.1959 -0.4790
17518THY    HP221527   3.107   3.174   5.685 -0.6493  0.0417 -1.9403
17518THY    HP321528   3.195   3.020   5.717  0.1808  0.4884 -0.6271
17518THY    HP421529   3.271   3.172   5.750  0.0325  0.3896  0.2108
17518THY    CP321530   3.102   3.275   5.939 -0.1394  0.1302  0.2844
17518THY    HP521531   3.039   3.327   5.865  3.4896 -1.8245  2.2810
17518THY    HP621532   3.204   3.312   5.953  0.6903 -2.4538 -0.7697
17518THY    HP721533   3.062   3.286   6.040 -1.4438 -0.4598  1.2641
17518THY    CA321534   3.316   3.061   6.035  0.1201 -0.0301  0.0399
17518THY    HA321535   3.360   3.158   6.012 -0.7566 -0.3131  0.3790
17518THY    CA421536   3.384   2.968   6.116  0.0146  0.2645  0.1146
17518THY    HA421537   3.476   2.989   6.168  1.1009 -0.8250 -1.6901
17518THY    CA521538   3.319   2.842   6.146  0.1999  0.0714 -0.2925
17518THY    CM121539   3.392   2.741   6.231 -0.0531  0.1899 -0.0958
17518THY    HM121540   3.331   2.718   6.319 -1.1161 -0.4102  0.3010
17518THY    HM221541   3.493   2.777   6.250 -0.2184  1.9617 -0.4891
17518THY    HM321542   3.392   2.648   6.172  0.0155 -2.2967  1.3748
17518THY    CA621543   3.203   2.813   6.087 -0.9777  0.7461  0.9869
17518THY    HA621544   3.177   2.708   6.096 -0.6673  1.5475  0.9723
17519THY      O21545   5.100   6.355   6.626 -0.0787  0.0375 -0.0505
17519THY     HO21546   5.030   6.331   6.689 -0.7653 -1.0017 -0.8862
17519THY    CA121547   5.022   6.378   6.509 -0.5395  0.3829 -0.4920
17519THY    CA221548   5.088   6.390   6.383 -0.6548  0.2730 -0.0002
17519THY    CP121549   5.243   6.378   6.376 -0.0484 -0.1534  0.5526
17519THY    HP121550   5.276   6.324   6.465  0.7473 -0.5087  0.4277
17519THY    CP221551   5.310   6.510   6.366  0.2650 -0.9513  0.2658
17519THY    HP221552   5.280   6.571   6.451  0.4625 -0.8618  0.2388
17519THY    HP321553   5.267   6.571   6.286  0.4754 -1.1010  0.2177
17519THY    HP421554   5.419   6.517   6.363  0.2213 -1.7806  0.7045
17519THY    CP321555   5.280   6.285   6.263 -0.5494 -0.4192  0.8732
17519THY    HP521556   5.263   6.331   6.165  1.9503 -0.9573  0.8065
17519THY    HP621557   5.223   6.191   6.269 -2.5031 -1.0015  1.9674
17519THY    HP721558   5.385   6.254   6.265 -0.8625  0.3948 -0.2404
17519THY    CA321559   5.014   6.403   6.265 -0.0397 -0.0713 -0.3550
17519THY    HA321560   5.057   6.422   6.167 -1.6305 -0.4197  1.8061
17519THY    CA421561   4.880   6.397   6.276 -0.3175  0.1491  0.1930
17519THY    HA421562   4.823   6.405   6.183 -0.4943 -0.3287 -4.2870
17519THY    CA521563   4.815   6.378   6.396 -0.0373  0.2143  0.0226
17519THY    CM121564   4.662   6.356   6.400 -0.1709 -0.0575  0.6602
17519THY    HM121565   4.634   6.275   6.332  1.1985 -0.8917  0.8486
17519THY    HM221566   4.601   6.444   6.382 -0.8058  0.6676  0.3815
17519THY    HM321567   4.641   6.338   6.507  0.2466 -0.3666 -2.1887
17519THY    CA621568   4.886   6.359   6.514  0.3811  0.1372 -0.5318
17519THY    HA621569   4.833   6.325   6.603 -3.3217 -1.8252 -0.3817
17520THY      O21570   8.595   8.268   3.613 -0.2509  1.0790 -0.4360
17520THY     HO21571   8.582   8.360   3.642 -3.0748 -4.4807  1.4069
17520THY    CA121572   8.505   8.252   3.509 -0.0796 -0.3237 -0.3184
17520THY    CA221573   8.472   8.123   3.466  0.0119  0.6095 -1.4346
17520THY    CP121574   8.535   8.008   3.538 -0.1957  0.0430  0.7781
17520THY    HP121575   8.622   8.036   3.599 -0.7603  1.6038 -0.6861
17520THY    CP221576   8.581   7.898   3.429 -0.6721 -0.0970 -0.0453
17520THY    HP221577   8.504   7.878   3.354  0.0203 -0.9498  0.4127
17520THY    HP321578   8.622   7.810   3.480 -1.9616  1.5933  0.2600
17520THY    HP421579   8.671   7.936   3.380 -1.0263 -3.2473 -2.8724
17520THY    CP321580   8.432   7.945   3.627  0.6597  0.5440 -0.4404
17520THY    HP521581   8.330   7.970   3.596  0.8861  0.3589  0.2738
17520THY    HP621582   8.442   7.991   3.726 -0.1781  1.0120 -1.2264
17520THY    HP721583   8.439   7.836   3.634  1.7703 -0.0864 -0.4211
17520THY    CA321584   8.370   8.116   3.372 -0.2764  0.3255 -0.3613
17520THY    HA321585   8.342   8.020   3.329  2.8902  0.3758 -1.4115
17520THY    CA421586   8.324   8.227   3.311  0.0948  0.6198 -0.9110
17520THY    HA421587   8.245   8.214   3.238  1.4734 -0.7908 -1.6183
17520THY    CA521588   8.366   8.356   3.341 -0.8398  0.2500 -0.2685
17520THY    CM121589   8.308   8.471   3.268  0.0589  0.3200  0.2259
17520THY    HM121590   8.300   8.554   3.338  0.5819 -0.6993  1.1534
17520THY    HM221591   8.208   8.451   3.227  0.4723 -0.6968  0.1460
17520THY    HM321592   8.375   8.498   3.186 -0.0403 -0.1198 -0.7946
17520THY    CA621593   8.454   8.373   3.449  0.2879 -1.4638  0.1682
17520THY    HA621594   8.496   8.464   3.490  0.4121  1.2001 -0.9884
17521THY      O21595   0.947   2.327   3.429  0.5310  0.2649 -0.3918
17521THY     HO21596   0.896   2.246   3.447 -0.8794 -0.6417  0.2418
17521THY    CA121597   0.931   2.413   3.539  0.0391  0.1460 -0.0906
17521THY    CA221598   0.948   2.555   3.539 -0.9350  0.3816 -0.6394
17521THY    CP121599   0.984   2.622   3.402  0.0654  0.2083  0.0754
17521THY    HP121600   0.932   2.574   3.318  0.6249 -0.8983  1.3521
17521THY    CP221601   1.125   2.594   3.363 -0.1106  0.8315 -0.1602
17521THY    HP221602   1.195   2.625   3.441  0.6676 -0.0634  0.3917
17521THY    HP321603   1.160   2.660   3.283 -1.4431 -0.3158 -0.8010
17521THY    HP421604   1.149   2.489   3.344  2.9908  0.1796  0.5579
17521THY    CP321605   0.948   2.774   3.395 -0.6251 -0.4657  0.0378
17521THY    HP521606   0.954   2.812   3.292  0.1649 -0.0002  1.2407
17521THY    HP621607   1.026   2.828   3.451  2.7328 -1.7203 -3.0684
17521THY    HP721608   0.847   2.800   3.426  0.0110  3.3423 -1.4357
17521THY    CA321609   0.955   2.629   3.659  0.1771  0.0664  0.5643
17521THY    HA321610   0.995   2.730   3.660  1.4039  2.7701  0.1600
17521THY    CA421611   0.929   2.561   3.781  0.3460  0.1561 -0.3211
17521THY    HA421612   0.935   2.611   3.877  0.8267  0.1282 -0.3269
17521THY    CA521613   0.902   2.422   3.781  0.1739  0.4314 -0.4502
17521THY    CM121614   0.883   2.359   3.915 -0.0949 -0.3091  0.2122
17521THY    HM121615   0.787   2.309   3.931  0.2414 -0.6626 -0.5633
17521THY    HM221616   0.894   2.431   3.996 -0.8740  0.9737 -1.0643
17521THY    HM321617   0.957   2.281   3.936 -2.2496  0.4756 -1.7646
17521THY    CA621618   0.911   2.350   3.662 -0.0315  0.5509  0.8359
17521THY    HA621619   0.918   2.242   3.667 -0.3290 -1.2706  0.7027
17522THY      O21620   8.156   6.950   3.178  0.0983 -0.4483  0.6638
17522THY     HO21621   8.105   6.975   3.100  0.9192 -1.1532  0.1895
17522THY    CA121622   8.108   6.831   3.219 -1.2373 -0.2651  0.6328
17522THY    CA221623   8.144   6.779   3.343 -0.4038  0.2401 -0.0122
17522THY    CP121624   8.263   6.853   3.418  0.8471  0.2665 -0.1382
17522THY    HP121625   8.320   6.904   3.340 -0.7070 -1.1836 -0.5311
17522THY    CP221626   8.366   6.766   3.473  0.3081 -0.1641  1.0463
17522THY    HP221627   8.433   6.729   3.395  0.6842  0.8545 -0.5295
17522THY    HP321628   8.322   6.681   3.527  0.2442  0.1310  1.2662
17522THY    HP421629   8.421   6.809   3.558  0.3879 -0.4432  1.4986
17522THY    CP321630   8.202   6.950   3.523 -0.1747 -0.1033  0.5759
17522THY    HP521631   8.282   7.012   3.566 -1.1224  0.7365  1.2473
17522THY    HP621632   8.132   6.907   3.595 -0.1436 -0.6065 -0.3305
17522THY    HP721633   8.131   7.018   3.474 -2.1922  1.3038 -0.4207
17522THY    CA321634   8.089   6.664   3.387 -0.0061  0.1587  0.2330
17522THY    HA321635   8.123   6.624   3.482  1.4486  1.2998  3.7942
17522THY    CA421636   7.980   6.607   3.317 -0.9662  0.3256  0.4657
17522THY    HA421637   7.938   6.516   3.360  1.3213  0.8816 -0.4095
17522THY    CA521638   7.940   6.658   3.196 -0.6883 -0.1572 -0.8405
17522THY    CM121639   7.840   6.594   3.111  0.7814  0.3336  0.0907
17522THY    HM121640   7.773   6.665   3.062  1.0227  0.5529  0.4718
17522THY    HM221641   7.786   6.522   3.173  0.5731 -0.6387 -0.6103
17522THY    HM321642   7.893   6.521   3.048 -0.0387  0.7661 -0.8855
17522THY    CA621643   8.009   6.770   3.148 -0.3176  0.3187  0.5500
17522THY    HA621644   7.971   6.807   3.053 -0.2498  0.1814  0.2702
17523THY      O21645   6.157   3.753   5.557  0.9538  0.3104  0.6147
17523THY     HO21646   6.169   3.829   5.498  0.1533 -2.4594 -1.2540
17523THY    CA121647   6.027   3.711   5.547 -0.0106 -0.0150 -0.3856
17523THY    CA221648   5.998   3.585   5.487  0.4830  0.5000 -0.7533
17523THY    CP121649   6.104   3.478   5.464 -0.7270  0.1310 -0.1846
17523THY    HP121650   6.203   3.496   5.508 -1.4483  1.5621  0.4953
17523THY    CP221651   6.114   3.472   5.314  0.0700  0.5819 -0.4620
17523THY    HP221652   6.146   3.572   5.281 -2.1967 -1.9242 -0.4539
17523THY    HP321653   6.013   3.461   5.274  0.3920 -0.1957 -0.6477
17523THY    HP421654   6.178   3.388   5.285  3.7080  1.1798  1.8720
17523THY    CP321655   6.066   3.340   5.528 -0.6543 -0.8781  0.3924
17523THY    HP521656   5.998   3.282   5.465  3.2730 -2.3513 -3.1630
17523THY    HP621657   6.033   3.342   5.633  0.6545 -0.4289  3.1696
17523THY    HP721658   6.156   3.278   5.534  0.8618  0.4188  2.5779
17523THY    CA321659   5.857   3.566   5.457  0.1557  0.4617  0.3287
17523THY    HA321660   5.820   3.477   5.405 -1.5072  1.0540  0.6344
17523THY    CA421661   5.762   3.662   5.491 -0.0187 -0.4437 -0.0112
17523THY    HA421662   5.657   3.649   5.465 -0.8940  3.1244 -1.1389
17523THY    CA521663   5.797   3.786   5.545  0.6161  0.1458  0.1110
17523THY    CM121664   5.689   3.889   5.575 -0.6733 -0.3200 -0.3996
17523THY    HM121665   5.624   3.914   5.490  0.0070 -1.0587 -1.0667
17523THY    HM221666   5.730   3.985   5.608 -0.0540 -2.0573 -0.0214
17523THY    HM321667   5.633   3.837   5.653  1.2498  2.0024  0.7883
17523THY    CA621668   5.929   3.805   5.579 -0.3916  0.6419  0.3031
17523THY    HA621669   5.958   3.902   5.620  1.2482  2.0047 -0.7157
17524THY      O21670   1.149   7.286   4.331 -0.4554  0.1958 -0.1367
17524THY     HO21671   1.193   7.208   4.295  1.5073 -0.3777  1.1542
17524THY    CA121672   1.046   7.307   4.249 -0.3382 -0.9801  0.4566
17524THY    CA221673   1.016   7.432   4.202  0.0620  0.6021 -0.6941
17524THY    CP121674   1.099   7.558   4.234  0.3124 -0.4622 -0.3585
17524THY    HP121675   1.091   7.631   4.152  1.7080 -0.6908 -0.4289
17524THY    CP221676   1.249   7.535   4.225 -0.0598  0.0863 -0.9063
17524THY    HP221677   1.301   7.631   4.212  0.2062  0.2042 -1.0346
17524THY    HP321678   1.274   7.476   4.136 -0.2283 -0.8312  0.3402
17524THY    HP421679   1.282   7.484   4.316 -1.5943  0.3037 -1.5739
17524THY    CP321680   1.055   7.631   4.360  0.1082 -0.0491  0.0194
17524THY    HP521681   0.947   7.645   4.355 -0.4581 -1.3162 -3.6322
17524THY    HP621682   1.101   7.730   4.369 -0.5685  0.7593  0.2669
17524THY    HP721683   1.071   7.574   4.453 -0.2674  1.0701  1.6686
17524THY    CA321684   0.895   7.453   4.131 -0.0171 -0.3359 -0.1194
17524THY    HA321685   0.871   7.556   4.105  2.4546  1.7250  1.0932
17524THY    CA421686   0.818   7.345   4.103  0.3389  0.2416 -0.1566
17524THY    HA421687   0.727   7.353   4.045  1.1510 -0.9284  1.0560
17524THY    CA521688   0.851   7.220   4.151 -0.2379  0.8226 -0.0342
17524THY    CM121689   0.759   7.107   4.115 -0.6971  0.0641  0.1937
17524THY    HM121690   0.777   7.016   4.174 -0.9875  0.2411  0.2503
17524THY    HM221691   0.743   7.079   4.010  0.3146  0.4061 -1.8347
17524THY    HM321692   0.655   7.122   4.144 -0.3823  1.4442 -0.2103
17524THY    CA621693   0.962   7.199   4.224  0.7524 -0.0114  0.4299
17524THY    HA621694   0.984   7.097   4.255  2.0048 -1.5683  0.1884
17525THY      O21695   0.744   2.452   1.856  0.4193  0.7932  0.0047
17525THY     HO21696   0.675   2.507   1.816  1.4747  2.0435  2.4096
17525THY    CA121697   0.735   2.455   1.995  0.1239 -0.3054 -0.5536
17525THY    CA221698   0.851   2.468   2.074 -0.4563 -0.1640  0.0922
17525THY    CP121699   0.995   2.462   2.012 -0.1759  0.3045 -0.0156
17525THY    HP121700   1.005   2.378   1.942  0.4311  0.9573 -0.4992
17525THY    CP221701   1.105   2.431   2.112 -0.7781  0.3148 -0.6990
17525THY    HP221702   1.196   2.405   2.057 -0.0961 -1.0695  3.7221
17525THY    HP321703   1.067   2.362   2.189  0.9032  2.9361  1.1199
17525THY    HP421704   1.131   2.522   2.167  1.3928 -0.5284 -0.7515
17525THY    CP321705   1.033   2.596   1.939 -0.1401 -0.5213 -0.5132
17525THY    HP521706   0.960   2.623   1.862  0.6732 -0.9936  0.4000
17525THY    HP621707   1.130   2.596   1.888  0.6471  0.7668  2.5489
17525THY    HP721708   1.040   2.681   2.008  0.4014 -4.1088  2.6082
17525THY    CA321709   0.832   2.491   2.212 -0.1737 -0.0330  0.0284
17525THY    HA321710   0.920   2.493   2.276 -0.6235  0.5806  0.7898
17525THY    CA421711   0.703   2.502   2.271  0.6167  0.3405  0.5543
17525THY    HA421712   0.688   2.497   2.378 -0.5278  0.1237 -2.1239
17525THY    CA521713   0.595   2.500   2.187 -0.4794 -0.4589  0.2115
17525THY    CM121714   0.458   2.508   2.250 -0.0540  0.1266  0.2529
17525THY    HM121715   0.466   2.577   2.335 -2.5839  0.0215  0.7982
17525THY    HM221716   0.439   2.408   2.289  2.8699 -1.9045 -1.2339
17525THY    HM321717   0.380   2.539   2.179  0.4598 -0.2523  0.7051
17525THY    CA621718   0.610   2.478   2.049  0.0867 -0.1226  0.4740
17525THY    HA621719   0.519   2.472   1.991  0.6380 -0.9568  0.0076
17526THY      O21720   1.903   1.596   2.093 -0.3521 -0.2844  0.2936
17526THY     HO21721   1.923   1.540   2.017  2.2852  0.0073  0.7259
17526THY    CA121722   2.007   1.564   2.176  0.2995 -0.0813 -0.1086
17526THY    CA221723   2.038   1.629   2.296  1.0668  0.3415  0.0194
17526THY    CP121724   1.941   1.753   2.337 -0.3416  0.5975 -0.2805
17526THY    HP121725   1.920   1.809   2.245  1.1216  0.1954 -0.3391
17526THY    CP221726   2.014   1.849   2.434  0.1446 -0.0002 -0.2355
17526THY    HP221727   1.948   1.933   2.456  1.6743 -2.9901  1.9152
17526THY    HP321728   2.101   1.891   2.382  0.9518  0.9364 -0.7076
17526THY    HP421729   2.052   1.790   2.518 -0.2299  0.6888  0.4857
17526THY    CP321730   1.816   1.694   2.405 -0.1431 -0.8299 -0.4613
17526THY    HP521731   1.846   1.625   2.485  1.0677 -2.3122 -1.7469
17526THY    HP621732   1.760   1.627   2.338 -0.3541 -0.5117 -0.6050
17526THY    HP721733   1.741   1.768   2.436 -2.9603  0.4426 -3.5589
17526THY    CA321734   2.151   1.590   2.371  0.3406  0.3117 -0.3413
17526THY    HA321735   2.194   1.640   2.458  2.8136 -1.0826  0.0994
17526THY    CA421736   2.223   1.483   2.325 -0.3949  0.3282  0.0607
17526THY    HA421737   2.319   1.457   2.369  0.9200 -2.0921  0.5026
17526THY    CA521738   2.194   1.418   2.205  0.4877 -0.2239  0.3673
17526THY    CM121739   2.284   1.305   2.147 -0.1730 -0.2614 -0.3331
17526THY    HM121740   2.359   1.273   2.221 -1.1670  0.4548 -1.0609
17526THY    HM221741   2.330   1.341   2.054  2.3525  1.2115  0.5469
17526THY    HM321742   2.228   1.215   2.121  0.3782 -2.8036 -0.0058
17526THY    CA621743   2.077   1.449   2.139 -0.8428  0.5706  0.4825
17526THY    HA621744   2.064   1.404   2.041  0.3435  1.1622 -1.2228
17527THY      O21745   1.580   1.711   5.331 -0.2576 -0.0222  0.6088
17527THY     HO21746   1.586   1.780   5.264 -0.8768 -0.5257  0.1833
17527THY    CA121747   1.537   1.768   5.443 -0.0147 -0.0322 -0.7840
17527THY    CA221748   1.523   1.913   5.452  0.3334 -0.5872 -0.0847
17527THY    CP121749   1.583   2.001   5.350 -0.5123 -1.0922 -0.6203
17527THY    HP121750   1.647   1.945   5.281  0.7924  1.0835 -1.9626
17527THY    CP221751   1.672   2.109   5.404 -0.7646  0.3979  0.0188
17527THY    HP221752   1.750   2.058   5.462 -0.6022 -0.1617 -0.3754
17527THY    HP321753   1.624   2.183   5.469 -1.8121  0.4578 -0.6903
17527THY    HP421754   1.704   2.173   5.321 -1.1503  0.9283  0.9243
17527THY    CP321755   1.470   2.062   5.261  0.4726 -0.3585  0.8962
17527THY    HP521756   1.407   1.975   5.236  1.4022 -3.4488  0.9736
17527THY    HP621757   1.508   2.115   5.173 -2.1803 -0.7031  2.4409
17527THY    HP721758   1.408   2.122   5.329 -0.3668  0.3377 -0.7142
17527THY    CA321759   1.455   1.974   5.565 -0.2634  0.6566  0.2137
17527THY    HA321760   1.443   2.082   5.565  2.0306 -2.3039  0.5832
17527THY    CA421761   1.405   1.891   5.665  0.8570  0.3548 -0.0831
17527THY    HA421762   1.342   1.938   5.741  0.6878 -1.3955  2.7234
17527THY    CA521763   1.420   1.752   5.653 -0.0705  0.2275 -0.5157
17527THY    CM121764   1.352   1.667   5.753  0.1202  0.5420 -0.1857
17527THY    HM121765   1.385   1.691   5.855  1.6192  0.3181 -1.1239
17527THY    HM221766   1.377   1.560   5.747  1.3271  0.4817  0.0862
17527THY    HM321767   1.247   1.697   5.750  0.2495 -3.1352  0.3144
17527THY    CA621768   1.483   1.693   5.543  0.3817  0.4173  0.0622
17527THY    HA621769   1.472   1.586   5.537  0.6041 -1.4091  0.1118
17528THY      O21770   2.346   1.594   5.365  0.0227 -0.5257 -0.1626
17528THY     HO21771   2.396   1.655   5.308 -1.4864 -1.7918 -0.0309
17528THY    CA121772   2.214   1.616   5.347 -0.2072  0.3720 -0.2207
17528THY    CA221773   2.111   1.534   5.393  0.9278 -0.4413  0.1283
17528THY    CP121774   2.140   1.394   5.443 -0.1185 -0.6726  0.1898
17528THY    HP121775   2.208   1.344   5.373  1.7183  1.3619 -0.2870
17528THY    CP221776   2.017   1.299   5.455  0.0448 -0.2456  0.6320
17528THY    HP221777   2.049   1.197   5.480 -0.4542  0.0792  0.5501
17528THY    HP321778   1.961   1.283   5.362 -1.1683  0.6876 -0.8343
17528THY    HP421779   1.957   1.324   5.543 -2.1036 -1.5100  0.1688
17528THY    CP321780   2.214   1.392   5.576  0.7336 -0.0608  0.1550
17528THY    HP521781   2.152   1.436   5.655  0.7002 -0.1958  0.3537
17528THY    HP621782   2.304   1.454   5.578  0.1251  0.3201  1.0569
17528THY    HP721783   2.236   1.291   5.611  0.6341  0.6508  0.3740
17528THY    CA321784   1.978   1.587   5.400  0.0433  0.8178 -0.6447
17528THY    HA321785   1.899   1.523   5.437 -2.1143 -1.6948  0.3555
17528THY    CA421786   1.959   1.726   5.365 -0.2897 -0.6007  0.0262
17528THY    HA421787   1.857   1.764   5.361  0.2049 -1.3192  1.3669
17528THY    CA521788   2.061   1.801   5.308  0.8252 -0.2613  0.3325
17528THY    CM121789   2.024   1.943   5.274  0.4527  0.5683  0.5474
17528THY    HM121790   2.062   2.014   5.348  2.3203 -0.1904  0.3933
17528THY    HM221791   1.917   1.954   5.254  0.5410 -0.7635 -0.7312
17528THY    HM321792   2.061   1.966   5.174 -0.7795  0.1677  0.8645
17528THY    CA621793   2.191   1.752   5.301  0.0261 -0.4784 -0.1060
17528THY    HA621794   2.264   1.816   5.253  1.4232  1.7358  0.0618
17529THY      O21795   8.992   2.042   6.465 -0.1652  0.2936  0.2450
17529THY     HO21796   8.984   1.990   6.383  2.2517  1.0630 -1.5169
17529THY    CA121797   8.870   2.033   6.530 -0.1582 -0.0534 -0.4579
17529THY    CA221798   8.852   2.038   6.670 -0.5299 -0.1686 -0.2854
17529THY    CP121799   8.973   2.058   6.762  0.8426 -0.7418 -0.1272
17529THY    HP121800   9.042   2.125   6.708 -2.7597 -4.8312  0.7732
17529THY    CP221801   9.048   1.924   6.775  0.4537 -0.1345 -0.0294
17529THY    HP221802   9.141   1.930   6.831  1.8192 -2.3913  1.9123
17529THY    HP321803   9.089   1.899   6.677  2.8075  0.7371  0.2323
17529THY    HP421804   8.986   1.844   6.816  0.2439 -0.9173 -0.2830
17529THY    CP321805   8.942   2.110   6.907 -0.0349 -0.2385 -0.4282
17529THY    HP521806   8.914   2.023   6.969  1.0098  3.2904  1.5410
17529THY    HP621807   8.853   2.173   6.897 -0.2450  0.7979 -0.5307
17529THY    HP721808   9.033   2.145   6.957  1.5871 -2.5115 -1.2033
17529THY    CA321809   8.720   2.021   6.723 -0.3357 -0.1972  0.2970
17529THY    HA321810   8.716   1.996   6.829  0.4867  0.5359  2.9772
17529THY    CA421811   8.608   2.000   6.638  0.1265  0.6313  1.2841
17529THY    HA421812   8.515   1.974   6.685  0.6411  0.5897 -0.7577
17529THY    CA521813   8.624   1.981   6.499 -0.0894 -0.0395 -0.6556
17529THY    CM121814   8.511   1.944   6.406 -0.8217  0.2952  0.3446
17529THY    HM121815   8.478   2.031   6.348 -1.2335 -0.8787 -0.5692
17529THY    HM221816   8.422   1.911   6.459 -0.9790  0.8520  1.5866
17529THY    HM321817   8.554   1.872   6.335 -2.0648  0.9402 -1.0872
17529THY    CA621818   8.754   2.010   6.451 -0.1258  0.1835 -0.4146
17529THY    HA621819   8.764   2.009   6.342 -2.2740 -0.0565 -1.3189
17530THY      O21820   3.789   4.610   1.780 -0.3116  0.2265  0.2148
17530THY     HO21821   3.805   4.637   1.688  0.5362  0.1229 -0.5877
17530THY    CA121822   3.674   4.671   1.817  0.5174 -0.0533  0.3129
17530THY    CA221823   3.679   4.780   1.899  0.2794 -0.7504 -0.4372
17530THY    CP121824   3.821   4.830   1.945 -0.5914 -0.0692  0.5555
17530THY    HP121825   3.895   4.751   1.960  0.4120 -2.0501  1.0457
17530THY    CP221826   3.820   4.893   2.079  0.3378  0.2041 -0.1050
17530THY    HP221827   3.764   4.837   2.154  0.6993  0.5713  0.0215
17530THY    HP321828   3.761   4.984   2.067  0.7350 -0.6605  0.0523
17530THY    HP421829   3.920   4.923   2.113  2.6770 -2.1395 -4.3174
17530THY    CP321830   3.872   4.929   1.830  0.1126 -0.5507 -0.2278
17530THY    HP521831   3.783   4.980   1.791  0.1597  2.3572  2.3526
17530THY    HP621832   3.923   4.873   1.751  0.0159 -0.5632 -0.2986
17530THY    HP721833   3.930   5.013   1.872 -0.9366 -1.4767  1.0086
17530THY    CA321834   3.558   4.838   1.940 -0.0675 -0.4309  0.2092
17530THY    HA321835   3.549   4.927   2.001 -0.1789  0.6649 -0.5410
17530THY    CA421836   3.443   4.784   1.894 -0.3321 -0.3426  0.0869
17530THY    HA421837   3.347   4.831   1.911 -0.4385 -0.3033 -0.1403
17530THY    CA521838   3.442   4.667   1.814 -0.3821 -0.5995  0.3018
17530THY    CM121839   3.311   4.605   1.775 -0.1323  1.1955  0.3978
17530THY    HM121840   3.265   4.652   1.687  0.3365  0.7106 -0.0300
17530THY    HM221841   3.232   4.612   1.851 -1.9059 -0.3967 -1.0441
17530THY    HM321842   3.315   4.499   1.747  1.3626 -1.2485  1.0126
17530THY    CA621843   3.558   4.615   1.769 -0.3429 -0.1021 -0.4950
17530THY    HA621844   3.561   4.525   1.708 -2.9415 -1.3265  0.1701
17531THY      O21845   6.783   1.304   6.504  0.1052  0.0972  0.2266
17531THY     HO21846   6.788   1.320   6.600  2.7030 -0.0043  0.4718
17531THY    CA121847   6.652   1.275   6.479 -0.0710 -0.5124  0.7305
17531THY    CA221848   6.583   1.316   6.358 -0.2112 -0.3278  0.5779
17531THY    CP121849   6.661   1.396   6.248 -0.0905  0.1707 -0.0088
17531THY    HP121850   6.765   1.419   6.275  0.9408 -2.4422 -1.2933
17531THY    CP221851   6.587   1.523   6.220  0.5332 -0.1136 -0.2829
17531THY    HP221852   6.484   1.510   6.185 -0.6591  2.5831  0.9342
17531THY    HP321853   6.646   1.589   6.155  0.1434 -2.0775 -1.7930
17531THY    HP421854   6.568   1.572   6.317 -0.1740 -0.1037 -0.5574
17531THY    CP321855   6.682   1.321   6.116 -0.4238  0.3868 -0.0857
17531THY    HP521856   6.587   1.273   6.087 -0.2921 -0.1267 -0.0318
17531THY    HP621857   6.760   1.246   6.133 -1.1934 -0.7060 -1.1681
17531THY    HP721858   6.713   1.390   6.037  2.0042  2.6270  1.5869
17531THY    CA321859   6.443   1.283   6.349 -0.3784 -0.3184  0.2213
17531THY    HA321860   6.387   1.296   6.257 -0.9928 -0.1056 -0.8179
17531THY    CA421861   6.378   1.216   6.451  0.3708 -0.4858 -0.0196
17531THY    HA421862   6.271   1.199   6.438 -0.1909  1.8908  1.2237
17531THY    CA521863   6.449   1.174   6.566  1.3150 -0.2976  0.2759
17531THY    CM121864   6.377   1.092   6.682  0.3928 -0.0401 -0.4748
17531THY    HM121865   6.425   1.114   6.778 -1.3608  0.4075  1.7898
17531THY    HM221866   6.382   0.986   6.655 -0.9388 -2.4593  0.0105
17531THY    HM321867   6.274   1.127   6.672  0.6598 -2.6031 -0.1926
17531THY    CA621868   6.579   1.213   6.582  0.0711 -0.6782  0.0761
17531THY    HA621869   6.624   1.178   6.675 -0.1781 -0.4562  0.3305
17532THY      O21870   6.393   1.746   5.620  0.6279 -0.5565  0.0188
17532THY     HO21871   6.484   1.728   5.649 -0.0584  1.6040 -0.2543
17532THY    CA121872   6.368   1.681   5.503 -0.4902  0.0914  0.0564
17532THY    CA221873   6.237   1.656   5.457 -0.2147  0.9250 -0.2203
17532THY    CP121874   6.113   1.704   5.538 -0.0082  0.8288 -0.1552
17532THY    HP121875   6.133   1.736   5.641 -1.4325  1.1576 -0.2992
17532THY    CP221876   6.002   1.594   5.535 -0.3360  0.6377 -0.0874
17532THY    HP221877   5.955   1.581   5.437 -0.0699  0.5547 -0.4369
17532THY    HP321878   5.927   1.628   5.607  0.4380  1.7893 -0.7658
17532THY    HP421879   6.049   1.501   5.568  1.4871  1.7579  1.1554
17532THY    CP321880   6.049   1.826   5.457  0.1361  0.0003 -0.4873
17532THY    HP521881   5.944   1.831   5.488 -0.2389 -1.2534 -0.1761
17532THY    HP621882   6.040   1.810   5.349  0.3084  0.0401 -0.8674
17532THY    HP721883   6.098   1.923   5.472  0.8377  0.4160 -0.8978
17532THY    CA321884   6.221   1.599   5.326 -0.2289  0.9627 -0.4223
17532THY    HA321885   6.121   1.599   5.284 -0.2150  0.9091  0.6694
17532THY    CA421886   6.325   1.558   5.244 -0.6891 -0.0870 -0.1231
17532THY    HA421887   6.309   1.534   5.139 -2.2955  0.3606 -1.1693
17532THY    CA521888   6.459   1.567   5.298 -0.1238 -0.1528 -0.1528
17532THY    CM121889   6.569   1.527   5.213  0.0118 -0.0320  0.0062
17532THY    HM121890   6.664   1.549   5.264  0.4621 -1.2207  0.8521
17532THY    HM221891   6.581   1.587   5.123  1.8572  0.7713  0.9017
17532THY    HM321892   6.549   1.419   5.202 -2.0377 -3.4559  0.5948
17532THY    CA621893   6.482   1.631   5.425 -0.2911 -0.1059  0.2445
17532THY    HA621894   6.585   1.645   5.456 -0.1072  0.2360 -1.5615
17533THY      O21895   6.519   0.578   7.168  0.2963  0.5985 -0.0718
17533THY     HO21896   6.541   0.654   7.111  0.3945 -1.5830 -1.6387
17533THY    CA121897   6.551   0.625   7.290  0.1455  0.2855 -0.3579
17533THY    CA221898   6.476   0.594   7.400 -0.1053  0.2398 -0.0563
17533THY    CP121899   6.346   0.527   7.389 -0.0008  0.0730  0.0807
17533THY    HP121900   6.319   0.502   7.286 -1.6317  0.7370 -1.1042
17533THY    CP221901   6.233   0.600   7.462 -1.0107 -0.1519  0.2061
17533THY    HP221902   6.136   0.557   7.435 -0.4758  0.9165 -1.7663
17533THY    HP321903   6.228   0.706   7.433 -2.9837 -0.1162  0.1620
17533THY    HP421904   6.248   0.619   7.569 -0.5916 -0.4539  1.7564
17533THY    CP321905   6.360   0.383   7.458 -0.1670  0.3711  0.0973
17533THY    HP521906   6.446   0.323   7.426  0.1858 -1.5369  1.5224
17533THY    HP621907   6.265   0.329   7.450 -0.7662 -0.3017  1.2055
17533THY    HP721908   6.371   0.397   7.566 -2.2424  0.7167 -0.5108
17533THY    CA321909   6.517   0.641   7.527  0.0301  0.0300 -0.0056
17533THY    HA321910   6.464   0.598   7.612 -1.8554 -2.0653 -2.1169
17533THY    CA421911   6.632   0.724   7.544  0.0377 -0.6958  0.1932
17533THY    HA421912   6.670   0.753   7.641 -2.4204  0.4603 -0.2385
17533THY    CA521913   6.699   0.764   7.427 -0.2237  0.5682 -0.1656
17533THY    CM121914   6.835   0.827   7.435 -0.2686 -0.2302  0.2210
17533THY    HM121915   6.900   0.792   7.516 -0.3583 -0.6060 -0.8391
17533THY    HM221916   6.830   0.936   7.444 -1.7552 -1.1158  0.2525
17533THY    HM321917   6.895   0.802   7.346  0.9694  0.4331  0.7235
17533THY    CA621918   6.659   0.710   7.303  0.5078 -0.3098 -0.2300
17533THY    HA621919   6.724   0.736   7.220 -0.8427 -0.6920  2.2570
17534THY      O21920   4.230   6.197   2.357 -0.2803 -0.3438  0.5053
17534THY     HO21921   4.209   6.292   2.355 -0.0996 -1.0626  0.5428
17534THY    CA121922   4.107   6.123   2.368  0.5041  0.3880  0.2443
17534THY    CA221923   4.102   5.990   2.329  0.0417  0.1965 -0.0014
17534THY    CP121924   4.236   5.918   2.294 -0.5352 -1.0187  0.0796
17534THY    HP121925   4.330   5.974   2.304  0.7835  0.3924 -2.2057
17534THY    CP221926   4.240   5.850   2.154 -0.1453  0.6192 -0.1326
17534THY    HP221927   4.147   5.794   2.134 -0.9553 -2.2715  1.9762
17534THY    HP321928   4.329   5.788   2.145 -0.5217  2.1143 -0.9380
17534THY    HP421929   4.247   5.925   2.074 -2.9780 -1.5262 -1.9434
17534THY    CP321930   4.245   5.814   2.409 -0.6425  0.7869  0.8747
17534THY    HP521931   4.224   5.859   2.507 -1.8294  0.8542  0.2099
17534THY    HP621932   4.343   5.763   2.409 -0.6270 -3.9018  0.4713
17534THY    HP721933   4.164   5.740   2.401  0.5586 -1.3646 -0.3001
17534THY    CA321934   3.974   5.927   2.304  0.0319 -0.4801 -0.2053
17534THY    HA321935   3.970   5.831   2.255 -1.7146 -0.9216  0.0573
17534THY    CA421936   3.854   6.010   2.324  0.7231 -0.8581 -0.8690
17534THY    HA421937   3.757   5.962   2.310  1.2412 -0.1458 -2.1809
17534THY    CA521938   3.863   6.139   2.372 -0.2983 -0.0042  0.2653
17534THY    CM121939   3.742   6.226   2.407 -0.3742 -0.5740 -0.9745
17534THY    HM121940   3.654   6.173   2.444 -1.0432  1.6408  1.4540
17534THY    HM221941   3.710   6.268   2.310  0.1301 -0.6528 -0.7558
17534THY    HM321942   3.759   6.307   2.479  1.1814  0.8848 -2.5039
17534THY    CA621943   3.990   6.199   2.392  0.5608 -1.0210 -0.1121
17534THY    HA621944   3.992   6.301   2.427  0.1221  0.3414 -0.5527
17535THY      O21945   3.300   8.275   2.393  0.2262 -0.1948 -0.1097
17535THY     HO21946   3.352   8.194   2.385 -0.1573  0.5163 -0.4386
17535THY    CA121947   3.221   8.256   2.501  0.1989 -0.0722 -0.5520
17535THY    CA221948   3.130   8.356   2.545  0.2017  0.1510 -0.0285
17535THY    CP121949   3.106   8.476   2.450  0.4947 -0.3431  0.0720
17535THY    HP121950   3.117   8.435   2.349 -0.0979 -0.8140  1.0454
17535THY    CP221951   3.211   8.586   2.468  0.0542  0.0910  0.2710
17535THY    HP221952   3.222   8.650   2.380 -0.7322 -1.1770 -1.2715
17535THY    HP321953   3.308   8.537   2.480  0.9161 -1.0637  1.6380
17535THY    HP421954   3.206   8.633   2.568 -0.2908  0.3586 -0.3236
17535THY    CP321955   2.963   8.533   2.461 -0.0597 -0.4891 -0.3102
17535THY    HP521956   2.888   8.454   2.451 -0.5944 -3.0982  0.4452
17535THY    HP621957   2.955   8.606   2.379  1.7471 -0.3464  0.0863
17535THY    HP721958   2.957   8.585   2.558 -0.7643  0.1101 -1.4823
17535THY    CA321959   3.045   8.329   2.656  0.1527 -0.1889  0.7033
17535THY    HA321960   2.974   8.400   2.698  0.1820  3.6828 -1.2411
17535THY    CA421961   3.074   8.219   2.737 -0.2137 -0.6881  0.6747
17535THY    HA421962   3.020   8.195   2.828  1.7665 -0.0663 -1.9129
17535THY    CA521963   3.166   8.124   2.696 -0.7284 -1.1095  0.3596
17535THY    CM121964   3.210   8.007   2.782  0.6526 -0.0560 -0.3010
17535THY    HM121965   3.233   7.913   2.730 -1.1646 -0.4724 -0.5427
17535THY    HM221966   3.138   7.984   2.862  0.4115  0.4103  1.8350
17535THY    HM321967   3.303   8.045   2.826  1.2510 -1.7273  0.2486
17535THY    CA621968   3.241   8.146   2.581 -0.3597  0.1971  0.1707
17535THY    HA621969   3.323   8.075   2.569 -1.7938  2.2625 -1.9581
17536THY      O21970   5.619   7.721   6.542  0.3218 -0.4564  0.5180
17536THY     HO21971   5.595   7.785   6.611 -0.5909 -1.2615  1.0760
17536THY    CA121972   5.519   7.737   6.457  0.8175 -0.3459 -0.2359
17536THY    CA221973   5.509   7.659   6.340  1.0592 -0.2192 -0.2876
17536THY    CP121974   5.614   7.553   6.299  0.3080 -0.3735  0.1175
17536THY    HP121975   5.711   7.571   6.347  0.8478 -1.6921  0.8339
17536THY    CP221976   5.651   7.551   6.150  0.0155 -0.5660 -0.6500
17536THY    HP221977   5.641   7.654   6.115 -1.5399  1.2506 -0.1170
17536THY    HP321978   5.593   7.474   6.097 -1.6960 -0.1515  0.3020
17536THY    HP421979   5.758   7.531   6.137  1.2497  1.3783  3.5298
17536THY    CP321980   5.567   7.412   6.345 -0.2711 -1.1697  0.9888
17536THY    HP521981   5.490   7.376   6.276 -0.2274 -1.7785  2.0271
17536THY    HP621982   5.531   7.418   6.449  0.2673 -1.0455  2.4490
17536THY    HP721983   5.648   7.337   6.340 -0.8986 -1.7556  0.3317
17536THY    CA321984   5.406   7.689   6.245  0.8657 -0.3856 -0.6318
17536THY    HA321985   5.404   7.633   6.153  0.2947 -1.0543  0.4477
17536THY    CA421986   5.315   7.796   6.266  0.2111 -0.0635 -0.7251
17536THY    HA421987   5.226   7.819   6.208  0.5382  0.3872  1.9349
17536THY    CA521988   5.320   7.861   6.392  0.0979  0.2394 -0.4899
17536THY    CM121989   5.211   7.954   6.437  0.6022 -0.4027  0.0752
17536THY    HM121990   5.158   7.907   6.520  0.9573  0.5807  1.3470
17536THY    HM221991   5.141   7.980   6.357 -0.0193  0.8466  2.5287
17536THY    HM321992   5.254   8.050   6.467 -1.2436 -2.3761  1.6321
17536THY    CA621993   5.417   7.828   6.484 -1.0553 -0.6587  0.6410
17536THY    HA621994   5.416   7.883   6.577  0.2434  0.2778 -0.8385
17537THY      O21995   9.268   7.604   5.225 -1.0356  0.2814 -0.8377
17537THY     HO21996   9.314   7.633   5.305  2.8967 -1.8584 -0.4632
17537THY    CA121997   9.135   7.626   5.243 -0.1931 -0.1980 -0.8646
17537THY    CA221998   9.046   7.592   5.145  0.4213 -0.2464  0.3349
17537THY    CP121999   9.077   7.484   5.033  0.1795  0.1375 -1.4676
17537THY    HP122000   9.186   7.487   5.017 -0.0541 -1.4542  0.2010
17537THY    CP222001   9.019   7.523   4.896 -0.2339  0.7274 -1.0437
17537THY    HP222002   9.051   7.623   4.863 -3.5151 -1.2774 -0.4889
17537THY    HP322003   8.910   7.533   4.906 -0.0621  0.3235  3.8153
17537THY    HP422004   9.030   7.452   4.813  0.2373  0.2200 -0.3956
17537THY    CP322005   9.030   7.345   5.064  0.0411  0.4049  0.5490
17537THY    HP522006   9.068   7.277   4.987  0.5594  1.2528 -0.1533
17537THY    HP622007   8.921   7.330   5.072 -0.1487 -0.8420  1.1922
17537THY    HP722008   9.053   7.316   5.168 -2.0170  0.5842 -0.6794
17537THY    CA322009   8.914   7.636   5.161  0.3534 -0.4294 -0.1081
17537THY    HA322010   8.840   7.587   5.098  1.8486 -0.7527 -2.1011
17537THY    CA422011   8.873   7.714   5.272  0.1488  0.3681 -0.0345
17537THY    HA422012   8.769   7.738   5.287  0.5437  0.1142  1.9479
17537THY    CA522013   8.964   7.745   5.369 -0.1921  0.6760  0.1068
17537THY    CM122014   8.921   7.826   5.490 -0.0644  0.6719 -0.3697
17537THY    HM122015   8.855   7.767   5.555 -0.1512 -0.1591 -1.2126
17537THY    HM222016   8.858   7.910   5.458 -1.1251  1.4872 -0.8237
17537THY    HM322017   9.007   7.871   5.541 -0.6364  1.2832  0.0580
17537THY    CA622018   9.091   7.697   5.355 -0.1880 -0.0219  0.8425
17537THY    HA622019   9.168   7.723   5.426 -1.5056  2.4555 -1.5617
17538THY      O22020   4.206   4.751   3.763  0.0584 -0.2259  0.0946
17538THY     HO22021   4.295   4.744   3.800  0.3290 -0.7416  0.6831
17538THY    CA122022   4.202   4.875   3.727  0.0032 -0.6166 -0.9621
17538THY    CA222023   4.083   4.942   3.699 -0.5361 -0.0957 -0.3599
17538THY    CP122024   3.951   4.877   3.674  0.6806 -0.6441 -0.2295
17538THY    HP122025   3.955   4.771   3.702 -0.6117 -0.5937 -0.2796
17538THY    CP222026   3.916   4.881   3.525  0.5327 -0.3817  0.6345
17538THY    HP222027   3.821   4.829   3.509  0.0056  4.7428 -0.5954
17538THY    HP322028   4.000   4.845   3.464 -0.2392 -2.8964  2.8188
17538THY    HP422029   3.897   4.983   3.489  2.1672  1.7604  1.7984
17538THY    CP322030   3.837   4.951   3.759  0.2570 -0.3399  0.1356
17538THY    HP522031   3.877   4.949   3.861  0.4843 -0.4344 -0.2053
17538THY    HP622032   3.734   4.916   3.742  0.7217 -1.1367 -0.9057
17538THY    HP722033   3.843   5.056   3.731  0.0694 -0.0854  0.2164
17538THY    CA322034   4.102   5.081   3.672  1.0233  0.1368 -0.2347
17538THY    HA322035   4.014   5.144   3.664 -0.2588  1.4770 -1.7814
17538THY    CA422036   4.221   5.140   3.684  0.8179  1.2764  0.2208
17538THY    HA422037   4.227   5.247   3.671  0.1740 -2.7861 -0.0662
17538THY    CA522038   4.338   5.063   3.698  0.1071  0.5086 -0.1580
17538THY    CM122039   4.463   5.133   3.688  0.1630 -0.3139  1.4643
17538THY    HM122040   4.453   5.236   3.651  0.3237 -1.3952  1.0964
17538THY    HM222041   4.539   5.090   3.622 -0.0340  0.0073  0.6135
17538THY    HM322042   4.501   5.135   3.791 -0.1899 -0.1679  0.6542
17538THY    CA622043   4.326   4.930   3.728 -0.4772 -0.2029 -0.3138
17538THY    HA622044   4.411   4.869   3.757 -2.3621  2.3235 -1.9387
17539THY      O22045   9.085   3.797   2.794  0.0827 -0.2328  0.1208
17539THY     HO22046   9.097   3.884   2.752  2.5263 -0.9623 -0.4829
17539THY    CA122047   9.047   3.822   2.920  0.1545 -0.2713 -0.2218
17539THY    CA222048   8.936   3.763   2.984 -1.1795  0.2313 -0.3882
17539THY    CP122049   8.859   3.658   2.910 -0.6931  0.0332 -0.0582
17539THY    HP122050   8.912   3.643   2.815 -1.3565  0.0360 -2.8271
17539THY    CP222051   8.711   3.693   2.894  0.1583  0.4195 -0.1023
17539THY    HP222052   8.700   3.790   2.846 -1.5435  0.4038 -0.2734
17539THY    HP322053   8.663   3.683   2.992  1.1865  0.8453 -1.1564
17539THY    HP422054   8.662   3.623   2.826  0.7478  0.4633 -0.5677
17539THY    CP322055   8.870   3.525   2.989 -0.0520  0.2155  0.2360
17539THY    HP522056   8.940   3.536   3.073  1.8388 -1.1860 -0.5899
17539THY    HP622057   8.912   3.443   2.931  0.3292 -1.5404  1.6187
17539THY    HP722058   8.776   3.488   3.033 -0.3069 -0.0065  0.6052
17539THY    CA322059   8.900   3.804   3.117  0.8405 -0.1479  0.5634
17539THY    HA322060   8.814   3.754   3.162  0.7531 -0.7046  0.2032
17539THY    CA422061   8.984   3.887   3.180 -1.3375 -0.6418 -0.2364
17539THY    HA422062   8.959   3.926   3.278 -1.0074 -0.2133 -1.0796
17539THY    CA522063   9.098   3.940   3.119 -0.0722 -0.0135  0.0514
17539THY    CM122064   9.174   4.047   3.190 -0.0347  0.1499 -0.2999
17539THY    HM122065   9.110   4.124   3.235  0.1704  1.9457 -1.1053
17539THY    HM222066   9.252   4.081   3.121  0.2049 -0.2393 -1.6049
17539THY    HM322067   9.231   4.005   3.274 -0.6382  0.3303 -0.7696
17539THY    CA622068   9.132   3.905   2.996  0.0114 -0.0205 -0.3353
17539THY    HA622069   9.213   3.960   2.950 -1.5461 -1.0818  1.1839
17540THY      O22070   6.291   5.914   2.517  0.2495 -0.3680  0.1949
17540THY     HO22071   6.251   6.001   2.497 -2.5698 -0.5439 -1.0201
17540THY    CA122072   6.300   5.892   2.645  0.0754  0.3740  0.0168
17540THY    CA222073   6.374   5.786   2.701 -0.1400 -0.0039 -0.2127
17540THY    CP122074   6.456   5.698   2.603 -0.5145  0.3830  0.0516
17540THY    HP122075   6.424   5.715   2.500  0.2142  0.1666  0.1303
17540THY    CP222076   6.445   5.548   2.644 -0.6149  0.3086 -0.1683
17540THY    HP222077   6.521   5.519   2.718 -1.6494  0.9401 -1.3670
17540THY    HP322078   6.452   5.472   2.565 -0.6068  0.6021 -0.4739
17540THY    HP422079   6.343   5.535   2.681 -0.8805  1.0263  3.1519
17540THY    CP322080   6.604   5.732   2.587  0.1411 -0.7742  0.1669
17540THY    HP522081   6.621   5.840   2.580 -4.0969 -2.2514  0.9285
17540THY    HP622082   6.647   5.692   2.494 -0.6241 -0.5053 -1.3398
17540THY    HP722083   6.656   5.708   2.680 -1.8748  0.5485  0.6375
17540THY    CA322084   6.392   5.777   2.838  0.4039 -0.2639  0.2119
17540THY    HA322085   6.454   5.698   2.878 -0.3650  1.2107  0.3274
17540THY    CA422086   6.328   5.867   2.919 -0.6811  0.3199 -0.3056
17540THY    HA422087   6.332   5.847   3.026 -0.1662  0.2595 -0.5553
17540THY    CA522088   6.254   5.974   2.859  0.0843 -0.2496  0.0078
17540THY    CM122089   6.195   6.083   2.942  0.1376 -0.3602 -0.4836
17540THY    HM122090   6.166   6.176   2.893 -1.9162  1.7928  0.1026
17540THY    HM222091   6.256   6.098   3.032 -2.3326  1.5814 -1.3751
17540THY    HM322092   6.101   6.046   2.984 -0.0839 -0.6371 -0.2378
17540THY    CA622093   6.238   5.978   2.727 -0.6090  0.2479 -0.4068
17540THY    HA622094   6.169   6.055   2.695 -2.1335  4.2229  0.1009
17541THY      O22095   3.221   1.255   3.124 -0.1353  0.2608 -0.1762
17541THY     HO22096   3.287   1.295   3.066 -2.2489 -1.1297  1.4821
17541THY    CA122097   3.190   1.362   3.198 -0.3291 -0.0679  0.1783
17541THY    CA222098   3.079   1.352   3.288 -0.3496  0.1503 -0.4202
17541THY    CP122099   3.000   1.226   3.297 -0.5992 -0.2324  0.5684
17541THY    HP122100   3.079   1.150   3.308 -1.0891  0.5929  0.1639
17541THY    CP222101   2.913   1.196   3.171 -1.1391 -0.3685 -0.5798
17541THY    HP222102   2.898   1.089   3.155 -0.1929 -0.4528 -0.7107
17541THY    HP322103   2.964   1.239   3.084 -1.3225  0.8733  2.4392
17541THY    HP422104   2.813   1.241   3.173 -0.6321 -1.2484  0.6444
17541THY    CP322105   2.926   1.200   3.432 -0.0512 -0.5920  1.1033
17541THY    HP522106   2.872   1.105   3.426  0.6959  0.3611  0.5955
17541THY    HP622107   2.853   1.280   3.447 -0.0224  0.5452  0.9285
17541THY    HP722108   2.996   1.210   3.516 -0.7748 -0.1463  2.6689
17541THY    CA322109   3.050   1.468   3.366 -0.6192 -0.5922  0.5350
17541THY    HA322110   2.956   1.472   3.420 -1.0676 -1.3313  0.1041
17541THY    CA422111   3.142   1.573   3.377 -0.1306  0.0678  0.3219
17541THY    HA422112   3.115   1.655   3.443 -2.8493 -2.1761  1.4158
17541THY    CA522113   3.253   1.569   3.295 -0.5156 -0.0514 -0.5071
17541THY    CM122114   3.350   1.687   3.290  0.1809 -0.4005 -0.3235
17541THY    HM122115   3.336   1.746   3.382 -0.2411  0.8011 -2.2194
17541THY    HM222116   3.334   1.742   3.197 -1.4025 -0.5401 -0.9652
17541THY    HM322117   3.447   1.638   3.290 -0.9821 -0.7841 -2.7523
17541THY    CA622118   3.279   1.459   3.204  0.0736 -0.3854 -0.2165
17541THY    HA622119   3.365   1.459   3.138  1.2951  1.1306 -0.7564
17542THY      O22120   6.415   0.280   2.667 -0.4440  0.4107  0.0015
17542THY     HO22121   6.427   0.259   2.762  0.2218 -0.0688 -1.9658
17542THY    CA122122   6.438   0.414   2.650 -0.1847 -0.7190 -0.5900
17542THY    CA222123   6.426   0.474   2.524 -0.0357 -0.3036 -0.5182
17542THY    CP122124   6.390   0.390   2.403  0.1753 -0.3477  0.8042
17542THY    HP122125   6.352   0.292   2.431  1.2943  2.0921  0.9837
17542THY    CP222126   6.515   0.370   2.317  0.5258 -0.4312  0.1550
17542THY    HP222127   6.528   0.458   2.253 -0.5466 -0.7797  0.0788
17542THY    HP322128   6.493   0.295   2.239 -3.2522  0.9274 -0.3843
17542THY    HP422129   6.601   0.342   2.378  1.0132 -1.9878 -2.0136
17542THY    CP322130   6.278   0.459   2.329  0.2726  0.5847  0.8328
17542THY    HP522131   6.317   0.537   2.262 -2.7372 -2.7904 -0.2739
17542THY    HP622132   6.203   0.504   2.394 -3.0523 -2.3175 -0.0837
17542THY    HP722133   6.221   0.391   2.265  1.3953  0.5277 -0.0861
17542THY    CA322134   6.448   0.614   2.507 -0.2351  0.1619  0.6983
17542THY    HA322135   6.421   0.663   2.414 -2.6821 -0.1257 -1.0345
17542THY    CA422136   6.475   0.693   2.622  0.4597 -0.3161 -0.9958
17542THY    HA422137   6.477   0.802   2.615  1.2285 -2.9554 -1.1052
17542THY    CA522138   6.478   0.626   2.749 -0.6217  0.3008 -0.4799
17542THY    CM122139   6.510   0.706   2.871  0.6947  0.7524  0.2306
17542THY    HM122140   6.422   0.770   2.886  0.8592 -0.7374  0.8413
17542THY    HM222141   6.602   0.765   2.871  0.7101 -0.7484  0.2424
17542THY    HM322142   6.518   0.642   2.960 -0.1957  0.7973  0.1612
17542THY    CA622143   6.462   0.490   2.761  0.1433 -0.0437 -0.0077
17542THY    HA622144   6.479   0.444   2.859 -2.1241  1.3700  1.9397
17543THY      O22145   2.678   3.205   5.900  0.0770  0.2925  0.4411
17543THY     HO22146   2.672   3.127   5.842  0.7308  0.5454  0.1946
17543THY    CA122147   2.730   3.298   5.818  0.1842 -0.3868  0.2093
17543THY    CA222148   2.728   3.431   5.860 -0.3064 -0.2852  0.3341
17543THY    CP122149   2.656   3.469   5.989  0.2453 -0.8029  0.1511
17543THY    HP122150   2.670   3.401   6.073 -1.6778  0.2135  0.9364
17543THY    CP222151   2.505   3.476   5.977 -0.4737 -0.0747 -0.0695
17543THY    HP222152   2.468   3.497   6.078  1.3837  0.8640 -1.0520
17543THY    HP322153   2.481   3.375   5.941 -2.2239 -1.7209  0.8785
17543THY    HP422154   2.490   3.549   5.897  1.7995  0.2859  0.8820
17543THY    CP322155   2.697   3.602   6.048 -0.7340 -0.1584  0.3073
17543THY    HP522156   2.804   3.601   6.069 -0.5028 -1.3096 -0.2993
17543THY    HP622157   2.640   3.617   6.140 -0.4406 -0.0460  0.7623
17543THY    HP722158   2.679   3.687   5.981 -0.9976 -0.9251 -0.3367
17543THY    CA322159   2.779   3.539   5.776 -0.1733 -0.0270  0.2658
17543THY    HA322160   2.784   3.645   5.800 -1.3638  0.0434  0.3150
17543THY    CA422161   2.838   3.496   5.657 -0.3107 -0.4502  0.0428
17543THY    HA422162   2.892   3.565   5.593 -1.9260 -3.6046 -1.4149
17543THY    CA522163   2.840   3.360   5.621 -0.3744  0.5372  0.1367
17543THY    CM122164   2.894   3.311   5.489  0.2687  0.0158  0.0478
17543THY    HM122165   2.909   3.203   5.480  0.7674  1.9023 -0.0775
17543THY    HM222166   2.992   3.361   5.485  0.2317 -3.7107  0.0994
17543THY    HM322167   2.835   3.346   5.404  0.1103  0.1172  0.0248
17543THY    CA622168   2.784   3.260   5.702  0.6432  0.8150  0.1176
17543THY    HA622169   2.775   3.157   5.671 -0.6513 -0.8581  0.6892
17544THY      O22170   8.040   7.202   5.349  0.1996  0.4623  0.0227
17544THY     HO22171   8.028   7.106   5.358  0.5246 -0.7331 -0.1449
17544THY    CA122172   7.973   7.230   5.238 -0.0353 -0.3312  0.7540
17544THY    CA222173   7.888   7.346   5.231 -0.3973  0.4948 -0.1787
17544THY    CP122174   7.884   7.441   5.346 -0.4267 -0.5147  0.5259
17544THY    HP122175   7.916   7.394   5.440  0.4628  1.3770  4.5382
17544THY    CP222176   7.751   7.500   5.374  0.0377 -0.1775  1.0822
17544THY    HP222177   7.679   7.419   5.361  0.2660  2.0046  0.4459
17544THY    HP322178   7.733   7.584   5.307 -1.0968 -4.2137 -2.0742
17544THY    HP422179   7.737   7.543   5.474 -1.3828  1.3524 -2.5450
17544THY    CP322180   7.985   7.547   5.324  0.1022 -0.2313  0.2523
17544THY    HP522181   8.085   7.504   5.308  0.7455  2.5747  0.5090
17544THY    HP622182   8.001   7.609   5.413  0.4746  0.4349 -0.7701
17544THY    HP722183   7.965   7.593   5.226  0.2713 -0.7323 -0.7101
17544THY    CA322184   7.833   7.381   5.101 -0.8648  0.9933  0.6234
17544THY    HA322185   7.776   7.473   5.087  0.1435 -0.6862  1.0355
17544THY    CA422186   7.854   7.292   4.993  0.0097  0.0463 -0.2109
17544THY    HA422187   7.803   7.315   4.900 -1.0994  0.7413  0.2171
17544THY    CA522188   7.947   7.190   5.004 -0.2825 -0.3564  0.0309
17544THY    CM122189   7.994   7.116   4.884  0.7943 -0.2060 -0.3914
17544THY    HM122190   8.103   7.105   4.883  0.7752 -0.2588 -0.5895
17544THY    HM222191   7.976   7.152   4.783 -0.4654  0.4417  0.8878
17544THY    HM322192   7.955   7.013   4.881  0.4526 -0.4302 -0.2557
17544THY    CA622193   8.009   7.156   5.127  0.2094  0.1462 -0.4637
17544THY    HA622194   8.080   7.075   5.119 -0.3821 -3.3477 -0.8070
17545THY      O22195   1.935   2.091   6.324  0.3196 -0.7730  0.6598
17545THY     HO22196   1.881   2.013   6.302 -1.2593  1.8281  0.8884
17545THY    CA122197   2.054   2.048   6.372 -0.4133 -0.2479 -0.1629
17545THY    CA222198   2.159   2.136   6.418  0.0933  0.1756  0.3843
17545THY    CP122199   2.142   2.285   6.417  0.3013 -0.1331 -0.4971
17545THY    HP122200   2.056   2.305   6.352 -0.4342  0.7551 -0.7450
17545THY    CP222201   2.261   2.358   6.364 -0.4633  0.1033  0.4538
17545THY    HP222202   2.352   2.359   6.425  0.1863 -0.8241 -0.4004
17545THY    HP322203   2.238   2.464   6.351 -2.6451 -0.7316 -0.0715
17545THY    HP422204   2.279   2.313   6.266 -2.4887  0.2396 -0.7724
17545THY    CP322205   2.118   2.331   6.562 -0.2208  0.1286  0.7243
17545THY    HP522206   2.212   2.320   6.618 -0.1973 -0.3441 -2.4020
17545THY    HP622207   2.048   2.258   6.603 -0.1179 -2.1968 -0.7953
17545THY    HP722208   2.084   2.435   6.566  0.2988  3.4445  0.8531
17545THY    CA322209   2.284   2.079   6.466 -0.2414 -0.0484  0.5040
17545THY    HA322210   2.369   2.145   6.482  0.5975  0.6587 -0.7156
17545THY    CA422211   2.292   1.944   6.479 -0.5397  0.3473  0.7371
17545THY    HA422212   2.379   1.892   6.520 -0.0967 -1.7069 -0.2465
17545THY    CA522213   2.187   1.854   6.443  1.0030  1.1547 -0.2827
17545THY    CM122214   2.197   1.705   6.448  0.3637 -0.5352 -0.0091
17545THY    HM122215   2.302   1.674   6.444  1.6252  1.7506  3.4371
17545THY    HM222216   2.150   1.663   6.358  4.2590 -2.4617 -0.6747
17545THY    HM322217   2.155   1.653   6.535  1.3481 -0.2423 -0.3302
17545THY    CA622218   2.067   1.908   6.389 -0.1397 -0.4804 -0.3176
17545THY    HA622219   1.989   1.845   6.346 -1.0435  0.3963  0.1770
17546THY      O22220   5.823   4.508   4.714  0.0088 -0.5591  0.0159
17546THY     HO22221   5.749   4.509   4.776  0.0865 -0.3515 -2.2645
17546THY    CA122222   5.808   4.379   4.672  0.4902  0.1244  0.3262
17546THY    CA222223   5.912   4.299   4.622 -0.4788 -0.1899 -1.7406
17546THY    CP122224   6.053   4.363   4.613  0.4202 -0.1154  0.5308
17546THY    HP122225   6.053   4.469   4.640 -2.2232  2.7773 -0.0472
17546THY    CP222226   6.117   4.359   4.470 -0.2641  0.2740 -0.1756
17546THY    HP222227   6.222   4.388   4.477  0.0814  1.6281 -1.6254
17546THY    HP322228   6.065   4.410   4.388  0.1067  0.9336  1.3161
17546THY    HP422229   6.122   4.254   4.440 -0.7410  0.5463 -0.2794
17546THY    CP322230   6.145   4.285   4.718  0.8375  0.6693  0.6446
17546THY    HP522231   6.115   4.306   4.821 -0.1414  0.2539  1.4436
17546THY    HP622232   6.247   4.325   4.720  0.5867  0.8713  1.2990
17546THY    HP722233   6.140   4.176   4.711  1.0999  1.0506  0.6066
17546THY    CA322234   5.894   4.167   4.587  0.0899 -0.5322 -0.3378
17546THY    HA322235   5.972   4.105   4.543  0.3198  0.0887 -0.5022
17546THY    CA422236   5.765   4.114   4.607 -0.3086  0.3593 -0.0659
17546THY    HA422237   5.737   4.015   4.570  3.6804 -1.5083 -0.6942
17546THY    CA522238   5.662   4.188   4.662 -0.5178 -0.6796 -0.1807
17546THY    CM122239   5.524   4.143   4.678 -0.1282 -0.4006  0.4619
17546THY    HM122240   5.497   4.160   4.783 -0.3972  0.0581 -2.2684
17546THY    HM222241   5.523   4.034   4.663 -1.6626 -2.1793  0.6739
17546THY    HM322242   5.444   4.184   4.616 -2.0832  0.9851 -1.0145
17546THY    CA622243   5.687   4.321   4.696 -0.3072  0.3711  0.3645
17546THY    HA622244   5.601   4.376   4.733 -1.4024 -0.7241 -0.5537
17547THY      O22245   9.089   6.606   5.662 -0.2570 -0.1766  0.0333
17547THY     HO22246   9.076   6.512   5.640 -2.4460 -1.3150  0.5191
17547THY    CA122247   9.059   6.679   5.552 -0.3307 -0.5416 -0.1538
17547THY    CA222248   9.103   6.815   5.536 -0.4092 -0.0741  0.3119
17547THY    CP122249   9.141   6.898   5.661 -0.0459  0.4536  0.6933
17547THY    HP122250   9.147   6.843   5.756  0.9879  0.5321  0.9157
17547THY    CP222251   9.041   7.012   5.677  0.2122 -0.8187 -1.0178
17547THY    HP222252   8.937   6.977   5.688 -0.9718 -1.0160  2.1335
17547THY    HP322253   9.028   7.070   5.586 -0.6681 -0.3126 -0.3965
17547THY    HP422254   9.073   7.070   5.764 -1.2081 -0.6267 -0.4792
17547THY    CP322255   9.285   6.958   5.652  0.0088 -0.3371  0.0052
17547THY    HP522256   9.364   6.886   5.626  1.4203  1.0848  0.9831
17547THY    HP622257   9.317   6.999   5.749  1.0983  0.3389 -2.2803
17547THY    HP722258   9.285   7.046   5.586  0.3890  0.9308  0.9908
17547THY    CA322259   9.108   6.880   5.410  0.1533 -1.0441 -0.1179
17547THY    HA322260   9.130   6.986   5.404 -1.2705 -1.9237  0.1560
17547THY    CA422261   9.058   6.812   5.303 -0.4426 -0.2117 -0.4951
17547THY    HA422262   9.040   6.868   5.211 -1.7898  1.4540  2.0239
17547THY    CA522263   9.005   6.681   5.320  0.3402  0.1057  0.0338
17547THY    CM122264   8.951   6.609   5.193  0.4406 -0.1376 -0.0476
17547THY    HM122265   8.983   6.646   5.096  3.1402  0.8755  0.4740
17547THY    HM222266   8.842   6.619   5.183  0.3507  0.2367 -0.5693
17547THY    HM322267   8.977   6.503   5.198 -0.4696 -1.8772 -0.3889
17547THY    CA622268   9.006   6.615   5.443  0.0500 -0.2008  0.2100
17547THY    HA622269   8.979   6.510   5.450  1.3458  1.1154 -0.0765
17548THY      O22270   3.764   7.914   4.306 -0.0604  0.4678  0.7223
17548THY     HO22271   3.742   7.821   4.320  1.1829  1.9653  0.6163
17548THY    CA122272   3.861   7.934   4.393  0.3421 -1.0327 -0.4926
17548THY    CA222273   3.942   8.044   4.386  0.0399  0.0425 -0.9664
17548THY    CP122274   3.915   8.152   4.286  0.0793  0.2221 -0.9593
17548THY    HP122275   3.831   8.129   4.220  0.3111 -1.6435  2.7660
17548THY    CP222276   4.026   8.165   4.187 -0.7222  0.2748 -0.3751
17548THY    HP222277   4.046   8.066   4.146 -0.2099  0.4493 -0.3535
17548THY    HP322278   4.120   8.194   4.236 -0.8062  0.7494 -0.8856
17548THY    HP422279   4.002   8.236   4.107 -1.4456  0.3024 -0.5824
17548THY    CP322280   3.886   8.287   4.355 -0.0417  0.1048  0.0680
17548THY    HP522281   3.864   8.357   4.273 -1.8474  0.4238 -0.0684
17548THY    HP622282   3.974   8.321   4.410  0.0835  0.9019 -1.4714
17548THY    HP722283   3.804   8.269   4.425  0.3042  0.3286 -0.6636
17548THY    CA322284   4.052   8.052   4.475  0.0295  0.2870 -0.2319
17548THY    HA322285   4.121   8.136   4.475 -0.5537 -0.0136  0.2540
17548THY    CA422286   4.093   7.940   4.553  0.3997  0.5886  0.1501
17548THY    HA422287   4.188   7.936   4.606  0.7967 -0.1510 -1.4371
17548THY    CA522288   4.016   7.822   4.546 -0.1715 -0.5083  0.1972
17548THY    CM122289   4.054   7.695   4.614  0.0567  0.4293  0.1762
17548THY    HM122290   4.154   7.684   4.657  0.4237 -0.7178 -1.4013
17548THY    HM222291   4.059   7.615   4.539  1.0009  1.6198 -0.9190
17548THY    HM322292   3.978   7.659   4.685  0.0480  0.3181 -0.0291
17548THY    CA622293   3.903   7.826   4.465 -0.2094  0.1117  0.1151
17548THY    HA622294   3.850   7.731   4.461  0.4030 -2.0903 -0.1913
17549THY      O22295   2.171   4.973   2.095 -0.3046  0.0722  0.5092
17549THY     HO22296   2.255   4.960   2.047 -1.1254 -1.3162  0.0433
17549THY    CA122297   2.075   4.931   2.017  0.2097 -0.1209  0.7146
17549THY    CA222298   1.966   4.865   2.075  0.3918 -0.1275  0.2706
17549THY    CP122299   1.945   4.876   2.229 -0.5453 -0.2490 -0.7284
17549THY    HP122300   1.976   4.977   2.259 -0.0758 -0.1201 -0.9120
17549THY    CP222301   2.013   4.762   2.302 -0.0962 -0.6705  0.0371
17549THY    HP222302   2.117   4.740   2.272 -0.6303 -1.1099 -2.1163
17549THY    HP322303   1.948   4.675   2.288 -2.1910  1.1503  1.2114
17549THY    HP422304   2.006   4.769   2.411  0.1070 -0.5246 -1.5506
17549THY    CP322305   1.797   4.880   2.266 -0.1342 -1.2477 -0.3793
17549THY    HP522306   1.793   4.910   2.371 -0.3266 -1.4638  0.3801
17549THY    HP622307   1.743   4.787   2.245  1.9999 -0.9451 -1.7578
17549THY    HP722308   1.749   4.964   2.215  0.9069 -0.0521  0.9848
17549THY    CA322309   1.868   4.805   1.993  0.0585 -0.2399 -0.6521
17549THY    HA322310   1.779   4.758   2.033  0.6156  1.5683 -0.2735
17549THY    CA422311   1.900   4.796   1.860 -0.3688  0.5343  0.0285
17549THY    HA422312   1.833   4.732   1.803 -0.1798 -0.9543  1.1131
17549THY    CA522313   2.009   4.864   1.797 -0.1200  0.8992 -0.0614
17549THY    CM122314   2.022   4.851   1.645 -0.6287 -0.2198  0.0716
17549THY    HM122315   2.063   4.938   1.593 -0.7167 -0.1142  0.1766
17549THY    HM222316   1.923   4.825   1.604 -1.7533  1.5692  1.2684
17549THY    HM322317   2.090   4.768   1.623 -0.8119 -1.1543  0.1580
17549THY    CA622318   2.103   4.924   1.879 -0.4579  0.0065 -1.0769
17549THY    HA622319   2.196   4.970   1.845 -0.6576  0.6975 -0.1320
17550THY      O22320   8.048   7.019   2.934  0.0136 -0.2607 -0.1213
17550THY     HO22321   8.113   7.006   2.863 -0.2420 -0.1908 -2.1555
17550THY    CA122322   7.941   7.090   2.887 -0.5345  0.4550  0.0460
17550THY    CA222323   7.882   7.193   2.961 -0.5081  0.3019  0.7147
17550THY    CP122324   7.925   7.224   3.107 -0.3947 -0.6982 -0.9934
17550THY    HP122325   8.027   7.190   3.129 -0.8249 -0.0328 -1.8848
17550THY    CP222326   7.830   7.166   3.211  0.4887 -0.3831  0.0513
17550THY    HP222327   7.725   7.169   3.178  0.0591  0.6589 -1.7879
17550THY    HP322328   7.850   7.214   3.307  0.8029  0.2584 -1.3274
17550THY    HP422329   7.869   7.065   3.228  1.0834 -0.0494  0.3358
17550THY    CP322330   7.936   7.379   3.127 -0.0573  0.0011 -0.5237
17550THY    HP522331   8.007   7.429   3.060  1.0357  2.7345  1.8464
17550THY    HP622332   7.971   7.416   3.224 -1.8118  1.0885 -1.5806
17550THY    HP722333   7.839   7.425   3.105  0.6604 -0.4743  0.8136
17550THY    CA322334   7.775   7.265   2.900 -0.5249 -0.5880 -0.6021
17550THY    HA322335   7.733   7.352   2.950 -0.3804 -0.3738 -0.6546
17550THY    CA422336   7.747   7.245   2.766 -0.0390 -0.3676  0.7278
17550THY    HA422337   7.675   7.300   2.706  0.5024 -1.5751  0.1704
17550THY    CA522338   7.810   7.141   2.691  0.1512  0.5985 -0.2900
17550THY    CM122339   7.775   7.126   2.540  0.0034  0.0895  0.3878
17550THY    HM122340   7.669   7.099   2.529  0.0525  0.1810  0.1557
17550THY    HM222341   7.850   7.060   2.495  1.4135 -0.2567  2.1481
17550THY    HM322342   7.789   7.220   2.485  1.7632  0.8769  0.6297
17550THY    CA622343   7.901   7.058   2.757 -0.1721  0.7156 -0.0400
17550THY    HA622344   7.967   6.987   2.707  0.3677  0.0038  0.9384
17551THY      O22345   4.961   1.879   5.855 -0.0420  0.5160  0.5463
17551THY     HO22346   5.010   1.962   5.864  1.0451 -4.0773  0.6784
17551THY    CA122347   4.971   1.858   5.724  0.6251  0.0610 -0.7055
17551THY    CA222348   4.883   1.779   5.651  0.2513 -0.0626 -0.7805
17551THY    CP122349   4.751   1.730   5.714 -0.1337  0.2743  0.1859
17551THY    HP122350   4.762   1.748   5.822 -2.9806  0.1623  3.5788
17551THY    CP222351   4.716   1.584   5.708  0.3326  0.0293 -0.1272
17551THY    HP222352   4.615   1.566   5.747 -0.0597  0.3153  2.2716
17551THY    HP322353   4.789   1.538   5.775  0.3416  1.3085  1.6242
17551THY    HP422354   4.744   1.549   5.608  3.3341 -0.2467  2.5895
17551THY    CP322355   4.633   1.810   5.669  0.0690  0.1428 -0.0190
17551THY    HP522356   4.668   1.913   5.675  1.4282 -1.7508 -0.3050
17551THY    HP622357   4.541   1.792   5.726  0.9297  1.1718 -1.3042
17551THY    HP722358   4.609   1.790   5.564  1.0857 -0.8336  3.2695
17551THY    CA322359   4.894   1.765   5.504  0.5823 -0.5561 -0.6708
17551THY    HA322360   4.819   1.715   5.443 -0.5387  1.1323 -1.1425
17551THY    CA422361   5.006   1.834   5.449  0.4007 -0.3459  0.4340
17551THY    HA422362   5.026   1.831   5.342 -0.7822 -0.5698 -1.8932
17551THY    CA522363   5.099   1.898   5.526  0.3610 -0.1311  0.3954
17551THY    CM122364   5.217   1.947   5.461  0.5165 -0.1565  0.4665
17551THY    HM122365   5.247   2.024   5.533 -4.9089  0.8998  2.0117
17551THY    HM222366   5.207   1.989   5.360  0.8380 -0.9662 -1.3012
17551THY    HM322367   5.298   1.873   5.454  0.8232  0.8833  0.6907
17551THY    CA622368   5.084   1.912   5.660 -0.2458 -0.3329 -0.2485
17551THY    HA622369   5.164   1.951   5.722  0.6497  0.6229 -3.3102
17552THY      O22370   4.697   4.425   4.393  0.8910  0.7829  0.2158
17552THY     HO22371   4.655   4.486   4.331  0.1880  0.1468 -0.8830
17552THY    CA122372   4.766   4.323   4.328 -0.8176 -0.1150 -0.6915
17552THY    CA222373   4.754   4.191   4.364  0.4128  1.2526  0.1657
17552THY    CP122374   4.704   4.155   4.500  0.3046 -0.4130 -0.5251
17552THY    HP122375   4.722   4.236   4.571 -1.7040 -1.2585  0.7325
17552THY    CP222376   4.782   4.044   4.566  0.2101  0.4579  0.5399
17552THY    HP222377   4.889   4.064   4.577  0.5603  0.3855 -1.1052
17552THY    HP322378   4.761   3.950   4.513 -1.2039  0.9113  0.5650
17552THY    HP422379   4.734   4.036   4.664  0.0349  0.3097 -0.4749
17552THY    CP322380   4.554   4.134   4.505 -0.4863  0.5182 -0.3808
17552THY    HP522381   4.519   4.131   4.608  0.5244  0.9430  1.3992
17552THY    HP622382   4.548   4.039   4.450  1.9877 -0.7099  0.0772
17552THY    HP722383   4.505   4.217   4.453  0.1736 -2.9849 -1.9912
17552THY    CA322384   4.820   4.101   4.273  0.3844 -0.3490  0.4661
17552THY    HA322385   4.820   3.994   4.295  0.5289 -1.8532  0.1386
17552THY    CA422386   4.895   4.142   4.164 -0.6419 -0.3220  0.0131
17552THY    HA422387   4.946   4.073   4.097 -1.8683 -0.0136 -1.2531
17552THY    CA522388   4.904   4.278   4.133  0.2413 -0.1586  0.4676
17552THY    CM122389   4.981   4.324   4.014 -0.4049  0.2687  0.7689
17552THY    HM122390   4.940   4.414   3.967 -0.7710 -2.4614 -0.7050
17552THY    HM222391   4.968   4.246   3.938  0.9508  1.8044 -1.0223
17552THY    HM322392   5.088   4.326   4.035 -0.7208  2.1978 -0.5122
17552THY    CA622393   4.837   4.369   4.215 -0.5821  0.0778  0.7575
17552THY    HA622394   4.847   4.474   4.189 -2.6975 -1.4514  0.6482
17553THY      O22395   6.742   2.908   2.513  0.0370  0.1698  0.3075
17553THY     HO22396   6.768   2.850   2.585 -1.3779  1.7756  1.5595
17553THY    CA122397   6.668   2.993   2.582  0.5417  0.3406  0.7815
17553THY    CA222398   6.572   3.079   2.526 -0.1611  0.4967  0.3796
17553THY    CP122399   6.546   3.077   2.379  0.7087  0.8312  0.0180
17553THY    HP122400   6.619   3.012   2.328 -0.4951  0.0577 -0.7688
17553THY    CP222401   6.568   3.216   2.323  0.0962  0.3136 -0.1132
17553THY    HP222402   6.667   3.254   2.350  0.4184 -1.9578  0.8302
17553THY    HP322403   6.492   3.285   2.361 -0.5516 -2.2028  0.6863
17553THY    HP422404   6.558   3.222   2.214 -0.7715  0.4500  1.9960
17553THY    CP322405   6.404   3.031   2.343  0.2759 -0.1030  0.2223
17553THY    HP522406   6.404   2.923   2.359  0.6595  1.7603  0.4679
17553THY    HP622407   6.367   3.051   2.242 -0.7512 -0.3080 -2.3972
17553THY    HP722408   6.341   3.090   2.412  1.5666 -0.4775  2.1380
17553THY    CA322409   6.505   3.163   2.615  0.2573 -0.4327 -0.0447
17553THY    HA322410   6.430   3.234   2.580  0.3378 -0.5152 -0.0006
17553THY    CA422411   6.526   3.154   2.757 -0.1493  0.2258 -0.7091
17553THY    HA422412   6.473   3.220   2.825 -0.3792 -0.9871  0.4093
17553THY    CA522413   6.607   3.054   2.810 -0.6825  0.1926 -0.2118
17553THY    CM122414   6.616   3.018   2.953 -0.4841 -0.4899  0.0320
17553THY    HM122415   6.521   3.042   3.003  0.7163  1.2022  1.5326
17553THY    HM222416   6.692   3.072   3.010 -1.0523  1.4647 -1.1507
17553THY    HM322417   6.635   2.911   2.965 -4.2093 -0.4165 -0.7629
17553THY    CA622418   6.687   2.980   2.722  0.6395 -0.2374  0.7912
17553THY    HA622419   6.759   2.911   2.764  1.9967 -1.2676  1.5214
17554THY      O22420   7.296   6.668   2.362  0.0952  0.3256 -0.5615
17554THY     HO22421   7.384   6.675   2.322 -0.2233 -0.3570 -0.4560
17554THY    CA122422   7.231   6.561   2.321  0.3095 -0.0623 -0.1516
17554THY    CA222423   7.106   6.534   2.378 -0.0903  1.1095 -0.3700
17554THY    CP122424   7.043   6.626   2.488  0.3875  0.2155 -0.2371
17554THY    HP122425   7.099   6.712   2.527  0.4348  0.8352 -0.5489
17554THY    CP222426   7.012   6.541   2.614  0.0054  0.4135  0.6284
17554THY    HP222427   7.034   6.604   2.701  2.6089 -0.1981  0.6820
17554THY    HP322428   7.071   6.449   2.620 -2.1948 -1.8792 -1.0586
17554THY    HP422429   6.912   6.498   2.611  0.5914 -1.4255 -0.7495
17554THY    CP322430   6.906   6.693   2.447 -0.3233 -0.6417 -0.0001
17554THY    HP522431   6.915   6.778   2.378 -0.0565 -1.3131 -0.5648
17554THY    HP622432   6.872   6.739   2.540  1.1485  0.3357 -0.8152
17554THY    HP722433   6.824   6.624   2.424 -1.1690 -0.1286  0.8138
17554THY    CA322434   7.043   6.417   2.328  0.2409  0.1095 -0.5734
17554THY    HA322435   6.946   6.384   2.363  0.6226  0.3148 -1.5014
17554THY    CA422436   7.110   6.331   2.240  0.3545 -0.5190 -0.2353
17554THY    HA422437   7.059   6.243   2.203 -1.1362 -2.7152  1.4512
17554THY    CA522438   7.233   6.365   2.197 -0.0160 -0.1601  0.3998
17554THY    CM122439   7.300   6.262   2.117  0.6080 -0.7134 -1.0046
17554THY    HM122440   7.349   6.188   2.182  0.6934  0.9514  0.4245
17554THY    HM222441   7.374   6.312   2.053 -0.3547  0.2475  1.8963
17554THY    HM322442   7.232   6.223   2.041  1.4776 -1.8823 -0.2988
17554THY    CA622443   7.302   6.475   2.245 -0.2450 -0.1077 -0.3916
17554THY    HA622444   7.407   6.496   2.225 -0.6164 -0.3647  1.3932
17555THY      O22445   8.432   1.337   3.955  0.2000 -0.1579 -0.2679
17555THY     HO22446   8.351   1.392   3.951  0.6909 -2.7493  0.4367
17555THY    CA122447   8.529   1.378   3.871  0.5098 -0.1597  0.0076
17555THY    CA222448   8.646   1.309   3.836 -0.4740 -0.4018  0.2837
17555THY    CP122449   8.679   1.172   3.897  1.1612  0.2952 -0.0034
17555THY    HP122450   8.608   1.134   3.971  0.8213  1.0486  2.0301
17555THY    CP222451   8.819   1.181   3.954  0.6599 -0.5454  0.8853
17555THY    HP222452   8.852   1.084   3.992  2.8165 -0.6869  1.5136
17555THY    HP322453   8.819   1.254   4.035  0.2686  0.5972 -0.3431
17555THY    HP422454   8.888   1.216   3.876  1.1701  0.1295  1.3829
17555THY    CP322455   8.696   1.079   3.775  0.5109  0.5642  0.6774
17555THY    HP522456   8.612   1.106   3.709 -1.2215  2.1764 -0.4708
17555THY    HP622457   8.674   0.976   3.806  1.0192 -1.5980 -0.1266
17555THY    HP722458   8.793   1.079   3.725  1.2662  1.9634  0.9130
17555THY    CA322459   8.740   1.377   3.755  0.0811  0.1850  0.2481
17555THY    HA322460   8.824   1.325   3.710 -0.3216 -0.0411 -0.2171
17555THY    CA422461   8.710   1.504   3.700  0.3003 -0.4337  0.0918
17555THY    HA422462   8.778   1.558   3.635  1.7697  0.8746 -0.1112
17555THY    CA522463   8.592   1.569   3.746 -0.1475 -0.1036 -0.4718
17555THY    CM122464   8.575   1.717   3.715 -0.0279  0.1276  0.3682
17555THY    HM122465   8.662   1.768   3.672  0.2436 -3.6081 -2.7945
17555THY    HM222466   8.536   1.757   3.809 -2.2730  0.4505 -2.3024
17555THY    HM322467   8.494   1.727   3.643 -1.3939  1.0278 -2.7257
17555THY    CA622468   8.502   1.500   3.822  0.8114 -0.0171 -0.2992
17555THY    HA622469   8.410   1.548   3.853  0.5462 -1.6453  0.2817
17556THY      O22470   4.373   9.220   2.307  0.0519  0.4151  0.2291
17556THY     HO22471   4.366   9.249   2.399  1.3125  1.5739 -2.6641
17556THY    CA122472   4.256   9.166   2.266  0.2268  0.4175  0.0081
17556THY    CA222473   4.243   9.057   2.180  0.3857 -0.4676 -0.0629
17556THY    CP122474   4.380   8.978   2.157 -0.2150 -0.4502 -1.0198
17556THY    HP122475   4.464   9.049   2.152 -0.7263 -0.7022 -0.4166
17556THY    CP222476   4.376   8.891   2.025  0.2072  0.1802 -0.5815
17556THY    HP222477   4.309   8.804   2.035  1.1762 -0.2901 -1.3977
17556THY    HP322478   4.477   8.852   2.016 -0.0123  1.6943 -1.5986
17556THY    HP422479   4.344   8.937   1.931  0.8310 -0.5862 -1.6748
17556THY    CP322480   4.406   8.885   2.277 -0.2791  0.3762  0.3411
17556THY    HP522481   4.394   8.937   2.373  2.8996  1.2033 -0.2341
17556THY    HP622482   4.500   8.828   2.272 -1.3590 -0.7051 -1.4181
17556THY    HP722483   4.342   8.797   2.289  1.4531  0.8022 -0.9146
17556THY    CA322484   4.122   9.024   2.121 -0.2985 -0.1252 -0.1761
17556THY    HA322485   4.110   8.939   2.054 -1.4486 -0.4752  0.2436
17556THY    CA422486   4.011   9.096   2.159  0.1458  0.0572 -0.1266
17556THY    HA422487   3.913   9.060   2.128 -0.3292  0.2984  0.9281
17556THY    CA522488   4.017   9.198   2.256 -0.2084  0.1063 -0.1513
17556THY    CM122489   3.898   9.277   2.296  0.1182  0.6029  0.3058
17556THY    HM122490   3.927   9.345   2.377  0.7841  1.2541 -0.7256
17556THY    HM222491   3.814   9.219   2.337  1.8363  2.3913 -1.0453
17556THY    HM322492   3.862   9.340   2.215 -1.2714  2.4777  2.0720
17556THY    CA622493   4.139   9.237   2.302 -0.4366 -0.1593  0.7273
17556THY    HA622494   4.142   9.319   2.373 -0.1401 -1.4896  1.8974
17557THY      O22495   2.409   4.310   7.127  0.1844 -0.0439 -0.6409
17557THY     HO22496   2.482   4.359   7.084 -3.0577 -4.9141  0.6660
17557THY    CA122497   2.418   4.301   7.264  0.5750  0.8110  0.1141
17557THY    CA222498   2.373   4.184   7.329  0.4711  0.4113  0.2770
17557THY    CP122499   2.293   4.076   7.247 -0.0706  0.1936  0.0787
17557THY    HP122500   2.234   4.127   7.170 -1.7489  2.6472  2.1171
17557THY    CP222501   2.194   3.996   7.334  0.0537 -0.3011  0.0390
17557THY    HP222502   2.135   4.057   7.403  1.3372  1.0369 -0.1499
17557THY    HP322503   2.243   3.918   7.394  0.3943  0.9339  1.1765
17557THY    HP422504   2.124   3.942   7.269 -2.6485  2.6576 -0.3124
17557THY    CP322505   2.382   3.971   7.172 -0.4719 -0.1565 -0.0460
17557THY    HP522506   2.371   3.867   7.205  0.1346  1.0727  0.2572
17557THY    HP622507   2.485   4.007   7.178 -1.2606 -1.1078  2.6195
17557THY    HP722508   2.363   3.971   7.064  0.7742 -0.4088  1.4131
17557THY    CA322509   2.388   4.167   7.465  0.2725 -0.5047  0.6540
17557THY    HA322510   2.367   4.070   7.510  1.4761 -1.1294  0.0904
17557THY    CA422511   2.463   4.259   7.535 -0.4294 -0.0443  0.5331
17557THY    HA422512   2.477   4.244   7.642 -2.1144  0.0791 -0.5075
17557THY    CA522513   2.519   4.373   7.473  0.1831 -0.4501  0.1755
17557THY    CM122514   2.605   4.474   7.553  0.8210 -0.2209 -0.1642
17557THY    HM122515   2.681   4.426   7.616  1.0014 -0.5966 -0.3816
17557THY    HM222516   2.529   4.542   7.591 -0.0331 -3.4666  0.8955
17557THY    HM322517   2.657   4.542   7.484 -1.3268  0.0957  1.9219
17557THY    CA622518   2.497   4.393   7.338 -0.2281 -0.0308  0.0152
17557THY    HA622519   2.539   4.474   7.279 -2.1156  0.7178  1.6284
17558THY      O22520   5.943   1.046   1.986 -0.3930 -0.4086 -0.0680
17558THY     HO22521   5.885   1.067   1.912 -1.0469  0.3815  1.0193
17558THY    CA122522   5.869   0.970   2.065 -0.0107 -0.5794  0.2346
17558THY    CA222523   5.923   0.917   2.185 -0.2543  0.2241 -0.5106
17558THY    CP122524   6.066   0.953   2.229  0.4371 -0.1541 -0.6982
17558THY    HP122525   6.134   0.987   2.150  0.8646  0.7694  0.6618
17558THY    CP222526   6.146   0.831   2.277 -0.1229 -0.6061  0.0605
17558THY    HP222527   6.249   0.861   2.300 -0.6978  1.6497  0.4664
17558THY    HP322528   6.137   0.754   2.200 -0.0504 -1.2091  0.6443
17558THY    HP422529   6.110   0.782   2.368 -0.5953 -1.5699 -1.4301
17558THY    CP322530   6.069   1.062   2.338 -1.0351 -0.2022 -0.0337
17558THY    HP522531   6.177   1.069   2.357 -0.1850 -3.9980 -0.7254
17558THY    HP622532   6.010   1.042   2.428 -1.8880 -0.2262  2.0686
17558THY    HP722533   6.046   1.163   2.301  0.5806 -0.4106  0.2852
17558THY    CA322534   5.838   0.835   2.263 -0.0851 -0.2512  0.0551
17558THY    HA322535   5.876   0.785   2.352 -1.7464  0.0304 -0.7811
17558THY    CA422536   5.704   0.812   2.226 -0.3319 -0.6215  0.2152
17558THY    HA422537   5.651   0.741   2.290  3.1657  2.1900 -0.1368
17558THY    CA522538   5.656   0.870   2.110  1.0875 -0.4581  1.2803
17558THY    CM122539   5.511   0.850   2.075  0.8176 -0.1339 -0.0445
17558THY    HM122540   5.442   0.912   2.133 -0.3129 -0.1869 -1.2111
17558THY    HM222541   5.474   0.748   2.091 -1.7475  0.1898  0.8472
17558THY    HM322542   5.500   0.873   1.969  0.7582 -0.0450  0.3340
17558THY    CA622543   5.733   0.955   2.034  0.0546  0.1597  0.7863
17558THY    HA622544   5.699   0.991   1.938 -0.6736 -1.6281 -4.0452
17559THY      O22545   1.221   2.734   7.616  0.5324 -0.3721  0.1023
17559THY     HO22546   1.235   2.755   7.522 -0.7115 -0.7562 -0.6652
17559THY    CA122547   1.325   2.784   7.683 -0.2032 -0.3775 -0.2409
17559THY    CA222548   1.340   2.781   7.822  0.1652  0.2046 -0.3430
17559THY    CP122549   1.240   2.698   7.897 -0.2024  0.7913 -0.3233
17559THY    HP122550   1.203   2.622   7.827  1.1527 -1.7575  1.2262
17559THY    CP222551   1.108   2.771   7.942  0.2367 -0.2349  0.5391
17559THY    HP222552   1.054   2.812   7.856 -0.1464  0.1539  0.8587
17559THY    HP322553   1.118   2.858   8.008  1.4186  0.5487 -0.1495
17559THY    HP422554   1.039   2.694   7.980 -0.3077 -1.7994  0.2133
17559THY    CP322555   1.300   2.625   8.013 -0.0542  0.4728 -0.3092
17559THY    HP522556   1.400   2.585   7.991  0.1358 -0.0223  0.4183
17559THY    HP622557   1.232   2.545   8.044 -0.6050  0.3766  0.1133
17559THY    HP722558   1.319   2.689   8.100  0.0703  0.6355 -0.5694
17559THY    CA322559   1.444   2.850   7.879  0.2260 -0.3237 -0.2368
17559THY    HA322560   1.462   2.836   7.985  0.2127 -0.0817  1.3594
17559THY    CA422561   1.533   2.928   7.809  0.1916 -0.1745  0.0995
17559THY    HA422562   1.614   2.981   7.859  0.5427  0.8420 -1.3642
17559THY    CA522563   1.513   2.936   7.673 -0.2776  0.0919  0.3950
17559THY    CM122564   1.615   3.016   7.585  0.8832 -0.1401  0.0275
17559THY    HM122565   1.719   3.007   7.619  0.6937  0.1108 -1.5939
17559THY    HM222566   1.600   3.124   7.588  2.2254 -1.2995  0.2878
17559THY    HM322567   1.595   2.978   7.484 -1.6803  0.6719 -1.0117
17559THY    CA622568   1.416   2.857   7.611 -0.3430 -0.0773 -0.0017
17559THY    HA622569   1.408   2.851   7.503 -2.1603  0.0411 -0.2861
17560THY      O22570   1.967   5.151   7.749 -0.8052  0.7485 -0.0101
17560THY     HO22571   1.873   5.169   7.735  0.0144 -3.0603  2.3640
17560THY    CA122572   2.024   5.278   7.761  0.0745 -0.6128 -0.2365
17560THY    CA222573   2.157   5.310   7.788  0.1192  0.4452 -0.1496
17560THY    CP122574   2.255   5.192   7.786 -0.2647 -0.0147  0.0213
17560THY    HP122575   2.216   5.095   7.751 -0.8021  2.6253 -0.8109
17560THY    CP222576   2.285   5.154   7.938 -0.2779  0.1763  0.8749
17560THY    HP222577   2.326   5.238   7.995  1.0704 -2.0212  1.7848
17560THY    HP322578   2.345   5.063   7.951 -1.2671 -0.4304  0.1072
17560THY    HP422579   2.193   5.120   7.988 -0.2039  2.4745  3.6639
17560THY    CP322580   2.386   5.214   7.705  0.2042 -0.0089  0.1502
17560THY    HP522581   2.427   5.315   7.715 -0.1584  0.4218  0.2574
17560THY    HP622582   2.367   5.212   7.597 -1.0013  0.1583 -2.8710
17560THY    HP722583   2.463   5.139   7.724 -0.4051  0.1360 -0.4452
17560THY    CA322584   2.202   5.446   7.796  0.0797 -0.1834 -0.4307
17560THY    HA322585   2.304   5.462   7.831 -0.8905  2.4202  0.6466
17560THY    CA422586   2.117   5.553   7.771 -0.1017  0.4765  0.5631
17560THY    HA422587   2.156   5.654   7.763 -0.2369  0.6334  0.6278
17560THY    CA522588   1.983   5.519   7.743  0.2769  0.1252 -0.4466
17560THY    CM122589   1.870   5.621   7.731 -0.1824  0.2212 -0.0917
17560THY    HM122590   1.807   5.618   7.820  1.6141  1.5454 -0.4455
17560THY    HM222591   1.817   5.602   7.638  2.0789 -1.8921  2.9307
17560THY    HM322592   1.903   5.725   7.740  0.6891 -0.4130 -0.3009
17560THY    CA622593   1.937   5.388   7.741 -0.0736  0.2088  0.8125
17560THY    HA622594   1.833   5.363   7.722 -0.0538 -0.1870  1.0298
17561THY      O22595   7.308   3.756   6.704  0.4021  0.1907  0.2280
17561THY     HO22596   7.402   3.779   6.702  0.4584  0.7107  0.0464
17561THY    CA122597   7.245   3.877   6.715 -0.9737  0.8060  0.5091
17561THY    CA222598   7.108   3.890   6.683  0.1929 -0.0157 -0.2876
17561THY    CP122599   7.015   3.775   6.646 -0.0027 -0.4019  0.1553
17561THY    HP122600   7.065   3.680   6.670  2.1666 -1.5010  0.9480
17561THY    CP222601   6.999   3.778   6.493 -0.8547  0.0414 -0.0823
17561THY    HP222602   6.929   3.700   6.459  0.0239 -1.2311 -0.3349
17561THY    HP322603   7.094   3.773   6.439 -1.3043 -0.8810  1.0190
17561THY    HP422604   6.942   3.866   6.461  0.3234  0.8353  0.9896
17561THY    CP322605   6.872   3.783   6.717 -0.3453  0.1533 -0.0055
17561THY    HP522606   6.822   3.695   6.675  0.7379  1.4958 -1.3226
17561THY    HP622607   6.819   3.874   6.689  1.3357 -1.6241  0.4784
17561THY    HP722608   6.881   3.780   6.827 -1.6938  0.2539 -2.4174
17561THY    CA322609   7.056   4.016   6.700 -0.8652 -0.4639  0.1335
17561THY    HA322610   6.951   4.042   6.691 -0.7654 -2.6840 -0.0804
17561THY    CA422611   7.142   4.123   6.732  0.0546  0.2226  0.4003
17561THY    HA422612   7.085   4.211   6.758 -1.6913 -0.0304 -0.6025
17561THY    CA522613   7.278   4.113   6.745  0.2151 -0.0998 -0.0696
17561THY    CM122614   7.368   4.232   6.754  0.6048  0.1119  0.0207
17561THY    HM122615   7.364   4.284   6.658 -0.4196 -0.1056 -0.4507
17561THY    HM222616   7.472   4.209   6.783  0.6438 -0.1574 -0.1445
17561THY    HM322617   7.336   4.299   6.834  1.2084  1.4469 -1.2220
17561THY    CA622618   7.331   3.985   6.739 -0.1999 -0.0067  0.4740
17561THY    HA622619   7.439   3.972   6.741 -0.2832 -2.4098 -1.2840
17562THY      O22620   0.912   2.257   2.500 -0.0115 -0.3813 -0.4254
17562THY     HO22621   0.958   2.210   2.429 -0.7445  0.3028 -2.3055
17562THY    CA122622   0.889   2.174   2.604 -0.4081 -0.7235 -0.2818
17562THY    CA222623   0.760   2.174   2.671 -0.2665 -0.6517 -0.0646
17562THY    CP122624   0.645   2.251   2.619  0.0215 -0.3595 -0.0750
17562THY    HP122625   0.670   2.309   2.529  0.4204  0.2411  0.7106
17562THY    CP222626   0.596   2.350   2.727 -0.2208 -0.0511  0.0960
17562THY    HP222627   0.548   2.306   2.815  1.6488  0.5356 -0.8747
17562THY    HP322628   0.520   2.406   2.672  2.3976 -2.2832  1.7180
17562THY    HP422629   0.675   2.418   2.761 -2.1676  2.3530  1.3150
17562THY    CP322630   0.537   2.158   2.576  0.2445 -0.2971  0.2157
17562THY    HP522631   0.479   2.199   2.492  2.0779 -0.8972  1.7695
17562THY    HP622632   0.471   2.135   2.660 -0.9168 -1.0395  0.7742
17562THY    HP722633   0.579   2.063   2.542  0.1349 -0.5561  0.2585
17562THY    CA322634   0.761   2.100   2.794  0.6073 -0.0960  1.0220
17562THY    HA322635   0.667   2.094   2.849  1.0829  0.5549 -1.0214
17562THY    CA422636   0.875   2.033   2.853  0.7363  0.0989 -0.2303
17562THY    HA422637   0.864   1.960   2.933 -0.2728  0.4547  0.2850
17562THY    CA522638   0.990   2.023   2.775 -0.5136 -0.1792  0.3478
17562THY    CM122639   1.103   1.928   2.806 -1.0024 -0.2392 -0.1622
17562THY    HM122640   1.181   1.999   2.838 -0.4315 -1.8299 -0.0511
17562THY    HM222641   1.127   1.863   2.722  0.8351  0.7450 -0.8283
17562THY    HM322642   1.080   1.864   2.892  1.1144  0.4359 -0.1057
17562THY    CA622643   0.995   2.093   2.652  0.1009 -0.3551 -0.0985
17562THY    HA622644   1.093   2.092   2.606 -0.2914 -1.2389  1.0682
17563THY      O22645   2.049   8.439   3.425 -0.5586  0.0970 -0.0321
17563THY     HO22646   2.103   8.486   3.359  1.4971 -0.0739 -2.4458
17563THY    CA122647   2.040   8.515   3.533 -1.2429 -1.0029  0.3417
17563THY    CA222648   2.016   8.461   3.669  0.6249  0.7863 -0.6586
17563THY    CP122649   2.016   8.311   3.692  0.0933  0.2771 -0.0890
17563THY    HP122650   1.954   8.272   3.611 -1.5973  2.0596 -1.3045
17563THY    CP222651   1.934   8.254   3.807  0.6435 -0.3924 -0.6968
17563THY    HP222652   1.826   8.261   3.789  0.5322 -0.9103 -2.9316
17563THY    HP322653   1.955   8.281   3.911 -1.4483  0.1923 -1.0854
17563THY    HP422654   1.951   8.145   3.807  0.5857 -2.0282 -0.7229
17563THY    CP322655   2.148   8.235   3.669  0.0465  0.2404  0.2391
17563THY    HP522656   2.122   8.131   3.643 -1.4368 -3.5848  1.3846
17563THY    HP622657   2.219   8.245   3.752  0.3868 -0.1462  1.1947
17563THY    HP722658   2.198   8.276   3.580  1.7299  1.6906  1.5204
17563THY    CA322659   1.980   8.558   3.763  0.2653 -0.9099  0.0088
17563THY    HA322660   1.956   8.521   3.863  2.3355 -0.2256  0.3695
17563THY    CA422661   1.978   8.695   3.733 -0.0385 -0.4394 -0.5604
17563THY    HA422662   1.938   8.764   3.806 -2.1487 -0.8977 -1.2162
17563THY    CA522663   2.008   8.741   3.606 -0.2067  1.1351  0.0447
17563THY    CM122664   1.997   8.886   3.576 -0.5305 -0.0320 -0.1960
17563THY    HM122665   2.079   8.933   3.520 -0.4234 -0.3406 -0.7552
17563THY    HM222666   1.979   8.946   3.667  0.1986 -1.8581  3.0450
17563THY    HM322667   1.910   8.914   3.515 -0.2733 -0.9850 -1.4017
17563THY    CA622668   2.041   8.651   3.506 -0.1427  0.1594 -0.1270
17563THY    HA622669   2.055   8.693   3.407  0.0860  0.4941  0.6009
17564THY      O22670   7.419   1.942   4.732 -0.3828 -0.1966  0.0995
17564THY     HO22671   7.465   2.016   4.775 -0.4647  0.4558 -0.2178
17564THY    CA122672   7.425   1.832   4.810  0.1143 -0.4607  0.0888
17564THY    CA222673   7.345   1.718   4.793  0.4009  0.0592 -0.0248
17564THY    CP122674   7.244   1.728   4.678  0.4008 -0.0749  0.4889
17564THY    HP122675   7.282   1.801   4.606  0.9477 -1.4432 -1.0787
17564THY    CP222676   7.106   1.773   4.740  0.4975  0.3559 -0.3016
17564THY    HP222677   7.124   1.874   4.778 -0.9999 -0.5727  0.3505
17564THY    HP322678   7.078   1.702   4.819  1.7682 -0.5809 -1.9077
17564THY    HP422679   7.023   1.772   4.668 -0.6535  1.6036  0.9587
17564THY    CP322680   7.230   1.600   4.603  0.1489  0.4287  0.0154
17564THY    HP522681   7.326   1.556   4.572 -0.2478 -1.0388  0.1297
17564THY    HP622682   7.180   1.622   4.508 -0.3760  1.3357  3.1602
17564THY    HP722683   7.169   1.525   4.654 -0.4168 -2.3629 -1.6113
17564THY    CA322684   7.354   1.607   4.887 -0.3331  0.2913 -0.4561
17564THY    HA322685   7.294   1.517   4.874 -1.4585  0.5764  0.2378
17564THY    CA422686   7.446   1.613   4.991  0.0783 -0.8504  0.2914
17564THY    HA422687   7.443   1.526   5.056  2.9264 -1.2245 -0.1738
17564THY    CA522688   7.531   1.724   5.007  0.9080 -0.3272 -0.2258
17564THY    CM122689   7.639   1.732   5.104 -0.2377  0.2937 -0.7173
17564THY    HM122690   7.715   1.810   5.091  0.3871 -0.6233 -1.4574
17564THY    HM222691   7.693   1.637   5.112 -0.0262 -0.4988 -0.6707
17564THY    HM322692   7.597   1.751   5.204  1.2633  0.5863  1.3722
17564THY    CA622693   7.521   1.833   4.916 -0.0660  0.3984  0.3225
17564THY    HA622694   7.599   1.909   4.924 -0.2523  0.1359  0.5414
17565THY      O22695   0.663   6.868   6.836  0.3736  0.1309 -0.1444
17565THY     HO22696   0.714   6.818   6.770 -1.7794 -1.8383  0.0934
17565THY    CA122697   0.583   6.950   6.768  0.3557 -0.7110  0.1342
17565THY    CA222698   0.499   7.043   6.833 -1.1406  1.0244  0.4414
17565THY    CP122699   0.500   7.051   6.989 -0.3267  0.2488  0.5150
17565THY    HP122700   0.603   7.043   7.024 -0.8763  2.1521  1.0876
17565THY    CP222701   0.402   6.943   7.042  0.2800 -0.2567  0.1498
17565THY    HP222702   0.299   6.980   7.039 -0.3341 -0.2881 -1.4599
17565THY    HP322703   0.423   6.924   7.148  1.2867  0.0973  2.8068
17565THY    HP422704   0.406   6.855   6.977  2.0917 -0.0770  0.0608
17565THY    CP322705   0.462   7.185   7.046 -0.6541  0.2336 -0.6126
17565THY    HP522706   0.466   7.174   7.154  0.6123  0.3305  0.5013
17565THY    HP622707   0.363   7.226   7.022 -0.2144 -0.8561 -0.1252
17565THY    HP722708   0.523   7.274   7.025 -2.2881 -0.4094  0.4131
17565THY    CA322709   0.430   7.126   6.743  0.4023 -0.4027  0.2361
17565THY    HA322710   0.354   7.190   6.787 -0.2125  2.0860 -1.9999
17565THY    CA422711   0.441   7.124   6.605 -0.1901 -0.3446  0.3042
17565THY    HA422712   0.384   7.198   6.551 -0.9921  1.8968  1.4331
17565THY    CA522713   0.522   7.022   6.551 -0.1163 -0.2394 -0.0029
17565THY    CM122714   0.535   7.019   6.399  0.7002  0.7393  0.2435
17565THY    HM122715   0.451   6.958   6.365 -0.4432  0.7424  1.7548
17565THY    HM222716   0.626   6.966   6.371  0.5550 -1.1841  0.9594
17565THY    HM322717   0.536   7.119   6.354 -1.8869  0.3784  0.1777
17565THY    CA622718   0.585   6.930   6.633 -0.5467  0.2698 -0.1438
17565THY    HA622719   0.640   6.845   6.593  1.5493  1.6998  0.4641
17566THY      O22720   1.079   6.433   5.649  0.0680 -0.1081  0.1421
17566THY     HO22721   1.103   6.523   5.677  2.0502  1.0799 -0.6950
17566THY    CA122722   0.980   6.449   5.562  0.0353  0.5959  0.4771
17566THY    CA222723   0.874   6.361   5.541  0.3542  0.0758 -0.5725
17566THY    CP122724   0.851   6.243   5.636 -0.0331  0.4408  0.7543
17566THY    HP122725   0.939   6.234   5.701 -0.2147  0.9138  2.1737
17566THY    CP222726   0.840   6.115   5.556 -0.1822 -0.1003 -0.5275
17566THY    HP222727   0.803   6.034   5.620 -0.4162  0.5652  0.0863
17566THY    HP322728   0.934   6.095   5.504  0.4854  0.8336  0.0565
17566THY    HP422729   0.758   6.129   5.484  1.0557 -1.2672  1.1910
17566THY    CP322730   0.737   6.263   5.735  0.2769  0.5187  0.3145
17566THY    HP522731   0.751   6.357   5.789 -1.7050  0.8125  0.5024
17566THY    HP622732   0.732   6.183   5.810  0.3630 -2.6866 -2.9560
17566THY    HP722733   0.641   6.272   5.683  0.1595  0.8532  1.0833
17566THY    CA322734   0.773   6.385   5.443 -0.8689  0.0741  0.0163
17566THY    HA322735   0.686   6.321   5.430  0.1136 -1.1113 -1.1448
17566THY    CA422736   0.781   6.510   5.370 -0.5233  0.7507 -0.2369
17566THY    HA422737   0.713   6.527   5.287  0.0200 -0.2050 -2.3929
17566THY    CA522738   0.878   6.599   5.401 -0.2411  0.0983 -0.3781
17566THY    CM122739   0.876   6.729   5.331 -0.0637  0.2860 -0.3289
17566THY    HM122740   0.882   6.718   5.222  1.3068  0.3401 -0.3619
17566THY    HM222741   0.960   6.789   5.369 -1.1454  1.2898  0.5888
17566THY    HM322742   0.789   6.788   5.362  1.5094  1.6155  1.4267
17566THY    CA622743   0.980   6.567   5.489 -0.1896 -0.3076 -0.2573
17566THY    HA622744   1.061   6.637   5.506 -0.3708 -1.2541  0.1972
17567THY      O22745   7.946   2.681   7.342  0.1042  0.0660  0.1299
17567THY     HO22746   7.975   2.591   7.320 -0.9305 -0.3521 -0.1091
17567THY    CA122747   8.046   2.749   7.396 -0.0670 -0.1193 -0.3826
17567THY    CA222748   8.018   2.853   7.486 -0.0083 -0.2730 -0.4011
17567THY    CP122749   7.874   2.880   7.531 -0.0226  0.3680  0.0994
17567THY    HP122750   7.793   2.827   7.479 -2.8703  3.2698  1.2974
17567THY    CP222751   7.838   3.021   7.534 -0.0763 -0.6197  0.4981
17567THY    HP222752   7.879   3.077   7.619  1.9948 -1.8029  0.9029
17567THY    HP322753   7.732   3.048   7.533  0.0424 -0.1244  1.0180
17567THY    HP422754   7.864   3.059   7.435  0.7750 -1.1534 -1.3666
17567THY    CP322755   7.858   2.818   7.672 -0.0944 -0.2361  0.3564
17567THY    HP522756   7.883   2.712   7.666 -3.3253  1.6849 -0.6672
17567THY    HP622757   7.762   2.824   7.724  1.2858  2.7385 -1.3853
17567THY    HP722758   7.927   2.864   7.743  2.6420 -3.2287  1.2779
17567THY    CA322759   8.136   2.936   7.536  0.1027 -0.8880  1.0860
17567THY    HA322760   8.118   3.021   7.600  1.8364 -0.2562  1.0071
17567THY    CA422761   8.264   2.893   7.489 -0.0737  0.2995 -0.0235
17567THY    HA422762   8.349   2.946   7.531  1.3585 -0.1957 -1.8117
17567THY    CA522763   8.278   2.790   7.398 -0.1051 -0.0457 -0.4788
17567THY    CM122764   8.419   2.753   7.356  0.0069  0.4765 -0.0035
17567THY    HM122765   8.426   2.656   7.306 -1.7169  0.2757 -0.0512
17567THY    HM222766   8.482   2.731   7.443 -0.4757  0.7991 -0.1108
17567THY    HM322767   8.475   2.831   7.302  2.6732  1.7183 -0.9355
17567THY    CA622768   8.174   2.721   7.350  0.4315 -0.1410  0.2491
17567THY    HA622769   8.194   2.654   7.268  0.5334 -1.3191  1.6631
17568THY      O22770   0.574   5.994   4.488 -0.6478 -0.8988  0.3236
17568THY     HO22771   0.594   5.921   4.550  2.5091 -1.5073  0.5338
17568THY    CA122772   0.517   5.939   4.379 -0.1404 -0.3449  0.6290
17568THY    CA222773   0.392   5.984   4.339 -0.4861 -0.0181 -0.3843
17568THY    CP122774   0.309   6.093   4.407  0.0494  0.2995  0.2376
17568THY    HP122775   0.356   6.116   4.503  2.4899 -1.1308  1.6508
17568THY    CP222776   0.162   6.060   4.421  0.2988 -0.3385 -0.4551
17568THY    HP222777   0.154   5.961   4.467  1.7970  3.8516  1.1648
17568THY    HP322778   0.112   6.073   4.324 -0.6015  0.4432  3.1157
17568THY    HP422779   0.130   6.139   4.491  1.3970  0.1993 -0.4691
17568THY    CP322780   0.329   6.216   4.324  0.6900  0.8656  0.2070
17568THY    HP522781   0.276   6.304   4.364 -0.2296 -2.2324  1.1724
17568THY    HP622782   0.292   6.202   4.222 -1.1824  1.6747 -1.2648
17568THY    HP722783   0.437   6.234   4.321  0.8695  0.2877 -0.9047
17568THY    CA322784   0.336   5.916   4.227 -0.1132  0.2133 -0.3332
17568THY    HA322785   0.238   5.943   4.190  1.0107 -2.1587  0.8091
17568THY    CA422786   0.413   5.812   4.163  0.3707  0.4492  0.2858
17568THY    HA422787   0.383   5.760   4.072  3.5618 -0.8038  0.3905
17568THY    CA522788   0.544   5.774   4.210 -0.1315  0.1590  0.3322
17568THY    CM122789   0.627   5.663   4.148  0.4059  0.5176  0.0402
17568THY    HM122790   0.597   5.657   4.043  1.1412  0.3285 -0.3809
17568THY    HM222791   0.610   5.568   4.200  2.7873 -0.4201 -0.9832
17568THY    HM322792   0.734   5.684   4.153  0.1812  0.7883  1.1797
17568THY    CA622793   0.587   5.831   4.328 -0.4976 -0.2959  0.0483
17568THY    HA622794   0.676   5.800   4.381 -0.2057 -0.5589  0.4328
17569THY      O22795   7.101   3.047   5.363 -0.5260  0.0794 -0.3899
17569THY     HO22796   7.192   3.025   5.336  0.4646  2.0362  0.9522
17569THY    CA122797   7.081   2.956   5.459 -0.7478  0.2705  0.8217
17569THY    CA222798   6.978   2.966   5.553  0.8729 -0.1678  0.0865
17569THY    CP122799   6.891   3.099   5.552 -0.1081  0.3267 -0.2328
17569THY    HP122800   6.939   3.169   5.484  0.7392  0.0933 -1.0177
17569THY    CP222801   6.883   3.167   5.685 -0.1793 -0.3792  0.0928
17569THY    HP222802   6.967   3.139   5.750 -0.0673 -0.2507  0.7172
17569THY    HP322803   6.797   3.132   5.744  0.6819  0.5817 -0.4956
17569THY    HP422804   6.881   3.276   5.675  1.2958  1.2650  0.3205
17569THY    CP322805   6.756   3.082   5.487 -0.2376 -0.6068  0.6272
17569THY    HP522806   6.767   3.020   5.398 -0.2467  0.5928 -1.1802
17569THY    HP622807   6.715   3.177   5.453  0.4044 -1.2682  0.6756
17569THY    HP722808   6.688   3.035   5.559  1.0292  0.0285 -0.3196
17569THY    CA322809   6.952   2.855   5.642 -0.7585 -0.0993 -0.2031
17569THY    HA322810   6.867   2.860   5.710  0.5444  1.5913 -0.2452
17569THY    CA422811   7.041   2.748   5.641 -0.0105  0.0318 -0.1086
17569THY    HA422812   7.013   2.660   5.697 -1.9087  0.4136  0.6999
17569THY    CA522813   7.159   2.751   5.564 -0.3504  0.0567 -0.2041
17569THY    CM122814   7.261   2.641   5.584  0.5082 -0.0221 -0.4831
17569THY    HM122815   7.250   2.591   5.682  0.9625  0.8550  1.0918
17569THY    HM222816   7.364   2.679   5.579 -0.7359 -2.4874  3.0547
17569THY    HM322817   7.248   2.572   5.500 -0.3708 -0.8323  0.6405
17569THY    CA622818   7.173   2.852   5.468 -0.5623 -0.2181 -0.1346
17569THY    HA622819   7.256   2.860   5.398 -1.8018 -1.7825 -0.5839
17570THY      O22820   6.379   8.731   3.636 -0.2647 -0.3004  0.2588
17570THY     HO22821   6.385   8.680   3.554  1.3620  0.8055 -1.4600
17570THY    CA122822   6.429   8.655   3.735  0.5298  0.1571  0.0541
17570THY    CA222823   6.423   8.698   3.874 -0.4503 -0.7762 -0.5355
17570THY    CP122824   6.385   8.840   3.905  1.0423  0.9193  0.5239
17570THY    HP122825   6.421   8.902   3.822  0.6872 -0.3630 -0.9322
17570THY    CP222826   6.456   8.887   4.033 -0.1328 -0.7406 -0.6752
17570THY    HP222827   6.455   8.997   4.043 -2.0225  0.2132 -0.7488
17570THY    HP322828   6.564   8.867   4.031  0.0548  0.1666  0.1208
17570THY    HP422829   6.418   8.844   4.126 -1.2186 -1.0246 -0.3478
17570THY    CP322830   6.236   8.864   3.910  0.2918  0.3841 -0.0547
17570THY    HP522831   6.184   8.852   3.814 -1.7422  1.3184  0.7114
17570THY    HP622832   6.217   8.960   3.961 -1.9693 -0.4608  0.0232
17570THY    HP722833   6.187   8.788   3.971  0.5818  1.0161  0.2624
17570THY    CA322834   6.461   8.599   3.970 -0.7298 -0.7348 -1.3390
17570THY    HA322835   6.466   8.631   4.073 -1.3878 -0.7691 -1.1086
17570THY    CA422836   6.495   8.472   3.928 -0.5447 -0.5257 -0.9825
17570THY    HA422837   6.524   8.397   4.001  0.5002  0.4413  0.3087
17570THY    CA522838   6.509   8.434   3.798 -0.7605  0.0771 -0.0073
17570THY    CM122839   6.547   8.291   3.766  0.3190 -0.5560  0.6220
17570THY    HM122840   6.610   8.249   3.845 -1.2613  3.1519  4.4677
17570THY    HM222841   6.607   8.299   3.674  1.9768  0.5367  1.3393
17570THY    HM322842   6.460   8.227   3.744  1.9844 -0.4653 -1.8120
17570THY    CA622843   6.473   8.526   3.699 -0.5912  0.2406  0.0931
17570THY    HA622844   6.464   8.487   3.599 -1.1929  1.2271 -2.5165
17571THY      O22845   2.252   7.093   4.461  0.2856 -0.2253  0.3635
17571THY     HO22846   2.279   7.186   4.448  2.6763 -0.1904 -0.2536
17571THY    CA122847   2.159   7.078   4.555 -0.0951  0.0286 -0.6852
17571THY    CA222848   2.089   6.952   4.570  0.1102 -0.1082  0.5811
17571THY    CP122849   2.122   6.843   4.476  0.0734 -0.1985 -0.4185
17571THY    HP122850   2.227   6.852   4.447 -0.1136 -0.2737  2.2104
17571THY    CP222851   2.036   6.835   4.343 -0.2487 -0.1137  0.4387
17571THY    HP222852   2.037   6.733   4.303 -0.0089  1.4652 -0.2004
17571THY    HP322853   2.063   6.919   4.277  0.7815  2.4621  2.2380
17571THY    HP422854   1.939   6.861   4.387 -0.3280  0.0973 -0.1966
17571THY    CP322855   2.101   6.703   4.539  0.1352  0.6395  0.0086
17571THY    HP522856   2.137   6.624   4.471  0.4537  2.1439 -1.2047
17571THY    HP622857   1.995   6.682   4.554  0.6233  3.0850 -1.0830
17571THY    HP722858   2.151   6.692   4.636  0.7932  0.2385 -0.7086
17571THY    CA322859   1.993   6.936   4.679  0.2957 -0.2308  0.0496
17571THY    HA322860   1.954   6.836   4.691  0.2560 -0.3096  0.0552
17571THY    CA422861   1.948   7.053   4.747 -0.5223 -0.6795  0.9144
17571THY    HA422862   1.867   7.046   4.819 -0.5879 -0.3686  3.6955
17571THY    CA522863   2.024   7.176   4.742  0.3224 -0.2446  0.2379
17571THY    CM122864   1.991   7.298   4.817  0.2583  0.0146 -0.3881
17571THY    HM122865   2.038   7.379   4.760  2.1849  1.1334 -0.6694
17571THY    HM222866   2.029   7.286   4.919 -3.7725  1.7958  0.3467
17571THY    HM322867   1.882   7.312   4.828 -0.2323 -1.0341 -2.8526
17571THY    CA622868   2.126   7.184   4.640  0.1394  0.3209  0.2102
17571THY    HA622869   2.179   7.278   4.624 -1.6156  1.1043  1.3924
17572THY      O22870   2.319   7.079   7.247  0.6455  0.3557  0.6511
17572THY     HO22871   2.253   7.118   7.187 -0.8778  1.6527  0.1454
17572THY    CA122872   2.410   7.176   7.280  0.8052 -0.0832 -0.3640
17572THY    CA222873   2.508   7.158   7.372  0.1405 -0.2407  0.6617
17572THY    CP122874   2.523   7.025   7.443 -0.0740 -0.0989 -0.0334
17572THY    HP122875   2.468   6.948   7.387  1.0841 -0.4545 -0.6282
17572THY    CP222876   2.473   7.040   7.583  0.0876  0.3215  0.2521
17572THY    HP222877   2.519   7.129   7.627 -0.9544  0.7281  0.6041
17572THY    HP322878   2.495   6.956   7.650 -0.8532 -0.1032 -0.3509
17572THY    HP422879   2.364   7.058   7.587  0.0600  1.9649 -0.1237
17572THY    CP322880   2.665   6.980   7.443  0.0667  0.4615 -0.0819
17572THY    HP522881   2.681   6.883   7.492  0.0998 -0.3255 -0.4868
17572THY    HP622882   2.722   7.046   7.509  1.6234 -2.7013  2.0091
17572THY    HP722883   2.719   6.985   7.347 -0.7860  0.0334  1.1192
17572THY    CA322884   2.599   7.264   7.406 -0.2307  0.1914 -0.0916
17572THY    HA322885   2.674   7.265   7.484 -1.0877  1.0382  0.5876
17572THY    CA422886   2.579   7.386   7.346 -0.6406  0.6299  0.0826
17572THY    HA422887   2.641   7.473   7.365  0.2230 -0.6784 -0.2271
17572THY    CA522888   2.486   7.395   7.243 -0.1069 -0.8297  0.0548
17572THY    CM122889   2.470   7.521   7.160  0.5981  0.3156 -0.8498
17572THY    HM122890   2.381   7.575   7.193 -0.1402 -0.5812 -1.4886
17572THY    HM222891   2.471   7.498   7.053  1.7343 -1.2570  4.9747
17572THY    HM322892   2.556   7.589   7.170  0.7706  0.1241 -1.0381
17572THY    CA622893   2.389   7.299   7.223  0.3259 -0.2192 -0.1738
17572THY    HA622894   2.308   7.308   7.151 -0.6938  0.5729 -2.3185
17573THY      O22895   6.619   1.222   3.360 -0.6298  0.2841  0.1128
17573THY     HO22896   6.609   1.305   3.408 -0.0100  0.6657 -0.0293
17573THY    CA122897   6.645   1.275   3.236  0.2572 -0.0484 -0.1406
17573THY    CA222898   6.671   1.196   3.120 -0.1105 -0.4034  0.8085
17573THY    CP122899   6.653   1.044   3.126 -0.1484  0.8740 -0.1831
17573THY    HP122900   6.646   1.001   3.227 -2.5603  0.7549 -0.1804
17573THY    CP222901   6.770   0.966   3.067  0.4931  0.0472  0.9170
17573THY    HP222902   6.865   1.019   3.085  2.0070 -0.3677 -1.4991
17573THY    HP322903   6.775   0.955   2.958 -2.4481 -0.0119 -0.6487
17573THY    HP422904   6.784   0.876   3.128 -1.1526 -0.9535 -0.0780
17573THY    CP322905   6.528   0.997   3.051  0.1414  0.6829  0.7969
17573THY    HP522906   6.496   0.897   3.082 -1.4015 -0.5919  0.8677
17573THY    HP622907   6.534   0.998   2.942  2.2864  0.7584  1.4612
17573THY    HP722908   6.452   1.064   3.093  0.2854  1.3802  0.5328
17573THY    CA322909   6.696   1.268   2.996  0.5100 -0.5944  0.2548
17573THY    HA322910   6.712   1.227   2.896  1.0741 -1.4462  2.3799
17573THY    CA422911   6.711   1.409   2.994 -0.6673 -0.2538 -0.1362
17573THY    HA422912   6.730   1.460   2.900 -0.9122 -0.1854  0.0844
17573THY    CA522913   6.697   1.480   3.113 -0.1268 -0.3841 -0.2308
17573THY    CM122914   6.721   1.625   3.112 -0.0610  0.4111 -0.5930
17573THY    HM122915   6.823   1.657   3.136 -0.0105  0.4123 -0.7520
17573THY    HM222916   6.663   1.663   3.196  0.6155  0.6436 -0.0479
17573THY    HM322917   6.685   1.672   3.020 -0.3711  0.6332 -0.3933
17573THY    CA622918   6.665   1.410   3.233 -0.0381  0.1530 -0.9962
17573THY    HA622919   6.670   1.462   3.328  0.2260 -0.8651  0.9209
17574THY      O22920   8.233   5.707   3.328 -0.0778 -0.1160  0.3827
17574THY     HO22921   8.240   5.802   3.350 -1.2117  3.6357 -0.2358
17574THY    CA122922   8.221   5.693   3.192  0.9162 -0.8544 -0.1218
17574THY    CA222923   8.206   5.563   3.139  0.2068  0.4304 -0.6254
17574THY    CP122924   8.197   5.439   3.231  0.3960 -0.4059  0.9378
17574THY    HP122925   8.213   5.469   3.335 -0.6116  0.3695 -1.0795
17574THY    CP222926   8.294   5.327   3.193  0.3826  0.3621  0.4662
17574THY    HP222927   8.387   5.380   3.169  0.7980  0.5833 -0.1482
17574THY    HP322928   8.256   5.272   3.107 -0.0273  0.7274  0.1704
17574THY    HP422929   8.313   5.249   3.268  1.5136 -1.4555 -1.0931
17574THY    CP322930   8.053   5.393   3.228 -0.2460 -0.4448 -0.3172
17574THY    HP522931   7.984   5.471   3.263  0.2412  2.0367 -0.9000
17574THY    HP622932   8.046   5.295   3.278  1.3795 -0.3357 -0.4134
17574THY    HP722933   8.022   5.364   3.127 -2.0319 -0.0262  0.0214
17574THY    CA322934   8.218   5.551   3.003  0.6665 -0.6315  0.2600
17574THY    HA322935   8.200   5.454   2.958  1.7120  0.1578 -0.3275
17574THY    CA422936   8.238   5.663   2.929  0.2912  0.6572  0.6323
17574THY    HA422937   8.240   5.643   2.822  0.0386  0.1808  2.8963
17574THY    CA522938   8.247   5.796   2.981 -0.0856  0.0454  0.4444
17574THY    CM122939   8.266   5.912   2.894  0.0496  0.5505 -0.4021
17574THY    HM122940   8.248   5.902   2.786  2.1396  0.0548  0.6198
17574THY    HM222941   8.366   5.951   2.917  0.7520 -0.9690 -1.1966
17574THY    HM322942   8.196   5.989   2.929 -0.6896  2.7362 -1.9723
17574THY    CA622943   8.237   5.807   3.120 -0.2147  0.4275 -0.1353
17574THY    HA622944   8.259   5.905   3.161 -0.9230 -0.0370  0.2319
17575THY      O22945   3.209   2.433   3.069 -0.0248 -0.1264 -0.3213
17575THY     HO22946   3.211   2.529   3.058 -2.0696  1.2404 -0.0564
17575THY    CA122947   3.100   2.392   2.991 -0.1609  0.4874 -0.1454
17575THY    CA222948   3.078   2.255   2.957 -1.4782  0.0865 -0.6206
17575THY    CP122949   3.184   2.152   3.013 -0.5323 -0.2512  0.8815
17575THY    HP122950   3.281   2.199   3.033 -0.4270 -0.9510  0.9749
17575THY    CP222951   3.206   2.020   2.926 -0.5833  0.0546 -0.4490
17575THY    HP222952   3.107   1.977   2.912 -1.0617  1.9840 -0.0854
17575THY    HP322953   3.272   1.946   2.973 -0.8244  2.3982  0.7308
17575THY    HP422954   3.246   2.052   2.829  1.4267  0.5880 -1.1963
17575THY    CP322955   3.140   2.114   3.147  0.5395  0.5366 -0.1992
17575THY    HP522956   3.153   2.203   3.210 -0.9296  0.5073  0.0487
17575THY    HP622957   3.192   2.023   3.180 -0.6110  0.5958 -0.8545
17575THY    HP722958   3.034   2.087   3.150  0.0467 -1.9379  1.1607
17575THY    CA322959   2.967   2.220   2.878  0.3580 -0.1758 -0.5810
17575THY    HA322960   2.944   2.114   2.864  2.2458 -0.0022 -1.0440
17575THY    CA422961   2.880   2.321   2.829 -0.6803 -0.3567  0.6684
17575THY    HA422962   2.799   2.289   2.764 -0.5164 -0.1057 -0.2822
17575THY    CA522963   2.901   2.459   2.861  0.2324 -0.4487  0.0194
17575THY    CM122964   2.808   2.558   2.792 -0.2859 -0.1959 -0.9327
17575THY    HM122965   2.798   2.652   2.848 -1.2129  0.8066 -1.6106
17575THY    HM222966   2.705   2.520   2.792 -0.3424  2.1762 -0.9297
17575THY    HM322967   2.843   2.591   2.694 -1.2134 -0.5167 -0.8868
17575THY    CA622968   3.010   2.492   2.951 -0.5655  0.3197 -0.0378
17575THY    HA622969   3.015   2.598   2.971 -0.6912  2.3532 -0.3595
17576THY      O22970   3.526   3.133   2.939 -0.2063 -0.0344 -0.1455
17576THY     HO22971   3.508   3.140   2.843  1.9694 -0.5308 -0.5790
17576THY    CA122972   3.660   3.151   2.934 -0.1017 -0.1255  0.5113
17576THY    CA222973   3.750   3.077   3.013 -0.2242  0.1527 -0.5301
17576THY    CP122974   3.700   2.980   3.124 -0.2429 -0.0946 -0.4326
17576THY    HP122975   3.596   2.996   3.153  0.6774  2.1993  2.3606
17576THY    CP222976   3.771   3.009   3.258 -0.9223 -0.1616 -0.4522
17576THY    HP222977   3.759   3.115   3.286  1.1806 -3.0234  0.6953
17576THY    HP322978   3.878   2.989   3.243 -0.9501 -0.7409 -0.1912
17576THY    HP422979   3.732   2.940   3.333  0.6007  0.5085 -0.6402
17576THY    CP322980   3.720   2.829   3.091 -0.4777 -0.9564  0.1904
17576THY    HP522981   3.673   2.808   2.994  1.0454 -1.3634 -1.6093
17576THY    HP622982   3.675   2.768   3.170  0.8343 -0.1449  0.2292
17576THY    HP722983   3.825   2.801   3.077  0.3218  2.2393  1.2659
17576THY    CA322984   3.892   3.088   2.989  0.1907 -0.7308 -0.1262
17576THY    HA322985   3.955   3.045   3.066  0.2764 -1.3853 -1.1966
17576THY    CA422986   3.936   3.162   2.881  0.0395  0.0559  0.0057
17576THY    HA422987   4.043   3.172   2.872 -0.0577 -0.6086  0.4917
17576THY    CA522988   3.841   3.225   2.796  0.0525 -0.0286 -0.2063
17576THY    CM122989   3.893   3.301   2.681  0.0927 -0.1389 -0.1007
17576THY    HM122990   3.876   3.252   2.585  1.2803 -0.7269  0.6004
17576THY    HM222991   3.996   3.334   2.696 -0.7917  2.3833  1.8376
17576THY    HM322992   3.831   3.392   2.677  1.2448 -1.7687  0.6740
17576THY    CA622993   3.703   3.214   2.817 -0.7461 -0.1929 -0.9115
17576THY    HA622994   3.629   3.263   2.754 -0.0059 -1.4863 -1.4100
17577THY      O22995   9.068   4.610   6.953  0.1228 -0.0365 -0.2456
17577THY     HO22996   9.087   4.568   7.039  0.4301  0.0265  0.0160
17577THY    CA122997   8.939   4.633   6.931 -0.6379  0.0223 -0.0366
17577THY    CA222998   8.890   4.734   6.846  0.0928 -0.2451  0.2593
17577THY    CP122999   8.988   4.822   6.765  0.6857  0.0439  0.0606
17577THY    HP123000   9.060   4.755   6.715  0.3679 -1.1750  0.5926
17577THY    CP223001   9.065   4.924   6.853 -0.0101  0.2456  0.0212
17577THY    HP223002   9.148   4.968   6.797 -2.2094 -0.8062  3.1593
17577THY    HP323003   9.094   4.858   6.936 -0.4005  1.2922  1.1267
17577THY    HP423004   8.997   5.000   6.892 -0.7293  1.2716 -1.1088
17577THY    CP323005   8.921   4.886   6.644 -0.3382  0.8801 -0.6540
17577THY    HP523006   8.862   4.976   6.664  1.3029  0.7022  0.5050
17577THY    HP623007   8.853   4.818   6.591  0.2110 -1.9802  0.8819
17577THY    HP723008   8.992   4.928   6.572 -0.4086  1.9260  1.3548
17577THY    CA323009   8.752   4.748   6.838  0.4893 -0.0071 -0.5224
17577THY    HA323010   8.713   4.824   6.771  3.0200 -0.2072  0.6945
17577THY    CA423011   8.665   4.663   6.908 -0.2330 -0.6847 -0.5630
17577THY    HA423012   8.557   4.673   6.906 -0.3101 -1.3891 -1.3931
17577THY    CA523013   8.725   4.564   6.993  0.5680  0.3563  0.1604
17577THY    CM123014   8.633   4.479   7.077 -0.1688 -0.2809 -0.7593
17577THY    HM123015   8.680   4.396   7.131  0.4494  1.3107  0.5816
17577THY    HM223016   8.548   4.438   7.022  0.7085  0.3158 -3.5795
17577THY    HM323017   8.585   4.540   7.154  0.4446  0.5743 -1.3412
17577THY    CA623018   8.858   4.552   6.997 -0.5017 -0.3422  0.8583
17577THY    HA623019   8.898   4.476   7.064 -2.8492  1.9760  1.5213
17578THY      O23020   2.481   4.687   3.710  0.2776  0.2031 -0.2130
17578THY     HO23021   2.425   4.645   3.642  0.4182 -1.1611  1.6546
17578THY    CA123022   2.482   4.820   3.685 -0.0653 -1.3332  0.4678
17578THY    CA223023   2.519   4.912   3.789 -0.0859  0.2488 -0.2578
17578THY    CP123024   2.577   4.863   3.922  0.4203  0.2610  0.3158
17578THY    HP123025   2.622   4.764   3.906  0.9295  0.1933  0.5516
17578THY    CP223026   2.467   4.853   4.027 -0.5030  0.6101  0.7638
17578THY    HP223027   2.434   4.952   4.061  0.2278 -1.6000  1.8488
17578THY    HP323028   2.499   4.793   4.113 -2.8299  0.2579 -1.1060
17578THY    HP423029   2.383   4.798   3.984 -0.0434 -0.3522  0.7872
17578THY    CP323030   2.696   4.948   3.967 -0.1748 -0.0453 -0.3923
17578THY    HP523031   2.764   4.893   4.034  0.1018  0.9236  1.0782
17578THY    HP623032   2.665   5.047   4.002  0.3549  0.1655 -0.2987
17578THY    HP723033   2.748   4.955   3.870 -0.4003 -0.2389 -1.2336
17578THY    CA323034   2.518   5.043   3.758 -0.0222 -0.1362 -0.6089
17578THY    HA323035   2.547   5.118   3.831  2.3339 -0.6958 -0.8763
17578THY    CA423036   2.459   5.090   3.638  0.1304  0.2976  0.1722
17578THY    HA423037   2.445   5.194   3.610 -0.5153 -2.7657 -0.6316
17578THY    CA523038   2.412   4.995   3.537 -0.6589 -0.8696  0.2540
17578THY    CM123039   2.364   5.031   3.401  0.1307 -0.5704  0.3070
17578THY    HM123040   2.336   5.137   3.401 -1.4615 -1.7429 -0.0800
17578THY    HM223041   2.279   4.971   3.369 -0.1714  0.9634 -0.1310
17578THY    HM323042   2.436   5.029   3.318  0.4401 -0.3182 -2.3446
17578THY    CA623043   2.431   4.862   3.566  0.1143  0.2505  0.3813
17578THY    HA623044   2.387   4.790   3.497 -1.9496  1.5556  0.3026
17579THY      O23045   6.100   1.897   3.050 -0.3973  0.1384 -0.0009
17579THY     HO23046   6.071   1.872   3.140 -2.3968 -0.7528 -1.1734
17579THY    CA123047   6.186   1.803   3.015 -0.2205 -0.8327 -0.1954
17579THY    CA223048   6.221   1.775   2.883 -0.4111  0.3532 -0.2848
17579THY    CP123049   6.157   1.858   2.775  0.2041 -0.6658 -0.2279
17579THY    HP123050   6.114   1.946   2.824 -0.8823 -0.9140 -0.6055
17579THY    CP223051   6.045   1.777   2.715 -0.1197  0.2280  0.3425
17579THY    HP223052   6.070   1.673   2.693 -2.4542  4.5616 -1.3743
17579THY    HP323053   6.004   1.827   2.626 -1.0855  0.8738  0.7152
17579THY    HP423054   5.970   1.772   2.794 -1.5366 -1.0498  0.6154
17579THY    CP323055   6.248   1.911   2.664  0.8073 -0.4543  0.2996
17579THY    HP523056   6.185   1.969   2.596 -0.1164  1.7286  2.0056
17579THY    HP623057   6.273   1.818   2.612 -0.3729 -1.1300  0.3487
17579THY    HP723058   6.334   1.963   2.707 -0.2832  1.9742  0.2242
17579THY    CA323059   6.318   1.678   2.850  0.1736  0.5028  0.0512
17579THY    HA323060   6.344   1.662   2.746 -0.2836  0.0645  1.8914
17579THY    CA423061   6.372   1.607   2.955 -0.2565  0.4001 -0.0426
17579THY    HA423062   6.436   1.524   2.929 -1.8980 -2.4834 -0.5456
17579THY    CA523063   6.328   1.624   3.085 -0.1240 -0.4894 -0.5146
17579THY    CM123064   6.365   1.542   3.205 -0.4558  0.1035 -0.0555
17579THY    HM123065   6.280   1.488   3.250  0.5989  0.4236 -1.4838
17579THY    HM223066   6.432   1.600   3.270  0.5508 -0.3633 -0.6760
17579THY    HM323067   6.423   1.456   3.171 -0.0175 -0.1417  0.3319
17579THY    CA623068   6.241   1.729   3.117 -0.1019  0.7585 -0.5891
17579THY    HA623069   6.209   1.746   3.219 -0.0596  0.6378  0.2349
17580THY      O23070   8.177   0.636   2.229 -0.1641 -0.0440 -0.0583
17580THY     HO23071   8.246   0.589   2.280 -0.4214 -0.5965 -1.0610
17580THY    CA123072   8.100   0.546   2.167 -0.1099  0.2419 -1.1399
17580THY    CA223073   8.005   0.584   2.071 -0.4416  0.1103 -0.0840
17580THY    CP123074   7.980   0.731   2.030 -0.0202 -0.1862  0.4338
17580THY    HP123075   8.077   0.782   2.025  0.0153 -1.7204  0.2720
17580THY    CP223076   7.881   0.803   2.116  0.3535 -0.0521 -0.8253
17580THY    HP223077   7.798   0.734   2.135 -0.9133  0.3211  0.7372
17580THY    HP323078   7.840   0.892   2.067  0.2980  1.2503 -0.1111
17580THY    HP423079   7.930   0.837   2.208 -1.6808  0.8819 -0.3100
17580THY    CP323080   7.924   0.738   1.893 -0.3638  0.1993  0.3778
17580THY    HP523081   7.982   0.673   1.827 -0.1691  0.6754  0.0603
17580THY    HP623082   7.943   0.838   1.852  2.3326 -0.9599 -0.5262
17580THY    HP723083   7.815   0.730   1.891 -0.6077  0.8982  2.6675
17580THY    CA323084   7.935   0.472   2.014 -0.0310  0.0145 -0.3717
17580THY    HA323085   7.858   0.481   1.938  1.4348 -1.4719  0.1452
17580THY    CA423086   7.970   0.337   2.042 -0.0753 -0.2601 -0.0185
17580THY    HA423087   7.916   0.251   2.002  0.9217  2.0149 -1.8054
17580THY    CA523088   8.067   0.312   2.137 -0.4854  0.5452  0.0192
17580THY    CM123089   8.084   0.164   2.179 -0.2502  0.3856 -1.0855
17580THY    HM123090   7.991   0.124   2.220 -0.0637  0.7849 -1.1218
17580THY    HM223091   8.165   0.141   2.250  1.1390 -0.6164  0.4478
17580THY    HM323092   8.114   0.118   2.084  0.9712  0.3419 -0.2599
17580THY    CA623093   8.139   0.413   2.191  0.4326 -0.8346 -0.0452
17580THY    HA623094   8.212   0.392   2.269 -0.8269  1.1113  2.2146
17581THY      O23095   1.031   5.449   3.168 -0.2899 -0.1732  0.2234
17581THY     HO23096   1.020   5.443   3.264  2.5468  0.3037  1.0809
17581THY    CA123097   1.105   5.341   3.121 -0.0899  0.1190 -0.6611
17581THY    CA223098   1.168   5.337   2.989  0.3334  0.2713  0.3863
17581THY    CP123099   1.183   5.454   2.903  0.7316 -0.5284 -0.0656
17581THY    HP123100   1.160   5.535   2.974 -0.4811  0.3513 -1.1535
17581THY    CP223101   1.079   5.459   2.791 -0.1705 -1.3671  0.4755
17581THY    HP223102   1.073   5.554   2.738 -1.2782 -2.5681 -0.2265
17581THY    HP323103   0.981   5.436   2.833 -1.1621 -2.6585  2.1663
17581THY    HP423104   1.106   5.389   2.710 -2.0270 -0.5695 -1.2577
17581THY    CP323105   1.318   5.492   2.838 -0.2671  0.1783  0.4598
17581THY    HP523106   1.395   5.468   2.912  1.1893 -2.1788 -2.9580
17581THY    HP623107   1.322   5.601   2.823  0.5946  0.2091  0.4431
17581THY    HP723108   1.344   5.429   2.753  0.6884  0.8135 -0.0326
17581THY    CA323109   1.244   5.216   2.959  0.3317  0.3883  0.3943
17581THY    HA323110   1.302   5.204   2.868  0.6535  0.7865 -1.3869
17581THY    CA423111   1.242   5.113   3.059  0.2049  0.1601 -0.3982
17581THY    HA423112   1.304   5.025   3.042  1.5197 -1.8772  0.8352
17581THY    CA523113   1.179   5.125   3.178  0.5192 -0.4032  0.2252
17581THY    CM123114   1.173   5.015   3.276  0.2542  0.0143 -0.3144
17581THY    HM123115   1.272   4.989   3.316 -0.2943  1.3714 -0.3876
17581THY    HM223116   1.118   4.928   3.240  1.5743 -2.3958 -0.2438
17581THY    HM323117   1.120   5.047   3.366  0.4936 -0.1593  0.6098
17581THY    CA623118   1.105   5.241   3.211  0.6518  0.5727  0.7407
17581THY    HA623119   1.042   5.243   3.299 -1.3591 -0.7716  0.0049
17582THY      O23120   5.964   7.708   3.624 -0.6793 -0.2654  0.1858
17582THY     HO23121   6.015   7.648   3.680 -1.3229  1.5324  1.2161
17582THY    CA123122   5.837   7.697   3.661  0.4855  1.1544  0.1108
17582THY    CA223123   5.732   7.783   3.622 -0.1345 -0.4089  0.2526
17582THY    CP123124   5.783   7.908   3.558 -0.3093  1.1896 -0.1767
17582THY    HP123125   5.869   7.885   3.493 -0.3184  0.9556  0.4203
17582THY    CP223126   5.820   8.018   3.664 -0.3747  0.1106  0.4235
17582THY    HP223127   5.859   8.109   3.618 -0.5408  2.8584  1.9621
17582THY    HP323128   5.907   7.977   3.717 -1.0654  0.7172 -0.2955
17582THY    HP423129   5.739   8.044   3.734 -0.2268  0.4909 -0.1226
17582THY    CP323130   5.677   7.978   3.466  0.1330 -0.5450  0.7210
17582THY    HP523131   5.694   8.084   3.441  0.0082  1.1407  1.1602
17582THY    HP623132   5.577   7.977   3.510  0.0816 -0.5447 -2.1784
17582THY    HP723133   5.678   7.930   3.367 -1.1384 -0.4610  0.4996
17582THY    CA323134   5.596   7.762   3.661 -0.1071 -0.0926  0.0128
17582THY    HA323135   5.514   7.829   3.638 -1.7343  0.8732 -1.5567
17582THY    CA423136   5.579   7.650   3.742 -0.1119  0.4723 -0.2239
17582THY    HA423137   5.481   7.629   3.783  0.4032  1.8944  0.0760
17582THY    CA523138   5.683   7.562   3.782  0.0632 -0.5463 -0.3091
17582THY    CM123139   5.649   7.447   3.875  0.1958  0.9694  0.4558
17582THY    HM123140   5.710   7.459   3.966  1.6685 -0.0695  1.2171
17582THY    HM223141   5.680   7.353   3.829  0.8010  1.3811  0.4446
17582THY    HM323142   5.542   7.433   3.892 -0.0077 -0.7566 -0.3806
17582THY    CA623143   5.815   7.582   3.736  1.0115 -0.2301  0.2533
17582THY    HA623144   5.899   7.517   3.760 -0.3497  1.1971 -1.0793
17583THY      O23145   6.147   0.319   4.667  0.2295 -0.1860  0.2578
17583THY     HO23146   6.204   0.284   4.737 -0.6582  0.5020  0.1431
17583THY    CA123147   6.016   0.288   4.686 -0.0071  0.5509  0.2256
17583THY    CA223148   5.922   0.308   4.584 -0.2876 -0.3353 -0.9654
17583THY    CP123149   5.978   0.343   4.440  0.0619 -0.5003  0.0407
17583THY    HP123150   6.081   0.379   4.435  0.3016 -1.9675 -0.7748
17583THY    CP223151   5.892   0.443   4.364 -0.4023 -0.1469  0.5317
17583THY    HP223152   5.833   0.507   4.431 -0.5416 -0.9042  1.2112
17583THY    HP323153   5.813   0.399   4.303 -0.3479 -0.8609  1.3870
17583THY    HP423154   5.959   0.495   4.294  1.3902  1.4611  0.5262
17583THY    CP323155   5.974   0.212   4.359  0.1177 -0.2555 -0.2830
17583THY    HP523156   6.050   0.145   4.402  1.9005 -2.6371  0.0610
17583THY    HP623157   5.997   0.224   4.252 -2.9735 -0.8175  1.7664
17583THY    HP723158   5.876   0.166   4.376 -0.2852 -2.4241 -0.3504
17583THY    CA323159   5.790   0.295   4.621  0.3885 -0.5636  0.3285
17583THY    HA323160   5.716   0.310   4.543 -0.3318 -0.4052 -2.0215
17583THY    CA423161   5.751   0.244   4.743 -0.2486  0.0640  0.5400
17583THY    HA423162   5.647   0.220   4.762  0.0350 -0.2543 -1.0404
17583THY    CA523163   5.844   0.215   4.840  0.8732 -0.2423  0.0575
17583THY    CM123164   5.803   0.175   4.975  0.0832 -0.6547  0.4110
17583THY    HM123165   5.729   0.244   5.018 -0.5696 -2.9647  1.2166
17583THY    HM223166   5.889   0.177   5.044  0.6085 -1.2006 -1.4407
17583THY    HM323167   5.760   0.075   4.972 -1.9352  0.5130  1.1759
17583THY    CA623168   5.979   0.237   4.810  0.0652 -0.5030 -0.1921
17583THY    HA623169   6.057   0.215   4.882 -0.1402 -0.6190 -1.3775
17584THY      O23170   6.328   0.495   6.820  0.3212  0.2178  0.2320
17584THY     HO23171   6.365   0.442   6.893  1.6528  0.8084  1.8908
17584THY    CA123172   6.345   0.420   6.703  0.0674  0.3575 -0.1861
17584THY    CA223173   6.270   0.449   6.587  0.0639 -0.3287  0.7409
17584THY    CP123174   6.190   0.571   6.577  0.0083 -0.2605  0.2632
17584THY    HP123175   6.214   0.633   6.664  1.9870  1.2045 -2.3272
17584THY    CP223176   6.037   0.552   6.586 -0.5491  0.2822  0.6527
17584THY    HP223177   5.992   0.502   6.499 -0.2823 -0.7932  2.2232
17584THY    HP323178   5.989   0.648   6.606  1.6106 -1.8565  2.3009
17584THY    HP423179   6.016   0.492   6.675 -0.0117 -0.5207 -0.8130
17584THY    CP323180   6.233   0.655   6.454  0.5916 -0.1745  1.0871
17584THY    HP523181   6.199   0.605   6.363 -0.7464  0.6928  0.3606
17584THY    HP623182   6.342   0.667   6.458  0.3717  0.4059  3.3678
17584THY    HP723183   6.188   0.755   6.449 -0.1342 -1.1601  0.7311
17584THY    CA323184   6.283   0.367   6.478  0.8412 -0.4760  0.3093
17584THY    HA323185   6.224   0.391   6.390 -0.2376  0.2957  0.5937
17584THY    CA423186   6.367   0.255   6.482  0.0552  0.0934 -0.3224
17584THY    HA423187   6.384   0.191   6.395  2.6516  0.6125 -0.4772
17584THY    CA523188   6.449   0.234   6.592  0.4613  0.0751  0.5716
17584THY    CM123189   6.555   0.118   6.596 -0.7883  1.1349  0.3492
17584THY    HM123190   6.526   0.030   6.654 -2.0786  1.9864  1.3059
17584THY    HM223191   6.645   0.145   6.653  1.9964 -0.6782 -3.9740
17584THY    HM323192   6.598   0.095   6.498 -2.5946 -0.0965  1.8991
17584THY    CA623193   6.437   0.320   6.704  0.1208  0.0715 -0.4672
17584THY    HA623194   6.508   0.311   6.786  2.5812 -1.6585  1.5009
17585THY      O23195   6.518   7.067   3.780 -0.1839 -0.9968  0.3380
17585THY     HO23196   6.471   7.068   3.695 -1.0496 -0.5748 -0.9407
17585THY    CA123197   6.607   7.162   3.775 -0.1545 -0.1702 -0.3326
17585THY    CA223198   6.729   7.149   3.838 -0.0457 -0.3618  0.6221
17585THY    CP123199   6.764   7.024   3.922  0.1024  0.3924  0.2824
17585THY    HP123200   6.682   6.953   3.904  0.8876 -1.8007 -0.1386
17585THY    CP223201   6.787   7.063   4.071  0.2774 -0.3360  0.4821
17585THY    HP223202   6.695   7.108   4.111 -0.5226  0.1786 -1.5309
17585THY    HP323203   6.878   7.124   4.072  1.6500  1.4419 -1.4353
17585THY    HP423204   6.801   6.972   4.130 -1.1490  0.5496  0.7969
17585THY    CP323205   6.886   6.954   3.865 -0.3706 -0.0932  0.3146
17585THY    HP523206   6.907   6.868   3.929  0.8131  0.1358  0.7566
17585THY    HP623207   6.980   7.010   3.872 -0.4920 -1.4453  0.7404
17585THY    HP723208   6.876   6.921   3.761 -2.5558  0.3815 -0.7431
17585THY    CA323209   6.828   7.251   3.824 -0.4365 -0.0617 -0.0854
17585THY    HA323210   6.926   7.245   3.871 -0.4897  0.0552 -0.0458
17585THY    CA423211   6.792   7.361   3.757  0.4502  0.3765  0.9988
17585THY    HA423212   6.863   7.442   3.741  1.4897 -3.8004 -0.4379
17585THY    CA523213   6.677   7.364   3.681  0.2365 -0.4399  0.0285
17585THY    CM123214   6.642   7.487   3.590 -0.6444 -1.2571 -0.2326
17585THY    HM123215   6.533   7.497   3.595 -0.4246  0.1254  2.3445
17585THY    HM223216   6.669   7.465   3.486  1.6745 -0.9432  0.8027
17585THY    HM323217   6.687   7.581   3.624  0.3522  0.6866 -1.3505
17585THY    CA623218   6.587   7.261   3.682 -0.1450  0.1838  0.3264
17585THY    HA623219   6.502   7.256   3.615 -1.3011  1.5526  1.0647
17586THY      O23220   9.049   3.216   4.132  0.5259 -0.0727  0.0589
17586THY     HO23221   9.008   3.279   4.194 -0.8591  0.1401 -0.9911
17586THY    CA123222   9.036   3.095   4.195  0.8537 -0.2545  0.5467
17586THY    CA223223   8.937   3.004   4.164  0.2636  0.6358  0.0068
17586THY    CP123224   8.825   3.042   4.064 -0.5498 -0.3001  0.4605
17586THY    HP123225   8.853   3.134   4.012 -0.0518  1.7589  1.5537
17586THY    CP223226   8.689   3.066   4.142  0.6482  0.4428  0.2798
17586THY    HP223227   8.679   2.980   4.209  1.1071 -0.4372 -0.4855
17586THY    HP323228   8.609   3.079   4.068  0.8067  0.1709 -0.2600
17586THY    HP423229   8.708   3.155   4.203 -1.0415  1.6276 -0.1147
17586THY    CP323230   8.810   2.933   3.956 -0.2318 -0.1173  0.3766
17586THY    HP523231   8.751   2.970   3.872  0.9403 -1.2438 -0.2045
17586THY    HP623232   8.763   2.839   3.987  0.6658  0.2309  0.0253
17586THY    HP723233   8.908   2.916   3.910  0.4381  1.1641  0.6609
17586THY    CA323234   8.923   2.880   4.232 -0.0856  0.0998  0.1129
17586THY    HA323235   8.836   2.817   4.216  0.8492  0.8187 -1.4364
17586THY    CA423236   9.019   2.843   4.325 -0.1145  0.1446  0.0986
17586THY    HA423237   9.008   2.748   4.377 -1.4114  0.9005  0.6333
17586THY    CA523238   9.124   2.933   4.355  0.0553  0.3519  0.4984
17586THY    CM123239   9.215   2.899   4.463 -0.4277 -0.5381 -0.4574
17586THY    HM123240   9.159   2.862   4.549 -1.1310  0.3456  2.4612
17586THY    HM223241   9.267   2.990   4.495 -2.4299  1.6553 -0.0065
17586THY    HM323242   9.287   2.820   4.436  0.1703 -1.7101  0.4417
17586THY    CA623243   9.133   3.059   4.299  0.4694  0.4955  0.6241
17586THY    HA623244   9.226   3.113   4.315  2.0615 -1.2671 -1.4284
17587THY      O23245   0.714   5.030   5.942 -0.1224 -0.1676  0.6071
17587THY     HO23246   0.677   4.980   6.016  1.7627 -0.9415 -2.2278
17587THY    CA123247   0.833   4.972   5.919  0.4398 -0.6426 -0.0736
17587THY    CA223248   0.892   4.962   5.792  0.4880  0.7382 -0.3935
17587THY    CP123249   0.821   5.023   5.670 -0.3361  0.5156 -0.2114
17587THY    HP123250   0.746   5.089   5.716 -0.7933 -0.6021  0.0697
17587THY    CP223251   0.761   4.914   5.570 -0.6503  0.0530  0.6893
17587THY    HP223252   0.705   4.958   5.486  0.5853 -1.2633 -0.1686
17587THY    HP323253   0.706   4.836   5.624  0.6424 -1.0203 -1.0525
17587THY    HP423254   0.833   4.845   5.525 -0.5271 -0.2410  1.0096
17587THY    CP323255   0.918   5.112   5.597  0.2515 -0.1396 -0.2035
17587THY    HP523256   0.865   5.191   5.542 -2.0133  2.0295 -0.0800
17587THY    HP623257   0.987   5.053   5.535  0.4589 -1.0667  0.9845
17587THY    HP723258   0.980   5.172   5.665 -0.0792 -0.1871  0.1975
17587THY    CA323259   1.005   4.893   5.771 -0.4318 -0.4542 -0.0513
17587THY    HA323260   1.037   4.871   5.669 -0.2117 -0.5557  0.7113
17587THY    CA423261   1.074   4.838   5.883  0.1404  0.1561 -0.5342
17587THY    HA423262   1.164   4.782   5.861 -0.3668 -1.3761 -0.8165
17587THY    CA523263   1.024   4.858   6.009  0.0066 -0.2703 -0.6216
17587THY    CM123264   1.101   4.807   6.132  0.4777  0.5178 -0.1990
17587THY    HM123265   1.045   4.787   6.225 -0.5663 -0.0026  0.2471
17587THY    HM223266   1.172   4.883   6.167  3.0197 -1.8472 -1.3254
17587THY    HM323267   1.152   4.713   6.107  0.6312  1.7534 -0.4694
17587THY    CA623268   0.904   4.931   6.030 -0.0356  0.4779 -0.5952
17587THY    HA623269   0.875   4.943   6.134  0.3604  0.5617 -0.3451
17588THY      O23270   7.729   0.805   5.480  0.2403  0.0302 -0.5081
17588THY     HO23271   7.738   0.737   5.410  0.9425  0.3261 -0.7281
17588THY    CA123272   7.642   0.904   5.458 -0.0089 -0.2929 -0.2795
17588THY    CA223273   7.641   1.040   5.504 -0.6808  0.4018 -0.1422
17588THY    CP123274   7.733   1.085   5.613 -0.4995  0.4107  0.3978
17588THY    HP123275   7.830   1.033   5.610 -1.2576  0.0715 -1.0459
17588THY    CP223276   7.666   1.063   5.755  0.2265 -0.2747 -0.5754
17588THY    HP223277   7.652   0.955   5.767  0.1557 -0.4160 -0.5816
17588THY    HP323278   7.574   1.117   5.780  0.8590 -0.8892  0.8433
17588THY    HP423279   7.740   1.090   5.831  1.5770 -1.8103  0.1837
17588THY    CP323280   7.776   1.231   5.603  0.1519  0.4830  0.3160
17588THY    HP523281   7.689   1.293   5.628  2.4111  4.5313  2.2710
17588THY    HP623282   7.816   1.252   5.503 -0.2115  0.4033  0.6493
17588THY    HP723283   7.856   1.257   5.674  2.5451 -2.7403  2.5741
17588THY    CA323284   7.532   1.125   5.478  0.1077  0.4766 -0.8770
17588THY    HA323285   7.517   1.225   5.518 -0.8895 -2.0614  0.0645
17588THY    CA423286   7.437   1.076   5.391  0.3919 -0.5708 -0.4225
17588THY    HA423287   7.344   1.128   5.368  0.6150  1.1768  0.8495
17588THY    CA523288   7.436   0.947   5.339  0.2085  0.3653 -0.3863
17588THY    CM123289   7.323   0.889   5.261  0.2607 -0.1916 -0.1983
17588THY    HM123290   7.234   0.954   5.258  0.2447 -0.0595 -0.2147
17588THY    HM223291   7.292   0.793   5.304  0.0539  0.8920  0.3395
17588THY    HM323292   7.356   0.865   5.159 -3.3114 -1.6613  0.3605
17588THY    CA623293   7.536   0.862   5.377 -0.1393 -0.0192  0.3044
17588THY    HA623294   7.531   0.759   5.343  1.9377 -0.9839  0.4750
17589THY      O23295   8.868   8.987   5.119 -0.0187  0.6579  0.6002
17589THY     HO23296   8.923   9.012   5.043  2.2619  1.3062 -1.9391
17589THY    CA123297   8.944   9.001   5.235  0.1404 -0.0558  0.2877
17589THY    CA223298   8.911   8.933   5.356 -0.0409  0.4961  0.8159
17589THY    CP123299   8.778   8.844   5.352  0.3722  0.4036 -0.1335
17589THY    HP123300   8.709   8.872   5.272  0.6103  0.5462  0.9104
17589THY    CP223301   8.705   8.864   5.488  1.0129 -0.3465  0.8565
17589THY    HP223302   8.620   8.794   5.484  0.8778 -0.1641  1.0068
17589THY    HP323303   8.672   8.966   5.514  0.2380  2.8855 -0.0975
17589THY    HP423304   8.773   8.821   5.561 -0.0773  0.5100  0.5277
17589THY    CP323305   8.815   8.699   5.337 -0.0850 -0.3342  0.2636
17589THY    HP523306   8.868   8.660   5.425  0.4571 -0.6481  0.2844
17589THY    HP623307   8.884   8.691   5.252  0.2426  0.0182 -0.7753
17589THY    HP723308   8.732   8.639   5.296 -1.0393 -0.1114  1.3796
17589THY    CA323309   8.994   8.959   5.470  0.5839 -0.4643  0.3844
17589THY    HA323310   8.963   8.919   5.566  1.0520 -1.3075 -2.1538
17589THY    CA423311   9.098   9.051   5.458  0.1593 -0.3019 -0.8885
17589THY    HA423312   9.154   9.076   5.548 -1.9138  1.3007 -1.6268
17589THY    CA523313   9.126   9.117   5.339  0.3862 -0.7562 -0.0940
17589THY    CM123314   9.230   9.224   5.338 -0.0365 -0.9959 -0.2910
17589THY    HM123315   9.317   9.191   5.280  0.2145  0.2168 -1.8841
17589THY    HM223316   9.265   9.237   5.441  0.2133 -1.2841  1.5877
17589THY    HM323317   9.179   9.311   5.296 -0.0320  1.8678  1.2006
17589THY    CA623318   9.045   9.099   5.228 -0.1180  0.4171 -0.9840
17589THY    HA623319   9.074   9.161   5.143  1.7197  0.9224 -1.0795
17590THY      O23320   2.050   6.642   6.151  0.2537  0.8105 -0.2591
17590THY     HO23321   2.028   6.570   6.089  1.9364  0.3512 -0.4306
17590THY    CA123322   2.089   6.752   6.075  0.4370 -0.0790 -0.4427
17590THY    CA223323   2.082   6.884   6.128 -0.2670 -0.0067  0.2360
17590THY    CP123324   2.036   6.902   6.273 -0.4015 -0.3567 -0.2997
17590THY    HP123325   2.039   6.815   6.340 -4.0354  0.4564  0.0097
17590THY    CP223326   1.884   6.932   6.271 -0.3083 -0.0582 -0.0773
17590THY    HP223327   1.833   6.938   6.368 -0.0698  0.0774 -0.2601
17590THY    HP323328   1.825   6.868   6.205  0.0831  1.2329 -1.8207
17590THY    HP423329   1.868   7.037   6.241  0.2805 -0.8026 -0.1910
17590THY    CP323330   2.122   7.016   6.340  0.2858 -0.5001  0.0922
17590THY    HP523331   2.095   7.115   6.302 -2.2653 -0.0615 -0.3593
17590THY    HP623332   2.229   6.995   6.341 -0.2851  3.1230 -3.9219
17590THY    HP723333   2.095   7.024   6.446 -0.0736 -0.5782 -0.0875
17590THY    CA323334   2.104   6.990   6.037 -0.3069  0.1736 -0.6413
17590THY    HA323335   2.093   7.092   6.073 -0.6673  2.7520 -1.5132
17590THY    CA423336   2.142   6.969   5.905 -0.3814 -0.0653  0.6448
17590THY    HA423337   2.160   7.053   5.839  0.2080 -0.2100  0.4127
17590THY    CA523338   2.154   6.836   5.857 -0.2377 -0.0769  0.2340
17590THY    CM123339   2.197   6.815   5.718 -0.5266  0.2277  0.1417
17590THY    HM123340   2.195   6.709   5.692 -1.8954  3.1025 -0.6105
17590THY    HM223341   2.297   6.860   5.711 -1.5283  1.3124  2.7217
17590THY    HM323342   2.129   6.864   5.648  0.9839 -0.8807  0.7673
17590THY    CA623343   2.116   6.735   5.941 -0.5674  0.5376 -0.7924
17590THY    HA623344   2.121   6.634   5.901  0.7990  1.0588 -0.9433
17591THY      O23345   5.933   7.040   4.870  0.5703 -0.5394  0.8944
17591THY     HO23346   6.007   7.057   4.930  2.2881 -1.9553 -1.1698
17591THY    CA123347   5.939   6.909   4.842  0.1246 -0.4397 -1.0678
17591THY    CA223348   5.843   6.845   4.762 -0.1172 -0.0755  0.2086
17591THY    CP123349   5.735   6.928   4.696 -0.0618 -0.8883 -0.3974
17591THY    HP123350   5.726   7.019   4.757 -0.7561 -2.1271  0.3884
17591THY    CP223351   5.595   6.876   4.696  0.7214 -0.2857  0.0723
17591THY    HP223352   5.579   6.780   4.645  2.8419 -1.0748  0.0667
17591THY    HP323353   5.524   6.948   4.655 -1.5521  0.3576 -1.7043
17591THY    HP423354   5.570   6.870   4.802 -0.2396 -0.4827  0.4100
17591THY    CP323355   5.781   6.974   4.558  0.5325 -0.0732 -0.0263
17591THY    HP523356   5.783   6.887   4.491 -2.6848 -1.1016  0.5385
17591THY    HP623357   5.883   7.008   4.540  1.0825 -0.1920 -1.6601
17591THY    HP723358   5.705   7.041   4.517  0.4233  0.2228  0.0291
17591THY    CA323359   5.844   6.701   4.747  0.0842 -0.1599  0.2861
17591THY    HA323360   5.763   6.651   4.694  0.4208 -0.7923  0.3960
17591THY    CA423361   5.939   6.630   4.815 -0.8783 -0.5078  0.6495
17591THY    HA423362   5.945   6.521   4.816 -0.0221  1.5782  0.6674
17591THY    CA523363   6.042   6.695   4.891  0.2605 -0.4930 -0.1591
17591THY    CM123364   6.140   6.613   4.971 -0.1202  0.4974 -0.5204
17591THY    HM123365   6.088   6.523   5.006  0.4760 -1.6390 -1.7692
17591THY    HM223366   6.180   6.670   5.055 -1.7159  0.2656  1.0032
17591THY    HM323367   6.218   6.589   4.898 -0.6994 -0.9696  1.7673
17591THY    CA623368   6.045   6.832   4.895  0.3575 -0.4530  0.8209
17591THY    HA623369   6.130   6.871   4.951  0.3174  0.3750 -0.2387
17592THY      O23370   2.551   8.020   6.554 -0.2660 -0.0031 -0.2149
17592THY     HO23371   2.618   8.085   6.526  0.5598 -0.0473 -1.0656
17592THY    CA123372   2.598   7.946   6.649  0.1961 -0.0345 -0.1082
17592THY    CA223373   2.512   7.878   6.742  0.2655 -0.1098  0.8465
17592THY    CP123374   2.349   7.888   6.751 -0.2251 -0.0938  0.0245
17592THY    HP123375   2.312   7.924   6.654  0.5920  0.3298  2.1770
17592THY    CP223376   2.296   7.992   6.849 -0.2750  0.6945 -0.3373
17592THY    HP223377   2.187   8.000   6.846 -0.3115  3.1686  1.1167
17592THY    HP323378   2.331   8.091   6.819 -1.2058  2.3596  0.5424
17592THY    HP423379   2.331   7.968   6.950 -0.2547  0.9122  0.5987
17592THY    CP323380   2.260   7.761   6.780 -0.2648  0.4549 -0.2368
17592THY    HP523381   2.279   7.689   6.700  0.3211 -2.6368  3.0874
17592THY    HP623382   2.155   7.790   6.774 -0.5349 -2.7846 -1.4622
17592THY    HP723383   2.293   7.724   6.878  0.7573 -0.4010 -1.7335
17592THY    CA323384   2.583   7.810   6.839 -0.2698 -0.1381  0.0758
17592THY    HA323385   2.527   7.753   6.913 -2.3977 -2.0549 -0.4390
17592THY    CA423386   2.718   7.795   6.847 -0.1204  0.9581 -0.2709
17592THY    HA423387   2.760   7.730   6.923  0.2183  0.5084 -0.5856
17592THY    CA523388   2.793   7.863   6.750  0.1488  0.2106 -0.1801
17592THY    CM123389   2.935   7.810   6.730 -0.6449  0.0192 -0.2755
17592THY    HM123390   2.986   7.778   6.822  0.6876 -1.1989 -1.7809
17592THY    HM223391   2.994   7.895   6.692 -2.4161  0.6381  1.3035
17592THY    HM323392   2.946   7.721   6.668 -1.1901  1.1361 -1.1526
17592THY    CA623393   2.734   7.943   6.654 -0.2341 -0.5589 -0.2673
17592THY    HA623394   2.785   7.988   6.569 -1.5811 -0.7848  0.9225
17593THY      O23395   6.588   2.357   3.065  0.4323 -0.6592 -0.4737
17593THY     HO23396   6.647   2.419   3.112 -0.1360  0.2532 -0.5990
17593THY    CA123397   6.657   2.254   3.029 -0.5438  0.4767 -0.3016
17593THY    CA223398   6.594   2.134   2.978  0.4642 -0.1697 -0.0657
17593THY    CP123399   6.446   2.119   2.962  0.1072  0.5235  0.1186
17593THY    HP123400   6.425   2.024   2.912  0.2606 -0.5270  0.6163
17593THY    CP223401   6.401   2.224   2.860  0.7376 -0.1429  0.3642
17593THY    HP223402   6.292   2.215   2.860  0.7155 -0.5929  0.6198
17593THY    HP323403   6.429   2.218   2.755 -2.1842 -0.9856 -0.2421
17593THY    HP423404   6.409   2.326   2.900  2.2704  1.2987 -0.2861
17593THY    CP323405   6.366   2.115   3.095  0.5002  0.8100 -0.5971
17593THY    HP523406   6.371   2.019   3.147 -0.7778 -0.6209 -1.4818
17593THY    HP623407   6.263   2.122   3.060  1.3252 -1.9203 -0.9776
17593THY    HP723408   6.390   2.196   3.166  0.2991 -1.3418  1.4644
17593THY    CA323409   6.684   2.029   2.943 -0.1857 -0.4086 -0.0840
17593THY    HA323410   6.652   1.930   2.910 -0.8591  0.5980 -0.2171
17593THY    CA423411   6.817   2.035   2.968 -0.9483 -0.1122 -0.1188
17593THY    HA423412   6.884   1.952   2.956 -0.3216 -0.4191  0.4245
17593THY    CA523413   6.881   2.149   3.018 -0.0676  0.2609 -0.6198
17593THY    CM123414   7.021   2.146   3.055  0.2714 -0.0587 -0.3329
17593THY    HM123415   7.038   2.058   3.119 -1.0089  1.3680  0.3860
17593THY    HM223416   7.049   2.232   3.118  1.8828  2.0197 -2.2609
17593THY    HM323417   7.074   2.125   2.962 -2.4450 -1.2387 -2.7871
17593THY    CA623418   6.800   2.257   3.039  0.3304 -0.7409  0.1638
17593THY    HA623419   6.842   2.349   3.079  0.5358 -2.2547  0.7680
17594THY      O23420   6.422   3.639   4.126 -0.0230 -0.0347 -0.2339
17594THY     HO23421   6.325   3.641   4.119  0.0494 -1.8779 -0.9818
17594THY    CA123422   6.456   3.517   4.092 -1.0228  0.1290  0.9119
17594THY    CA223423   6.591   3.480   4.071 -0.3120  0.4786 -0.4388
17594THY    CP123424   6.704   3.566   4.109 -0.5421 -0.1445 -0.0673
17594THY    HP123425   6.674   3.665   4.148  0.4006  0.6621 -0.0902
17594THY    CP223426   6.798   3.595   3.988  0.3113  0.2396 -0.1085
17594THY    HP223427   6.738   3.647   3.911 -3.7529 -0.1665 -4.6526
17594THY    HP323428   6.848   3.508   3.944  1.3021  0.0902  0.5180
17594THY    HP423429   6.881   3.650   4.032  2.1052  0.3716 -2.7709
17594THY    CP323430   6.784   3.514   4.227 -0.1496 -0.0543  0.3906
17594THY    HP523431   6.837   3.602   4.264  1.3206 -0.1338 -0.4386
17594THY    HP623432   6.865   3.445   4.202 -0.3444  0.0920  0.1047
17594THY    HP723433   6.721   3.478   4.309 -1.6548 -0.7069  1.4188
17594THY    CA323434   6.622   3.355   4.024 -0.2296 -0.2634  0.2748
17594THY    HA323435   6.725   3.320   4.019  0.0546  1.1079  0.8668
17594THY    CA423436   6.521   3.257   4.009  0.2761 -0.6257  1.0046
17594THY    HA423437   6.539   3.154   3.978 -0.1348  2.4173 -0.1028
17594THY    CA523438   6.388   3.295   4.031  0.0654 -0.0049 -0.1505
17594THY    CM123439   6.276   3.201   4.006 -0.3448 -0.9538 -0.1341
17594THY    HM123440   6.257   3.197   3.898 -0.2952 -0.9167 -2.0454
17594THY    HM223441   6.186   3.230   4.063  1.3282  2.1960 -0.6508
17594THY    HM323442   6.286   3.097   4.040 -0.8656 -2.4635 -0.6940
17594THY    CA623443   6.357   3.426   4.071  0.1971 -0.1516 -0.0466
17594THY    HA623444   6.253   3.457   4.083  0.3712  0.9899  0.1481
17595THY      O23445   5.685   0.900   2.977 -0.1191  0.4337 -0.3028
17595THY     HO23446   5.654   0.829   3.036 -1.2496  0.7528  0.4358
17595THY    CA123447   5.573   0.940   2.914 -0.4146 -0.5164 -0.6623
17595THY    CA223448   5.571   1.019   2.798 -0.5722  0.7898 -0.3163
17595THY    CP123449   5.702   1.079   2.746  0.4987 -0.0042  0.5717
17595THY    HP123450   5.782   1.056   2.816  0.8967  0.2081  2.4183
17595THY    CP223451   5.689   1.237   2.731  0.0370 -0.3284  0.1559
17595THY    HP223452   5.597   1.267   2.681  1.2984 -2.2540  1.0541
17595THY    HP323453   5.781   1.271   2.681  0.4475  1.1265  1.2713
17595THY    HP423454   5.694   1.268   2.836  3.1032  0.5027 -2.5479
17595THY    CP323455   5.731   1.034   2.607 -0.2593  0.0700  0.1819
17595THY    HP523456   5.825   1.079   2.571  0.1751 -0.0433 -0.7924
17595THY    HP623457   5.649   1.073   2.546  0.2465 -0.4511  0.4453
17595THY    HP723458   5.724   0.925   2.603 -1.2834 -0.5445  0.2602
17595THY    CA323459   5.449   1.064   2.736 -0.1271 -0.1202  0.6286
17595THY    HA323460   5.453   1.123   2.645 -0.7185 -0.3128  0.3734
17595THY    CA423461   5.334   1.015   2.797  0.3833 -0.3004 -0.4726
17595THY    HA423462   5.237   1.036   2.752  0.1620 -0.9303 -2.6595
17595THY    CA523463   5.338   0.932   2.916  0.7148 -0.5462 -0.3116
17595THY    CM123464   5.205   0.908   2.989  1.3476  0.4923 -0.3802
17595THY    HM123465   5.190   0.986   3.065  0.6145 -0.5894  0.5603
17595THY    HM223466   5.210   0.808   3.033  0.5099 -0.8133 -1.0058
17595THY    HM323467   5.120   0.905   2.920  0.4892  1.4301  1.1228
17595THY    CA623468   5.454   0.896   2.973  0.3440 -0.6555  0.3393
17595THY    HA623469   5.449   0.838   3.064 -1.1379 -1.4415 -0.8426
17596THY      O23470   5.643   0.690   3.169 -0.1142 -0.5260 -0.1356
17596THY     HO23471   5.611   0.609   3.126  0.6612 -2.4940  0.5505
17596THY    CA123472   5.734   0.653   3.261  0.8238 -0.0339 -0.5276
17596THY    CA223473   5.770   0.729   3.371  0.1435  0.6679 -0.0987
17596THY    CP123474   5.701   0.867   3.387 -0.2793  0.2890 -0.6982
17596THY    HP123475   5.611   0.871   3.325 -0.6134  0.7732 -0.6785
17596THY    CP223476   5.789   0.985   3.339  0.0995 -0.2214 -0.2617
17596THY    HP223477   5.854   0.957   3.256  3.1064  1.2646  1.7965
17596THY    HP323478   5.856   1.022   3.417 -1.1338  0.8305 -0.1576
17596THY    HP423479   5.727   1.070   3.309 -0.2305 -2.2277 -1.1563
17596THY    CP323480   5.656   0.897   3.529 -0.1245 -0.4755  0.3349
17596THY    HP523481   5.595   0.987   3.533 -1.6684 -1.1532 -0.6380
17596THY    HP623482   5.730   0.900   3.610 -1.0088  0.3849 -0.1824
17596THY    HP723483   5.577   0.824   3.551 -1.4601  0.0221  1.8728
17596THY    CA323484   5.878   0.692   3.454  0.2666 -0.0518  0.5390
17596THY    HA323485   5.912   0.746   3.542 -0.8848  1.0268 -0.4452
17596THY    CA423486   5.948   0.575   3.419 -0.1348  0.4444 -0.4816
17596THY    HA423487   6.038   0.549   3.475  1.1511 -0.8400  0.9788
17596THY    CA523488   5.912   0.500   3.312  0.0815  0.4932 -0.1739
17596THY    CM123489   5.990   0.380   3.283 -0.1052 -0.0412 -0.3774
17596THY    HM123490   6.092   0.389   3.322  0.1837 -0.2674 -2.2903
17596THY    HM223491   5.986   0.348   3.178  1.3691 -0.1749 -0.1564
17596THY    HM323492   5.951   0.290   3.331 -0.5166 -1.5953 -1.0631
17596THY    CA623493   5.804   0.541   3.230 -0.3215 -0.3972 -0.1412
17596THY    HA623494   5.772   0.477   3.148  0.4459 -0.7321 -0.1106
17597THY      O23495   6.263   7.205   6.121  0.4227 -0.2862  0.0310
17597THY     HO23496   6.173   7.219   6.087  0.4119  0.8413  3.9018
17597THY    CA123497   6.326   7.134   6.028  1.3993 -0.3819  0.4520
17597THY    CA223498   6.433   7.042   6.045 -0.1521 -0.8463 -0.3150
17597THY    CP123499   6.501   7.030   6.181  0.8080  0.5560 -0.2707
17597THY    HP123500   6.476   7.120   6.239 -1.1836 -3.6158  2.1749
17597THY    CP223501   6.656   7.032   6.163 -0.2493 -0.0779 -0.7468
17597THY    HP223502   6.707   7.048   6.258  0.2795 -0.5427  0.4451
17597THY    HP323503   6.688   7.120   6.106 -0.7328 -0.0621 -0.5576
17597THY    HP423504   6.701   6.943   6.116  2.1331 -2.5094  1.5652
17597THY    CP323505   6.449   6.908   6.258  0.5737  0.3421 -0.3154
17597THY    HP523506   6.341   6.907   6.236  0.7188 -0.7008  1.3607
17597THY    HP623507   6.478   6.917   6.363  0.7018  0.3874 -1.1791
17597THY    HP723508   6.489   6.813   6.221 -2.3754 -0.1351 -1.4901
17597THY    CA323509   6.478   6.968   5.929 -0.8763 -0.2530  0.6080
17597THY    HA323510   6.560   6.898   5.942 -0.1765  0.9708  1.6099
17597THY    CA423511   6.419   6.991   5.807 -0.5081 -0.2736 -0.4273
17597THY    HA423512   6.458   6.953   5.713  1.5080  0.4275 -0.2132
17597THY    CA523513   6.321   7.091   5.794 -0.0782  0.1397 -0.4530
17597THY    CM123514   6.265   7.124   5.653 -0.7911  0.6787  0.2929
17597THY    HM123515   6.208   7.039   5.616  1.4574  0.4587 -1.2213
17597THY    HM223516   6.345   7.149   5.581 -2.1778 -1.6899 -1.7268
17597THY    HM323517   6.195   7.208   5.662 -1.3457  3.6490 -0.3792
17597THY    CA623518   6.271   7.153   5.906 -0.2274  0.0891  0.4354
17597THY    HA623519   6.188   7.223   5.893 -1.1499 -2.9683 -1.0473
17598THY      O23520   7.240   6.826   6.825  0.2680 -0.1224 -0.1202
17598THY     HO23521   7.247   6.740   6.780 -0.0063 -0.4638  0.0342
17598THY    CA123522   7.285   6.829   6.953  0.9570  0.4677 -0.1295
17598THY    CA223523   7.343   6.948   7.012  0.2177  0.2776  1.1869
17598THY    CP123524   7.374   7.062   6.914  0.8524  0.0648  0.6149
17598THY    HP123525   7.422   7.011   6.830  4.3508  1.5225  1.1609
17598THY    CP223526   7.491   7.158   6.958  0.2854  0.1661 -0.7760
17598THY    HP223527   7.563   7.104   7.021 -0.9705  2.1354 -0.2788
17598THY    HP323528   7.444   7.241   7.012  0.8175  0.6630 -0.7933
17598THY    HP423529   7.539   7.201   6.870  2.3276  1.3271 -0.5467
17598THY    CP323530   7.254   7.146   6.872  0.7305  0.3252  0.3601
17598THY    HP523531   7.282   7.230   6.806  1.4599  1.9191  1.4216
17598THY    HP623532   7.193   7.187   6.953  2.7306  2.1105 -0.0341
17598THY    HP723533   7.185   7.071   6.832  1.4622 -1.1425  0.4454
17598THY    CA323534   7.371   6.946   7.148 -0.0742  0.2879 -0.8074
17598THY    HA323535   7.416   7.034   7.194  0.1969  1.5216 -1.5752
17598THY    CA423536   7.338   6.840   7.227  0.4865 -0.0253  0.4297
17598THY    HA423537   7.357   6.846   7.334 -0.7578  0.2558 -0.1870
17598THY    CA523538   7.285   6.722   7.170 -0.2304  0.0686 -0.2515
17598THY    CM123539   7.260   6.605   7.254  0.4679  0.5619 -0.7336
17598THY    HM123540   7.289   6.509   7.210  0.5324  0.0697 -0.4915
17598THY    HM223541   7.157   6.592   7.288 -0.2421 -2.0743 -2.8880
17598THY    HM323542   7.329   6.615   7.339  2.0936 -0.7529 -0.0623
17598THY    CA623543   7.258   6.717   7.031 -0.1832  0.2602 -0.1417
17598THY    HA623544   7.210   6.625   6.997  1.8053 -0.9061 -0.8114
17599THY      O23545   5.143   4.995   2.943 -1.0724  0.0550  0.2105
17599THY     HO23546   5.199   4.933   2.992 -0.6513  0.0270  0.5524
17599THY    CA123547   5.120   4.939   2.819  0.3941  0.6071 -0.1096
17599THY    CA223548   5.026   4.991   2.730  0.9793  0.0210  0.1198
17599THY    CP123549   4.940   5.120   2.755 -0.3348 -0.4245  0.3856
17599THY    HP123550   4.967   5.178   2.845  1.4477 -1.8204  1.8847
17599THY    CP223551   4.791   5.074   2.789 -0.3472  0.4740 -0.4618
17599THY    HP223552   4.736   5.160   2.829  0.0276 -1.4421  0.7289
17599THY    HP323553   4.789   5.000   2.870  0.3756 -0.4133 -1.4963
17599THY    HP423554   4.746   5.034   2.696  2.4604 -1.0089 -0.4049
17599THY    CP323555   4.957   5.212   2.633 -0.0253 -0.0248 -0.1253
17599THY    HP523556   4.879   5.290   2.637  0.7704 -2.3982  0.9050
17599THY    HP623557   4.931   5.158   2.541  0.3884 -0.5805  0.6026
17599THY    HP723558   5.058   5.255   2.632  0.3404  0.4369 -0.9746
17599THY    CA323559   4.995   4.912   2.615  0.0175  0.6301 -0.1069
17599THY    HA323560   4.926   4.946   2.538  0.4692  0.9694  1.6585
17599THY    CA423561   5.055   4.784   2.598 -1.2230 -0.7527  0.3294
17599THY    HA423562   5.023   4.731   2.509 -1.0048 -1.6050  1.5908
17599THY    CA523563   5.156   4.744   2.688  0.1371 -0.4631  0.1160
17599THY    CM123564   5.229   4.617   2.666  0.0723  0.4116 -0.0314
17599THY    HM123565   5.184   4.536   2.725 -1.4321  0.2716  0.6699
17599THY    HM223566   5.333   4.624   2.698  0.5179 -1.3190  2.3054
17599THY    HM323567   5.222   4.591   2.560 -0.8976  0.9707 -2.2839
17599THY    CA623568   5.178   4.818   2.803  0.1384 -0.4692 -0.2158
17599THY    HA623569   5.248   4.784   2.879 -0.8506  0.7725  0.4322
17600THY      O23570   2.680   4.303   5.175 -0.4106  0.5425  0.2433
17600THY     HO23571   2.723   4.342   5.097 -2.0897 -0.0238  1.0554
17600THY    CA123572   2.771   4.303   5.279  0.0173 -0.1015  0.6316
17600THY    CA223573   2.735   4.356   5.406 -0.4483  0.2894  0.6369
17600THY    CP123574   2.592   4.407   5.436  0.1064  1.0766  0.7246
17600THY    HP123575   2.539   4.395   5.341  0.7057  0.4741  2.5261
17600THY    CP223576   2.595   4.562   5.449  0.5752  0.1205 -0.0245
17600THY    HP223577   2.669   4.588   5.525 -0.3438  0.7330  0.8572
17600THY    HP323578   2.504   4.596   5.499  0.3982  0.0271 -0.3552
17600THY    HP423579   2.615   4.601   5.348  2.7237  0.7120  0.5560
17600THY    CP323580   2.526   4.327   5.552  0.8033 -0.6743 -0.7497
17600THY    HP523581   2.547   4.220   5.550  1.3901  4.4589 -1.0027
17600THY    HP623582   2.417   4.336   5.555  0.6786 -1.4021 -1.8149
17600THY    HP723583   2.570   4.356   5.648 -2.6500  1.6183 -2.3720
17600THY    CA323584   2.836   4.362   5.514  0.3890  0.5877  0.4071
17600THY    HA323585   2.807   4.416   5.604 -0.5377 -0.3357  1.5158
17600THY    CA423586   2.967   4.312   5.489  0.4740 -0.3475  0.1638
17600THY    HA423587   3.043   4.342   5.560  0.8664 -1.3331  1.5779
17600THY    CA523588   2.992   4.249   5.366  0.5158 -1.0444  0.2920
17600THY    CM123589   3.127   4.195   5.337 -0.0889 -0.5051  0.5219
17600THY    HM123590   3.146   4.144   5.432  1.0469 -1.7606 -1.5215
17600THY    HM223591   3.198   4.275   5.310  2.1531  1.3713 -0.7112
17600THY    HM323592   3.122   4.123   5.255  1.2909 -1.8039  1.8276
17600THY    CA623593   2.896   4.245   5.262 -0.2610 -0.6341  0.6943
17600THY    HA623594   2.932   4.208   5.167  1.2839 -0.2883  1.2353
17601THY      O23595   5.274   3.644   4.921  0.3577 -0.8336  0.3919
17601THY     HO23596   5.185   3.612   4.896  0.5464 -1.5779  0.4255
17601THY    CA123597   5.261   3.778   4.951 -0.8287  0.2490 -0.2885
17601THY    CA223598   5.371   3.850   5.012  0.7838 -0.9470 -1.1066
17601THY    CP123599   5.495   3.768   5.048 -0.5290  0.1360 -0.2446
17601THY    HP123600   5.477   3.661   5.058 -3.8436  0.3750  0.2421
17601THY    CP223601   5.556   3.810   5.179 -0.5192  0.1873 -0.2034
17601THY    HP223602   5.491   3.821   5.267 -0.5947  0.0802  0.2160
17601THY    HP323603   5.604   3.907   5.164 -0.3977 -1.6005 -0.4997
17601THY    HP423604   5.638   3.742   5.206 -0.2821 -2.0572 -0.9045
17601THY    CP323605   5.607   3.786   4.945  0.1691 -0.4892  0.6309
17601THY    HP523606   5.565   3.784   4.843  0.3373 -0.5523 -0.7248
17601THY    HP623607   5.675   3.702   4.966 -2.1488  1.8438 -0.8009
17601THY    HP723608   5.661   3.881   4.944 -1.2903  0.4978  1.4955
17601THY    CA323609   5.347   3.987   5.044  0.4590  0.2587 -0.3879
17601THY    HA323610   5.416   4.056   5.091 -0.8430 -1.4970  2.2919
17601THY    CA423611   5.229   4.052   5.009  0.8926  0.2136 -0.3286
17601THY    HA423612   5.209   4.156   5.032  0.7362  2.6424 -0.8421
17601THY    CA523613   5.129   3.981   4.951  1.0983  0.3828  0.0220
17601THY    CM123614   4.995   4.042   4.918  0.4379  0.2904  0.1716
17601THY    HM123615   4.958   4.017   4.818 -0.2622 -0.0804  2.4642
17601THY    HM223616   5.005   4.151   4.915 -0.2513  0.5516  0.2453
17601THY    HM323617   4.918   4.014   4.991  0.2250 -0.6755 -1.9801
17601THY    CA623618   5.137   3.845   4.928 -0.4231  0.4819  0.2641
17601THY    HA623619   5.054   3.792   4.883  1.0079 -2.5696  0.3887
17602THY      O23620   5.981   8.044   1.920 -0.5396 -0.4362  0.2784
17602THY     HO23621   5.929   8.125   1.907  1.1455  0.4924  1.5907
17602THY    CA123622   6.004   8.040   2.055 -0.5658  0.0579  0.5208
17602THY    CA223623   6.079   7.937   2.119  0.2065  0.4090  0.1640
17602THY    CP123624   6.130   7.823   2.032 -0.0216  0.0942 -0.2069
17602THY    HP123625   6.079   7.821   1.935  0.5684 -0.2134 -2.2943
17602THY    CP223626   6.077   7.685   2.080 -0.2138 -0.4513 -0.3077
17602THY    HP223627   5.970   7.673   2.100  0.0135  0.7770 -0.4996
17602THY    HP323628   6.127   7.664   2.176 -1.4228 -0.2925 -2.8938
17602THY    HP423629   6.102   7.599   2.016  0.9764  2.1415 -2.0287
17602THY    CP323630   6.283   7.818   1.995  1.0232  0.3654 -0.3113
17602THY    HP523631   6.317   7.743   1.922  1.1391  0.4957 -0.3861
17602THY    HP623632   6.345   7.802   2.084 -1.0150  1.8440 -0.2642
17602THY    HP723633   6.305   7.916   1.949  0.7446 -0.1911 -0.5035
17602THY    CA323634   6.098   7.948   2.256  0.2892 -0.2641  0.5731
17602THY    HA323635   6.147   7.865   2.305  0.2432 -0.2928  0.5287
17602THY    CA423636   6.032   8.042   2.333  0.2727  0.4618  0.1979
17602THY    HA423637   6.039   8.029   2.441 -0.9821  0.2551 -2.8530
17602THY    CA523638   5.956   8.144   2.269 -0.0494  0.4672 -0.8269
17602THY    CM123639   5.876   8.260   2.332 -0.4445  0.2405  0.4836
17602THY    HM123640   5.871   8.342   2.259 -3.0214 -1.3206 -0.9370
17602THY    HM223641   5.928   8.287   2.425  0.2098  0.6523 -1.9044
17602THY    HM323642   5.770   8.243   2.354 -0.8677 -1.2503  1.0700
17602THY    CA623643   5.943   8.134   2.128 -0.3159  0.6691 -0.2148
17602THY    HA623644   5.875   8.200   2.075  2.5708 -5.1382 -1.2200
17603THY      O23645   7.196   0.323   2.650 -0.3729  0.1111  0.1787
17603THY     HO23646   7.238   0.345   2.734 -1.9732  0.7842  0.7876
17603THY    CA123647   7.081   0.404   2.635 -0.0292  0.3189 -0.0030
17603THY    CA223648   6.980   0.389   2.536  0.0190 -0.9426 -0.0920
17603THY    CP123649   7.008   0.291   2.418 -0.5260 -0.7286 -0.1096
17603THY    HP123650   7.044   0.199   2.466  1.4953  1.0025  1.4823
17603THY    CP223651   7.129   0.329   2.334 -0.1278  0.9977 -0.5441
17603THY    HP223652   7.215   0.374   2.386  0.6320  1.0533 -1.9964
17603THY    HP323653   7.103   0.407   2.262 -0.0488  1.2471 -0.2847
17603THY    HP423654   7.174   0.240   2.290 -0.3859  0.8671 -0.6089
17603THY    CP323655   6.884   0.260   2.333 -0.0378  0.7365  0.0762
17603THY    HP523656   6.895   0.168   2.274 -2.3136  0.8200 -0.3003
17603THY    HP623657   6.858   0.346   2.270 -0.9004  0.7658 -0.1544
17603THY    HP723658   6.790   0.248   2.388 -3.5461 -4.1669  1.7877
17603THY    CA323659   6.871   0.483   2.541  0.3917  0.4678  0.2303
17603THY    HA323660   6.793   0.486   2.465 -0.0987  0.8928 -1.1716
17603THY    CA423661   6.865   0.573   2.647 -0.7400 -0.9031 -0.3984
17603THY    HA423662   6.780   0.640   2.658 -0.0918  0.8563  0.1859
17603THY    CA523663   6.967   0.581   2.739  0.7506 -1.3241  0.1001
17603THY    CM123664   6.959   0.677   2.852 -0.0581 -0.8063 -0.2150
17603THY    HM123665   6.880   0.640   2.918  1.3498  1.0491 -0.0711
17603THY    HM223666   6.927   0.776   2.817 -0.8934 -1.4234 -0.6830
17603THY    HM323667   7.049   0.670   2.914 -0.4454 -0.2339 -0.1808
17603THY    CA623668   7.072   0.503   2.732 -0.1877  0.4538  0.4567
17603THY    HA623669   7.150   0.524   2.805 -0.8727  0.9969  1.1519
17604THY      O23670   4.164   5.271   5.022  0.3222 -0.0516  0.3972
17604THY     HO23671   4.182   5.333   4.950  0.2079 -0.1189  0.3525
17604THY    CA123672   4.072   5.177   4.983  0.4034  0.0902 -0.3063
17604THY    CA223673   3.995   5.103   5.073 -0.7855  0.6692 -0.0524
17604THY    CP123674   4.013   5.124   5.220  0.3441 -0.0899 -0.0595
17604THY    HP123675   4.108   5.170   5.250  0.0527  1.4772 -0.4145
17604THY    CP223676   4.013   4.998   5.294 -0.3825 -0.3424  0.1885
17604THY    HP223677   3.918   4.945   5.299  1.3159 -1.4361 -3.2591
17604THY    HP323678   4.049   5.024   5.394  0.5972 -0.9756  1.3873
17604THY    HP423679   4.089   4.936   5.245 -0.1907 -1.3869  1.2053
17604THY    CP323680   3.909   5.218   5.263  0.0726  0.2709  0.0984
17604THY    HP523681   3.902   5.297   5.187  1.6628 -0.2782 -0.2477
17604THY    HP623682   3.939   5.264   5.358  0.2662 -0.8198  2.3698
17604THY    HP723683   3.810   5.172   5.270  0.1874 -0.6197 -0.3113
17604THY    CA323684   3.898   5.009   5.020  0.4821 -0.7219  0.4513
17604THY    HA323685   3.826   4.963   5.087  0.7040 -1.1734 -0.5615
17604THY    CA423686   3.887   4.988   4.880  0.2230  0.2951 -0.2265
17604THY    HA423687   3.810   4.921   4.844  0.7205  0.8881 -1.1447
17604THY    CA523688   3.971   5.058   4.797  0.4118 -0.2928 -0.2240
17604THY    CM123689   3.944   5.051   4.647  0.2461 -0.0460 -0.0425
17604THY    HM123690   3.852   5.109   4.627 -0.5544 -0.6239 -1.4714
17604THY    HM223691   3.929   4.949   4.610 -2.2801 -3.7338  1.4463
17604THY    HM323692   4.025   5.095   4.588 -1.3968 -0.8044  2.1445
17604THY    CA623693   4.051   5.157   4.846 -0.1542  0.6819  0.7774
17604THY    HA623694   4.104   5.221   4.776 -0.4257  1.0529  1.4185
17605THY      O23695   5.308   0.356   2.053  0.1865 -0.2896 -1.2288
17605THY     HO23696   5.261   0.415   1.993 -0.5588  1.1544 -0.3036
17605THY    CA123697   5.437   0.403   2.052 -0.1029 -0.1643 -0.5120
17605THY    CA223698   5.535   0.369   2.143 -0.1466  0.1480  0.2743
17605THY    CP123699   5.501   0.269   2.256 -0.0949 -0.8594 -0.2249
17605THY    HP123700   5.396   0.237   2.254  0.2531 -0.3672 -1.4718
17605THY    CP223701   5.529   0.326   2.396  0.8371 -0.5788 -0.4087
17605THY    HP223702   5.634   0.352   2.413  0.4150  0.2132  0.8123
17605THY    HP323703   5.493   0.257   2.473 -1.1711  0.4832  1.6815
17605THY    HP423704   5.475   0.419   2.413  0.3605  2.3715 -1.1373
17605THY    CP323705   5.563   0.135   2.231 -0.6851 -0.5111  0.1819
17605THY    HP523706   5.669   0.148   2.208 -0.4288  1.6185  2.6094
17605THY    HP623707   5.509   0.081   2.152 -2.3077  0.6865 -0.0121
17605THY    HP723708   5.565   0.081   2.326  0.5541  0.4361  1.8064
17605THY    CA323709   5.670   0.413   2.124  0.1467 -0.7270 -0.4410
17605THY    HA323710   5.739   0.374   2.198 -0.7333  0.9332  1.0213
17605THY    CA423711   5.697   0.500   2.011  0.4455 -0.0166  0.5011
17605THY    HA423712   5.798   0.517   1.976  0.8524  0.7221 -0.3245
17605THY    CA523713   5.598   0.536   1.927 -0.1510  0.4573 -0.2203
17605THY    CM123714   5.622   0.634   1.814  0.0214 -0.2968 -0.0903
17605THY    HM123715   5.729   0.638   1.790  0.0684  0.0814  0.9626
17605THY    HM223716   5.600   0.732   1.857 -0.3062 -0.1484 -0.2293
17605THY    HM323717   5.571   0.603   1.722  1.1541 -0.5927 -1.1791
17605THY    CA623718   5.471   0.493   1.949  0.3999 -0.5134 -0.1974
17605THY    HA623719   5.392   0.531   1.884 -0.1281 -0.1118 -0.5844
17606THY      O23720   3.359   1.005   3.075  0.1900 -0.1227  0.1210
17606THY     HO23721   3.291   1.072   3.092 -1.5105 -2.5503 -0.8413
17606THY    CA123722   3.286   0.910   3.014  0.1933 -0.8390  0.7420
17606THY    CA223723   3.350   0.802   2.951 -0.6592 -0.3881 -0.2963
17606THY    CP123724   3.500   0.798   2.949 -0.8799  0.5870 -0.3711
17606THY    HP123725   3.544   0.847   3.037  0.8397  0.1820 -1.1225
17606THY    CP223726   3.568   0.878   2.827  0.3135 -0.1902 -0.3244
17606THY    HP223727   3.674   0.899   2.845  0.2588 -0.2813  0.0253
17606THY    HP323728   3.523   0.977   2.815 -0.9923  0.6800 -0.7847
17606THY    HP423729   3.558   0.828   2.730 -1.9322 -1.4991  2.3970
17606THY    CP323730   3.551   0.654   2.944  0.3690  0.0804 -0.9937
17606THY    HP523731   3.658   0.634   2.932 -0.0005 -2.2460 -1.9799
17606THY    HP623732   3.507   0.614   2.852 -0.2669  0.2527 -0.6963
17606THY    HP723733   3.515   0.596   3.030  1.1159  0.5126 -0.8260
17606THY    CA323734   3.264   0.704   2.900 -0.0367 -0.1946  0.3905
17606THY    HA323735   3.305   0.613   2.856  1.7811  0.6889  0.7476
17606THY    CA423736   3.128   0.727   2.879  0.3377 -0.3518 -0.2548
17606THY    HA423737   3.062   0.656   2.831 -1.0141  1.1776 -0.0827
17606THY    CA523738   3.072   0.835   2.945 -0.8029 -0.1386 -0.1410
17606THY    CM123739   2.928   0.868   2.914 -0.0728 -0.1891 -0.1238
17606THY    HM123740   2.921   0.892   2.807  0.8549 -0.0973  0.5951
17606THY    HM223741   2.892   0.952   2.975  0.3983  0.9903 -0.7604
17606THY    HM323742   2.868   0.780   2.940 -0.0557  2.6917  0.6094
17606THY    CA623743   3.150   0.923   3.012 -0.5236  0.0305  0.1665
17606THY    HA623744   3.104   1.014   3.047  0.0362  0.3695  0.3203
17607THY      O23745   8.003   6.521   7.540 -0.6326 -0.1460 -0.3581
17607THY     HO23746   8.088   6.569   7.537 -0.5980  1.0401 -0.3247
17607THY    CA123747   7.917   6.595   7.464  0.1147  0.8622  0.0301
17607THY    CA223748   7.781   6.563   7.463  0.0016  0.3053 -0.2856
17607THY    CP123749   7.719   6.435   7.536 -0.3580 -0.4792  0.4199
17607THY    HP123750   7.790   6.381   7.599 -1.3182 -0.4894 -0.9136
17607THY    CP223751   7.668   6.333   7.429 -0.1973  0.2329  0.5045
17607THY    HP223752   7.746   6.302   7.359 -0.4205  0.7025 -1.2175
17607THY    HP323753   7.584   6.379   7.376  1.6826 -4.9538 -1.3493
17607THY    HP423754   7.619   6.246   7.473 -1.7466 -2.2150  0.0628
17607THY    CP323755   7.600   6.472   7.624 -0.1471 -0.0927 -0.0971
17607THY    HP523756   7.511   6.518   7.579 -1.5872  1.2578 -1.4283
17607THY    HP623757   7.635   6.545   7.698 -0.9829  0.3807 -0.1571
17607THY    HP723758   7.572   6.377   7.672  0.6083 -1.0474 -0.8206
17607THY    CA323759   7.697   6.640   7.375 -0.0749 -0.0139  0.4249
17607THY    HA323760   7.594   6.609   7.361  0.5910 -1.5655 -1.2236
17607THY    CA423761   7.753   6.758   7.317  0.0730 -0.0540  0.5962
17607THY    HA423762   7.680   6.815   7.262 -2.5597  1.7421 -0.8064
17607THY    CA523763   7.885   6.788   7.318  0.4042  0.0731 -0.7770
17607THY    CM123764   7.942   6.904   7.242 -0.0295  0.2653  0.0604
17607THY    HM123765   8.030   6.880   7.181 -0.3396  0.4706 -1.7136
17607THY    HM223766   7.959   6.989   7.309 -0.1676 -0.9365  1.0752
17607THY    HM323767   7.862   6.938   7.174  0.1908 -0.1379 -0.2148
17607THY    CA623768   7.969   6.710   7.395 -0.1826 -0.6091  0.9085
17607THY    HA623769   8.077   6.719   7.392 -0.0373 -0.0214 -0.3581
17608THY      O23770   5.643   6.220   3.545  0.1126 -0.2496 -0.2907
17608THY     HO23771   5.667   6.130   3.571  0.6563 -1.5392 -0.5425
17608THY    CA123772   5.742   6.265   3.464  0.4891 -0.5456 -0.2259
17608THY    CA223773   5.734   6.380   3.383  0.4049 -0.3762  0.5813
17608THY    CP123774   5.615   6.466   3.382  0.9062 -1.3337  0.1757
17608THY    HP123775   5.539   6.425   3.449 -0.4424 -2.2162  1.1346
17608THY    CP223776   5.548   6.472   3.247  0.1292 -0.0846 -0.2434
17608THY    HP223777   5.612   6.527   3.176  0.9514  1.2667  0.5878
17608THY    HP323778   5.460   6.537   3.248  0.8783  1.2923  0.7981
17608THY    HP423779   5.531   6.375   3.199  0.8057  1.5384 -1.1863
17608THY    CP323780   5.647   6.610   3.438  0.1815 -0.3330  0.3537
17608THY    HP523781   5.706   6.597   3.529 -0.0162 -0.2490  0.0546
17608THY    HP623782   5.566   6.680   3.461 -1.1083  0.8491 -1.4584
17608THY    HP723783   5.723   6.656   3.374  1.8399  2.3991  1.6916
17608THY    CA323784   5.838   6.405   3.285  0.7340 -0.4458 -0.4196
17608THY    HA323785   5.838   6.490   3.218  0.0195  0.3771  0.2458
17608THY    CA423786   5.946   6.312   3.276  0.2454  0.0928 -0.9359
17608THY    HA423787   6.018   6.320   3.196 -1.7279 -1.8101 -1.1908
17608THY    CA523788   5.962   6.211   3.371 -0.2591 -0.4819 -1.1250
17608THY    CM123789   6.085   6.133   3.390  0.2510 -0.1469 -0.1704
17608THY    HM123790   6.115   6.099   3.489  3.3989 -0.2892  1.8380
17608THY    HM223791   6.164   6.204   3.365 -0.6400 -0.1654  0.8306
17608THY    HM323792   6.077   6.053   3.315  0.3442 -0.0702 -0.2501
17608THY    CA623793   5.860   6.193   3.465 -0.3551  0.7677  0.5899
17608THY    HA623794   5.860   6.106   3.530 -0.1427 -0.2563 -0.1955
17609THY      O23795   0.555   1.234   3.394  0.2608 -0.2734  0.4666
17609THY     HO23796   0.602   1.315   3.366  3.0181  3.1937  0.3444
17609THY    CA123797   0.628   1.125   3.356  0.2890  1.0599  0.5246
17609THY    CA223798   0.573   1.002   3.314 -0.3164  0.1037 -0.1240
17609THY    CP123799   0.422   0.970   3.345 -0.4019 -0.3794  0.1346
17609THY    HP123800   0.382   1.034   3.424 -1.9422  0.1851 -1.4215
17609THY    CP223801   0.411   0.831   3.391 -0.0122 -0.1898  0.0878
17609THY    HP223802   0.427   0.755   3.314  0.5749  0.4518 -0.4478
17609THY    HP323803   0.311   0.827   3.435 -0.3401 -0.6851  1.8550
17609THY    HP423804   0.474   0.819   3.481 -0.4926  0.0468 -0.7022
17609THY    CP323805   0.338   0.987   3.222  0.6064  0.4634  0.1294
17609THY    HP523806   0.350   1.085   3.173 -0.7750 -0.2735 -0.0494
17609THY    HP623807   0.233   0.984   3.252  0.5778  0.4774  1.0312
17609THY    HP723808   0.358   0.910   3.147 -3.8562 -3.1522  2.0152
17609THY    CA323809   0.655   0.914   3.235  0.1600 -1.2580  0.0252
17609THY    HA323810   0.614   0.819   3.202  1.8759 -0.5788 -1.0009
17609THY    CA423811   0.789   0.944   3.224 -0.3013  0.5396 -0.1774
17609THY    HA423812   0.854   0.876   3.170 -0.2949  0.0262  0.2367
17609THY    CA523813   0.847   1.054   3.286 -0.4333 -0.1631  0.1389
17609THY    CM123814   0.998   1.067   3.271 -0.3196 -0.0919 -0.3011
17609THY    HM123815   1.021   1.172   3.250  2.9231  0.2213 -0.8381
17609THY    HM223816   1.033   1.002   3.190 -2.8637 -0.0418 -1.8652
17609THY    HM323817   1.057   1.039   3.360  1.7511 -1.5010 -0.6293
17609THY    CA623818   0.762   1.154   3.338  1.0078 -0.3615 -0.2220
17609THY    HA623819   0.805   1.248   3.371  1.5035  3.2571 -1.5471
17610THY      O23820   0.617   7.216   2.794 -0.0617  0.0485  0.4832
17610THY     HO23821   0.568   7.288   2.836  0.6776  1.0646  0.4086
17610THY    CA123822   0.715   7.190   2.882 -0.0506  0.0588  0.4550
17610THY    CA223823   0.817   7.086   2.855  0.3056 -0.6714 -0.2624
17610THY    CP123824   0.817   7.016   2.722 -1.3363  0.4442 -0.3804
17610THY    HP123825   0.756   7.070   2.649  0.2422 -0.1249  0.6715
17610THY    CP223826   0.748   6.877   2.744 -0.0238  0.2538 -0.6959
17610THY    HP223827   0.641   6.894   2.755 -0.0144  0.5865 -0.8402
17610THY    HP323828   0.789   6.826   2.832 -1.9739  1.2457 -0.6061
17610THY    HP423829   0.766   6.821   2.651 -1.2429 -0.9026  0.7382
17610THY    CP323830   0.956   7.002   2.672 -0.2530 -0.8425  0.2539
17610THY    HP523831   1.007   7.097   2.692  0.2639  3.8621 -0.7671
17610THY    HP623832   0.959   6.970   2.567 -0.2258 -0.9637  0.6488
17610THY    HP723833   1.013   6.933   2.736  0.2855 -1.0724  0.4755
17610THY    CA323834   0.916   7.062   2.956  0.2582 -0.2123  0.1175
17610THY    HA323835   1.003   6.998   2.947 -0.0809  0.3497 -0.4310
17610THY    CA423836   0.917   7.141   3.071  0.7532  0.7227 -0.0820
17610THY    HA423837   0.992   7.120   3.148 -1.8733  3.3349 -0.5188
17610THY    CA523838   0.820   7.236   3.096 -0.5107 -0.2946 -0.1274
17610THY    CM123839   0.813   7.285   3.237  0.3654 -0.1448 -0.5616
17610THY    HM123840   0.914   7.273   3.279 -0.0621  0.8647 -0.7266
17610THY    HM223841   0.740   7.232   3.299 -0.8473 -1.2202 -0.2066
17610THY    HM323842   0.786   7.391   3.239  1.7406 -0.7834 -0.1729
17610THY    CA623843   0.714   7.251   3.004  0.3710  0.4650 -0.9483
17610THY    HA623844   0.631   7.315   3.034 -0.5742  0.9202 -2.3499
17611THY      O23845   8.127   1.476   3.917 -0.1397  0.5036 -0.1306
17611THY     HO23846   8.106   1.525   3.835  1.4792  1.5146  2.4767
17611THY    CA123847   8.047   1.531   4.009  0.3821 -0.5489 -0.4621
17611THY    CA223848   8.047   1.480   4.141 -0.2810  0.2520 -0.2641
17611THY    CP123849   8.148   1.371   4.182 -0.7578  0.2182  0.4788
17611THY    HP123850   8.227   1.353   4.109 -1.3411 -0.2073 -0.3962
17611THY    CP223851   8.068   1.244   4.201 -0.4426 -0.3056 -0.0681
17611THY    HP223852   8.035   1.216   4.101 -0.9549 -0.5741  1.4103
17611THY    HP323853   7.986   1.258   4.273 -0.1265  0.4566 -1.7927
17611THY    HP423854   8.136   1.163   4.232  2.2895 -0.8209  1.9119
17611THY    CP323855   8.223   1.416   4.305  0.1337 -0.0309  0.0998
17611THY    HP523856   8.297   1.339   4.333  0.3869  1.3117  0.8071
17611THY    HP623857   8.158   1.426   4.392 -1.8756 -1.6624  2.5372
17611THY    HP723858   8.262   1.516   4.285 -1.6067 -0.7793  0.6645
17611THY    CA323859   7.958   1.530   4.232 -0.1290 -0.5326 -0.0908
17611THY    HA323860   7.958   1.493   4.334 -1.3206 -0.7066 -0.6128
17611THY    CA423861   7.870   1.640   4.193 -0.5973 -1.0376  0.4313
17611THY    HA423862   7.812   1.678   4.277  0.6826  1.1492 -2.0311
17611THY    CA523863   7.863   1.686   4.058 -0.2870  0.3287 -0.2960
17611THY    CM123864   7.784   1.814   4.029 -0.2765 -0.2298  0.1637
17611THY    HM123865   7.713   1.838   4.109 -0.9906 -1.1356  1.2064
17611THY    HM223866   7.706   1.798   3.953 -0.6257 -0.1370  1.3259
17611THY    HM323867   7.839   1.901   3.990 -1.1058 -0.8510  0.4284
17611THY    CA623868   7.956   1.636   3.968 -0.4120  0.1574  0.1189
17611THY    HA623869   7.952   1.681   3.869  0.3534  0.6167  1.2574
17612THY      O23870   6.523   2.322   5.055  0.3161 -0.9137  0.3511
17612THY     HO23871   6.489   2.312   4.965  0.7848 -1.2456  1.6037
17612THY    CA123872   6.481   2.216   5.129  0.1947  0.0735 -0.6070
17612THY    CA223873   6.504   2.197   5.267  0.1645 -0.4212 -0.3867
17612THY    CP123874   6.562   2.312   5.347 -1.0107  0.3483  0.7318
17612THY    HP123875   6.584   2.399   5.285  0.2386  1.5713  1.3372
17612THY    CP223876   6.700   2.287   5.415  0.0628  0.0882 -0.2421
17612THY    HP223877   6.777   2.267   5.339  0.1555 -0.4106  1.7538
17612THY    HP323878   6.699   2.199   5.480 -1.2799 -0.3482 -0.5698
17612THY    HP423879   6.747   2.362   5.480  0.6962 -1.1445  0.4521
17612THY    CP323880   6.453   2.354   5.445  0.4327  0.4180  0.2986
17612THY    HP523881   6.453   2.462   5.464 -0.8441 -0.2940  0.4416
17612THY    HP623882   6.472   2.299   5.538  0.7572  1.1204  1.5553
17612THY    HP723883   6.352   2.325   5.416  0.8274 -0.6334 -0.0934
17612THY    CA323884   6.469   2.075   5.332 -0.1086  0.4585 -0.7424
17612THY    HA323885   6.483   2.073   5.439 -2.0571  0.7640  0.0932
17612THY    CA423886   6.418   1.972   5.255  0.5045  0.5504  0.5093
17612THY    HA423887   6.395   1.877   5.302  0.4529  1.7442  1.0798
17612THY    CA523888   6.403   1.989   5.118 -1.2642 -0.1473 -0.3214
17612THY    CM123889   6.362   1.867   5.041 -0.5567  0.0690 -0.2811
17612THY    HM123890   6.425   1.785   5.077 -2.4404  2.2276 -0.8948
17612THY    HM223891   6.378   1.886   4.934  0.9726  0.7346  2.9507
17612THY    HM323892   6.259   1.838   5.068 -0.8186  0.0664  0.6007
17612THY    CA623893   6.435   2.107   5.056  0.0405  0.3301  0.0677
17612THY    HA623894   6.440   2.123   4.948 -0.1579  0.4932  1.3558
17613THY      O23895   6.420   6.638   2.017  0.0055 -0.7817 -0.2908
17613THY     HO23896   6.460   6.609   2.101  1.0074 -0.9807  0.4659
17613THY    CA123897   6.323   6.722   2.059 -0.3706  0.2811  0.2538
17613THY    CA223898   6.200   6.742   1.983 -0.0437  0.7454 -0.2842
17613THY    CP123899   6.174   6.648   1.865  0.6001  0.4873 -0.3272
17613THY    HP123900   6.262   6.615   1.809  0.2673 -0.5295  0.4634
17613THY    CP223901   6.074   6.704   1.758 -0.3444  0.1342 -0.0127
17613THY    HP223902   6.114   6.793   1.708  0.8363  1.7535  0.4049
17613THY    HP323903   5.970   6.709   1.791 -0.6306  0.1534 -3.6676
17613THY    HP423904   6.068   6.630   1.677 -2.4823 -0.0257  0.2820
17613THY    CP323905   6.108   6.521   1.922 -0.3201 -0.9847 -0.3682
17613THY    HP523906   6.094   6.447   1.843 -3.6034  0.2527 -1.2649
17613THY    HP623907   6.007   6.532   1.963  0.1315  0.6152 -1.7135
17613THY    HP723908   6.172   6.484   2.004  0.3703 -1.7672 -0.9483
17613THY    CA323909   6.107   6.834   2.023 -0.3641 -0.7333 -0.6473
17613THY    HA323910   6.015   6.851   1.967 -0.5179 -0.0974  0.7787
17613THY    CA423911   6.136   6.920   2.133 -0.4347  0.1046 -0.5145
17613THY    HA423912   6.079   7.007   2.163  1.9106  0.2121  1.0886
17613THY    CA523913   6.249   6.894   2.205  0.3893  0.5075  0.1444
17613THY    CM123914   6.275   6.974   2.331 -0.1450  0.3798 -0.3013
17613THY    HM123915   6.262   6.910   2.418  1.7095  0.6022 -0.4288
17613THY    HM223916   6.200   7.054   2.346 -0.8389  2.5170 -1.2808
17613THY    HM323917   6.374   7.020   2.330 -0.4082 -2.3646  0.3934
17613THY    CA623918   6.351   6.803   2.163  0.0703  0.4625  0.4078
17613THY    HA623919   6.444   6.798   2.220  1.3830 -1.5454  0.8102
17614THY      O23920   8.382   4.153   5.752 -0.2819  0.5088  0.5257
17614THY     HO23921   8.452   4.216   5.778  1.2744  1.9614 -1.6619
17614THY    CA123922   8.322   4.130   5.874 -0.3588  1.0928 -0.1213
17614THY    CA223923   8.203   4.051   5.871  0.6506 -0.4703 -0.0999
17614THY    CP123924   8.144   3.991   5.745 -0.0198 -0.4993 -0.0666
17614THY    HP123925   8.211   3.991   5.658  0.3893 -0.2861 -2.7658
17614THY    CP223926   8.015   4.065   5.701  0.5869 -0.0987  0.3514
17614THY    HP223927   8.025   4.170   5.669  0.1337  0.7785  0.6726
17614THY    HP323928   7.933   4.069   5.773  0.3265 -0.3799  0.1776
17614THY    HP423929   7.959   4.017   5.620  1.3701  0.1356 -0.9898
17614THY    CP323930   8.106   3.841   5.769  0.1372  0.2575 -0.8695
17614THY    HP523931   8.026   3.829   5.843 -1.8478 -1.9130 -1.7412
17614THY    HP623932   8.187   3.778   5.808  0.6199 -1.3725 -1.3086
17614THY    HP723933   8.069   3.795   5.677 -0.9022 -0.1933  0.8018
17614THY    CA323934   8.131   4.030   5.992 -0.2732 -0.1481 -0.7638
17614THY    HA323935   8.027   3.999   5.986  0.0959 -1.9415 -1.8406
17614THY    CA423936   8.198   4.067   6.111 -0.1385 -0.4621  0.0379
17614THY    HA423937   8.152   4.060   6.209  0.8915  0.3906  3.2201
17614THY    CA523938   8.319   4.139   6.112 -0.0083  0.6145 -0.3742
17614THY    CM123939   8.369   4.211   6.238 -0.2095 -0.0278 -0.0879
17614THY    HM123940   8.473   4.190   6.266  0.0130 -0.6993  0.0950
17614THY    HM223941   8.319   4.196   6.335  1.2269  0.7138 -0.3087
17614THY    HM323942   8.372   4.318   6.213 -2.3791  0.2836  0.1000
17614THY    CA623943   8.375   4.172   5.990 -0.3525  0.3438  0.0436
17614THY    HA623944   8.464   4.233   5.989  0.7415  2.6370 -1.3629
17615THY      O23945   6.543   0.927   1.655  0.1946 -0.8664  0.1063
17615THY     HO23946   6.449   0.945   1.671  0.2869  3.6858 -1.9228
17615THY    CA123947   6.596   0.906   1.773 -0.6639 -0.4203  0.5302
17615THY    CA223948   6.716   0.962   1.822 -0.0031 -0.1473  0.2362
17615THY    CP123949   6.781   1.066   1.734  0.3022 -0.4910 -0.3491
17615THY    HP123950   6.764   1.051   1.627  2.7927 -0.8306 -1.1017
17615THY    CP223951   6.931   1.059   1.734  0.1885  0.0535  0.0745
17615THY    HP223952   6.958   0.969   1.678 -0.2561  0.7033 -0.4652
17615THY    HP323953   6.978   1.058   1.833  0.8961 -0.2345  1.5117
17615THY    HP423954   6.969   1.147   1.681 -1.1041  1.5414  1.6112
17615THY    CP323955   6.737   1.209   1.776 -0.2091 -0.1506  0.4417
17615THY    HP523956   6.766   1.289   1.706  2.9015  0.2432 -0.1907
17615THY    HP623957   6.792   1.237   1.867  0.4630  0.0703 -1.4623
17615THY    HP723958   6.629   1.203   1.788 -0.1203  0.3601 -0.2199
17615THY    CA323959   6.763   0.938   1.952 -0.8567 -0.5620  0.1979
17615THY    HA323960   6.846   0.991   1.997 -0.6616 -0.7756  0.0770
17615THY    CA423961   6.686   0.853   2.036  0.2423  0.9083  0.4084
17615THY    HA423962   6.720   0.827   2.136 -1.5461  1.6178  0.6828
17615THY    CA523963   6.571   0.798   1.992  0.1477  0.5104 -0.0541
17615THY    CM123964   6.487   0.714   2.085 -0.1770  0.2079  0.0716
17615THY    HM123965   6.395   0.686   2.033 -0.7306 -0.2434  2.5357
17615THY    HM223966   6.458   0.765   2.177 -1.4199 -0.6340  0.9210
17615THY    HM323967   6.541   0.620   2.105 -0.9700 -1.9171 -0.9088
17615THY    CA623968   6.524   0.822   1.857  0.2951 -0.2250  0.6104
17615THY    HA623969   6.432   0.777   1.821 -0.6688 -0.5205  2.6539
17616THY      O23970   8.660   8.664   3.059  0.0178 -0.0561  0.9286
17616THY     HO23971   8.595   8.663   3.131  0.3257  0.2425  1.7779
17616THY    CA123972   8.703   8.537   3.039  0.1857  0.3153 -0.6694
17616THY    CA223973   8.770   8.505   2.928  0.6893 -0.0867  0.1307
17616THY    CP123974   8.807   8.603   2.821 -0.3975 -0.0962  0.0919
17616THY    HP123975   8.812   8.702   2.869 -1.1031  0.3220 -0.0641
17616THY    CP223976   8.685   8.625   2.733 -0.5859 -0.0810 -0.1462
17616THY    HP223977   8.611   8.670   2.800  0.2363  0.5190  0.3515
17616THY    HP323978   8.644   8.529   2.702 -0.1434  1.3019 -0.8152
17616THY    HP423979   8.695   8.689   2.644 -0.4989  0.2101  0.2507
17616THY    CP323980   8.933   8.581   2.733 -0.5697  0.1510 -0.1901
17616THY    HP523981   8.950   8.669   2.670 -1.5550  0.7982  0.4808
17616THY    HP623982   8.912   8.490   2.674 -0.9041  0.1354 -0.1015
17616THY    HP723983   9.019   8.553   2.795 -0.7012  0.9589  1.1191
17616THY    CA323984   8.802   8.368   2.903  0.4510  0.4111 -0.6425
17616THY    HA323985   8.853   8.333   2.814 -1.0879 -1.2145  1.0766
17616THY    CA423986   8.775   8.273   3.001  0.0576  0.1221 -0.6015
17616THY    HA423987   8.820   8.176   2.983 -1.4024  0.5949 -1.4030
17616THY    CA523988   8.706   8.308   3.112  0.7070  0.2335 -0.1478
17616THY    CM123989   8.677   8.213   3.218  0.0235  0.7204 -0.2542
17616THY    HM123990   8.759   8.141   3.222 -0.7227  0.9558 -1.1100
17616THY    HM223991   8.585   8.156   3.200 -1.5318  0.6898  2.1241
17616THY    HM323992   8.658   8.266   3.313 -0.0540 -0.0002  1.0381
17616THY    CA623993   8.668   8.442   3.131  0.6085 -0.1487  0.6071
17616THY    HA623994   8.614   8.465   3.222 -2.0078 -1.2304 -0.7682
17617THY      O23995   4.837   8.045   4.097  0.7392 -0.2283  0.2894
17617THY     HO23996   4.860   8.137   4.074  1.6511  1.8282  0.6167
17617THY    CA123997   4.909   7.946   4.028 -0.0401 -0.8043 -0.3579
17617THY    CA223998   4.859   7.816   4.018  0.6919 -0.3566 -0.2013
17617THY    CP123999   4.717   7.782   4.063 -0.5563 -0.0970 -0.7705
17617THY    HP124000   4.662   7.871   4.031  0.7688  2.7551  1.2327
17617THY    CP224001   4.706   7.786   4.222 -0.4460  0.0995  0.1650
17617THY    HP224002   4.769   7.711   4.272 -0.4507  0.8251  0.6385
17617THY    HP324003   4.602   7.774   4.251 -0.1532  1.2203  0.2646
17617THY    HP424004   4.734   7.881   4.269  0.1386  0.0125  0.0430
17617THY    CP324005   4.664   7.655   4.014 -0.0558  0.2402  0.7708
17617THY    HP524006   4.560   7.653   4.049 -0.0968  0.2269  2.0941
17617THY    HP624007   4.721   7.572   4.058 -0.1615  0.5169  0.8442
17617THY    HP724008   4.648   7.654   3.906 -2.6255  0.5322 -0.6246
17617THY    CA324009   4.939   7.716   3.958 -0.2641  0.0285  1.0550
17617THY    HA324010   4.901   7.615   3.957  0.6618 -1.8260  0.6696
17617THY    CA424011   5.068   7.753   3.907  0.2647 -0.2249  0.6638
17617THY    HA424012   5.130   7.683   3.852 -0.0036 -0.1589  0.3702
17617THY    CA524013   5.118   7.881   3.931 -0.3608 -0.0923 -1.3227
17617THY    CM124014   5.260   7.921   3.885 -0.1041 -0.1675 -0.4366
17617THY    HM124015   5.270   8.026   3.857  1.7925  0.0555 -0.5371
17617THY    HM224016   5.276   7.867   3.791 -3.5446 -0.4840 -1.1422
17617THY    HM324017   5.335   7.896   3.961  2.5040 -1.6205  2.3156
17617THY    CA624018   5.042   7.981   3.991  0.1429 -0.4182  0.4759
17617THY    HA624019   5.082   8.081   4.005  1.3070  0.9649 -0.1513
17618THY      O24020   7.112   1.915   5.648  0.3073 -0.2377  0.3210
17618THY     HO24021   7.191   1.859   5.646  1.2519  0.3688  1.5834
17618THY    CA124022   7.053   1.922   5.769  0.3314 -0.0322 -0.6127
17618THY    CA224023   7.019   2.043   5.831  0.2896  0.2267 -0.7288
17618THY    CP124024   7.027   2.172   5.762  0.1485  0.2993  0.1667
17618THY    HP124025   7.053   2.154   5.657  2.0064  0.7032  0.3503
17618THY    CP224026   7.130   2.274   5.829  1.0735  0.2825  0.7090
17618THY    HP224027   7.128   2.266   5.938  3.3266  0.3388  0.2011
17618THY    HP324028   7.115   2.376   5.791 -0.1892 -0.3931  0.2917
17618THY    HP424029   7.231   2.243   5.799  0.7470 -1.8015  1.4960
17618THY    CP324030   6.890   2.243   5.762  0.3688 -0.0159  0.0221
17618THY    HP524031   6.851   2.272   5.860  0.1247 -0.3805  0.9702
17618THY    HP624032   6.813   2.190   5.705  1.1667 -1.3526  0.2428
17618THY    HP724033   6.896   2.335   5.701 -3.1428 -0.9551 -0.2360
17618THY    CA324034   6.978   2.039   5.965  0.3421  0.0303 -0.2411
17618THY    HA324035   6.954   2.129   6.021 -1.8707  0.8733 -1.2654
17618THY    CA424036   6.947   1.921   6.037 -0.4868  0.3682  0.0999
17618THY    HA424037   6.922   1.914   6.142  2.0370  1.0011 -0.2337
17618THY    CA524038   6.967   1.801   5.967 -0.1563 -0.1055  0.0996
17618THY    CM124039   6.955   1.673   6.034  0.1947 -0.3595 -0.6762
17618THY    HM124040   6.983   1.691   6.138 -1.5140 -0.2669  1.9793
17618THY    HM224041   7.014   1.592   5.990 -1.6671  1.3997 -3.1529
17618THY    HM324042   6.850   1.641   6.032  0.1304  0.8678 -0.5950
17618THY    CA624043   7.017   1.803   5.833 -0.6255  0.4455  0.2429
17618THY    HA624044   7.028   1.713   5.773 -1.8396 -2.2805  1.7743
17619THY      O24045   6.062   7.749   3.373 -0.0041  0.1035 -0.2352
17619THY     HO24046   6.036   7.758   3.467  0.7081  0.4041 -1.1704
17619THY    CA124047   6.146   7.852   3.341  0.5279  0.0934  0.0776
17619THY    CA224048   6.202   7.853   3.209 -0.4094 -0.1436  0.0294
17619THY    CP124049   6.160   7.751   3.108  0.3266  0.0994  0.1262
17619THY    HP124050   6.102   7.667   3.147  1.0361  1.3175  0.1809
17619THY    CP224051   6.284   7.686   3.041  0.0620 -0.0000  0.7252
17619THY    HP224052   6.338   7.769   2.993 -0.5062  1.2462  1.8420
17619THY    HP324053   6.261   7.617   2.958  0.8199 -0.2172  0.7244
17619THY    HP424054   6.356   7.642   3.110  0.3759 -1.0445 -0.4814
17619THY    CP324055   6.078   7.815   2.994 -0.6913  0.4206 -0.3031
17619THY    HP524056   6.045   7.736   2.926 -0.8631 -0.1801  0.2741
17619THY    HP624057   6.143   7.886   2.942 -1.0218 -0.7805 -0.8678
17619THY    HP724058   5.986   7.856   3.038 -0.4467 -0.0645  0.8037
17619THY    CA324059   6.284   7.961   3.179 -0.2639 -0.0001  0.2364
17619THY    HA324060   6.337   7.963   3.084 -0.5392 -0.1480  0.8121
17619THY    CA424061   6.303   8.060   3.274 -0.1529  0.0144 -0.0507
17619THY    HA424062   6.363   8.148   3.250  1.7397  1.5506 -0.8509
17619THY    CA524063   6.235   8.061   3.397  0.2652 -0.0658 -0.3988
17619THY    CM124064   6.256   8.166   3.508 -0.0364  0.0489 -0.2408
17619THY    HM124065   6.305   8.249   3.458 -0.2222 -1.3957 -0.9664
17619THY    HM224066   6.315   8.124   3.590  1.5510 -1.3200 -0.7985
17619THY    HM324067   6.165   8.211   3.550 -0.8362 -0.5790 -1.2125
17619THY    CA624068   6.159   7.953   3.433  0.5708  0.0299  0.0877
17619THY    HA624069   6.100   7.959   3.524  0.1219 -0.3498  2.2666
17620THY      O24070   7.406   6.513   4.473 -0.5361 -0.0020 -0.6357
17620THY     HO24071   7.448   6.492   4.388  0.9606  0.6115 -0.2356
17620THY    CA124072   7.280   6.470   4.466  0.7727 -0.2336 -0.4916
17620THY    CA224073   7.205   6.425   4.581  0.7195 -0.8239 -0.0841
17620THY    CP124074   7.269   6.417   4.716  0.1084 -0.5525  0.0383
17620THY    HP124075   7.373   6.452   4.711  0.9197 -0.9759 -2.2598
17620THY    CP224076   7.279   6.270   4.757  0.0210 -0.3692  0.0545
17620THY    HP224077   7.316   6.209   4.675 -0.3517 -0.5875  0.1232
17620THY    HP324078   7.185   6.227   4.793  0.8221  2.0364  0.1426
17620THY    HP424079   7.345   6.268   4.845 -1.4112  0.7336 -1.4412
17620THY    CP324080   7.201   6.499   4.826  0.3647  0.6418 -0.2382
17620THY    HP524081   7.102   6.455   4.841  1.0233  2.3001 -1.2858
17620THY    HP624082   7.215   6.605   4.803  1.0919  1.6566 -0.0914
17620THY    HP724083   7.256   6.488   4.921  0.8776  0.7208  2.3962
17620THY    CA324084   7.066   6.399   4.556 -0.5118 -0.0506  0.2207
17620THY    HA324085   6.993   6.380   4.634  1.2110  1.3168 -1.0635
17620THY    CA424086   7.015   6.404   4.426  0.2181  0.0876 -0.0401
17620THY    HA424087   6.908   6.398   4.407  0.4461 -2.4302  2.1758
17620THY    CA524088   7.099   6.430   4.315 -0.1273 -0.7554 -0.0038
17620THY    CM124089   7.030   6.434   4.181 -0.1880  0.1595  0.2618
17620THY    HM124090   7.099   6.431   4.095 -0.6762 -0.2174 -1.9340
17620THY    HM224091   6.972   6.526   4.174  0.4143  3.3161  1.0151
17620THY    HM324092   6.962   6.352   4.156 -1.0008 -0.3921  1.0854
17620THY    CA624093   7.226   6.472   4.333 -0.9778  0.4425 -1.0702
17620THY    HA624094   7.288   6.501   4.249 -0.0353  2.0083  1.8844
17621THY      O24095   3.230   3.861   6.576 -0.3412 -0.3910  0.2456
17621THY     HO24096   3.188   3.782   6.613 -1.8152 -1.1912  0.6394
17621THY    CA124097   3.158   3.962   6.639  0.2954  1.3829 -0.2657
17621THY    CA224098   3.172   4.091   6.592  0.1142 -0.1996  0.3142
17621THY    CP124099   3.271   4.120   6.483 -0.5275 -0.0118 -0.0195
17621THY    HP124100   3.357   4.057   6.507 -1.4573 -1.3023 -1.8649
17621THY    CP224101   3.324   4.267   6.492 -0.1461  0.3127 -0.2986
17621THY    HP224102   3.348   4.302   6.593  0.3248 -0.4413  1.7087
17621THY    HP324103   3.253   4.339   6.449 -0.0523 -0.7396 -0.8139
17621THY    HP424104   3.416   4.284   6.435 -1.3229 -1.4795  0.4361
17621THY    CP324105   3.217   4.096   6.336  0.1836 -0.2225 -0.0082
17621THY    HP524106   3.271   4.144   6.254 -0.1724 -0.3058  0.2573
17621THY    HP624107   3.116   4.138   6.326 -0.0266  0.8374 -0.2371
17621THY    HP724108   3.210   3.990   6.311 -0.4109 -1.5003  0.3070
17621THY    CA324109   3.097   4.195   6.665 -0.1397  0.8702  0.4395
17621THY    HA324110   3.106   4.299   6.638  0.3254 -0.7678 -0.0083
17621THY    CA424111   2.996   4.151   6.755  0.1483 -0.0001 -0.2552
17621THY    HA424112   2.918   4.214   6.796 -0.8384  0.8405 -1.9805
17621THY    CA524113   2.985   4.012   6.787  0.9313 -0.6339 -0.2492
17621THY    CM124114   2.895   3.954   6.900 -0.3269 -0.2571  0.0322
17621THY    HM124115   2.924   3.990   6.999 -0.5783  0.5493 -1.8658
17621THY    HM224116   2.911   3.847   6.919  2.7576  2.8531  0.8572
17621THY    HM324117   2.792   3.973   6.869 -0.9544  1.5778 -0.1579
17621THY    CA624118   3.059   3.921   6.724  0.6618 -0.4820 -0.3126
17621THY    HA624119   3.039   3.818   6.755 -1.5573  1.9703  0.7200
17622THY      O24120   8.119   8.747   4.403  0.1548 -0.3875 -0.1144
17622THY     HO24121   8.198   8.726   4.457 -0.0828  0.4922  1.1265
17622THY    CA124122   8.039   8.829   4.468  0.2062 -0.3723 -0.2843
17622THY    CA224123   7.908   8.869   4.429  0.1798  0.5408 -0.1505
17622THY    CP124124   7.855   8.818   4.295 -0.4285  0.1915 -0.3421
17622THY    HP124125   7.930   8.773   4.229  0.3215  0.7824  0.0254
17622THY    CP224126   7.808   8.932   4.204  0.2254  0.5206 -0.4384
17622THY    HP224127   7.708   8.967   4.233 -0.0772 -0.2602 -0.6114
17622THY    HP324128   7.797   8.901   4.099 -0.2642  0.0113  1.3587
17622THY    HP424129   7.886   9.007   4.216  1.2563  1.3598 -1.6090
17622THY    CP324130   7.744   8.725   4.314 -0.0042  1.1918  0.3156
17622THY    HP524131   7.773   8.636   4.370 -1.9335  0.7009 -0.6570
17622THY    HP624132   7.704   8.686   4.220 -0.5740  1.6572 -0.2232
17622THY    HP724133   7.661   8.780   4.359 -1.4947  0.1208 -0.9884
17622THY    CA324134   7.829   8.957   4.508  0.9127 -0.1081  0.5089
17622THY    HA324135   7.725   8.972   4.481  1.0963 -0.3494  1.4275
17622THY    CA424136   7.890   9.021   4.616 -0.2709 -0.2580  0.1033
17622THY    HA424137   7.838   9.094   4.678 -0.2550  1.7913 -1.5465
17622THY    CA524138   8.022   8.985   4.654 -0.2378 -0.3784  0.2367
17622THY    CM124139   8.090   9.053   4.764 -0.0031 -0.5603  0.0208
17622THY    HM124140   8.078   9.162   4.762 -1.0483 -2.5205 -0.0846
17622THY    HM224141   8.199   9.052   4.748  0.0091 -0.4948  0.1731
17622THY    HM324142   8.053   9.012   4.858 -2.4408 -2.0644 -1.4659
17622THY    CA624143   8.089   8.890   4.576  0.0090 -0.2932  0.2099
17622THY    HA624144   8.186   8.860   4.616  0.1803  0.3202  1.4823
17623THY      O24145   8.019   4.373   4.945 -0.2293 -0.1562  0.1707
17623THY     HO24146   8.112   4.390   4.923 -0.2307 -0.5813 -0.3310
17623THY    CA124147   7.978   4.278   4.863 -0.1797  0.2399 -0.2354
17623THY    CA224148   7.860   4.207   4.888  0.2693 -0.5175  0.1612
17623THY    CP124149   7.775   4.237   5.007  0.0512  0.1751  0.0705
17623THY    HP124150   7.805   4.331   5.055  1.9389 -1.5072  0.4015
17623THY    CP224151   7.781   4.136   5.129 -0.2188  0.1535  0.3216
17623THY    HP224152   7.752   4.037   5.094 -2.1842  0.2322  0.8212
17623THY    HP324153   7.712   4.169   5.208  0.3217  0.4233  0.8208
17623THY    HP424154   7.874   4.132   5.187  0.1001 -0.4372 -1.9226
17623THY    CP324155   7.624   4.249   4.967  0.2297 -0.9907 -0.8325
17623THY    HP524156   7.560   4.286   5.048  2.9046  1.7584 -1.8565
17623THY    HP624157   7.587   4.148   4.946  0.7025 -0.8305 -1.0429
17623THY    HP724158   7.618   4.325   4.888  2.6479  0.2496  0.8179
17623THY    CA324159   7.826   4.101   4.804  0.9597 -0.4768  0.3952
17623THY    HA324160   7.740   4.038   4.829 -0.3946 -0.8221  2.0304
17623THY    CA424161   7.899   4.070   4.694 -0.7270  0.3071  0.2161
17623THY    HA424162   7.859   3.999   4.622 -0.2033  0.3606 -0.1428
17623THY    CA524163   8.021   4.139   4.667  0.2592 -0.3706 -0.0734
17623THY    CM124164   8.102   4.093   4.548  0.2891  0.6530  0.4896
17623THY    HM124165   8.192   4.033   4.565  0.0017  0.3107 -0.0463
17623THY    HM224166   8.128   4.182   4.490  0.8552  0.1781  0.0238
17623THY    HM324167   8.041   4.035   4.478 -0.2238  1.9158 -0.5482
17623THY    CA624168   8.058   4.247   4.753  0.6781  0.8861  0.1421
17623THY    HA624169   8.151   4.302   4.740 -0.3557 -1.1094  1.5370
17624THY      O24170   0.339   0.861   5.655  0.3378  0.1161 -0.0634
17624THY     HO24171   0.380   0.780   5.620 -1.7674 -0.1215 -1.1005
17624THY    CA124172   0.434   0.954   5.690  0.8177 -0.1256 -0.2699
17624THY    CA224173   0.406   1.098   5.679 -0.4122 -0.0399  1.0063
17624THY    CP124174   0.265   1.130   5.627  0.4477 -0.6694  0.0167
17624THY    HP124175   0.207   1.042   5.595  0.9677 -0.8815 -0.2512
17624THY    CP224176   0.262   1.216   5.506  0.0706  0.5803 -0.5077
17624THY    HP224177   0.293   1.317   5.534  0.4159  0.5652 -0.6055
17624THY    HP324178   0.160   1.224   5.467 -0.0331  0.2378 -2.7650
17624THY    HP424179   0.324   1.174   5.426 -0.8296 -0.3955 -0.0244
17624THY    CP324180   0.204   1.195   5.744  0.1644 -0.1090 -1.3948
17624THY    HP524181   0.204   1.119   5.823  0.5230  1.9461  0.6343
17624THY    HP624182   0.102   1.227   5.718  0.3173  0.8259 -0.0566
17624THY    HP724183   0.262   1.282   5.776  0.7740  0.8360 -2.1306
17624THY    CA324184   0.508   1.190   5.691  0.1830 -0.1256 -0.1259
17624THY    HA324185   0.502   1.298   5.678  1.3348  0.7390  0.0625
17624THY    CA424186   0.636   1.144   5.730  0.0363 -0.7508 -0.6724
17624THY    HA424187   0.715   1.218   5.739  0.2257  1.3199 -1.0745
17624THY    CA524188   0.662   1.002   5.742 -0.0126 -0.3325 -0.6684
17624THY    CM124189   0.800   0.970   5.782  0.4069  0.4210  1.0168
17624THY    HM124190   0.824   1.017   5.878 -0.4046  2.2618 -1.9993
17624THY    HM224191   0.872   0.985   5.701 -1.1699 -1.4998 -1.1212
17624THY    HM324192   0.803   0.861   5.793 -1.4386 -0.4075  0.8302
17624THY    CA624193   0.561   0.908   5.713 -0.0584  0.2739 -0.5894
17624THY    HA624194   0.580   0.802   5.712 -0.8839  0.4010 -0.7445
17625THY      O24195   3.228   7.583   2.456  0.4736 -0.1883 -0.2690
17625THY     HO24196   3.290   7.612   2.386 -0.5300 -1.0565 -0.1485
17625THY    CA124197   3.260   7.455   2.489  0.0103 -0.1571  0.6080
17625THY    CA224198   3.205   7.395   2.605 -0.8613  0.9987  0.3220
17625THY    CP124199   3.091   7.470   2.672 -0.2003  0.0679 -0.3507
17625THY    HP124200   3.043   7.538   2.600 -1.6974  0.1962 -1.2308
17625THY    CP224201   3.141   7.543   2.800 -0.0271  0.6275 -0.0409
17625THY    HP224202   3.163   7.476   2.884 -0.1381 -0.6487 -1.7185
17625THY    HP324203   3.062   7.617   2.817 -0.0632 -1.7663  0.5361
17625THY    HP424204   3.231   7.604   2.787 -0.1459 -0.9551 -0.1694
17625THY    CP324205   2.971   7.385   2.701 -0.1135 -0.3948  0.2144
17625THY    HP524206   2.977   7.313   2.783  2.1431  0.3676  1.1810
17625THY    HP624207   2.943   7.332   2.609  0.3156 -0.5017  0.1668
17625THY    HP724208   2.897   7.454   2.741  0.4111  2.5316 -0.7762
17625THY    CA324209   3.242   7.262   2.639 -0.3884  0.0863  0.3090
17625THY    HA324210   3.192   7.209   2.719 -0.1976  1.4249  2.0898
17625THY    CA424211   3.337   7.194   2.558  0.3685  0.1288 -0.4024
17625THY    HA424212   3.360   7.090   2.580  1.4655 -0.2369 -0.2456
17625THY    CA524213   3.393   7.255   2.446 -0.4892 -1.2451 -0.4501
17625THY    CM124214   3.475   7.170   2.355  0.4468 -0.3202 -0.5947
17625THY    HM124215   3.521   7.226   2.273 -0.1869  1.1235  2.1998
17625THY    HM224216   3.420   7.084   2.315  2.3838 -0.0900 -2.0032
17625THY    HM324217   3.563   7.132   2.408  0.4942  1.4698  1.8184
17625THY    CA624218   3.345   7.386   2.411  0.0350  0.0411  0.7490
17625THY    HA624219   3.383   7.433   2.321 -0.0097 -0.9608 -1.0318
17626THY      O24220   2.111   2.519   7.038  0.6527  0.0970 -0.3148
17626THY     HO24221   2.050   2.446   7.018  0.0767  2.2105 -0.4740
17626THY    CA124222   2.237   2.494   6.990  0.7315  0.4150 -0.1055
17626THY    CA224223   2.339   2.585   7.011 -0.2014 -0.5710 -0.0740
17626THY    CP124224   2.325   2.718   7.083  0.5031  1.1404 -0.4388
17626THY    HP124225   2.223   2.732   7.123 -0.2998 -1.3256  1.4033
17626THY    CP224226   2.353   2.841   6.996 -0.7523  0.1559 -0.0519
17626THY    HP224227   2.275   2.860   6.921 -1.0804  0.6428  0.5342
17626THY    HP324228   2.443   2.820   6.936  0.7071  2.2165  0.0820
17626THY    HP424229   2.374   2.929   7.056 -0.9476  0.0848  0.0433
17626THY    CP324230   2.422   2.727   7.202  0.0918  1.0440  0.7971
17626THY    HP524231   2.405   2.645   7.273  0.9548 -1.0416 -1.2811
17626THY    HP624232   2.413   2.821   7.257 -1.9000  0.4290  1.0023
17626THY    HP724233   2.529   2.718   7.181 -0.0085  1.1753 -1.0135
17626THY    CA324234   2.463   2.541   6.970  0.4753  0.4556  0.0608
17626THY    HA324235   2.545   2.610   6.983 -0.3018 -0.0512  1.1103
17626THY    CA424236   2.478   2.422   6.904  0.0997 -0.0624 -0.5761
17626THY    HA424237   2.576   2.391   6.871 -0.2415  0.5734 -2.4501
17626THY    CA524238   2.372   2.338   6.880 -0.7221 -0.0841  0.7250
17626THY    CM124239   2.396   2.213   6.813 -0.1122  0.3070 -0.6538
17626THY    HM124240   2.480   2.160   6.860  0.1864 -1.0259 -1.4186
17626THY    HM224241   2.419   2.230   6.707  0.4103  0.6113  0.5901
17626THY    HM324242   2.303   2.155   6.813 -1.1817 -1.7979  0.9474
17626THY    CA624243   2.248   2.373   6.925 -0.1473  0.1580  0.0655
17626THY    HA624244   2.168   2.300   6.921  1.0047 -1.1539 -1.1950
17627THY      O24245   6.378   6.268   2.195  0.0181 -0.0805 -0.3234
17627THY     HO24246   6.407   6.237   2.107  0.2113 -0.0936 -0.1141
17627THY    CA124247   6.458   6.372   2.214 -0.4871  0.2480 -0.6571
17627THY    CA224248   6.420   6.466   2.304  0.0081 -0.4818  0.0860
17627THY    CP124249   6.289   6.451   2.390 -0.5222 -0.2535  0.1541
17627THY    HP124250   6.230   6.366   2.353  1.5172 -1.4452 -0.8506
17627THY    CP224251   6.208   6.576   2.382  0.2858  0.7570  0.1013
17627THY    HP224252   6.265   6.670   2.392  0.1275 -2.0221  0.5753
17627THY    HP324253   6.136   6.573   2.464  0.5971  1.1366  1.7886
17627THY    HP424254   6.153   6.571   2.287 -1.6351  1.8627 -0.7950
17627THY    CP324255   6.321   6.418   2.542  0.1407 -0.2997  0.5715
17627THY    HP524256   6.231   6.405   2.604  1.0552  0.8865 -0.3564
17627THY    HP624257   6.372   6.510   2.573 -2.0691 -0.0685  1.7997
17627THY    HP724258   6.366   6.320   2.556 -2.5772  1.8737 -0.5044
17627THY    CA324259   6.508   6.572   2.333  0.1742 -0.4108  0.3024
17627THY    HA324260   6.481   6.643   2.410 -0.3288 -0.4006  0.1013
17627THY    CA424261   6.620   6.585   2.253  0.2545  0.1603 -0.4197
17627THY    HA424262   6.688   6.668   2.268  0.0472 -1.2502  0.0334
17627THY    CA524263   6.654   6.499   2.154 -0.4214  0.7897 -0.3326
17627THY    CM124264   6.776   6.518   2.076  0.0012 -0.2608  0.3677
17627THY    HM124265   6.803   6.431   2.016 -2.8644 -2.5562  0.8798
17627THY    HM224266   6.861   6.548   2.138 -0.9913  0.7535  1.1954
17627THY    HM324267   6.756   6.601   2.007  0.3786 -1.9539 -0.8900
17627THY    CA624268   6.575   6.385   2.135 -0.1750 -0.6385  0.1043
17627THY    HA624269   6.609   6.305   2.070 -3.0211 -0.9469 -0.9748
17628THY      O24270   0.588   4.716   3.823  0.0386 -0.2236  0.0991
17628THY     HO24271   0.590   4.756   3.734  0.8117 -0.1252  0.2867
17628THY    CA124272   0.461   4.705   3.864  0.2257 -1.0733  0.8517
17628THY    CA224273   0.426   4.724   4.005 -0.0075  0.0776  0.5379
17628THY    CP124274   0.524   4.774   4.107 -0.8305  0.5780 -0.2841
17628THY    HP124275   0.624   4.761   4.063 -1.7627 -1.6102 -0.5080
17628THY    CP224276   0.543   4.689   4.227 -0.4107 -0.5044  0.2287
17628THY    HP224277   0.459   4.711   4.294 -0.7880 -1.5062  2.0048
17628THY    HP324278   0.644   4.698   4.267 -0.5243 -0.5067  1.8454
17628THY    HP424279   0.533   4.583   4.200  1.0015 -1.0282  0.2178
17628THY    CP324280   0.492   4.923   4.149 -1.2171  0.0092 -0.1792
17628THY    HP524281   0.584   4.963   4.194 -2.4901  1.4504  1.2302
17628THY    HP624282   0.408   4.935   4.218 -0.7173  0.3782  1.4951
17628THY    HP724283   0.463   4.975   4.057  0.3033  0.2916  1.2577
17628THY    CA324284   0.296   4.691   4.041 -0.0354 -0.0985  0.5300
17628THY    HA324285   0.266   4.711   4.144 -0.1690  0.1666 -0.9484
17628THY    CA424286   0.201   4.649   3.948  0.0618 -0.1861 -0.0912
17628THY    HA424287   0.098   4.635   3.981  0.2620  0.1831 -0.7191
17628THY    CA524288   0.232   4.648   3.815 -0.0474  0.8504  0.3557
17628THY    CM124289   0.125   4.618   3.714  0.1683 -0.6970  0.0574
17628THY    HM124290   0.094   4.513   3.711 -1.0061 -0.0486  0.3632
17628THY    HM224291   0.169   4.660   3.623 -0.7014 -1.1207  0.0757
17628THY    HM324292   0.036   4.680   3.730 -0.0510  2.0385 -0.8050
17628THY    CA624293   0.366   4.661   3.772  0.1796 -0.4237 -0.5934
17628THY    HA624294   0.399   4.649   3.669 -0.1726 -0.6229  0.0535
17629THY      O24295   6.607   6.433   5.629  0.0721 -0.1176 -0.5320
17629THY     HO24296   6.635   6.455   5.538 -0.8338 -0.4211 -0.6176
17629THY    CA124297   6.513   6.328   5.626  0.2924 -0.2316 -0.3873
17629THY    CA224298   6.395   6.337   5.705  0.3840 -0.0718 -0.3048
17629THY    CP124299   6.391   6.444   5.813  0.8718 -0.3304  0.3196
17629THY    HP124300   6.497   6.471   5.824  1.0270 -0.1878 -0.3296
17629THY    CP224301   6.320   6.397   5.941  0.2276 -0.0837 -0.1854
17629THY    HP224302   6.343   6.456   6.030 -1.7530 -0.5859  1.4553
17629THY    HP324303   6.349   6.293   5.964  0.6980  1.2320  0.2176
17629THY    HP424304   6.211   6.392   5.934  0.3317 -0.9011 -2.2731
17629THY    CP324305   6.309   6.559   5.766  0.1611 -0.6375  0.1885
17629THY    HP524306   6.286   6.637   5.840 -0.7773 -1.0110  0.2806
17629THY    HP624307   6.208   6.529   5.735  0.0204  0.2240 -0.2700
17629THY    HP724308   6.353   6.613   5.682  2.0061  1.1762  1.6518
17629THY    CA324309   6.285   6.246   5.683  0.1824 -0.6815  0.0834
17629THY    HA324310   6.191   6.269   5.732  0.7241  0.4207 -0.0129
17629THY    CA424311   6.301   6.144   5.590  0.6953  0.6360 -0.3622
17629THY    HA424312   6.222   6.072   5.569  0.9804 -1.3298 -0.1367
17629THY    CA524313   6.415   6.141   5.513  0.6975  0.4692  0.3354
17629THY    CM124314   6.428   6.032   5.405  0.1141 -0.1913 -0.2218
17629THY    HM124315   6.332   6.029   5.353  1.7850 -3.5119  0.0237
17629THY    HM224316   6.461   5.937   5.448 -0.0148 -1.6673 -0.9636
17629THY    HM324317   6.503   6.059   5.331 -1.3308 -1.6702 -0.1071
17629THY    CA624318   6.521   6.232   5.525 -0.1459  0.1751 -0.1895
17629THY    HA624319   6.609   6.208   5.466  0.1178  1.1746 -1.8963
17630THY      O24320   0.915   1.633   4.764  0.2436  0.4066 -0.6693
17630THY     HO24321   0.945   1.708   4.709 -1.0850 -0.1188 -0.4930
17630THY    CA124322   0.782   1.660   4.767 -0.0652  0.3970 -0.2362
17630THY    CA224323   0.693   1.601   4.858  0.8532 -0.2134  0.2251
17630THY    CP124324   0.743   1.480   4.945  0.0336  0.7783 -0.9615
17630THY    HP124325   0.828   1.423   4.906  2.2334  0.4415  2.2100
17630THY    CP224326   0.630   1.384   4.967  0.2778  0.6651  0.4309
17630THY    HP224327   0.675   1.294   5.011  1.2313  0.8366  0.9759
17630THY    HP324328   0.572   1.357   4.878  1.4086 -0.0596  0.3510
17630THY    HP424329   0.557   1.438   5.028 -1.5525 -2.0842  1.2744
17630THY    CP324330   0.801   1.532   5.079  0.2843  0.1510 -0.1455
17630THY    HP524331   0.900   1.578   5.077  0.2895 -1.2988 -0.1692
17630THY    HP624332   0.807   1.446   5.147  0.9068 -0.3728 -0.5220
17630THY    HP724333   0.730   1.604   5.122 -0.3334 -0.8857 -0.1192
17630THY    CA324334   0.554   1.642   4.865 -0.4023  0.3650  0.0520
17630THY    HA324335   0.487   1.605   4.943 -1.2974 -0.2241  0.4044
17630THY    CA424336   0.513   1.737   4.768  0.2781  0.1074 -0.6108
17630THY    HA424337   0.409   1.770   4.762  1.0651 -1.5502  1.8549
17630THY    CA524338   0.604   1.803   4.683 -0.4511  0.5021  0.8801
17630THY    CM124339   0.559   1.920   4.590  0.0036  0.0236  0.3080
17630THY    HM124340   0.519   2.001   4.651 -0.6171 -0.1292  0.1280
17630THY    HM224341   0.474   1.890   4.526 -0.0326 -0.2580  1.0022
17630THY    HM324342   0.634   1.958   4.520 -0.8186  0.2081  2.3657
17630THY    CA624343   0.736   1.761   4.681  0.3028 -0.7498 -0.1256
17630THY    HA624344   0.801   1.803   4.606 -1.4945 -1.1365  2.1538
17631THY      O24345   7.750   6.492   2.218 -0.0888 -0.1296 -0.0578
17631THY     HO24346   7.771   6.471   2.125 -1.8132 -0.4978 -0.2329
17631THY    CA124347   7.673   6.603   2.217 -0.4602 -0.0339  0.1133
17631THY    CA224348   7.655   6.682   2.331 -0.2191  0.4904 -0.1193
17631THY    CP124349   7.733   6.652   2.459 -0.2135 -0.3788 -0.2873
17631THY    HP124350   7.786   6.557   2.443 -0.7444  2.6439 -1.1838
17631THY    CP224351   7.638   6.629   2.575 -0.1252  0.2662  0.1147
17631THY    HP224352   7.591   6.724   2.604  0.8656 -2.0288  1.3856
17631THY    HP324353   7.688   6.588   2.664  0.4270  0.1960  0.6143
17631THY    HP424354   7.554   6.564   2.547 -1.1841 -1.4187  2.1081
17631THY    CP324355   7.847   6.756   2.496  0.1073  0.3896 -0.6154
17631THY    HP524356   7.909   6.759   2.406 -0.3310  0.0925 -0.1763
17631THY    HP624357   7.909   6.737   2.584 -0.6292  1.5065  1.7742
17631THY    HP724358   7.792   6.851   2.505  2.0662 -0.2737  0.6399
17631THY    CA324359   7.561   6.790   2.324 -0.7103  0.2683  0.8186
17631THY    HA324360   7.537   6.849   2.412 -1.2717  0.7874 -0.1609
17631THY    CA424361   7.503   6.822   2.206 -0.2339 -0.5998  0.1878
17631THY    HA424362   7.421   6.892   2.211 -0.1021 -1.1389  0.3808
17631THY    CA524363   7.533   6.752   2.081 -0.0785 -0.0790  0.0848
17631THY    CM124364   7.450   6.792   1.960  0.0988  0.6604 -0.1401
17631THY    HM124365   7.373   6.868   1.984  1.1895  1.8241  0.6438
17631THY    HM224366   7.410   6.704   1.908  1.0644  2.8380 -1.9762
17631THY    HM324367   7.521   6.832   1.888  0.6785  0.7168 -1.0405
17631THY    CA624368   7.615   6.639   2.088 -0.1959  0.0105 -0.1104
17631THY    HA624369   7.643   6.585   1.998  2.9010 -0.2833  1.7476
17632THY      O24370   0.676   1.157   2.282  0.3133  0.2018 -0.0072
17632THY     HO24371   0.642   1.248   2.279 -2.0515  1.5444 -0.7708
17632THY    CA124372   0.599   1.078   2.197  0.6414 -0.3372  0.6587
17632THY    CA224373   0.644   0.952   2.154 -0.3628 -0.0766 -0.3608
17632THY    CP124374   0.776   0.901   2.204 -0.1234  0.2326 -0.5085
17632THY    HP124375   0.814   0.971   2.280 -1.9245 -0.1676  0.9933
17632THY    CP224376   0.869   0.887   2.086  0.0602  0.5372 -0.1563
17632THY    HP224377   0.829   0.807   2.022  1.7286 -0.9816  0.1444
17632THY    HP324378   0.966   0.857   2.128 -0.1268  1.3107  0.3058
17632THY    HP424379   0.876   0.984   2.034 -0.0234 -1.5034 -1.1898
17632THY    CP324380   0.770   0.774   2.278 -0.2692  0.1448 -0.2995
17632THY    HP524381   0.683   0.776   2.346  0.1508  0.6911 -0.3018
17632THY    HP624382   0.858   0.767   2.343 -0.7438  1.3527  2.8983
17632THY    HP724383   0.747   0.686   2.218  1.3995 -1.4534  0.3001
17632THY    CA324384   0.564   0.865   2.080  0.0658 -0.0513  0.0662
17632THY    HA324385   0.606   0.773   2.042 -1.1675 -1.4502  0.0534
17632THY    CA424386   0.435   0.902   2.044  0.1455 -0.0824  0.2006
17632THY    HA424387   0.379   0.840   1.974 -1.5165 -0.1913  1.7287
17632THY    CA524388   0.388   1.029   2.081  0.1283 -0.6499  0.4160
17632THY    CM124389   0.262   1.077   2.027  1.5458  0.4307 -0.5273
17632THY    HM124390   0.183   1.039   2.093  1.1725  1.4271  1.7706
17632THY    HM224391   0.249   1.044   1.924  0.9225 -0.4435  2.2041
17632THY    HM324392   0.256   1.186   2.036 -0.7112 -1.3812 -0.4248
17632THY    CA624393   0.467   1.115   2.161  0.2733 -0.6465  0.0686
17632THY    HA624394   0.428   1.207   2.204  3.3485  1.4748  0.5062
17633THY      O24395   4.962   6.221   6.826  0.1325 -0.8287 -0.0373
17633THY     HO24396   4.945   6.129   6.800 -2.0705  0.2889  0.0053
17633THY    CA124397   4.898   6.246   6.947 -0.5761 -0.5625  0.4524
17633THY    CA224398   4.928   6.362   7.028  0.2768 -0.4376  0.2078
17633THY    CP124399   5.031   6.464   6.970 -0.2020 -1.0476  0.0907
17633THY    HP124400   5.093   6.426   6.889 -0.5737 -0.6002 -1.5478
17633THY    CP224401   5.140   6.496   7.074  0.0867 -0.0783  0.6397
17633THY    HP224402   5.210   6.412   7.084  0.2371 -1.8215  0.5154
17633THY    HP324403   5.108   6.513   7.178 -1.8760 -0.7485  1.3205
17633THY    HP424404   5.195   6.586   7.043 -0.5876  2.1725  1.9129
17633THY    CP324405   4.958   6.587   6.922  0.2268  0.4186 -0.2858
17633THY    HP524406   4.881   6.625   6.990  0.9029  0.5826  0.8471
17633THY    HP624407   4.907   6.569   6.826 -3.6508  2.1992  0.1533
17633THY    HP724408   5.028   6.670   6.903 -0.1596 -2.0456 -0.4357
17633THY    CA324409   4.869   6.369   7.154  0.4322 -1.4006 -0.3703
17633THY    HA324410   4.904   6.447   7.222 -1.4150  1.2767 -1.7071
17633THY    CA424411   4.777   6.269   7.191  0.0712 -0.7111  0.3172
17633THY    HA424412   4.746   6.269   7.296 -0.2028 -0.7730 -1.1060
17633THY    CA524413   4.737   6.160   7.112  0.0193  0.8381  0.2773
17633THY    CM124414   4.629   6.063   7.143  0.2798 -0.2833  0.6297
17633THY    HM124415   4.570   6.095   7.230 -1.0819 -1.4814  1.5264
17633THY    HM224416   4.659   5.963   7.176 -0.4470 -0.1361  0.4510
17633THY    HM324417   4.554   6.049   7.064 -0.6988  0.3146  2.2428
17633THY    CA624418   4.795   6.159   6.983 -1.1739  0.1033  0.0501
17633THY    HA624419   4.769   6.079   6.914 -1.0129 -1.0249  0.9421
17634THY      O24420   3.274   1.714   4.666 -0.2475  0.3208  0.0036
17634THY     HO24421   3.284   1.647   4.736 -2.0859  1.8220  1.1894
17634THY    CA124422   3.338   1.678   4.550  0.1349  0.4042 -0.4056
17634THY    CA224423   3.424   1.769   4.482  0.7229  0.2978  0.6407
17634THY    CP124424   3.449   1.904   4.543  0.2533  0.2291 -0.1343
17634THY    HP124425   3.385   1.928   4.629  0.8385  0.7844 -0.5228
17634THY    CP224426   3.430   2.014   4.436  0.1842 -0.1915  0.2343
17634THY    HP224427   3.507   2.000   4.359  1.4654  0.7484  1.7511
17634THY    HP324428   3.432   2.111   4.487  2.0005 -2.1420  1.3192
17634THY    HP424429   3.333   1.993   4.388  0.3453 -0.0770 -0.7975
17634THY    CP324430   3.597   1.909   4.590  0.3461  0.1906 -0.2129
17634THY    HP524431   3.616   2.009   4.631 -1.2921 -1.2219  0.7409
17634THY    HP624432   3.671   1.900   4.510  0.2152 -0.2533  2.0116
17634THY    HP724433   3.608   1.829   4.664 -1.8912 -0.9156 -1.6335
17634THY    CA324434   3.476   1.724   4.362 -0.0138 -0.2072 -0.4126
17634THY    HA324435   3.546   1.787   4.306 -0.4933 -0.3058  0.0401
17634THY    CA424436   3.449   1.603   4.308  0.6252  0.0639 -0.2478
17634THY    HA424437   3.499   1.577   4.216 -1.0268 -1.1018  0.5291
17634THY    CA524438   3.361   1.515   4.378 -0.4345 -0.3026  0.6144
17634THY    CM124439   3.329   1.382   4.319 -0.4899 -0.5692  0.0710
17634THY    HM124440   3.220   1.375   4.332 -0.3351  2.6252  1.8489
17634THY    HM224441   3.391   1.309   4.372 -1.0029  0.8078  0.6029
17634THY    HM324442   3.367   1.374   4.216 -0.5053 -0.4729 -1.3839
17634THY    CA624443   3.311   1.556   4.500  0.0810 -0.4252  0.1357
17634THY    HA624444   3.251   1.493   4.564  1.2412 -0.4453 -1.0432
17635THY      O24445   5.881   8.440   8.081 -0.8866  0.0393  0.2881
17635THY     HO24446   5.786   8.420   8.075 -0.4109 -2.1367 -1.6566
17635THY    CA124447   5.930   8.463   7.953  0.8861 -0.8062  0.1349
17635THY    CA224448   6.054   8.513   7.923 -0.0264  0.6524 -0.5438
17635THY    CP124449   6.157   8.503   8.029 -0.1191  0.0595 -0.2282
17635THY    HP124450   6.118   8.479   8.129 -0.7313 -0.1078  0.0510
17635THY    CP224451   6.227   8.636   8.060 -0.6266  0.8386 -0.2021
17635THY    HP224452   6.277   8.641   8.157  0.6140  0.2463 -0.6905
17635THY    HP324453   6.154   8.717   8.072 -0.5491 -0.8904  0.1736
17635THY    HP424454   6.286   8.676   7.976  0.3713  1.3178 -0.6322
17635THY    CP324455   6.256   8.391   8.003 -0.0424 -0.1394 -0.4189
17635THY    HP524456   6.322   8.383   8.090 -0.5357  0.1847 -0.9965
17635THY    HP624457   6.317   8.415   7.915  1.8871  1.7426  2.1713
17635THY    HP724458   6.215   8.290   7.998  1.8838  0.7748 -1.3059
17635THY    CA324459   6.090   8.533   7.788 -0.4040  0.3019 -0.2460
17635THY    HA324460   6.190   8.568   7.765  0.4016  1.4978 -1.6356
17635THY    CA424461   5.988   8.517   7.692 -0.4903  0.6739  0.4299
17635THY    HA424462   6.011   8.539   7.588  0.2691  0.7302 -0.0977
17635THY    CA524463   5.862   8.472   7.724 -0.1035 -0.3565 -0.1245
17635THY    CM124464   5.762   8.457   7.609 -0.4206  0.3070  1.2858
17635THY    HM124465   5.800   8.413   7.516 -1.4724  0.1748  0.6144
17635THY    HM224466   5.713   8.554   7.597 -0.3459  2.1102  1.5939
17635THY    HM324467   5.683   8.384   7.629  0.1208 -1.4112  0.1586
17635THY    CA624468   5.833   8.440   7.853  0.0589  0.2788 -0.1055
17635THY    HA624469   5.737   8.396   7.878 -0.7942  3.2621  3.0637
17636THY      O24470   0.978   5.680   7.267  0.2790 -0.0350 -0.0625
17636THY     HO24471   0.931   5.702   7.350 -0.7211 -1.0076  1.6838
17636THY    CA124472   1.001   5.793   7.190 -0.0287 -0.4002 -0.3488
17636THY    CA224473   0.991   5.782   7.056 -0.1256  0.1507  0.0893
17636THY    CP124474   0.949   5.649   6.986 -0.5158  0.4665 -0.1454
17636THY    HP124475   0.918   5.576   7.062  2.7873  1.1910 -0.9580
17636THY    CP224476   1.068   5.586   6.904 -0.2262 -0.4495 -0.1807
17636THY    HP224477   1.038   5.487   6.867 -0.0179  0.0573 -0.4351
17636THY    HP324478   1.153   5.572   6.971 -2.1973  2.1845 -0.4158
17636THY    HP424479   1.069   5.650   6.815 -2.3524 -0.7713 -0.5075
17636THY    CP324480   0.824   5.680   6.900 -0.2120 -0.2861 -0.2022
17636THY    HP524481   0.856   5.753   6.824  0.1928  1.0407  1.0471
17636THY    HP624482   0.752   5.731   6.964  2.7936  1.6996  1.8385
17636THY    HP724483   0.779   5.592   6.853 -0.9174  1.9205 -1.0627
17636THY    CA324484   1.034   5.896   6.986 -0.0288 -0.0100  0.1559
17636THY    HA324485   1.043   5.893   6.877  0.8594 -0.0322  2.1029
17636THY    CA424486   1.084   6.014   7.051  0.3303 -0.4690 -0.0522
17636THY    HA424487   1.122   6.095   6.990  0.2545 -2.6539 -1.5666
17636THY    CA524488   1.097   6.011   7.190 -0.0565 -0.4144 -0.3727
17636THY    CM124489   1.163   6.128   7.263 -0.5296 -0.0189 -0.1571
17636THY    HM124490   1.144   6.230   7.229  0.4071  1.6080  0.5963
17636THY    HM224491   1.270   6.113   7.243 -0.3947 -1.1532  1.9325
17636THY    HM324492   1.144   6.118   7.370  2.4670  0.5327 -0.8030
17636THY    CA624493   1.049   5.898   7.259 -0.0545 -0.0594 -0.5310
17636THY    HA624494   1.064   5.891   7.366  0.6473 -0.0641  0.6283
17637THY      O24495   6.414   1.180   5.495  0.0146 -0.8554  0.4221
17637THY     HO24496   6.501   1.210   5.464  0.2791  0.2932  0.9031
17637THY    CA124497   6.328   1.194   5.400  0.2198  0.0837 -0.0004
17637THY    CA224498   6.184   1.193   5.419 -0.5954  0.8354 -0.0896
17637THY    CP124499   6.134   1.156   5.560  0.3983 -0.9483 -0.3806
17637THY    HP124500   6.182   1.219   5.637  0.7104 -1.1899 -0.3173
17637THY    CP224501   6.172   1.019   5.608  1.0621  0.3419  0.5578
17637THY    HP224502   6.148   0.994   5.712  3.5920  0.7916 -0.3294
17637THY    HP324503   6.281   1.010   5.609  0.9942 -0.5515 -0.7595
17637THY    HP424504   6.129   0.941   5.543 -2.8217  0.8629  2.0206
17637THY    CP324505   5.984   1.178   5.580 -0.5777 -0.2104 -0.4575
17637THY    HP524506   5.945   1.167   5.682 -3.5753 -1.0706  1.0317
17637THY    HP624507   5.920   1.124   5.509 -0.8854 -1.0058  0.8930
17637THY    HP724508   5.948   1.280   5.561 -0.8565  2.5164  0.0223
17637THY    CA324509   6.100   1.222   5.306 -0.0367 -0.6229  0.5235
17637THY    HA324510   5.992   1.225   5.312  0.0181  1.3459 -0.0197
17637THY    CA424511   6.155   1.223   5.178 -0.8081  0.7791  0.9101
17637THY    HA424512   6.094   1.246   5.091 -0.6394  0.6584  0.8967
17637THY    CA524513   6.299   1.213   5.157 -0.4704 -0.5051  0.4938
17637THY    CM124514   6.368   1.214   5.024 -0.6054 -0.2315 -0.5785
17637THY    HM124515   6.417   1.311   5.012 -1.8844  0.0444  0.1208
17637THY    HM224516   6.287   1.200   4.951  0.3484 -1.2995 -0.6825
17637THY    HM324517   6.431   1.124   5.016 -0.7358 -1.3511 -0.5902
17637THY    CA624518   6.384   1.205   5.272 -0.2208 -0.6652  0.7648
17637THY    HA624519   6.490   1.213   5.249 -0.3269 -1.7485 -0.5342
17638THY      O24520   9.065   3.005   7.286 -0.3927 -0.1985  0.2304
17638THY     HO24521   9.132   2.959   7.339 -2.6912  2.5745 -0.2320
17638THY    CA124522   9.019   2.924   7.185  0.0737  0.0576 -0.1032
17638THY    CA224523   8.920   2.963   7.087 -0.3399 -0.2675 -1.1307
17638THY    CP124524   8.872   3.113   7.101  0.4026 -0.5337  0.2783
17638THY    HP124525   8.929   3.171   7.175  2.7834  0.0885 -2.5883
17638THY    CP224526   8.728   3.110   7.155  0.0431  0.7260 -0.2093
17638THY    HP224527   8.667   3.055   7.083  2.1222 -1.4924  0.2105
17638THY    HP324528   8.699   3.216   7.159  2.2812 -2.1987  0.6696
17638THY    HP424529   8.726   3.070   7.257 -0.7072  1.4169  1.4713
17638THY    CP324530   8.888   3.184   6.967  0.0377  0.0876  0.0129
17638THY    HP524531   8.825   3.135   6.892 -1.5859 -0.4910  2.7594
17638THY    HP624532   8.992   3.191   6.932  0.0148  0.0646  0.2781
17638THY    HP724533   8.848   3.286   6.975 -2.1791 -0.7567 -0.7466
17638THY    CA324534   8.875   2.870   6.991  0.5710 -0.7908 -0.6802
17638THY    HA324535   8.805   2.899   6.912 -0.6223  0.4507 -0.0557
17638THY    CA424536   8.923   2.740   6.996  0.3346 -0.6943 -0.0370
17638THY    HA424537   8.892   2.667   6.922  0.9925 -1.4536  0.4319
17638THY    CA524538   9.028   2.709   7.079  0.2024 -0.0284 -0.1227
17638THY    CM124539   9.083   2.567   7.072 -0.3209 -0.4618 -0.3088
17638THY    HM124540   9.016   2.498   7.019 -2.9811  2.9615 -0.6220
17638THY    HM224541   9.102   2.524   7.171  0.1455  0.1706  1.2853
17638THY    HM324542   9.184   2.570   7.031  0.5578  1.6227  0.7223
17638THY    CA624543   9.072   2.798   7.175 -0.2656  0.3041 -0.1976
17638THY    HA624544   9.153   2.771   7.242 -1.9714  1.5859 -2.6954
17639THY      O24545   4.850   5.082   4.388 -0.4285 -0.2739  0.4989
17639THY     HO24546   4.909   5.130   4.326  1.6982  1.6836  0.5976
17639THY    CA124547   4.886   4.953   4.386  0.4238 -0.8189 -0.4700
17639THY    CA224548   4.841   4.866   4.483 -0.4389  0.1710  0.1727
17639THY    CP124549   4.752   4.919   4.593 -0.3667  0.3069  0.8787
17639THY    HP124550   4.746   5.029   4.591 -0.6642 -0.9705  0.8553
17639THY    CP224551   4.804   4.871   4.729  0.1390 -0.7918 -0.5321
17639THY    HP224552   4.757   4.939   4.801 -1.9477 -1.6347 -1.0087
17639THY    HP324553   4.914   4.878   4.732  0.1005  1.4321  0.0841
17639THY    HP424554   4.789   4.763   4.740 -0.3041 -0.4732 -0.4405
17639THY    CP324555   4.610   4.875   4.563 -0.3591  0.0127  0.3112
17639THY    HP524556   4.582   4.907   4.462 -1.9523  0.7418  1.3438
17639THY    HP624557   4.531   4.916   4.627  1.3362  1.4214  1.4824
17639THY    HP724558   4.603   4.765   4.571  1.4301 -0.1141  0.1649
17639THY    CA324559   4.879   4.733   4.485  0.0319 -0.4243  0.1658
17639THY    HA324560   4.839   4.671   4.565  1.4894  1.8127  1.9377
17639THY    CA424561   4.960   4.685   4.380  0.5318 -0.1999  0.0338
17639THY    HA424562   4.986   4.580   4.367 -0.4562 -2.3429 -0.0135
17639THY    CA524563   5.006   4.770   4.284 -1.1566  0.4809 -0.3224
17639THY    CM124564   5.100   4.725   4.177 -0.1722  0.2021  0.5632
17639THY    HM124565   5.203   4.748   4.204 -0.3384  0.0178  1.5797
17639THY    HM224566   5.081   4.769   4.078  0.8489 -0.3956 -0.2856
17639THY    HM324567   5.102   4.616   4.166 -3.1971 -0.8966  0.5034
17639THY    CA624568   4.969   4.906   4.285 -0.3202 -0.2410  0.5575
17639THY    HA624569   5.009   4.970   4.208  2.3260  1.7022  1.4116
17640THY      O24570   6.426   4.780   6.214 -0.2762  0.3652  0.3288
17640THY     HO24571   6.432   4.698   6.266 -1.4089  0.9283  0.5915
17640THY    CA124572   6.299   4.775   6.172 -0.2826 -0.0194  1.0678
17640THY    CA224573   6.232   4.889   6.146 -0.4832  0.0468 -0.2577
17640THY    CP124574   6.302   5.024   6.172 -0.3620  0.5948  0.1693
17640THY    HP124575   6.412   5.021   6.176 -0.2927 -0.4984  0.6924
17640THY    CP224576   6.254   5.069   6.314 -0.4309  0.8430 -0.1682
17640THY    HP224577   6.316   5.147   6.359  0.4391 -1.3549  0.4923
17640THY    HP324578   6.274   4.990   6.387  0.7010  1.1611  0.3983
17640THY    HP424579   6.148   5.096   6.302 -0.1054 -0.6511  0.5693
17640THY    CP324580   6.266   5.131   6.068 -0.3268  0.5019  0.5226
17640THY    HP524581   6.305   5.103   5.969  0.4733  1.1126 -0.5573
17640THY    HP624582   6.320   5.223   6.095  0.4373  2.3416 -0.4310
17640THY    HP724583   6.160   5.155   6.059  0.0705 -2.1718  1.6826
17640THY    CA324584   6.096   4.875   6.107 -0.5695 -0.0005  0.2114
17640THY    HA324585   6.032   4.960   6.086 -1.7303  0.2625 -0.5708
17640THY    CA424586   6.037   4.748   6.087 -0.1633  0.3352  0.3362
17640THY    HA424587   5.937   4.736   6.045 -0.3763  1.0949 -0.6644
17640THY    CA524588   6.111   4.636   6.117  0.4179  0.0331  0.0286
17640THY    CM124589   6.050   4.499   6.108  0.1995 -0.1455  0.7230
17640THY    HM124590   5.950   4.497   6.151 -2.3616 -5.2787  0.6637
17640THY    HM224591   6.107   4.426   6.167  1.3738  0.0378  1.7624
17640THY    HM324592   6.049   4.458   6.006  1.3775  0.2065 -0.2539
17640THY    CA624593   6.244   4.650   6.157  0.0624  0.2894  0.1781
17640THY    HA624594   6.308   4.562   6.163  2.2762 -4.8065  1.0385
17641THY      O24595   0.322   1.100   4.591  0.1234  0.7143  0.3765
17641THY     HO24596   0.279   1.075   4.674  1.7482  1.3383 -0.4436
17641THY    CA124597   0.432   1.014   4.585  0.1118 -0.0876 -0.4031
17641THY    CA224598   0.466   0.935   4.471 -0.4070 -0.1325 -0.2583
17641THY    CP124599   0.382   0.941   4.343  0.2082  0.5091 -0.3790
17641THY    HP124600   0.285   0.985   4.371 -0.2428 -0.2727 -0.8499
17641THY    CP224601   0.351   0.796   4.293 -0.2097 -0.1554  0.1032
17641THY    HP224602   0.314   0.730   4.373  2.0723 -0.5819 -1.8229
17641THY    HP324603   0.436   0.746   4.244 -0.6357 -0.6048 -0.1886
17641THY    HP424604   0.272   0.801   4.217  0.3425 -0.8242 -0.9855
17641THY    CP324605   0.432   1.034   4.234  0.8617  0.7712  0.0238
17641THY    HP524606   0.526   1.005   4.184 -0.6536 -3.5660  1.7904
17641THY    HP624607   0.444   1.126   4.292  0.2953  1.7601 -0.5167
17641THY    HP724608   0.354   1.034   4.157 -0.2528  1.8776  0.1998
17641THY    CA324609   0.586   0.853   4.485 -0.3488 -0.3579  0.7293
17641THY    HA324610   0.616   0.801   4.395 -1.8621 -0.3245 -0.2466
17641THY    CA424611   0.665   0.859   4.599 -0.1244  0.0759  0.1745
17641THY    HA424612   0.762   0.809   4.597  0.3899 -1.4676  1.1572
17641THY    CA524613   0.624   0.935   4.709  0.1680  0.6832  0.1021
17641THY    CM124614   0.719   0.945   4.822  0.4978  0.1335 -0.1795
17641THY    HM124615   0.698   1.034   4.883  2.0166 -1.5815  1.4639
17641THY    HM224616   0.824   0.931   4.796  0.4757  0.2757 -0.6085
17641THY    HM324617   0.699   0.862   4.890  2.3657 -0.0050 -0.7790
17641THY    CA624618   0.511   1.012   4.703  0.1567 -0.3455 -0.0261
17641THY    HA624619   0.491   1.092   4.773 -0.9749  0.0812 -0.6464
17642THY      O24620   8.509   4.061   3.628  0.3028 -0.1130  0.6915
17642THY     HO24621   8.577   4.061   3.558  0.8851  0.4319  0.4630
17642THY    CA124622   8.395   4.114   3.592  0.0453 -0.3762 -0.8148
17642THY    CA224623   8.269   4.080   3.648  0.0627  0.6408  0.1536
17642THY    CP124624   8.266   3.980   3.765  0.1089 -0.1651 -0.3914
17642THY    HP124625   8.347   4.014   3.830 -0.9958  1.1743 -0.2525
17642THY    CP224626   8.314   3.837   3.720 -0.0929  0.4076 -0.6007
17642THY    HP224627   8.402   3.842   3.654  1.8936  2.8347 -1.7098
17642THY    HP324628   8.233   3.788   3.664  0.2081  0.4123 -1.1083
17642THY    HP424629   8.344   3.781   3.809  0.7800  0.5428  0.0538
17642THY    CP324630   8.134   3.967   3.845 -0.3388 -0.2324 -0.3075
17642THY    HP524631   8.053   3.975   3.771  0.0097 -0.6534 -0.5992
17642THY    HP624632   8.133   4.045   3.922  0.0181  0.0922 -0.6229
17642THY    HP724633   8.125   3.877   3.906 -0.4223  0.2099 -0.0000
17642THY    CA324634   8.156   4.141   3.593 -0.5032 -0.2705 -0.3600
17642THY    HA324635   8.055   4.113   3.622 -1.3592 -1.0959  1.6520
17642THY    CA424636   8.164   4.242   3.495 -0.4854 -0.8253 -0.6827
17642THY    HA424637   8.078   4.299   3.459  0.4818  0.7346  1.9267
17642THY    CA524638   8.293   4.285   3.457  0.2571 -0.7664 -0.3661
17642THY    CM124639   8.296   4.394   3.356  0.5142 -0.0998 -0.4689
17642THY    HM124640   8.224   4.469   3.390 -0.0497 -0.3827 -0.8696
17642THY    HM224641   8.259   4.357   3.259  0.4602 -0.3563  0.2386
17642THY    HM324642   8.399   4.431   3.365  0.6860  0.7803 -1.1386
17642THY    CA624643   8.408   4.217   3.499  0.7222 -0.2851  0.3399
17642THY    HA624644   8.506   4.248   3.465  1.7881  0.7249 -1.7199
17643THY      O24645   4.407   4.605   3.875  0.3984  0.3570 -0.5405
17643THY     HO24646   4.441   4.553   3.800 -1.6432 -0.5345 -0.6876
17643THY    CA124647   4.514   4.652   3.937  0.7481  0.4724  0.4448
17643THY    CA224648   4.515   4.709   4.066 -0.0687  0.3793 -0.3821
17643THY    CP124649   4.388   4.716   4.146 -0.3049  0.8800 -0.0341
17643THY    HP124650   4.309   4.643   4.122 -0.8171  1.2492  0.3834
17643THY    CP224651   4.331   4.855   4.152  0.2640  0.2528  0.1425
17643THY    HP224652   4.235   4.850   4.205 -1.5405 -2.5394  2.1242
17643THY    HP324653   4.306   4.886   4.050  0.5814  0.3227  0.6409
17643THY    HP424654   4.397   4.919   4.211 -0.3258  0.7329  0.3123
17643THY    CP324655   4.427   4.668   4.287  0.1669  0.2633  0.2945
17643THY    HP524656   4.452   4.561   4.292 -0.4150  1.0707  0.1890
17643THY    HP624657   4.337   4.679   4.348  0.9898  1.3550  1.2117
17643THY    HP724658   4.507   4.724   4.336 -1.0861  2.1884  0.5046
17643THY    CA324659   4.633   4.766   4.110  0.5153  0.2653 -0.5925
17643THY    HA324660   4.640   4.816   4.205 -0.2400 -0.5178  1.0653
17643THY    CA424661   4.743   4.771   4.025  0.3151  0.4151 -0.1730
17643THY    HA424662   4.835   4.826   4.046  1.3498  0.3517 -1.8053
17643THY    CA524663   4.743   4.713   3.904 -0.2443 -0.2330  0.0653
17643THY    CM124664   4.855   4.724   3.810  0.8244  0.3026 -0.4117
17643THY    HM124665   4.852   4.816   3.751  2.0674  1.8453  0.6819
17643THY    HM224666   4.853   4.637   3.743 -0.6746 -1.3069  0.8064
17643THY    HM324667   4.945   4.731   3.873  0.7755  0.1851  1.7024
17643THY    CA624668   4.627   4.654   3.853 -0.5550 -1.0331  0.3620
17643THY    HA624669   4.626   4.616   3.751  2.2779 -0.2273 -2.2985
17644THY      O24670   1.668   5.117   5.279  0.1707 -0.6587 -0.6216
17644THY     HO24671   1.648   5.206   5.311  0.0856 -0.4871 -0.7026
17644THY    CA124672   1.801   5.092   5.302 -0.2754  0.5455  0.1469
17644THY    CA224673   1.856   4.967   5.290  0.3398  0.3617  0.5460
17644THY    CP124674   1.789   4.841   5.264  0.2172 -0.0889 -0.0094
17644THY    HP124675   1.682   4.861   5.278  0.7827  1.4343  2.2280
17644THY    CP224676   1.813   4.723   5.364 -0.6457  0.3743  0.0601
17644THY    HP224677   1.810   4.763   5.466 -0.5365  0.3153  0.2203
17644THY    HP324678   1.910   4.677   5.342 -0.7581  0.3148 -0.1521
17644THY    HP424679   1.731   4.650   5.371  0.7089 -0.5036 -1.6352
17644THY    CP324680   1.822   4.790   5.124 -0.1952  0.0619 -0.2075
17644THY    HP524681   1.763   4.704   5.089 -0.1118 -1.1668  0.2069
17644THY    HP624682   1.927   4.758   5.124 -0.8153 -1.0649 -2.4278
17644THY    HP724683   1.802   4.872   5.053  0.5813  1.5259  1.2962
17644THY    CA324684   1.993   4.961   5.285 -0.3922  0.4933  0.0724
17644THY    HA324685   2.036   4.863   5.270 -1.3285  2.8073 -0.7597
17644THY    CA424686   2.076   5.066   5.323 -0.1114  0.2956  0.1099
17644THY    HA424687   2.182   5.065   5.302 -0.5554 -2.7415  2.2217
17644THY    CA524688   2.019   5.190   5.349  0.2683  0.2348 -0.1354
17644THY    CM124689   2.106   5.302   5.397  0.8271  0.4103 -0.0345
17644THY    HM124690   2.157   5.276   5.491  2.5722 -0.8733 -1.5161
17644THY    HM224691   2.050   5.395   5.414  0.6773  1.1649 -0.2556
17644THY    HM324692   2.185   5.335   5.329 -0.5949 -2.0402 -1.3443
17644THY    CA624693   1.880   5.201   5.332 -0.6336 -0.4488  0.6054
17644THY    HA624694   1.825   5.290   5.360 -1.5829 -0.5527  0.0635
17645THY      O24695   4.807   8.321   4.837  0.3414  0.0205  0.3603
17645THY     HO24696   4.746   8.247   4.858 -0.7238 -0.1171  1.1761
17645THY    CA124697   4.936   8.269   4.832  0.5373 -0.5791  1.3545
17645THY    CA224698   5.049   8.332   4.775 -0.4536  0.1024  0.4596
17645THY    CP124699   5.032   8.471   4.716  0.7671 -1.1583 -0.6803
17645THY    HP124700   4.986   8.536   4.791  2.6395 -2.1687  1.9575
17645THY    CP224701   4.943   8.475   4.597  0.7608 -0.0249 -0.5522
17645THY    HP224702   4.983   8.424   4.509  1.2751 -0.2540  0.2366
17645THY    HP324703   4.910   8.576   4.568  2.2013  1.1187  0.2913
17645THY    HP424704   4.853   8.422   4.631  1.2602  0.8359 -0.8842
17645THY    CP324705   5.165   8.541   4.688  0.2632 -0.2176  0.1984
17645THY    HP524706   5.155   8.640   4.644  1.5283 -0.4706  0.2366
17645THY    HP624707   5.229   8.491   4.613 -1.1326 -1.4438  0.2073
17645THY    HP724708   5.226   8.563   4.777  3.3624 -2.5305  1.7715
17645THY    CA324709   5.167   8.263   4.776  0.2472 -0.1101 -0.0964
17645THY    HA324710   5.262   8.295   4.734 -1.0390 -2.3538  1.0404
17645THY    CA424711   5.180   8.128   4.828 -0.0570  0.4984  0.2791
17645THY    HA424712   5.276   8.079   4.836 -0.0572 -1.4254 -0.0984
17645THY    CA524713   5.061   8.064   4.871 -0.0245 -0.1632 -0.0208
17645THY    CM124714   5.049   7.923   4.911 -0.5203 -0.0701  0.0146
17645THY    HM124715   5.083   7.906   5.014  1.9303 -0.0058  3.9325
17645THY    HM224716   5.112   7.846   4.866  0.2906 -0.1401  0.7014
17645THY    HM324717   4.946   7.887   4.917 -0.7014  1.1699  0.6839
17645THY    CA624718   4.944   8.137   4.873  0.8120  0.1189  0.1543
17645THY    HA624719   4.849   8.090   4.896 -0.3190 -2.8576  0.6973
17646THY      O24720   8.841   5.370   5.131 -0.6605  0.4507  0.4012
17646THY     HO24721   8.928   5.410   5.110 -0.6215  0.0232  0.0971
17646THY    CA124722   8.836   5.343   5.260  0.1206  0.8778  0.3091
17646THY    CA224723   8.721   5.337   5.335 -0.1857 -0.8153 -0.3098
17646THY    CP124724   8.588   5.377   5.276  0.5028  0.3564 -0.2399
17646THY    HP124725   8.588   5.360   5.168  0.1303  0.4536 -0.8815
17646THY    CP224726   8.561   5.523   5.300 -0.6183 -0.5133 -0.1909
17646THY    HP224727   8.562   5.534   5.409  0.9529 -0.5203  0.0388
17646THY    HP324728   8.470   5.563   5.254  0.4143 -1.7588  0.8443
17646THY    HP424729   8.643   5.587   5.264 -0.9523 -0.5459  0.2251
17646THY    CP324730   8.472   5.288   5.328  0.1098  0.2704 -0.2039
17646THY    HP524731   8.390   5.293   5.255 -0.4695  0.5330 -3.4642
17646THY    HP624732   8.445   5.298   5.434 -0.7532 -0.0129  0.5937
17646THY    HP724733   8.505   5.185   5.311  1.4231 -1.7574  0.4938
17646THY    CA324734   8.725   5.301   5.474  0.2219  1.1755  0.2565
17646THY    HA324735   8.644   5.300   5.546  0.5458  1.5395 -0.3095
17646THY    CA424736   8.854   5.273   5.528 -0.4339 -0.3924 -0.5732
17646THY    HA424737   8.857   5.247   5.634 -0.9183  0.0616  1.0979
17646THY    CA524738   8.970   5.278   5.453 -0.3042 -0.2396 -0.5000
17646THY    CM124739   9.108   5.248   5.516 -0.1271  0.3350  0.1474
17646THY    HM124740   9.160   5.345   5.520  0.4165  0.7976 -0.1601
17646THY    HM224741   9.161   5.164   5.471  2.2793 -0.5698  2.0362
17646THY    HM324742   9.100   5.216   5.620  0.8755  0.0875 -0.9645
17646THY    CA624743   8.962   5.308   5.322  0.3654 -0.0060 -0.5748
17646THY    HA624744   9.052   5.303   5.261  0.3841 -0.1057  0.6455
17647THY      O24745   5.681   6.476   6.187  0.0036  0.6001 -0.0907
17647THY     HO24746   5.685   6.403   6.122  0.9906  0.4575  0.0770
17647THY    CA124747   5.793   6.481   6.260  0.0962  0.1362 -0.2626
17647THY    CA224748   5.819   6.557   6.376 -0.2373  0.6246  0.3053
17647THY    CP124749   5.702   6.651   6.424  0.1332  0.3462  0.3376
17647THY    HP124750   5.617   6.635   6.356  0.1829  0.4538 -0.4349
17647THY    CP224751   5.725   6.799   6.411 -0.4603  0.6498  0.5958
17647THY    HP224752   5.764   6.816   6.310  0.3835  0.3369 -2.6248
17647THY    HP324753   5.796   6.845   6.482 -1.0139  0.3886  1.9080
17647THY    HP424754   5.639   6.865   6.428  0.5384 -1.2269  2.5099
17647THY    CP324755   5.648   6.615   6.557 -0.6571 -0.1806  0.3447
17647THY    HP524756   5.610   6.513   6.568  1.0658  0.6502 -0.2477
17647THY    HP624757   5.570   6.689   6.580  1.1530 -0.0337  2.3422
17647THY    HP724758   5.729   6.621   6.630  0.5102 -1.4736  1.1787
17647THY    CA324759   5.932   6.535   6.459 -0.6861 -0.1809 -0.0074
17647THY    HA324760   5.955   6.595   6.547 -0.6257 -0.4125  0.3146
17647THY    CA424761   6.026   6.446   6.409 -0.8501 -0.0420  0.0981
17647THY    HA424762   6.114   6.430   6.472 -1.0029  0.1877  0.1608
17647THY    CA524763   6.011   6.378   6.284 -0.0600 -0.4200 -0.7364
17647THY    CM124764   6.111   6.289   6.226 -0.2934  0.3353 -0.0196
17647THY    HM124765   6.164   6.233   6.304 -1.2452  0.7971 -0.2912
17647THY    HM224766   6.189   6.344   6.172 -2.6433 -0.7554  2.5052
17647THY    HM324767   6.054   6.216   6.166 -0.8497 -0.0014  0.6846
17647THY    CA624768   5.895   6.395   6.209  0.4329  0.4404 -0.3143
17647THY    HA624769   5.876   6.344   6.115  1.0398  1.7012 -3.0881
17648THY      O24770   5.461   8.581   2.826  0.5907  0.1371  0.2348
17648THY     HO24771   5.474   8.602   2.921 -1.7636  0.9285 -1.5106
17648THY    CA124772   5.539   8.472   2.811 -1.1572 -0.0594  0.1547
17648THY    CA224773   5.534   8.391   2.703 -0.0837  0.6420 -0.2248
17648THY    CP124774   5.435   8.420   2.584  0.3311 -0.0798 -0.3426
17648THY    HP124775   5.368   8.504   2.605 -1.4205  0.7256 -1.8692
17648THY    CP224776   5.346   8.294   2.553 -0.1709 -0.3414 -0.7197
17648THY    HP224777   5.274   8.330   2.479 -0.0259 -0.0690  0.1398
17648THY    HP324778   5.294   8.250   2.639 -1.6035 -0.2233  1.1051
17648THY    HP424779   5.412   8.214   2.520  1.8624  3.5777 -0.9059
17648THY    CP324780   5.507   8.469   2.463  0.1644 -0.1856  0.2901
17648THY    HP524781   5.583   8.398   2.429 -1.2541 -0.0514 -1.3743
17648THY    HP624782   5.525   8.577   2.467 -0.5054 -2.8791  0.5738
17648THY    HP724783   5.435   8.465   2.380 -1.4064  1.1431 -0.4250
17648THY    CA324784   5.629   8.290   2.679  0.2956 -1.0106  0.3761
17648THY    HA324785   5.632   8.229   2.589 -0.2351  0.1184 -1.3936
17648THY    CA424786   5.720   8.268   2.783 -0.8582  0.1293 -0.1832
17648THY    HA424787   5.801   8.196   2.772  0.1471  0.9903  0.7887
17648THY    CA524788   5.724   8.352   2.899  0.0791 -0.1193  0.1751
17648THY    CM124789   5.818   8.333   3.011 -0.2943 -0.0546  0.3752
17648THY    HM124790   5.900   8.403   2.991  0.8752 -0.7749 -1.1176
17648THY    HM224791   5.850   8.228   3.002 -3.2113  0.0476 -0.5945
17648THY    HM324792   5.771   8.343   3.110  0.8086  0.4433  0.8965
17648THY    CA624793   5.631   8.448   2.916 -0.1093 -0.8244 -0.2405
17648THY    HA624794   5.631   8.499   3.012  1.4081  0.2830 -2.2076
17649THY      O24795   6.789   0.416   7.532 -0.5140 -0.0907  0.3533
17649THY     HO24796   6.713   0.474   7.551 -0.5849  0.4500  0.0935
17649THY    CA124797   6.901   0.463   7.586  0.3114 -0.3941 -0.7041
17649THY    CA224798   7.021   0.483   7.514  0.1005  0.9617  0.7296
17649THY    CP124799   7.038   0.423   7.371  0.5357  0.6654  0.0613
17649THY    HP124800   6.948   0.375   7.332 -0.1932 -1.0545  2.6586
17649THY    CP224801   7.148   0.322   7.353 -0.2049 -0.4058  0.2790
17649THY    HP224802   7.163   0.271   7.449 -1.5519  0.5515  1.5967
17649THY    HP324803   7.244   0.375   7.353  0.3583  0.3950 -0.7215
17649THY    HP424804   7.147   0.265   7.259  1.5318  0.3701 -1.1111
17649THY    CP324805   7.061   0.531   7.267 -1.0947  0.0330 -0.0772
17649THY    HP524806   6.973   0.596   7.259 -1.6458  0.8411 -0.7020
17649THY    HP624807   7.082   0.484   7.170  1.9048  1.0339 -1.0257
17649THY    HP724808   7.147   0.589   7.302 -1.2459  0.5990 -0.1825
17649THY    CA324809   7.123   0.550   7.578  0.2256  0.5681 -0.2055
17649THY    HA324810   7.207   0.578   7.516 -0.3438  0.4483  1.3139
17649THY    CA424811   7.113   0.594   7.707 -0.6018 -0.7150  0.1717
17649THY    HA424812   7.189   0.655   7.754  0.0874 -0.6823 -0.6946
17649THY    CA524813   6.994   0.585   7.770  0.9445 -0.1784  0.3993
17649THY    CM124814   6.973   0.653   7.902 -0.2045  0.5888 -0.1375
17649THY    HM124815   7.049   0.609   7.968  0.7991 -1.8336 -2.3090
17649THY    HM224816   6.872   0.630   7.938 -1.2292 -2.6326 -1.2897
17649THY    HM324817   6.990   0.761   7.901  2.0587  0.8023 -0.4457
17649THY    CA624818   6.886   0.515   7.714  0.0517  0.3797  0.0490
17649THY    HA624819   6.791   0.502   7.765  0.1443  0.4278 -0.4876
17650THY      O24820   3.871   8.845   4.009 -0.5347  0.2760  0.1086
17650THY     HO24821   3.823   8.927   4.028  0.5423 -0.4874  0.9440
17650THY    CA124822   3.925   8.809   4.121 -1.0551  0.0439 -0.3964
17650THY    CA224823   4.041   8.726   4.135  0.2342 -0.6735 -0.4873
17650THY    CP124824   4.113   8.676   4.010  0.8337  0.5328 -0.8789
17650THY    HP124825   4.100   8.753   3.933  0.7826  2.7530  1.4804
17650THY    CP224826   4.050   8.548   3.953 -1.0134 -0.0316 -0.1169
17650THY    HP224827   3.950   8.567   3.910 -0.8346 -0.4873 -0.2005
17650THY    HP324828   4.051   8.469   4.029 -0.5785  0.1654  0.0785
17650THY    HP424829   4.121   8.527   3.873  1.2790  1.3136  2.0312
17650THY    CP324830   4.260   8.674   4.028 -0.2758  0.1708 -0.3959
17650THY    HP524831   4.291   8.584   4.083 -0.8120  0.5699 -0.3449
17650THY    HP624832   4.298   8.766   4.074 -2.4116 -2.0173  1.7004
17650THY    HP724833   4.305   8.669   3.928 -2.9732 -1.0755 -1.7332
17650THY    CA324834   4.075   8.686   4.268 -0.0708 -0.3037 -0.0621
17650THY    HA324835   4.165   8.627   4.285 -1.0410 -0.1937 -1.5679
17650THY    CA424836   4.011   8.739   4.382  0.1286  0.2925  0.2632
17650THY    HA424837   4.037   8.707   4.482  0.9633 -0.6407 -2.2648
17650THY    CA524838   3.907   8.831   4.366  0.3488  0.5044  0.1145
17650THY    CM124839   3.839   8.887   4.483  0.0032 -0.2185  0.7273
17650THY    HM124840   3.744   8.839   4.511 -0.4292 -2.1037  0.3921
17650THY    HM224841   3.816   8.994   4.485  0.5809  0.7723  0.8456
17650THY    HM324842   3.908   8.878   4.568 -0.4704  0.1535  0.5701
17650THY    CA624843   3.867   8.865   4.240  0.2092  0.1531  0.1527
17650THY    HA624844   3.782   8.930   4.227 -0.1871  0.6235 -0.2640
17651THY      O24845   8.309   7.183   4.602 -0.5230  0.4960  0.4806
17651THY     HO24846   8.269   7.265   4.635  0.6567  0.0714  1.2554
17651THY    CA124847   8.440   7.187   4.652  0.8242 -0.1770 -0.4071
17651THY    CA224848   8.540   7.091   4.622  0.5142 -0.1879  0.1157
17651THY    CP124849   8.496   6.974   4.528  0.2633 -0.4703 -0.0653
17651THY    HP124850   8.389   6.951   4.540 -0.2037 -2.1808  1.0486
17651THY    CP224851   8.578   6.840   4.543  0.1362  0.0051 -0.3593
17651THY    HP224852   8.545   6.757   4.479  0.5033  0.4790 -0.8814
17651THY    HP324853   8.575   6.806   4.647  1.7389  1.1327  2.5587
17651THY    HP424854   8.685   6.866   4.537  0.0252  1.3427  0.5017
17651THY    CP324855   8.514   7.026   4.386  0.1992 -0.1807 -0.3457
17651THY    HP524856   8.474   6.950   4.317  0.9186 -2.4014  1.1743
17651THY    HP624857   8.613   7.061   4.356  1.6453  1.1593 -2.9946
17651THY    HP724858   8.447   7.112   4.378 -2.1679 -1.2008 -2.1554
17651THY    CA324859   8.669   7.109   4.676  0.0338  0.3716 -0.7581
17651THY    HA324860   8.753   7.046   4.646  1.7012  1.1144  0.9927
17651THY    CA424861   8.697   7.217   4.761  0.8948 -0.0077 -0.4542
17651THY    HA424862   8.790   7.219   4.818  0.1406  1.2934 -1.2604
17651THY    CA524863   8.601   7.314   4.784 -0.2962  0.3289 -0.3432
17651THY    CM124864   8.628   7.431   4.877  0.1867 -0.2757  0.0177
17651THY    HM124865   8.711   7.405   4.944  1.3038 -1.7124 -0.2764
17651THY    HM224866   8.540   7.453   4.938  1.6576  3.4446 -3.1589
17651THY    HM324867   8.663   7.519   4.822  2.7873  2.4180  0.8232
17651THY    CA624868   8.473   7.297   4.729  0.4750  0.6631 -0.8099
17651THY    HA624869   8.401   7.374   4.753  0.5042  0.5067 -0.7332
17652THY      O24870   5.150   7.591   3.002 -0.4290 -0.1183  0.5498
17652THY     HO24871   5.164   7.542   3.085 -1.0497 -0.1335  0.3384
17652THY    CA124872   5.280   7.625   2.959  0.9346  0.3753  0.4781
17652THY    CA224873   5.302   7.691   2.835 -0.2090  0.0735  0.2832
17652THY    CP124874   5.189   7.739   2.749  0.4067 -0.0659  0.3208
17652THY    HP124875   5.093   7.718   2.798  0.6648  0.8103  1.1069
17652THY    CP224876   5.197   7.671   2.614 -0.2832 -0.1885 -0.0420
17652THY    HP224877   5.284   7.700   2.554 -1.4638 -2.0403 -0.1427
17652THY    HP324878   5.111   7.707   2.557  0.4749 -1.1972  0.2277
17652THY    HP424879   5.199   7.563   2.635  0.0837  0.2107  0.0378
17652THY    CP324880   5.196   7.893   2.743 -0.4001  0.1499 -0.9615
17652THY    HP524881   5.297   7.931   2.721 -1.1302 -2.4878 -0.3317
17652THY    HP624882   5.169   7.925   2.844 -0.9823  0.1757 -1.5195
17652THY    HP724883   5.125   7.922   2.665 -2.1208  0.6305 -3.5633
17652THY    CA324884   5.437   7.719   2.800  0.4708  0.4945  0.0643
17652THY    HA324885   5.456   7.751   2.697  0.6517  0.8945  1.2967
17652THY    CA424886   5.532   7.714   2.904 -0.1529  0.2387  0.0483
17652THY    HA424887   5.632   7.753   2.891 -0.6290  2.5758  2.2845
17652THY    CA524888   5.505   7.654   3.029 -0.3072 -0.1998 -0.1279
17652THY    CM124889   5.618   7.643   3.131 -0.4792  0.2841  0.0695
17652THY    HM124890   5.644   7.734   3.187 -1.1208  0.2282  0.2898
17652THY    HM224891   5.708   7.614   3.076  0.7357  2.0791  0.3076
17652THY    HM324892   5.600   7.566   3.207  0.3216  1.5927  1.1218
17652THY    CA624893   5.382   7.599   3.044  0.0105 -0.7876 -0.4424
17652THY    HA624894   5.367   7.564   3.146  0.6659 -0.4260  0.3053
17653THY      O24895   1.731   8.632   4.095 -0.1625  0.1581 -0.5186
17653THY     HO24896   1.755   8.539   4.107  1.7134  1.8635  0.1151
17653THY    CA124897   1.854   8.690   4.086 -0.0447 -0.3158 -0.0682
17653THY    CA224898   1.870   8.833   4.067  0.6681 -0.1053 -0.1051
17653THY    CP124899   1.752   8.924   4.066  0.4592 -0.2488 -0.3363
17653THY    HP124900   1.677   8.889   4.139  0.4058 -0.6814 -1.1376
17653THY    CP224901   1.686   8.922   3.929  0.3215  0.1661  0.6761
17653THY    HP224902   1.600   8.990   3.935  0.1003  2.0155  0.2858
17653THY    HP324903   1.644   8.824   3.905 -1.0627 -1.5305  1.5988
17653THY    HP424904   1.756   8.951   3.850  0.0632  0.0803  1.0878
17653THY    CP324905   1.777   9.069   4.097  0.2528  0.4646 -0.0047
17653THY    HP524906   1.844   9.092   4.180  0.6836 -0.3582  1.8786
17653THY    HP624907   1.686   9.126   4.117  0.7096  0.9990  0.5539
17653THY    HP724908   1.832   9.108   4.010 -1.6538 -0.5495  0.5573
17653THY    CA324909   1.998   8.885   4.074 -0.1283  0.5040  0.3875
17653THY    HA324910   2.020   8.991   4.063 -0.3593  2.2014  0.6497
17653THY    CA424911   2.111   8.797   4.091  0.1589 -0.3470 -0.4291
17653THY    HA424912   2.209   8.843   4.091 -0.0842 -0.6096  0.0964
17653THY    CA524913   2.097   8.661   4.090 -0.6439  0.3689  0.5348
17653THY    CM124914   2.217   8.571   4.090 -0.6398  0.4522  0.6149
17653THY    HM124915   2.306   8.623   4.053 -0.9336  0.0476  0.8351
17653THY    HM224916   2.207   8.478   4.034 -0.6636  1.5723 -0.0744
17653THY    HM324917   2.242   8.531   4.188  0.4699  0.6976  1.8358
17653THY    CA624918   1.969   8.615   4.104  0.6695  0.4419  0.2766
17653THY    HA624919   1.960   8.507   4.115  1.5462 -0.4342  0.0977
17654THY      O24920   0.914   3.153   2.468 -0.2874 -0.0875 -0.1509
17654THY     HO24921   0.859   3.125   2.543 -1.6282 -0.0190  2.3661
17654THY    CA124922   1.037   3.099   2.493  1.2692 -0.0962  0.0726
17654THY    CA224923   1.142   3.143   2.412 -0.0349 -0.4007 -0.1154
17654THY    CP124924   1.125   3.245   2.309  0.1080  0.2416 -0.1535
17654THY    HP124925   1.030   3.298   2.312  0.0705  0.0270 -0.2068
17654THY    CP224926   1.118   3.186   2.168  0.1667 -0.3522  0.1336
17654THY    HP224927   1.043   3.105   2.167 -0.5233  0.3522  0.7462
17654THY    HP324928   1.219   3.149   2.148  1.7965 -1.3199  4.4682
17654THY    HP424929   1.111   3.275   2.104 -2.1068  0.5660  0.7137
17654THY    CP324930   1.225   3.359   2.319  0.4398 -0.5116 -0.1632
17654THY    HP524931   1.318   3.313   2.282  0.4870  1.4735 -1.8086
17654THY    HP624932   1.234   3.411   2.415  0.8205 -1.0542  0.8106
17654THY    HP724933   1.198   3.436   2.246  1.0479  1.0405  1.5857
17654THY    CA324934   1.272   3.096   2.439  0.0626  0.2538  0.1618
17654THY    HA324935   1.358   3.108   2.375 -0.4066 -1.3943 -3.6386
17654THY    CA424936   1.279   2.993   2.537 -0.4504 -0.1821  0.2278
17654THY    HA424937   1.375   2.949   2.560  0.4419  1.5499  2.8586
17654THY    CA524938   1.164   2.935   2.600 -0.3905 -0.1265  0.2796
17654THY    CM124939   1.166   2.822   2.701  0.2589  0.4170 -0.3403
17654THY    HM124940   1.071   2.770   2.714  0.2802 -0.6275 -0.6690
17654THY    HM224941   1.178   2.859   2.803 -0.6378  0.5876 -0.4964
17654THY    HM324942   1.240   2.746   2.674 -1.0595 -0.1141 -1.4755
17654THY    CA624943   1.046   3.007   2.597 -0.0560 -0.0565 -0.0551
17654THY    HA624944   0.967   2.981   2.667 -1.2738 -0.6112  1.9237
17655THY      O24945   2.895   8.800   1.827 -0.5280  0.1552 -0.3120
17655THY     HO24946   2.860   8.718   1.787  2.0532 -2.3751 -0.3031
17655THY    CA124947   2.810   8.835   1.922  0.3306 -0.2664 -0.5275
17655THY    CA224948   2.856   8.909   2.033 -0.0850 -0.7618  0.7155
17655THY    CP124949   3.005   8.955   2.042  0.2427 -0.3050 -0.8145
17655THY    HP124950   3.063   8.905   1.964 -0.1259 -1.2877  0.2294
17655THY    CP224951   3.059   8.923   2.181 -0.0654  0.2155 -0.5890
17655THY    HP224952   3.058   8.816   2.206 -0.0334 -0.2818 -0.7054
17655THY    HP324953   3.016   8.989   2.257  0.9755  0.1192  0.2260
17655THY    HP424954   3.161   8.962   2.174 -0.0155  2.0250 -0.3156
17655THY    CP324955   3.018   9.103   2.020  0.0874 -0.4820 -0.4147
17655THY    HP524956   3.122   9.135   2.013  0.4346  1.0014 -1.1135
17655THY    HP624957   2.972   9.161   2.101  1.9121  1.7298 -1.8834
17655THY    HP724958   2.964   9.138   1.931  0.3634  0.1411  1.7220
17655THY    CA324959   2.759   8.949   2.129  0.0170  0.1617 -0.0654
17655THY    HA324960   2.792   9.012   2.212  0.9632  0.1127 -0.4785
17655THY    CA424961   2.626   8.915   2.106 -0.2173 -0.0330 -0.0273
17655THY    HA424962   2.546   8.948   2.172 -0.2171 -0.5253  1.0254
17655THY    CA524963   2.585   8.835   2.003 -0.5629 -0.1523  0.3153
17655THY    CM124964   2.437   8.795   1.989 -0.2056 -0.5803 -0.5935
17655THY    HM124965   2.373   8.845   2.063  2.7437  2.0755 -0.4125
17655THY    HM224966   2.423   8.693   2.027 -0.9906  0.0843 -0.2465
17655THY    HM324967   2.394   8.799   1.888  0.6834 -1.1079 -2.6896
17655THY    CA624968   2.678   8.791   1.914  0.5465  0.5902 -0.6557
17655THY    HA624969   2.654   8.729   1.828  0.7165 -1.1829  1.6355
17656THY      O24970   8.959   0.736   7.189 -0.1012 -0.3697 -0.7212
17656THY     HO24971   8.932   0.696   7.104  1.1836 -2.4901  2.5269
17656THY    CA124972   9.093   0.704   7.199  0.7990 -0.2412  0.3728
17656THY    CA224973   9.172   0.740   7.307 -0.1330 -0.7697 -0.0972
17656THY    CP124974   9.113   0.826   7.418  0.5248  0.3998 -0.2590
17656THY    HP124975   9.030   0.874   7.364  2.4930 -0.3959  2.4691
17656THY    CP224976   9.202   0.941   7.472  0.2831  0.0229 -0.3415
17656THY    HP224977   9.154   1.002   7.550  0.2517  0.1792 -0.5659
17656THY    HP324978   9.231   1.007   7.389 -1.9214 -1.4422 -1.0832
17656THY    HP424979   9.289   0.890   7.513  0.2483  0.6675  0.1060
17656THY    CP324980   9.059   0.750   7.542  0.3984 -0.3921  0.1082
17656THY    HP524981   9.048   0.826   7.621 -1.0457 -0.0522 -0.4232
17656THY    HP624982   9.139   0.680   7.569  1.6995  0.2771  1.7788
17656THY    HP724983   8.959   0.710   7.522  0.6976 -0.1776 -0.7522
17656THY    CA324984   9.306   0.694   7.323  0.2255  0.3630 -0.0145
17656THY    HA324985   9.360   0.716   7.414  1.3679 -0.8717  2.8097
17656THY    CA424986   9.367   0.624   7.220 -0.1746 -0.0293  0.0153
17656THY    HA424987   9.469   0.588   7.223 -0.1192  0.5343  0.2075
17656THY    CA524988   9.287   0.592   7.103 -0.5084 -0.2826 -0.4977
17656THY    CM124989   9.343   0.513   6.993 -0.0890  0.2197  0.0160
17656THY    HM124990   9.302   0.412   6.993  0.1412 -0.6723 -0.0830
17656THY    HM224991   9.450   0.495   7.008 -0.1803  0.3657 -0.4184
17656THY    HM324992   9.335   0.557   6.893 -0.2731 -0.1707 -0.8965
17656THY    CA624993   9.147   0.617   7.104 -0.5581 -0.2483  0.4300
17656THY    HA624994   9.088   0.582   7.020  0.5396 -0.5911 -0.6722
17657THY      O24995   9.103   4.602   4.434  0.2108  0.0982  0.6593
17657THY     HO24996   9.173   4.670   4.437  1.4995 -0.2773 -0.6081
17657THY    CA124997   9.135   4.514   4.522 -0.6719  0.2829  0.1623
17657THY    CA224998   9.069   4.389   4.536 -0.2658  0.6857 -0.6944
17657THY    CP124999   8.956   4.343   4.439  0.2863  0.2660 -0.0215
17657THY    HP125000   8.921   4.420   4.370 -1.8616  0.5186 -0.7083
17657THY    CP225001   8.836   4.300   4.536  0.2669  1.3781  0.0475
17657THY    HP225002   8.756   4.261   4.472  0.2419  1.8609 -0.7012
17657THY    HP325003   8.793   4.385   4.591 -1.9369 -1.3238  0.8517
17657THY    HP425004   8.864   4.217   4.601  0.6610 -0.5834 -1.4370
17657THY    CP325005   9.011   4.232   4.344  0.9386 -0.1168  0.2221
17657THY    HP525006   9.021   4.132   4.386 -0.4123 -1.0450 -0.3312
17657THY    HP625007   9.114   4.260   4.321  1.6655 -0.5574 -2.5212
17657THY    HP725008   8.945   4.229   4.256  0.2284  0.2753  2.2747
17657THY    CA325009   9.133   4.287   4.617 -0.7222  0.1069 -0.6037
17657THY    HA325010   9.094   4.186   4.618 -1.7345  1.4641 -0.2226
17657THY    CA425011   9.253   4.322   4.694  1.1721 -0.5747  0.3266
17657THY    HA425012   9.302   4.257   4.766 -0.2960 -0.8116 -1.1190
17657THY    CA525013   9.305   4.446   4.676  0.5135  0.0716 -0.6139
17657THY    CM125014   9.425   4.488   4.755 -0.6858  0.8456  0.3309
17657THY    HM125015   9.426   4.433   4.849  2.3312  1.4006  1.1632
17657THY    HM225016   9.432   4.597   4.770 -2.0178  1.9619  0.2947
17657THY    HM325017   9.514   4.456   4.700 -0.1917  0.9623  1.4392
17657THY    CA625018   9.244   4.544   4.604 -0.0377 -0.1630 -0.9403
17657THY    HA625019   9.302   4.636   4.603  1.0899  1.3477 -1.5900
17658THY      O25020   0.348   0.732   6.092 -0.1843  0.5219 -0.2978
17658THY     HO25021   0.355   0.788   6.012  3.1296  0.9790  0.1510
17658THY    CA125022   0.434   0.785   6.193 -0.8501  0.2241  0.7044
17658THY    CA225023   0.421   0.748   6.330 -0.2783  0.0909 -0.2577
17658THY    CP125024   0.307   0.655   6.364 -0.2724 -0.3162 -0.4207
17658THY    HP125025   0.235   0.663   6.282  0.2482 -0.7017  0.5065
17658THY    CP225026   0.227   0.691   6.498  0.4442 -0.1360  0.1447
17658THY    HP225027   0.299   0.701   6.579  1.2596 -0.6356 -1.3275
17658THY    HP325028   0.152   0.614   6.521 -1.5763 -0.2987  1.9562
17658THY    HP425029   0.158   0.776   6.492 -2.6183 -0.9121 -2.1825
17658THY    CP325030   0.355   0.510   6.367 -0.4196  0.0855 -0.3586
17658THY    HP525031   0.443   0.484   6.428 -0.0766 -0.7046 -1.1041
17658THY    HP625032   0.382   0.476   6.266  0.0463  0.6453 -1.7438
17658THY    HP725033   0.272   0.446   6.401 -0.1135 -0.2284 -0.9318
17658THY    CA325034   0.513   0.810   6.423 -0.4859 -0.6786  0.9485
17658THY    HA325035   0.503   0.787   6.529 -0.8156 -1.0267 -0.6212
17658THY    CA425036   0.608   0.902   6.372 -0.7192  0.4460  0.0454
17658THY    HA425037   0.668   0.961   6.441 -1.0324 -0.3566  1.3665
17658THY    CA525038   0.640   0.925   6.236 -0.1282 -0.1814 -0.5739
17658THY    CM125039   0.732   1.037   6.185  0.5142 -0.4585  0.1250
17658THY    HM125040   0.822   0.997   6.137  1.5707 -1.1084  2.9990
17658THY    HM225041   0.749   1.105   6.269  0.4108 -0.2125 -0.1498
17658THY    HM325042   0.685   1.087   6.099 -0.6317  0.3990  0.5744
17658THY    CA625043   0.540   0.872   6.149 -0.1366 -0.4257 -0.1213
17658THY    HA625044   0.539   0.901   6.044  0.4732 -0.0473  1.3639
17659THY      O25045   3.619   8.954   5.856  0.2885  0.6807 -0.0348
17659THY     HO25046   3.694   8.983   5.802 -0.8298  0.4282  2.6067
17659THY    CA125047   3.533   9.055   5.870  0.3454 -0.1024  0.9324
17659THY    CA225048   3.392   9.026   5.887 -0.2466 -0.2644 -0.8152
17659THY    CP125049   3.337   8.883   5.876  0.4696 -0.1815 -0.3782
17659THY    HP125050   3.409   8.804   5.850 -1.6429  2.7321 -3.5479
17659THY    CP225051   3.244   8.868   5.760 -0.3779 -0.4125  0.1524
17659THY    HP225052   3.293   8.917   5.675 -1.6893  0.6117  3.5273
17659THY    HP325053   3.150   8.918   5.787 -1.1635 -0.8131 -1.0760
17659THY    HP425054   3.227   8.762   5.740  0.0360 -1.0806  0.2067
17659THY    CP325055   3.269   8.834   6.014 -0.4113  0.3920  0.0550
17659THY    HP525056   3.185   8.766   5.994 -0.0478 -2.8153  0.3864
17659THY    HP625057   3.252   8.925   6.072  0.8446  0.5120  0.2217
17659THY    HP725058   3.339   8.777   6.075 -0.0061  0.9154  1.0986
17659THY    CA325059   3.302   9.131   5.892 -0.0531  0.1224  0.0799
17659THY    HA325060   3.196   9.106   5.895 -0.0368 -0.9843 -0.1598
17659THY    CA425061   3.347   9.260   5.885  0.2256  0.5801  0.1662
17659THY    HA425062   3.277   9.342   5.891  1.1556  1.4612  0.9196
17659THY    CA525063   3.485   9.292   5.873 -1.3021 -0.1857  0.6959
17659THY    CM125064   3.535   9.432   5.871 -0.4094 -0.0075 -0.1548
17659THY    HM125065   3.462   9.495   5.819 -0.9425  0.7279 -0.1522
17659THY    HM225066   3.624   9.435   5.806  0.7899  1.5842  1.2828
17659THY    HM325067   3.565   9.479   5.966  1.2102  0.3190 -1.6995
17659THY    CA625068   3.578   9.188   5.878  0.2075 -0.2977  0.2059
17659THY    HA625069   3.685   9.208   5.872  0.4952  0.1911 -1.1386
17660THY      O25070   0.481   7.972   7.059 -0.1616  0.4795 -0.1842
17660THY     HO25071   0.521   7.978   6.971 -1.1639  0.0852  1.1780
17660THY    CA125072   0.437   8.099   7.084 -0.2449 -0.8112 -0.4683
17660THY    CA225073   0.419   8.160   7.214 -0.3333 -0.2483  0.1487
17660THY    CP125074   0.461   8.086   7.340 -0.5464  0.2635 -0.1186
17660THY    HP125075   0.477   7.980   7.316 -1.0069 -0.4185 -0.0413
17660THY    CP225076   0.349   8.091   7.453 -0.0722 -0.3833 -0.6758
17660THY    HP225077   0.362   8.016   7.532  2.2958 -0.1068 -0.0467
17660THY    HP325078   0.247   8.093   7.412  0.0148 -0.6380  2.5328
17660THY    HP425079   0.361   8.191   7.494  0.3500 -1.1610 -0.4000
17660THY    CP325080   0.597   8.136   7.396  0.0724  0.2161  0.3610
17660THY    HP525081   0.686   8.109   7.339  0.2357  1.0842 -1.0155
17660THY    HP625082   0.610   8.076   7.487 -0.1849  1.0165  1.4710
17660THY    HP725083   0.597   8.243   7.423 -1.2233  1.8342 -0.0076
17660THY    CA325084   0.362   8.291   7.229 -0.0655 -0.1754  0.5197
17660THY    HA325085   0.340   8.325   7.329 -1.4321  0.3092 -1.5680
17660THY    CA425086   0.307   8.349   7.113  0.3960  0.2569  0.1459
17660THY    HA425087   0.262   8.447   7.124  2.4230  1.7077  0.9947
17660THY    CA525088   0.321   8.283   6.995  0.1237  0.4359 -0.1758
17660THY    CM125089   0.249   8.327   6.867 -0.8331 -0.4112  0.3050
17660THY    HM125090   0.320   8.332   6.785 -0.0011  0.2066 -0.8361
17660THY    HM225091   0.194   8.420   6.885 -1.2754  0.4497 -0.1040
17660THY    HM325092   0.169   8.256   6.843  0.9049 -2.9352 -0.9357
17660THY    CA625093   0.387   8.161   6.976  0.1190 -0.0393  0.2442
17660THY    HA625094   0.380   8.113   6.878 -1.9373 -0.3905  1.1686
17661THY      O25095   2.527   7.030   7.058  0.4763 -0.3422 -0.1536
17661THY     HO25096   2.446   7.031   7.111  1.1868  0.8114 -1.2122
17661THY    CA125097   2.603   6.924   7.102 -0.0838  0.0122  0.2659
17661THY    CA225098   2.741   6.912   7.088 -0.2044  0.7234 -1.0236
17661THY    CP125099   2.813   7.024   7.003 -0.3061  0.1676 -0.5547
17661THY    HP125100   2.737   7.096   6.972  0.0973  1.0437  0.2700
17661THY    CP225101   2.881   6.970   6.878  0.1288  0.0497  0.7665
17661THY    HP225102   2.806   6.924   6.813 -0.3765  0.9163  0.3353
17661THY    HP325103   2.954   6.891   6.897 -1.5794  2.5681 -0.3694
17661THY    HP425104   2.917   7.058   6.824 -0.0870 -0.2663  0.6585
17661THY    CP325105   2.926   7.091   7.096 -0.2419  0.4106  0.0225
17661THY    HP525106   2.888   7.095   7.199 -0.2256  0.4522 -0.7619
17661THY    HP625107   2.963   7.188   7.060  1.0779  0.4964 -0.4265
17661THY    HP725108   3.011   7.022   7.092 -1.8573 -2.0088 -2.0146
17661THY    CA325109   2.814   6.816   7.153  0.2272  1.2537  0.6159
17661THY    HA325110   2.922   6.820   7.159  0.5298 -0.1673 -2.3327
17661THY    CA425111   2.750   6.720   7.237  0.5354  0.3795  0.1008
17661THY    HA425112   2.803   6.647   7.297  0.5373 -0.4935 -0.6383
17661THY    CA525113   2.603   6.717   7.251 -0.2290 -0.2549 -0.1990
17661THY    CM125114   2.535   6.614   7.334 -0.2932 -0.2238 -0.1448
17661THY    HM125115   2.547   6.644   7.438 -2.5262  0.1866 -0.4936
17661THY    HM225116   2.583   6.516   7.342 -1.3124 -3.3328 -1.0372
17661THY    HM325117   2.428   6.593   7.317 -0.1680  0.8714 -1.8021
17661THY    CA625118   2.537   6.817   7.173 -0.5778 -0.1947 -0.3155
17661THY    HA625119   2.431   6.825   7.197  0.0107  1.9573  2.5366
17662THY      O25120   6.045   6.613   3.468  0.1405  0.1676 -0.3392
17662THY     HO25121   6.011   6.530   3.430  3.2854 -2.8702 -0.4489
17662THY    CA125122   6.071   6.603   3.600  0.0217 -0.0001  0.3728
17662THY    CA225123   6.082   6.719   3.682 -0.2624  0.0754 -0.0783
17662THY    CP125124   6.087   6.862   3.622  0.0077 -0.7313  0.8772
17662THY    HP125125   6.093   6.846   3.514 -1.5754 -0.9783  1.6921
17662THY    CP225126   6.204   6.953   3.669  0.3631  0.7449  0.0664
17662THY    HP225127   6.189   7.008   3.763  2.7959  0.1675  1.8910
17662THY    HP325128   6.221   7.031   3.595 -0.4344  2.0848  1.5773
17662THY    HP425129   6.295   6.894   3.682  1.1758  0.7550  1.2833
17662THY    CP325130   5.950   6.917   3.651 -0.8102  0.7317 -0.1101
17662THY    HP525131   5.928   6.905   3.757 -2.1788  0.9104  3.0621
17662THY    HP625132   5.875   6.863   3.590 -1.1671  0.2047  0.9467
17662THY    HP725133   5.948   7.023   3.622 -0.9889  0.2478 -0.2403
17662THY    CA325134   6.087   6.708   3.820 -0.1209  0.0480 -0.4411
17662THY    HA325135   6.119   6.786   3.888  0.3723  0.9673 -1.4353
17662THY    CA425136   6.079   6.585   3.877  0.1671 -0.1392 -0.1029
17662THY    HA425137   6.106   6.574   3.982 -0.0811 -0.0553  0.0656
17662THY    CA525138   6.060   6.469   3.798 -0.9118 -0.4682  0.2833
17662THY    CM125139   6.050   6.333   3.863 -0.5032  0.5702  0.2600
17662THY    HM125140   5.953   6.282   3.850  0.1772  0.4309 -1.0500
17662THY    HM225141   6.069   6.355   3.968  2.1047 -0.0434  1.2912
17662THY    HM325142   6.137   6.268   3.845  0.4961  2.1116  1.1121
17662THY    CA625143   6.053   6.478   3.665  0.2488  0.2129 -0.0060
17662THY    HA625144   6.030   6.385   3.613 -1.8425 -0.6467  0.9225
17663THY      O25145   3.371   3.944   5.101 -0.0997  0.1262  0.6205
17663THY     HO25146   3.342   3.868   5.155  1.2991 -0.9346 -0.7468
17663THY    CA125147   3.266   4.001   5.053 -0.7178  0.1393  0.0429
17663THY    CA225148   3.271   4.136   5.001  0.0099 -0.7786 -0.1088
17663THY    CP125149   3.406   4.212   4.997 -0.1659  0.2565 -0.4615
17663THY    HP125150   3.491   4.144   4.980 -0.2263 -0.7649 -0.2895
17663THY    CP225151   3.439   4.265   5.136 -0.6564  0.2860 -0.2319
17663THY    HP225152   3.539   4.307   5.149 -1.3314  0.4083  1.4016
17663THY    HP325153   3.427   4.190   5.215 -1.0131 -1.1323 -1.7232
17663THY    HP425154   3.366   4.344   5.158 -0.1467  1.0526  0.0349
17663THY    CP325155   3.412   4.320   4.889 -0.4019  0.6582 -0.2912
17663THY    HP525156   3.341   4.397   4.920 -1.6548 -2.3257 -0.0982
17663THY    HP625157   3.379   4.296   4.787  1.1523 -0.2430  1.1514
17663THY    HP725158   3.515   4.356   4.893 -0.2572 -4.8644  0.7917
17663THY    CA325159   3.155   4.191   4.958 -0.3260  0.2319 -0.5033
17663THY    HA325160   3.144   4.294   4.926 -0.2679  2.1303  0.1150
17663THY    CA425161   3.031   4.118   4.954  0.1228 -0.0815 -0.1981
17663THY    HA425162   2.940   4.163   4.917  0.2011  0.0959  0.1127
17663THY    CA525163   3.029   3.983   4.992 -0.4698 -0.6826 -0.0683
17663THY    CM125164   2.897   3.902   5.006 -0.1459 -0.0246  0.2356
17663THY    HM125165   2.865   3.893   5.110  1.8070  0.5980  0.1117
17663THY    HM225166   2.922   3.803   4.966 -0.5785  1.2288 -0.3949
17663THY    HM325167   2.817   3.954   4.953 -0.0891  1.0952  1.5078
17663THY    CA625168   3.152   3.925   5.036  0.0487 -0.3711  0.0691
17663THY    HA625169   3.147   3.821   5.070  1.1697 -0.6545 -0.0858
17664THY      O25170   8.804   9.387   6.010 -0.2748 -0.2245  0.3818
17664THY     HO25171   8.748   9.371   6.088 -1.1281 -0.7859  0.6220
17664THY    CA125172   8.819   9.270   5.949  0.3242 -0.5060 -0.1694
17664THY    CA225173   8.842   9.264   5.813 -0.5877  0.4131 -0.1943
17664THY    CP125174   8.873   9.388   5.715 -0.0642 -0.2265 -0.5313
17664THY    HP125175   8.863   9.478   5.776 -2.1304 -1.8689  0.4171
17664THY    CP225176   8.761   9.397   5.610  0.4550  0.1813  0.2149
17664THY    HP225177   8.757   9.499   5.571 -1.0766  1.1276  0.5472
17664THY    HP325178   8.666   9.378   5.660 -0.3814 -1.3630  0.2338
17664THY    HP425179   8.774   9.320   5.533 -0.5480 -0.7588  0.9498
17664THY    CP325180   9.016   9.384   5.654 -0.2514  0.4820 -0.1492
17664THY    HP525181   9.092   9.407   5.729 -0.6995  0.3688  1.8467
17664THY    HP625182   9.024   9.475   5.593 -2.9777  1.1024  0.5829
17664THY    HP725183   9.049   9.295   5.599 -1.1744 -1.6258  0.7501
17664THY    CA325184   8.837   9.133   5.745  0.0037 -0.6259 -0.5026
17664THY    HA325185   8.847   9.118   5.638 -1.0543 -0.8095  0.0403
17664THY    CA425186   8.824   9.015   5.828  0.1692  0.0695  0.4599
17664THY    HA425187   8.815   8.913   5.793 -0.2464  0.3855  0.3822
17664THY    CA525188   8.811   9.028   5.971  0.7208  0.0219  0.3050
17664THY    CM125189   8.802   8.906   6.059 -0.4427  0.1805  0.5717
17664THY    HM125190   8.727   8.915   6.138 -1.4884 -0.6200 -0.7689
17664THY    HM225191   8.895   8.893   6.116 -0.6576  0.5700  0.7335
17664THY    HM325192   8.774   8.816   6.004 -0.4014  0.2315  0.5282
17664THY    CA625193   8.811   9.160   6.029 -0.6028 -0.1720 -0.3755
17664THY    HA625194   8.809   9.168   6.137 -1.2329 -0.1208 -1.0838
17665THY      O25195   6.166   5.515   6.771  0.2759 -0.1459  0.6906
17665THY     HO25196   6.187   5.563   6.689  3.1113  0.3112  0.4161
17665THY    CA125197   6.033   5.487   6.771 -0.0557  0.5895 -0.0419
17665THY    CA225198   5.970   5.381   6.839 -0.3116  0.5115  0.0169
17665THY    CP125199   6.060   5.290   6.919  0.3842  0.2262 -0.0399
17665THY    HP125200   6.163   5.325   6.932  0.6403 -0.3191 -0.5740
17665THY    CP225201   6.066   5.152   6.855 -0.6553 -0.7056  0.4306
17665THY    HP225202   5.966   5.107   6.851 -0.7903 -0.4787  0.7091
17665THY    HP325203   6.132   5.088   6.914 -1.2419  0.9025  1.2414
17665THY    HP425204   6.095   5.160   6.750 -0.6746 -0.7838 -0.4798
17665THY    CP325205   6.009   5.261   7.063 -0.6534 -0.6208  0.3123
17665THY    HP525206   5.926   5.190   7.073 -0.7373 -1.5386  0.2702
17665THY    HP625207   5.975   5.354   7.110  1.4040  2.5197 -0.3602
17665THY    HP725208   6.091   5.216   7.121  0.3014  0.3280  3.0893
17665THY    CA325209   5.827   5.371   6.847  0.0830  0.6994  0.2890
17665THY    HA325210   5.778   5.289   6.899 -0.8974 -0.0884  0.3520
17665THY    CA425211   5.753   5.480   6.800  0.8737 -0.0738  0.3687
17665THY    HA425212   5.645   5.480   6.810  0.5657 -2.2437  2.9116
17665THY    CA525213   5.817   5.582   6.730 -0.1045  0.1249 -0.0654
17665THY    CM125214   5.746   5.695   6.662  0.3848 -0.0182 -0.5012
17665THY    HM125215   5.643   5.673   6.631  0.9131 -3.2684  1.0288
17665THY    HM225216   5.807   5.743   6.585  2.0983  2.9813  2.5920
17665THY    HM325217   5.729   5.766   6.744 -0.7692 -1.1921  0.6264
17665THY    CA625218   5.954   5.583   6.712 -0.4767 -0.0631 -0.4075
17665THY    HA625219   6.002   5.670   6.668  1.6853 -2.2024 -2.5318
17666THY      O25220   5.305   1.666   5.657 -0.0298  0.0172 -0.5123
17666THY     HO25221   5.212   1.678   5.685 -0.0778 -0.3585  0.0282
17666THY    CA125222   5.296   1.569   5.563  0.1230  0.5586 -0.9401
17666THY    CA225223   5.403   1.522   5.489 -0.3471 -0.3846  0.4450
17666THY    CP125224   5.545   1.563   5.522 -0.3114  0.6481  0.0575
17666THY    HP125225   5.547   1.642   5.599  1.7161  0.4461  0.2637
17666THY    CP225226   5.619   1.627   5.405 -0.5763  0.5796  0.1988
17666THY    HP225227   5.714   1.668   5.442  1.6188 -0.7408 -3.2557
17666THY    HP325228   5.567   1.705   5.348 -0.5714  0.6970  0.2892
17666THY    HP425229   5.665   1.549   5.343  1.7808  2.8877 -0.4159
17666THY    CP325230   5.627   1.450   5.589 -0.8322 -0.3883  0.3106
17666THY    HP525231   5.697   1.399   5.522 -0.6250 -0.1463  0.2769
17666THY    HP625232   5.569   1.377   5.645  2.1440  0.4500 -1.5604
17666THY    HP725233   5.704   1.494   5.653 -0.5626 -0.8825  0.5708
17666THY    CA325234   5.391   1.425   5.384 -0.6350 -0.1575 -0.1226
17666THY    HA325235   5.477   1.400   5.322 -0.8419 -0.3337 -0.3881
17666THY    CA425236   5.260   1.384   5.354 -0.1066  0.5948  0.1782
17666THY    HA425237   5.238   1.305   5.283  0.8785 -0.7154  1.0343
17666THY    CA525238   5.152   1.423   5.434 -0.3270 -0.6924 -0.0491
17666THY    CM125239   5.009   1.362   5.421  0.0052 -0.5853 -0.0630
17666THY    HM125240   4.935   1.440   5.444  1.7424  0.6333  1.3336
17666THY    HM225241   5.010   1.271   5.481 -0.2775  0.4463  0.5953
17666THY    HM325242   4.987   1.342   5.316 -1.5939 -0.4516  0.7832
17666THY    CA625243   5.167   1.524   5.529  0.5217 -0.4928 -0.7876
17666THY    HA625244   5.080   1.551   5.589  1.9622  0.3058  2.5634
17667THY      O25245   1.070   2.361   5.039 -0.2986 -0.0920 -0.1712
17667THY     HO25246   1.025   2.275   5.037 -0.2069 -3.0136 -0.2557
17667THY    CA125247   0.973   2.446   5.000 -0.4244  0.2885 -0.4190
17667THY    CA225248   0.999   2.567   4.938  0.1132 -0.4692 -1.2586
17667THY    CP125249   1.143   2.620   4.923  0.0989 -0.0634  0.4668
17667THY    HP125250   1.216   2.544   4.954 -1.4172  1.5269 -0.4233
17667THY    CP225251   1.165   2.760   4.984 -0.0106 -0.5160  0.4102
17667THY    HP225252   1.121   2.839   4.922  1.2164 -2.2128 -0.1805
17667THY    HP325253   1.271   2.778   5.007 -0.5853  1.9341  1.0415
17667THY    HP425254   1.120   2.752   5.084  1.3242  0.1742  1.1750
17667THY    CP325255   1.172   2.645   4.776 -0.2210  0.7473 -0.1335
17667THY    HP525256   1.272   2.689   4.765 -0.6564 -1.5761  0.4528
17667THY    HP625257   1.090   2.704   4.732 -2.9954  2.3418 -2.5462
17667THY    HP725258   1.168   2.555   4.714 -1.9293 -1.1562  1.1442
17667THY    CA325259   0.894   2.648   4.905 -0.0013  0.0388 -0.7137
17667THY    HA325260   0.905   2.744   4.855 -3.6686 -1.2872 -0.8459
17667THY    CA425261   0.761   2.615   4.948 -0.1306  0.0986 -0.1287
17667THY    HA425262   0.686   2.689   4.923 -0.3611 -0.7374 -0.6361
17667THY    CA525263   0.731   2.494   5.018 -0.1334  0.4288 -0.4238
17667THY    CM125264   0.592   2.450   5.065 -0.5700 -0.1465  0.5378
17667THY    HM125265   0.565   2.492   5.163 -0.1728 -1.1573  3.3260
17667THY    HM225266   0.598   2.341   5.073  0.5434  2.9778  0.7207
17667THY    HM325267   0.520   2.490   4.993 -0.6140  0.9334  2.5436
17667THY    CA625268   0.844   2.410   5.035  0.1769  0.8375  0.0164
17667THY    HA625269   0.826   2.318   5.089 -0.4259 -1.4653 -1.2976
17668THY      O25270   6.290   0.591   4.668 -0.2347 -0.0702 -0.2368
17668THY     HO25271   6.237   0.517   4.634  0.0070 -0.1306 -0.3833
17668THY    CA125272   6.234   0.707   4.626 -0.0926 -0.7179 -0.0904
17668THY    CA225273   6.301   0.826   4.633 -0.8285 -0.3067  0.3511
17668THY    CP125274   6.433   0.838   4.701  0.1721 -0.6020  0.5269
17668THY    HP125275   6.464   0.743   4.746 -0.7627  0.8732  0.8882
17668THY    CP225276   6.434   0.953   4.805  0.0735 -0.0149 -0.0188
17668THY    HP225277   6.377   0.924   4.895  1.5792  1.1451  0.4781
17668THY    HP325278   6.399   1.055   4.782  1.7782  1.3815  0.9463
17668THY    HP425279   6.537   0.967   4.840 -0.6238  2.1073  0.3334
17668THY    CP325280   6.537   0.871   4.598  0.4998 -0.5349 -0.2573
17668THY    HP525281   6.632   0.898   4.644 -0.6339  0.8828  1.5486
17668THY    HP625282   6.504   0.958   4.539 -3.0750  1.2910 -0.1833
17668THY    HP725283   6.544   0.790   4.524 -2.1426 -1.1613 -0.0020
17668THY    CA325284   6.233   0.940   4.597  0.4433  0.2732  0.9383
17668THY    HA325285   6.284   1.036   4.591  1.1396  0.0801  0.5569
17668THY    CA425286   6.099   0.936   4.557  0.4679  0.1474 -0.7258
17668THY    HA425287   6.040   1.025   4.540 -0.4419 -2.3301 -1.7060
17668THY    CA525288   6.029   0.816   4.556 -0.2496 -0.2667  0.2831
17668THY    CM125289   5.882   0.810   4.517  0.0724  0.0751  0.3725
17668THY    HM125290   5.877   0.858   4.418  2.1013 -0.2923 -0.0929
17668THY    HM225291   5.820   0.864   4.589  1.0522 -0.7779  2.7616
17668THY    HM325292   5.847   0.706   4.515 -0.0777  1.7061  0.3746
17668THY    CA625293   6.105   0.701   4.583 -0.0587 -0.2716  0.3413
17668THY    HA625294   6.061   0.603   4.572  1.1574  1.0454 -0.3897
17669THY      O25295   2.875   6.425   5.512  0.1275 -0.5499  0.2080
17669THY     HO25296   2.943   6.429   5.443  0.7273  0.0549  0.7474
17669THY    CA125297   2.783   6.516   5.498 -0.6556 -0.0067 -0.2584
17669THY    CA225298   2.679   6.530   5.585 -0.3080  0.2560  0.4604
17669THY    CP125299   2.661   6.429   5.693 -0.3012  0.0023 -0.0318
17669THY    HP125300   2.760   6.417   5.739  0.5685 -1.6792  0.4568
17669THY    CP225301   2.617   6.293   5.635  0.0942 -0.1615  0.0236
17669THY    HP225302   2.632   6.207   5.702 -0.7904  0.5693  0.4288
17669THY    HP325303   2.668   6.270   5.541 -1.1469 -0.7589 -0.3560
17669THY    HP425304   2.511   6.285   5.610 -0.3503  1.5815 -0.0907
17669THY    CP325305   2.564   6.465   5.806  0.3821 -0.0741 -0.4057
17669THY    HP525306   2.602   6.548   5.866  3.7295 -0.2285 -1.6576
17669THY    HP625307   2.545   6.381   5.875 -6.3225 -1.5745 -0.6422
17669THY    HP725308   2.459   6.479   5.778 -0.5078  2.1508 -1.9325
17669THY    CA325309   2.586   6.639   5.565  0.0055 -0.0089 -0.0727
17669THY    HA325310   2.495   6.643   5.623  0.6822  1.0422  0.9994
17669THY    CA425311   2.610   6.732   5.464  0.2097  1.1060  0.1799
17669THY    HA425312   2.532   6.807   5.450 -0.0573  1.5593 -0.0040
17669THY    CA525313   2.716   6.725   5.383 -0.4792 -0.1157 -0.3150
17669THY    CM125314   2.740   6.829   5.279 -0.3792  0.3592 -0.2365
17669THY    HM125315   2.649   6.856   5.225 -1.4137  1.0992 -2.0813
17669THY    HM225316   2.805   6.784   5.203  1.9972  1.4262  1.1912
17669THY    HM325317   2.801   6.913   5.315  1.0235 -2.3577  0.0138
17669THY    CA625318   2.810   6.617   5.403  0.6719 -0.0342 -0.2374
17669THY    HA625319   2.898   6.611   5.341 -0.1153 -1.0640 -1.7931
17670THY      O25320   2.494   4.440   3.037  0.2521  0.0749  0.4111
17670THY     HO25321   2.467   4.485   3.119  0.8018  0.9627 -0.8516
17670THY    CA125322   2.573   4.536   2.983 -0.3960  0.2412 -0.2749
17670THY    CA225323   2.603   4.552   2.846 -0.5707 -0.4997  0.1464
17670THY    CP125324   2.537   4.458   2.741 -0.6001  0.4718  0.6530
17670THY    HP125325   2.448   4.406   2.778 -0.4141  0.1259  0.0835
17670THY    CP225326   2.646   4.348   2.701  0.3114  0.1959 -0.4609
17670THY    HP225327   2.732   4.401   2.660 -0.1552  1.2439  1.1982
17670THY    HP325328   2.613   4.277   2.624  0.3540 -1.0084  0.7822
17670THY    HP425329   2.668   4.292   2.793  0.5554  1.4153  1.5385
17670THY    CP325330   2.501   4.541   2.614 -0.6829  1.2990  1.0979
17670THY    HP525331   2.434   4.620   2.650 -1.2571  0.7183  0.8814
17670THY    HP625332   2.442   4.489   2.538 -1.0969  3.0951 -1.1717
17670THY    HP725333   2.590   4.588   2.570  0.3791  2.8633  0.6402
17670THY    CA325334   2.713   4.628   2.809  0.3161  0.2717 -0.6973
17670THY    HA325335   2.747   4.620   2.706  0.1952  0.3027 -1.7060
17670THY    CA425336   2.772   4.720   2.903 -0.8526  0.5394  0.2020
17670THY    HA425337   2.851   4.786   2.867  0.6520  0.4884 -1.5316
17670THY    CA525338   2.726   4.725   3.034  0.7502  0.2620 -0.2069
17670THY    CM125339   2.779   4.819   3.135  0.2939 -0.1135 -0.3744
17670THY    HM125340   2.817   4.778   3.229 -0.6562 -0.6753 -2.6891
17670THY    HM225341   2.710   4.900   3.160  1.7396 -0.0143  0.8797
17670THY    HM325342   2.856   4.885   3.092 -0.8313  2.5315  2.9300
17670THY    CA625343   2.624   4.628   3.074 -0.1312  0.2120 -1.2108
17670THY    HA625344   2.610   4.624   3.181  0.6547  0.3543 -0.4238
17671THY      O25345   1.499   9.426   4.760 -0.4131 -0.5692  0.0505
17671THY     HO25346   1.486   9.515   4.797 -0.5221 -2.6760  0.9627
17671THY    CA125347   1.596   9.360   4.833  0.1340  0.6115 -0.1994
17671THY    CA225348   1.576   9.236   4.886  0.1111  0.3947  0.4320
17671THY    CP125349   1.439   9.165   4.872  0.2319 -0.5283 -0.2949
17671THY    HP125350   1.372   9.208   4.797  0.4904 -1.0109 -0.7245
17671THY    CP225351   1.360   9.180   5.004  0.1824  0.4022  0.4847
17671THY    HP225352   1.278   9.107   5.010 -0.8272 -0.1700  1.5186
17671THY    HP325353   1.317   9.281   4.994  0.1596 -1.7710  0.3055
17671THY    HP425354   1.429   9.172   5.088 -0.8764  1.1448 -1.4533
17671THY    CP325355   1.454   9.017   4.837 -0.3823  0.5325  0.0160
17671THY    HP525356   1.521   8.964   4.906  0.4877  0.7521  1.3599
17671THY    HP625357   1.492   8.999   4.736 -0.5390  0.1247  1.7683
17671THY    HP725358   1.352   8.979   4.851 -0.7212  1.0294  1.0697
17671THY    CA325359   1.681   9.174   4.969  0.6115  0.3386  0.6819
17671THY    HA325360   1.655   9.078   5.012  1.2520 -1.9695 -0.6119
17671THY    CA425361   1.798   9.239   4.987  0.7260 -1.2429 -0.0184
17671THY    HA425362   1.877   9.202   5.052  0.6441  0.2691  2.2319
17671THY    CA525363   1.821   9.358   4.921  0.1072 -0.2240 -0.9348
17671THY    CM125364   1.958   9.420   4.931  0.4310  0.0191 -0.3697
17671THY    HM125365   1.969   9.525   4.903  2.2598 -2.3177 -1.1152
17671THY    HM225366   2.026   9.370   4.862  0.5848 -0.4088  0.4258
17671THY    HM325367   2.005   9.412   5.030 -0.9383  0.6042 -1.8476
17671THY    CA625368   1.718   9.429   4.859  0.4651 -0.0559  0.3152
17671THY    HA625369   1.733   9.522   4.805  0.2315 -2.2237 -0.8327
17672THY      O25370   6.243   9.339   5.894 -0.1235  0.0053 -0.9029
17672THY     HO25371   6.223   9.291   5.812  1.9125 -2.0575  1.4401
17672THY    CA125372   6.311   9.253   5.970 -0.2776 -0.0193  0.5343
17672THY    CA225373   6.319   9.250   6.112 -0.4273  0.2445  0.0677
17672THY    CP125374   6.226   9.342   6.187  0.2923 -0.1984  0.0892
17672THY    HP125375   6.149   9.382   6.120 -0.5970  1.1986  0.8443
17672THY    CP225376   6.298   9.463   6.240 -0.5670 -0.6025 -0.2126
17672THY    HP225377   6.232   9.550   6.245 -0.7068  0.7665 -0.3772
17672THY    HP325378   6.388   9.488   6.182 -1.1019 -0.7326  1.6049
17672THY    HP425379   6.348   9.445   6.336 -1.0834 -0.3019 -0.0535
17672THY    CP325380   6.172   9.284   6.325 -0.2977  0.1678 -0.1381
17672THY    HP525381   6.111   9.362   6.374  0.3001  0.4413  0.1613
17672THY    HP625382   6.245   9.256   6.401 -0.0326 -0.7395 -2.0419
17672THY    HP725383   6.110   9.196   6.307 -0.1494 -0.7713 -0.0634
17672THY    CA325384   6.406   9.160   6.173  0.0831 -0.1918 -0.2678
17672THY    HA325385   6.415   9.147   6.280 -2.1235 -0.2140 -2.7921
17672THY    CA425386   6.495   9.084   6.097  0.2386  0.5901 -0.5835
17672THY    HA425387   6.572   9.027   6.147  1.8224  1.4198  2.1113
17672THY    CA525388   6.498   9.098   5.956  0.6655 -0.6423 -0.9738
17672THY    CM125389   6.594   9.031   5.874  0.6128 -0.0364  0.2202
17672THY    HM125390   6.605   9.071   5.773 -1.2976 -0.8617 -1.1405
17672THY    HM225391   6.564   8.926   5.865  0.0372  0.2650  0.3545
17672THY    HM325392   6.688   9.041   5.929  1.7525 -1.5289 -1.5811
17672THY    CA625393   6.400   9.173   5.890  0.3584 -0.2425 -0.2427
17672THY    HA625394   6.394   9.175   5.782 -1.8447 -0.1984 -1.1118
17673THY      O25395   8.204   4.512   2.719 -0.2421  0.6364 -0.3210
17673THY     HO25396   8.129   4.502   2.658  1.0763 -0.7006 -3.2227
17673THY    CA125397   8.209   4.407   2.801  0.0655 -0.1536 -0.1166
17673THY    CA225398   8.319   4.389   2.885  0.3045 -0.6090  0.2165
17673THY    CP125399   8.423   4.495   2.900  0.4675  0.1099  0.5409
17673THY    HP125400   8.420   4.569   2.819 -0.1017 -1.8767 -1.5605
17673THY    CP225401   8.561   4.432   2.917  0.0521  0.2764 -0.0210
17673THY    HP225402   8.631   4.516   2.910  0.6715  2.4959 -0.2829
17673THY    HP325403   8.587   4.359   2.841 -0.9799  0.9310 -1.1062
17673THY    HP425404   8.580   4.385   3.014 -0.2065  0.4191  0.1622
17673THY    CP325405   8.402   4.582   3.026 -0.0899 -0.5171 -0.0157
17673THY    HP525406   8.304   4.631   3.025  0.2719 -0.7239  0.7179
17673THY    HP625407   8.486   4.653   3.031  0.6604 -1.3089 -0.8137
17673THY    HP725408   8.417   4.522   3.116  1.9773 -1.1575 -0.5592
17673THY    CA325409   8.329   4.280   2.970 -0.4850 -0.2447  0.8549
17673THY    HA325410   8.412   4.273   3.040  0.7542 -1.6505  0.8866
17673THY    CA425411   8.233   4.179   2.962  0.2892  0.3031 -0.5193
17673THY    HA425412   8.250   4.085   3.014  0.2093  0.6719 -0.3327
17673THY    CA525413   8.138   4.188   2.869  0.3631 -0.0495  0.7614
17673THY    CM125414   8.036   4.079   2.863 -0.1530 -0.2292 -0.6669
17673THY    HM125415   8.056   4.005   2.784 -0.7452 -2.0431  1.0152
17673THY    HM225416   7.940   4.130   2.853  1.2179 -1.8826  1.8251
17673THY    HM325417   8.043   4.024   2.958  0.1938  1.6896  2.4422
17673THY    CA625418   8.120   4.298   2.794  0.1499  0.1593 -0.2706
17673THY    HA625419   8.032   4.311   2.732 -1.9312  2.8157 -0.8292
17674THY      O25420   7.913   2.623   7.974 -0.0168 -0.4904  0.8663
17674THY     HO25421   8.000   2.628   7.931  0.0242 -0.5099  0.1360
17674THY    CA125422   7.890   2.488   7.987  0.2499  0.5444 -0.3487
17674THY    CA225423   7.760   2.431   7.982 -0.8009  0.7950 -0.1655
17674THY    CP125424   7.640   2.522   7.981 -0.2308 -0.6836  0.4807
17674THY    HP125425   7.662   2.604   8.050  2.9011  0.2680 -1.0094
17674THY    CP225426   7.508   2.459   8.022  0.7784  0.2223 -0.3429
17674THY    HP225427   7.510   2.421   8.124 -1.3154  0.8071  0.9498
17674THY    HP325428   7.464   2.387   7.952  1.0576  0.1182 -0.4137
17674THY    HP425429   7.438   2.543   8.033 -0.8692  0.5449 -1.7093
17674THY    CP325430   7.633   2.589   7.849  1.0614 -0.7572  0.0722
17674THY    HP525431   7.732   2.616   7.810  0.9947  0.3900  2.0984
17674THY    HP625432   7.565   2.675   7.846 -0.4120 -1.1815 -1.0567
17674THY    HP725433   7.578   2.524   7.779  1.2395  0.2962 -1.2432
17674THY    CA325434   7.742   2.289   7.974  0.1907  0.1023  0.4145
17674THY    HA325435   7.648   2.241   7.953 -0.4222 -0.1947  1.6915
17674THY    CA425436   7.851   2.205   7.968  0.0039 -0.3609 -0.9621
17674THY    HA425437   7.843   2.098   7.951  0.3821 -1.9788 -0.7571
17674THY    CA525438   7.978   2.259   7.973 -0.1575 -0.1216 -0.2997
17674THY    CM125439   8.096   2.172   7.979  0.0389  0.2704 -0.5203
17674THY    HM125440   8.183   2.210   7.923 -0.2314  0.4524  0.3912
17674THY    HM225441   8.071   2.074   7.937 -1.2860  0.9850 -0.4986
17674THY    HM325442   8.129   2.165   8.083  1.0473 -0.0256 -0.4347
17674THY    CA625443   8.000   2.401   7.974  0.0718  0.6801  0.0757
17674THY    HA625444   8.104   2.433   7.969  0.3899 -1.6569 -1.1211
17675THY      O25445   8.006   7.887   2.344 -0.6203 -0.3635 -0.1180
17675THY     HO25446   8.045   7.967   2.305  0.2159 -0.6439 -0.6439
17675THY    CA125447   7.869   7.903   2.342  0.2103 -0.5304  0.0668
17675THY    CA225448   7.773   7.804   2.379  0.0167  0.0125 -0.1968
17675THY    CP125449   7.815   7.664   2.413  0.7138 -0.1475 -0.4103
17675THY    HP125450   7.914   7.655   2.458  0.6861 -0.1910 -0.9222
17675THY    CP225451   7.824   7.577   2.290  0.5027  0.5346  0.1221
17675THY    HP225452   7.898   7.496   2.287  0.4300 -1.4288  0.0867
17675THY    HP325453   7.860   7.641   2.209  0.3459  0.3627 -0.0022
17675THY    HP425454   7.727   7.536   2.258  1.0797 -0.7514 -0.2837
17675THY    CP325455   7.714   7.588   2.510 -0.4480 -0.5074  0.1136
17675THY    HP525456   7.616   7.566   2.466 -1.2514  0.0988  2.2446
17675THY    HP625457   7.701   7.648   2.601  2.7293  0.9592 -1.1372
17675THY    HP725458   7.767   7.496   2.539  2.0303 -2.0739  0.9561
17675THY    CA325459   7.634   7.834   2.373 -0.3810 -0.2302  0.0704
17675THY    HA325460   7.551   7.765   2.387 -0.0335 -0.6028 -0.4344
17675THY    CA425461   7.595   7.962   2.330  0.6926 -0.2656  0.4306
17675THY    HA425462   7.488   7.981   2.336  0.0299 -2.6976 -1.8507
17675THY    CA525463   7.691   8.059   2.294  0.0564 -0.2316  0.2938
17675THY    CM125464   7.652   8.196   2.251  0.2205  0.4437 -0.8416
17675THY    HM125465   7.719   8.246   2.180 -0.8725 -0.6505 -0.8746
17675THY    HM225466   7.640   8.261   2.339  0.9649 -1.4606  2.0658
17675THY    HM325467   7.559   8.199   2.192  0.8736 -0.6607  2.9694
17675THY    CA625468   7.828   8.022   2.292  1.1332 -0.5000 -1.0336
17675THY    HA625469   7.899   8.100   2.269  0.6392 -1.4063 -0.8448
17676THY      O25470   0.544   5.565   2.549  0.3361  0.1289  0.3017
17676THY     HO25471   0.505   5.654   2.554 -0.8745 -1.1199 -0.1313
17676THY    CA125472   0.457   5.476   2.615 -0.5901 -1.0378 -0.9707
17676THY    CA225473   0.495   5.346   2.640 -0.0510  0.1944  0.3612
17676THY    CP125474   0.640   5.295   2.622 -0.1986 -0.5197  0.2362
17676THY    HP125475   0.709   5.366   2.574  0.8454 -0.3018 -0.6139
17676THY    CP225476   0.648   5.179   2.522 -0.3198  0.1024 -0.4241
17676THY    HP225477   0.603   5.086   2.558 -1.0155  0.2670 -0.0318
17676THY    HP325478   0.754   5.157   2.508 -0.1684 -0.2449  0.5013
17676THY    HP425479   0.601   5.207   2.427 -1.4417  1.0183  0.9036
17676THY    CP325480   0.703   5.251   2.759  0.5627  0.1303 -0.8759
17676THY    HP525481   0.633   5.183   2.809 -1.2531 -2.0652 -0.7305
17676THY    HP625482   0.739   5.335   2.820  1.8125  0.4309 -1.6063
17676THY    HP725483   0.787   5.184   2.739  0.0475 -0.5460 -1.3290
17676THY    CA325484   0.398   5.249   2.686 -0.2441  0.0830  0.4239
17676THY    HA325485   0.435   5.156   2.729 -1.6834  1.5345  0.4780
17676THY    CA425486   0.265   5.293   2.707  0.1712  0.7651  0.2265
17676THY    HA425487   0.198   5.221   2.753 -0.2063  0.0744  0.1314
17676THY    CA525488   0.234   5.428   2.687  0.2933  0.5413 -0.4568
17676THY    CM125489   0.094   5.467   2.719 -0.0952 -0.2861  0.3258
17676THY    HM125490   0.017   5.428   2.651 -0.7891 -0.7327  2.3339
17676THY    HM225491   0.080   5.576   2.713 -1.3155 -0.5427  0.1674
17676THY    HM325492   0.056   5.428   2.814  2.3548  0.3680 -0.6485
17676THY    CA625493   0.324   5.521   2.639 -0.9203  0.0127  0.1723
17676THY    HA625494   0.292   5.621   2.613  2.3272 -3.1218  0.6167
17677THY      O25495   8.442   2.896   3.534 -0.0080  0.7853  0.4332
17677THY     HO25496   8.496   2.875   3.456 -0.4129  0.5954  0.0856
17677THY    CA125497   8.389   3.010   3.485  0.6199  0.1696 -0.3420
17677THY    CA225498   8.299   3.083   3.562  0.7756  0.1347  0.3779
17677THY    CP125499   8.254   3.042   3.699 -0.2864  0.1615  0.0675
17677THY    HP125500   8.255   2.933   3.698  0.3721 -0.6437  0.0707
17677THY    CP225501   8.115   3.081   3.733  0.0224 -0.7755 -0.1842
17677THY    HP225502   8.120   3.183   3.773 -1.3816  1.1865 -0.8202
17677THY    HP325503   8.078   3.023   3.818  1.7183  0.8714  1.0360
17677THY    HP425504   8.044   3.072   3.649  0.4594 -1.1893  0.2106
17677THY    CP325505   8.353   3.108   3.800  0.7634 -0.7763  0.3685
17677THY    HP525506   8.460   3.096   3.777  1.7818  3.0222  1.0093
17677THY    HP625507   8.324   3.065   3.897 -2.4995 -1.4898  0.7083
17677THY    HP725508   8.330   3.215   3.796 -1.6447 -2.0312 -0.1365
17677THY    CA325509   8.258   3.204   3.514  0.1788 -0.0262 -0.0487
17677THY    HA325510   8.191   3.276   3.561  1.2086  0.1211  0.8363
17677THY    CA425511   8.305   3.250   3.393  0.5899  0.6645  0.8792
17677THY    HA425512   8.268   3.345   3.354 -0.0085 -0.1916  0.3129
17677THY    CA525513   8.385   3.173   3.310  0.1342  0.0291 -0.2489
17677THY    CM125514   8.420   3.233   3.174 -0.2695  0.3614 -0.5042
17677THY    HM125515   8.326   3.256   3.123 -0.0147  0.0544 -0.1411
17677THY    HM225516   8.481   3.160   3.120 -1.1733 -1.3167 -0.0609
17677THY    HM325517   8.477   3.326   3.183 -2.1447 -0.0000  0.7248
17677THY    CA625518   8.432   3.045   3.357 -0.5852 -0.2741  0.1011
17677THY    HA625519   8.491   2.976   3.298 -0.5294 -0.6586  0.4687
17678THY      O25520   9.103   5.169   4.959  0.2977 -0.3230 -0.1540
17678THY     HO25521   9.021   5.161   4.907  0.7099 -0.8638 -0.9842
17678THY    CA125522   9.145   5.042   4.968  1.0448 -0.3731 -0.0766
17678THY    CA225523   9.271   5.012   5.022  0.3169 -1.2680 -0.4875
17678THY    CP125524   9.337   5.119   5.112  0.9529  0.1872  0.1283
17678THY    HP125525   9.271   5.203   5.137 -0.0689 -0.1470 -0.5634
17678THY    CP225526   9.462   5.171   5.035  0.0350  0.4104  0.2486
17678THY    HP225527   9.509   5.240   5.106  1.1115  1.3192 -1.3436
17678THY    HP325528   9.443   5.227   4.943 -0.6406  1.6142  2.0911
17678THY    HP425529   9.535   5.091   5.017 -0.3831 -0.9260  0.1493
17678THY    CP325530   9.386   5.067   5.251 -0.1919  0.3459  0.1526
17678THY    HP525531   9.443   4.976   5.228 -0.5643 -2.0587  0.4434
17678THY    HP625532   9.295   5.058   5.310  0.1973  0.9614  0.2366
17678THY    HP725533   9.460   5.133   5.297  0.3255  0.1017 -0.2447
17678THY    CA325534   9.323   4.882   5.005 -0.2621 -0.2424  0.2217
17678THY    HA325535   9.423   4.864   5.046  0.2968 -1.0300  1.4567
17678THY    CA425536   9.251   4.783   4.930  0.1752  0.1806 -0.0392
17678THY    HA425537   9.296   4.685   4.917 -0.4047  1.3439 -0.4726
17678THY    CA525538   9.117   4.809   4.895 -0.3702  0.6162 -0.2754
17678THY    CM125539   9.041   4.704   4.813 -0.0999  0.2170 -0.5625
17678THY    HM125540   8.933   4.707   4.831 -0.1821 -0.2668 -0.6357
17678THY    HM225541   9.079   4.605   4.843  1.2128 -1.4217 -0.6022
17678THY    HM325542   9.067   4.720   4.708  0.8502  0.6796  1.2427
17678THY    CA625543   9.068   4.943   4.905 -0.2425  0.1122  0.2652
17678THY    HA625544   8.979   4.962   4.847  0.0807  0.1253  1.9988
17679THY      O25545   1.892   2.338   6.930 -0.0449  0.0194 -0.0219
17679THY     HO25546   1.867   2.370   6.842  0.3213 -0.3588 -0.7565
17679THY    CA125547   1.891   2.203   6.918  0.2542 -0.0346  0.1447
17679THY    CA225548   1.927   2.114   7.024  0.2582  0.1360 -0.8537
17679THY    CP125549   1.960   2.169   7.167  0.2541 -0.3559 -0.3705
17679THY    HP125550   1.942   2.277   7.172 -2.9088 -0.3451 -0.8116
17679THY    CP225551   2.106   2.147   7.201  0.5700 -0.0719  0.3703
17679THY    HP225552   2.180   2.162   7.121  1.1579  0.7543  2.2286
17679THY    HP325553   2.127   2.042   7.221 -1.4418 -1.2695 -0.3058
17679THY    HP425554   2.135   2.222   7.276  0.4424  0.1659  0.1818
17679THY    CP325555   1.871   2.120   7.273 -0.5237 -0.1153  0.5653
17679THY    HP525556   1.901   2.015   7.286  1.2687 -1.6357  0.8399
17679THY    HP625557   1.767   2.138   7.245 -0.9143 -0.0941 -1.3783
17679THY    HP725558   1.903   2.178   7.360 -0.6516 -0.1774  0.7275
17679THY    CA325559   1.929   1.978   6.998  0.5140  0.2067 -0.1915
17679THY    HA325560   1.957   1.915   7.082  2.7543  1.4280  2.2568
17679THY    CA425561   1.873   1.928   6.874 -0.8819  0.0239  0.7406
17679THY    HA425562   1.864   1.821   6.858  1.3353  0.6236  0.4339
17679THY    CA525563   1.833   2.020   6.767  0.1507 -0.6270  0.6061
17679THY    CM125564   1.782   1.973   6.633  0.2532 -0.7604 -0.5603
17679THY    HM125565   1.693   1.909   6.645  1.0384  0.2431 -1.5048
17679THY    HM225566   1.848   1.920   6.563 -0.9277 -3.7475  1.6358
17679THY    HM325567   1.736   2.056   6.579  0.3586  1.5361  1.0680
17679THY    CA625568   1.850   2.157   6.794 -0.3020  0.1769 -0.3661
17679THY    HA625569   1.823   2.229   6.717 -1.2903  0.3863 -0.5072
17680THY      O25570   4.914   6.331   2.042 -0.1383  0.0951 -0.4932
17680THY     HO25571   4.981   6.262   2.060  1.7817  1.4458  1.5981
17680THY    CA125572   4.789   6.284   2.066  0.3636 -0.0060 -0.2340
17680THY    CA225573   4.688   6.382   2.088 -1.0232  0.2939  0.0330
17680THY    CP125574   4.716   6.531   2.092  0.1819 -0.6776  0.0822
17680THY    HP125575   4.816   6.565   2.066  1.2109  1.8257 -0.8164
17680THY    CP225576   4.702   6.574   2.236 -0.1817  0.2078 -0.3969
17680THY    HP225577   4.789   6.533   2.289  0.2276 -0.8283 -0.9081
17680THY    HP325578   4.605   6.544   2.276 -0.6563  1.2891  2.2887
17680THY    HP425579   4.705   6.683   2.251  0.9995 -0.1677 -0.3515
17680THY    CP325580   4.624   6.617   2.002  0.2798 -0.5139 -0.5565
17680THY    HP525581   4.638   6.724   2.016 -0.3883 -2.0887 -0.2253
17680THY    HP625582   4.516   6.606   2.021  0.3377  1.7530  1.8373
17680THY    HP725583   4.643   6.605   1.894 -1.1797 -0.7910 -0.6265
17680THY    CA325584   4.558   6.339   2.117  0.1567  0.1765  0.2410
17680THY    HA325585   4.474   6.407   2.129 -1.0615 -0.6166 -1.0569
17680THY    CA425586   4.531   6.202   2.116 -0.0115  0.0293 -0.2354
17680THY    HA425587   4.429   6.168   2.134 -0.4958  0.1996  1.2477
17680THY    CA525588   4.633   6.110   2.104  0.6959  0.5546  0.0911
17680THY    CM125589   4.602   5.963   2.112 -0.5023 -0.9438  0.4644
17680THY    HM125590   4.527   5.936   2.037 -1.5169  0.1615  0.1158
17680THY    HM225591   4.576   5.938   2.216  0.8286 -0.8919 -0.8026
17680THY    HM325592   4.690   5.901   2.095 -1.0638  0.8222 -0.8950
17680THY    CA625593   4.762   6.153   2.072  0.0064  0.5774  0.2652
17680THY    HA625594   4.842   6.080   2.079 -0.7333  3.1584 -0.4150
17681THY      O25595   0.869   0.447   7.469 -0.6355 -0.1881 -0.1800
17681THY     HO25596   0.930   0.472   7.398 -0.1895  0.3494  0.2795
17681THY    CA125597   0.816   0.563   7.504  0.6878 -0.5536  0.5419
17681THY    CA225598   0.742   0.578   7.624 -1.2928 -0.3832 -0.2193
17681THY    CP125599   0.748   0.462   7.732 -0.3529 -0.4402 -0.5356
17681THY    HP125600   0.829   0.392   7.711  0.1991  3.5609 -1.3008
17681THY    CP225601   0.620   0.391   7.764 -0.5372  0.0459 -0.3234
17681THY    HP225602   0.569   0.367   7.670  0.6015 -0.6933  0.0807
17681THY    HP325603   0.551   0.459   7.814  1.1491  0.3389  1.2278
17681THY    HP425604   0.635   0.300   7.823  0.9005  1.1752  0.6101
17681THY    CP325605   0.797   0.540   7.859 -0.0132  0.4939  0.0839
17681THY    HP525606   0.724   0.619   7.877 -2.3477  1.1771 -2.0887
17681THY    HP625607   0.885   0.601   7.836 -0.5380 -0.8511  0.3748
17681THY    HP725608   0.805   0.475   7.947 -2.0181 -0.5908 -1.7559
17681THY    CA325609   0.677   0.702   7.646 -0.0269  0.2631  0.0881
17681THY    HA325610   0.617   0.727   7.733  0.0806  0.2370  0.4308
17681THY    CA425611   0.683   0.798   7.549  0.1328 -0.6287  0.6389
17681THY    HA425612   0.625   0.889   7.558 -1.6821 -0.2268 -0.5032
17681THY    CA525613   0.760   0.777   7.437  0.3868  0.1468  0.4265
17681THY    CM125614   0.766   0.882   7.343  0.2198  0.4385  0.1241
17681THY    HM125615   0.860   0.898   7.290 -0.5237 -0.2858  2.4521
17681THY    HM225616   0.729   0.974   7.388 -0.5565 -1.6784  0.9225
17681THY    HM325617   0.694   0.856   7.264  0.4876 -0.1966  1.2539
17681THY    CA625618   0.824   0.658   7.411 -0.2321 -0.8491  0.2330
17681THY    HA625619   0.866   0.641   7.313  0.5189 -0.5354  0.2478
17682THY      O25620   5.128   4.199   6.270  0.1812 -0.1612  0.1678
17682THY     HO25621   5.142   4.220   6.176 -0.1208 -0.1084  0.6032
17682THY    CA125622   4.992   4.177   6.282 -0.6357 -0.4387  0.5848
17682THY    CA225623   4.938   4.099   6.388  0.2313  0.4190 -0.5779
17682THY    CP125624   5.034   4.054   6.491 -0.9565  0.2843  0.7659
17682THY    HP125625   5.126   4.114   6.491  0.5568 -1.3736 -1.4019
17682THY    CP225626   5.085   3.913   6.450  0.7623  0.6285  0.3166
17682THY    HP225627   5.167   3.881   6.515  0.0106  0.6407 -1.7911
17682THY    HP325628   5.131   3.924   6.351  1.3191  0.8776  0.2520
17682THY    HP425629   5.008   3.835   6.444  0.1748  2.1818  0.7426
17682THY    CP325630   4.985   4.058   6.633  0.5611  0.0930  0.4692
17682THY    HP525631   4.953   4.159   6.659 -4.3568 -1.0144 -0.5570
17682THY    HP625632   5.058   4.032   6.711  0.8402  0.1450  1.3931
17682THY    HP725633   4.897   3.994   6.644  1.1740 -0.3860 -0.4832
17682THY    CA325634   4.802   4.063   6.390  0.0583  0.6436 -0.2331
17682THY    HA325635   4.756   3.996   6.462 -1.2150  0.3828  0.3233
17682THY    CA425636   4.716   4.123   6.295 -0.0838 -0.0195  0.0002
17682THY    HA425637   4.610   4.102   6.288  0.0755 -1.6979 -0.3760
17682THY    CA525638   4.769   4.210   6.195 -0.0567  0.0961 -0.1026
17682THY    CM125639   4.672   4.263   6.095  0.4572 -0.2003  0.5892
17682THY    HM125640   4.624   4.174   6.053  0.9913 -1.9048  1.0661
17682THY    HM225641   4.714   4.319   6.010  0.3897  0.7835  2.1722
17682THY    HM325642   4.599   4.331   6.140  0.1743 -0.3804  0.4049
17682THY    CA625643   4.906   4.229   6.184  0.1399 -0.3034 -0.3298
17682THY    HA625644   4.941   4.280   6.095 -0.1864 -0.7468 -0.8670
17683THY      O25645   2.749   9.147   2.777  0.7110  0.7590  0.2932
17683THY     HO25646   2.832   9.140   2.827  1.7121 -0.5444  1.9307
17683THY    CA125647   2.763   9.061   2.667 -0.3306 -0.1772 -0.0143
17683THY    CA225648   2.659   9.007   2.591 -0.6387  0.1432  0.3010
17683THY    CP125649   2.518   9.029   2.635  0.2578  0.2338  0.1042
17683THY    HP125650   2.524   9.087   2.728  2.4776  0.3476 -0.2213
17683THY    CP225651   2.449   8.896   2.665  0.4311 -0.3100  0.1552
17683THY    HP225652   2.415   8.833   2.582 -1.0528 -0.0456  0.5579
17683THY    HP325653   2.365   8.907   2.736 -0.0269  0.3749 -5.0640
17683THY    HP425654   2.518   8.831   2.721  0.0412  0.1465  0.1246
17683THY    CP325655   2.436   9.113   2.533  1.3226  0.4633 -0.2150
17683THY    HP525656   2.450   9.086   2.427  1.2045  0.4868 -0.3714
17683THY    HP625657   2.470   9.215   2.551 -0.4736  2.1562  0.1459
17683THY    HP725658   2.330   9.117   2.560  1.2099  0.9414 -3.2808
17683THY    CA325659   2.687   8.918   2.481 -0.0719 -1.1506 -0.1319
17683THY    HA325660   2.604   8.879   2.423  0.3737 -0.3556 -2.4253
17683THY    CA425661   2.822   8.893   2.453 -0.3542  0.4249  0.2473
17683THY    HA425662   2.844   8.828   2.368 -1.7343 -1.5140  2.1603
17683THY    CA525663   2.930   8.942   2.535  0.0794 -1.2276  0.4258
17683THY    CM125664   3.068   8.902   2.519 -0.3714  0.0331 -0.0753
17683THY    HM125665   3.127   8.970   2.457 -0.0831  0.6731  0.2687
17683THY    HM225666   3.075   8.807   2.466 -2.0280  0.9042 -0.7334
17683THY    HM325667   3.111   8.885   2.619 -2.7122  1.0798 -0.3135
17683THY    CA625668   2.892   9.030   2.639 -0.2965 -0.2004 -0.1768
17683THY    HA625669   2.972   9.071   2.700 -1.0347  0.2151  0.6742
17684THY      O25670   6.155   1.882   4.674 -0.1229  0.1940  0.1504
17684THY     HO25671   6.210   1.803   4.688 -0.5662  0.6882 -0.0810
17684THY    CA125672   6.039   1.853   4.734  0.6229  0.4733  0.0969
17684THY    CA225673   5.922   1.918   4.683 -0.0881  0.2041 -0.0665
17684THY    CP125674   5.924   2.026   4.570  0.2253 -0.0567 -0.5764
17684THY    HP125675   6.007   2.003   4.503  1.3676  1.7366 -1.9896
17684THY    CP225676   5.930   2.169   4.625  0.1445 -0.2151 -0.1159
17684THY    HP225677   6.021   2.180   4.686 -0.6553  1.0553 -0.3945
17684THY    HP325678   5.845   2.191   4.691 -0.3124 -0.7353 -0.3158
17684THY    HP425679   5.916   2.242   4.544 -0.1891  0.9687  1.1758
17684THY    CP325680   5.796   2.012   4.481 -0.1270 -0.3622 -0.2163
17684THY    HP525681   5.820   2.059   4.385  0.1536 -0.7873 -1.2058
17684THY    HP625682   5.718   2.061   4.541 -1.9848  0.6812 -4.0737
17684THY    HP725683   5.776   1.908   4.454  3.0733  0.9230 -1.2961
17684THY    CA325684   5.804   1.881   4.748  0.1018 -0.4441  0.0565
17684THY    HA325685   5.704   1.913   4.718 -1.7045  1.7418 -2.9339
17684THY    CA425686   5.800   1.786   4.855 -0.4691 -0.1179  0.3953
17684THY    HA425687   5.712   1.758   4.912  1.3095  2.7562  0.2372
17684THY    CA525688   5.911   1.710   4.883 -0.1109  0.3295 -0.4114
17684THY    CM125689   5.906   1.599   4.985 -0.7661 -0.0069  0.1059
17684THY    HM125690   6.004   1.559   5.012  1.1165 -3.3279  2.0510
17684THY    HM225691   5.851   1.511   4.950 -1.4490  0.4415  0.3410
17684THY    HM325692   5.839   1.624   5.069 -0.7700 -0.0537  0.2545
17684THY    CA625693   6.032   1.748   4.829 -0.8231  0.2876 -0.6336
17684THY    HA625694   6.125   1.701   4.857 -0.0317 -0.1038  0.6347
17685THY      O25695   4.111   4.459   5.491 -0.0067  0.1681 -0.3504
17685THY     HO25696   4.161   4.541   5.475 -0.9704  0.1634  0.2484
17685THY    CA125697   4.028   4.489   5.595  0.5464  0.3808  0.3869
17685THY    CA225698   3.968   4.390   5.677  0.3669 -0.2058 -0.6646
17685THY    CP125699   3.985   4.239   5.649 -0.4427 -0.8190  0.2460
17685THY    HP125700   4.053   4.212   5.567 -1.9243 -1.3771 -2.0745
17685THY    CP225701   3.844   4.197   5.619 -0.1160 -0.4681 -0.6009
17685THY    HP225702   3.845   4.089   5.601 -1.3443 -2.8988 -0.2779
17685THY    HP325703   3.829   4.241   5.520 -1.1200  0.7653  2.0215
17685THY    HP425704   3.766   4.233   5.687  0.7754 -0.8435  2.2980
17685THY    CP325705   4.033   4.176   5.772 -0.2414 -1.0925  0.1659
17685THY    HP525706   4.066   4.071   5.768  0.3646  1.5344  0.1870
17685THY    HP625707   3.972   4.187   5.862  1.4871  0.0489  0.7444
17685THY    HP725708   4.117   4.233   5.812 -1.1979  2.0290 -0.4137
17685THY    CA325709   3.885   4.446   5.781 -0.5593  0.0224 -0.2140
17685THY    HA325710   3.842   4.378   5.854  0.3787 -0.3047 -1.1922
17685THY    CA425711   3.863   4.577   5.795  1.0983 -0.7791 -0.9843
17685THY    HA425712   3.802   4.617   5.876  0.6581 -1.0462 -1.1102
17685THY    CA525713   3.912   4.671   5.705 -0.3528  0.1287  0.0398
17685THY    CM125714   3.887   4.816   5.705 -0.5622 -0.0258 -0.3595
17685THY    HM125715   3.974   4.847   5.763 -0.1439 -1.3006  0.9722
17685THY    HM225716   3.791   4.833   5.756 -1.5700 -2.0810  0.5296
17685THY    HM325717   3.887   4.865   5.607  0.2299  0.3942  0.5166
17685THY    CA625718   3.999   4.626   5.609  0.8360  0.0590  0.2235
17685THY    HA625719   4.041   4.694   5.535 -0.0377 -0.0202  0.6939
17686THY      O25720   7.758   8.343   4.213 -0.6616  0.3812 -0.0019
17686THY     HO25721   7.815   8.411   4.174  1.0043  1.6848 -0.5862
17686THY    CA125722   7.782   8.334   4.347  0.0556 -0.8112 -0.2080
17686THY    CA225723   7.688   8.285   4.437  0.1420  0.2445 -0.2908
17686THY    CP125724   7.558   8.224   4.374 -0.3128 -0.0276 -0.0746
17686THY    HP125725   7.575   8.194   4.270  1.6705  0.0888  0.4981
17686THY    CP225726   7.440   8.314   4.393 -0.4666 -0.2139 -0.7282
17686THY    HP225727   7.465   8.411   4.348  2.2913  1.7480 -0.4029
17686THY    HP325728   7.418   8.325   4.500  1.0357  0.1272 -0.7859
17686THY    HP425729   7.353   8.275   4.340 -1.9134  1.4876  0.0164
17686THY    CP325730   7.535   8.090   4.437  0.1355 -0.2415  0.2675
17686THY    HP525731   7.615   8.019   4.412  0.5227 -2.2521  1.3472
17686THY    HP625732   7.437   8.046   4.414  0.4589 -2.6507  0.6708
17686THY    HP725733   7.542   8.102   4.546  1.2614 -0.4648  1.9475
17686THY    CA325734   7.704   8.311   4.574 -0.3208 -0.0238 -0.5274
17686THY    HA325735   7.630   8.280   4.648  2.0339  1.9943 -1.6922
17686THY    CA425736   7.818   8.379   4.626 -0.1877  0.5656 -0.7210
17686THY    HA425737   7.841   8.388   4.731  0.3597  0.3684  0.3545
17686THY    CA525738   7.914   8.419   4.539 -0.5698  0.3660 -0.5294
17686THY    CM125739   8.042   8.474   4.598 -0.1632 -0.4098 -0.0895
17686THY    HM125740   8.046   8.575   4.639  2.4193  0.7201 -0.5605
17686THY    HM225741   8.122   8.465   4.524  1.1124  0.7436  1.1555
17686THY    HM325742   8.073   8.418   4.688 -1.7677  0.4387  0.3193
17686THY    CA625743   7.899   8.400   4.399  0.1255 -0.0504 -0.4407
17686THY    HA625744   7.976   8.440   4.335  1.3045  0.3660 -1.9222
17687THY      O25745   8.473   8.255   5.978  1.0793  0.6672  0.1188
17687THY     HO25746   8.415   8.329   5.953 -1.7701  0.8625 -1.8667
17687THY    CA125747   8.596   8.267   5.919 -0.4337 -0.5684  0.4171
17687THY    CA225748   8.679   8.153   5.917 -0.5085  0.6033 -0.4430
17687THY    CP125749   8.645   8.029   5.990  0.5951  0.1027 -0.6607
17687THY    HP125750   8.597   8.060   6.083 -0.7807 -0.4478 -1.0778
17687THY    CP225751   8.758   7.951   6.063  0.5448  0.0292 -0.4856
17687THY    HP225752   8.719   7.874   6.130 -0.4556 -0.3445 -0.3079
17687THY    HP325753   8.817   8.023   6.121 -1.7870  2.2297 -0.2083
17687THY    HP425754   8.821   7.896   5.991  2.9363  1.6790 -0.0796
17687THY    CP325755   8.566   7.931   5.905  0.1245 -0.3316  0.7112
17687THY    HP525756   8.478   7.980   5.861  0.0437  0.4145  1.2439
17687THY    HP625757   8.526   7.842   5.955  0.1038 -1.6706 -0.0510
17687THY    HP725758   8.642   7.906   5.830  2.3097  1.3784  1.9134
17687THY    CA325759   8.809   8.165   5.843  0.2799 -0.7268  0.2236
17687THY    HA325760   8.872   8.077   5.833  0.4794  1.3046  0.0944
17687THY    CA425761   8.849   8.290   5.795 -0.1051 -0.3323  0.5287
17687THY    HA425762   8.945   8.293   5.745  0.7947  1.3162  0.1710
17687THY    CA525763   8.759   8.395   5.790 -0.1012 -0.2858 -0.1353
17687THY    CM125764   8.792   8.529   5.722  0.1896 -0.1741  0.5642
17687THY    HM125765   8.899   8.543   5.705  0.7543  1.9778 -0.6678
17687THY    HM225766   8.765   8.605   5.796 -0.4518  1.3630 -1.0886
17687THY    HM325767   8.746   8.526   5.622 -0.3802  0.1140 -0.7862
17687THY    CA625768   8.630   8.384   5.858  0.2477  0.5302 -0.0017
17687THY    HA625769   8.556   8.462   5.862 -0.7418  1.0084 -0.9400
17688THY      O25770   0.598   8.836   7.869 -0.7479  0.1056 -0.0395
17688THY     HO25771   0.613   8.922   7.911 -0.4942 -2.0415  1.0311
17688THY    CA125772   0.467   8.823   7.836 -0.6631 -0.6081 -0.3863
17688THY    CA225773   0.435   8.765   7.711  0.2318  0.5475 -0.3848
17688THY    CP125774   0.538   8.725   7.609 -1.0918  0.5099  0.0196
17688THY    HP125775   0.633   8.699   7.657  0.2336 -1.2518  1.3689
17688THY    CP225776   0.571   8.844   7.511  0.5275 -0.4233  0.0763
17688THY    HP225777   0.662   8.821   7.454 -0.1320 -1.7158  0.5887
17688THY    HP325778   0.614   8.923   7.573  4.1573 -1.3399 -0.9796
17688THY    HP425779   0.489   8.866   7.442  0.7543 -0.8752 -0.4525
17688THY    CP325780   0.497   8.603   7.526 -0.0392 -0.0251 -0.0351
17688THY    HP525781   0.409   8.609   7.460 -0.5703  0.7908  1.7032
17688THY    HP625782   0.487   8.519   7.594  0.3150 -1.6327 -1.4298
17688THY    HP725783   0.579   8.579   7.458  0.3683  0.2754  0.4848
17688THY    CA325784   0.299   8.776   7.673  0.3999  0.3139 -0.7767
17688THY    HA325785   0.280   8.748   7.570  0.9362  0.4103 -1.5558
17688THY    CA425786   0.200   8.831   7.756 -0.0086 -0.0745  0.0065
17688THY    HA425787   0.097   8.853   7.730 -0.1690  1.1552  0.8210
17688THY    CA525788   0.237   8.879   7.877  0.2399 -0.5308  0.0474
17688THY    CM125789   0.133   8.941   7.959 -0.2146 -0.1158 -0.0060
17688THY    HM125790   0.174   8.973   8.056  1.5426 -1.0930  0.8835
17688THY    HM225791   0.048   8.876   7.982 -1.7869 -0.7169  1.7324
17688THY    HM325792   0.092   9.032   7.914  2.0089  0.5226  1.4174
17688THY    CA625793   0.374   8.883   7.915  0.2582  0.1507 -0.4388
17688THY    HA625794   0.397   8.940   8.004  0.5486 -0.5122  0.5074
17689THY      O25795   1.727   0.416   5.033 -0.1524  0.1300  0.2757
17689THY     HO25796   1.705   0.466   4.953  0.9625  0.0985  0.7590
17689THY    CA125797   1.611   0.402   5.104  0.0900 -0.6085 -0.2218
17689THY    CA225798   1.608   0.305   5.212  1.1823 -0.1469 -0.0997
17689THY    CP125799   1.732   0.227   5.247 -0.5008 -0.4379 -0.2647
17689THY    HP125800   1.800   0.226   5.162  0.1010 -0.0433  1.7905
17689THY    CP225801   1.696   0.070   5.266  0.4072 -0.0652 -0.5924
17689THY    HP225802   1.624   0.035   5.192 -1.3399  1.6040 -0.6799
17689THY    HP325803   1.661   0.054   5.369  2.2930  0.4944 -1.4839
17689THY    HP425804   1.792   0.017   5.262  0.5973  0.9188 -0.3512
17689THY    CP325805   1.801   0.276   5.376 -0.3561  0.1973  0.1103
17689THY    HP525806   1.721   0.289   5.450 -1.6663 -1.3497  1.2022
17689THY    HP625807   1.858   0.367   5.355  1.9812  1.1958 -1.0415
17689THY    HP725808   1.875   0.204   5.414  0.0888 -2.2874 -0.8574
17689THY    CA325809   1.489   0.282   5.284  0.5074 -0.0700 -1.0454
17689THY    HA325810   1.485   0.213   5.367 -2.3259  0.1055 -0.7995
17689THY    CA425811   1.373   0.356   5.243 -0.5915 -0.3961  0.0292
17689THY    HA425812   1.281   0.340   5.297 -0.7870 -0.6646  0.2585
17689THY    CA525813   1.378   0.454   5.137 -0.2068 -0.5486 -0.2087
17689THY    CM125814   1.257   0.534   5.112  0.5911  0.2959 -0.5576
17689THY    HM125815   1.269   0.604   5.028 -0.7686 -0.8655 -1.6671
17689THY    HM225816   1.224   0.586   5.202  1.5318  0.0187  0.5655
17689THY    HM325817   1.179   0.460   5.092  1.4809 -0.5827 -1.3064
17689THY    CA625818   1.495   0.474   5.071 -0.4171 -0.2601 -0.1724
17689THY    HA625819   1.504   0.546   4.990  1.2068  0.2336  0.2267
17690THY      O25820   1.361   4.337   2.318 -0.4898  0.0685  0.0659
17690THY     HO25821   1.434   4.276   2.338 -0.6800 -1.0574 -0.5765
17690THY    CA125822   1.323   4.309   2.190 -0.0387  0.5754 -0.2387
17690THY    CA225823   1.257   4.410   2.122  0.0653  0.4422  0.0183
17690THY    CP125824   1.237   4.552   2.181 -0.3447  0.2746 -0.1585
17690THY    HP125825   1.266   4.561   2.287  2.4353 -0.4964  1.0004
17690THY    CP225826   1.101   4.605   2.158  0.5537  0.6667 -0.8290
17690THY    HP225827   1.029   4.526   2.183 -0.2208  2.1101  0.2871
17690THY    HP325828   1.096   4.629   2.051  0.3045  0.5887 -1.2140
17690THY    HP425829   1.071   4.683   2.229  0.1054 -0.9039  0.4821
17690THY    CP325830   1.340   4.643   2.107  0.6275  0.1996 -0.0590
17690THY    HP525831   1.443   4.621   2.139  0.3368 -0.3568 -2.5224
17690THY    HP625832   1.310   4.747   2.128  1.3088  0.3799  0.1065
17690THY    HP725833   1.318   4.637   2.000 -0.8238  0.5557 -2.3779
17690THY    CA325834   1.219   4.380   1.983  0.2086 -0.2562 -0.6892
17690THY    HA325835   1.183   4.459   1.916  0.6897 -0.3297 -0.5329
17690THY    CA425836   1.237   4.244   1.932 -1.2308  0.2027 -0.0339
17690THY    HA425837   1.227   4.230   1.825  1.8198 -0.2286  0.4131
17690THY    CA525838   1.300   4.153   2.017 -0.1112 -0.3200  0.3254
17690THY    CM125839   1.334   4.019   1.969  0.1398 -0.9082  0.8849
17690THY    HM125840   1.332   3.943   2.047  0.8986 -1.7881 -0.0693
17690THY    HM225841   1.438   4.023   1.934  0.0517 -1.4719 -0.8564
17690THY    HM325842   1.262   3.990   1.892 -0.0271 -0.3559 -0.2002
17690THY    CA625843   1.337   4.183   2.149  0.6331  0.2481 -0.4821
17690THY    HA625844   1.376   4.109   2.218 -1.7097  1.8646 -0.3155
17691THY      O25845   1.675   8.378   4.185  0.5704  1.2365  0.1558
17691THY     HO25846   1.733   8.301   4.195 -0.4842  0.7179 -0.7266
17691THY    CA125847   1.572   8.326   4.112  0.1278  0.2399 -0.4667
17691THY    CA225848   1.443   8.362   4.135 -0.4982  0.6968 -0.1343
17691THY    CP125849   1.399   8.470   4.232 -0.1631  0.7046  1.0764
17691THY    HP125850   1.481   8.498   4.300  0.0147  0.6181  0.7656
17691THY    CP225851   1.293   8.428   4.327 -0.3935  0.2610 -0.4827
17691THY    HP225852   1.206   8.434   4.261 -0.4338  0.3857  0.4513
17691THY    HP325853   1.285   8.499   4.411  0.9876 -0.5287  0.6608
17691THY    HP425854   1.316   8.330   4.369 -1.7236 -1.9797 -1.8380
17691THY    CP325855   1.358   8.597   4.159  0.1823 -0.3921 -0.4398
17691THY    HP525856   1.284   8.578   4.081  1.7167 -1.9200 -0.3673
17691THY    HP625857   1.439   8.638   4.097  0.2795 -1.0324 -1.5659
17691THY    HP725858   1.320   8.668   4.234  0.8770  1.6345 -2.1127
17691THY    CA325859   1.339   8.305   4.060  0.2864  0.2585  0.3288
17691THY    HA325860   1.234   8.331   4.074 -0.0316 -1.4552  0.0782
17691THY    CA425861   1.369   8.208   3.963  0.8535  0.2213 -0.3128
17691THY    HA425862   1.292   8.157   3.905  0.9180  1.7295 -2.2294
17691THY    CA525863   1.498   8.173   3.940 -0.0567  0.0684  0.8402
17691THY    CM125864   1.529   8.089   3.816 -1.0415 -0.0624 -0.1402
17691THY    HM125865   1.468   8.099   3.725  2.4791 -2.5512  0.6672
17691THY    HM225866   1.533   7.985   3.851  1.3842 -0.2964 -0.1872
17691THY    HM325867   1.631   8.117   3.786 -1.7460 -0.7662  1.7871
17691THY    CA625868   1.599   8.232   4.015 -0.0012 -0.0569 -0.1739
17691THY    HA625869   1.703   8.211   3.990  0.1347 -0.5057  0.9758
17692THY      O25870   1.634   5.202   2.671 -0.0756 -0.6036 -0.0964
17692THY     HO25871   1.645   5.256   2.590  1.9733  1.7104  3.3638
17692THY    CA125872   1.759   5.209   2.729  0.8332  0.2294 -0.1084
17692THY    CA225873   1.779   5.243   2.861  0.7653 -0.4068 -0.6347
17692THY    CP125874   1.655   5.283   2.947 -0.2571  0.5543  0.4339
17692THY    HP125875   1.586   5.344   2.887 -1.7948  0.4626 -1.3191
17692THY    CP225876   1.687   5.375   3.057  0.2105 -0.6346 -0.7949
17692THY    HP225877   1.592   5.412   3.097  0.3735  2.0024 -2.8869
17692THY    HP325878   1.744   5.461   3.021  0.7646  0.0437 -0.8627
17692THY    HP425879   1.739   5.324   3.140 -1.5588  0.7288 -0.4691
17692THY    CP325880   1.582   5.157   2.998  0.0383  0.4607 -0.4594
17692THY    HP525881   1.509   5.181   3.076  0.2728  1.0967 -1.7506
17692THY    HP625882   1.644   5.088   3.056 -1.5077  1.8976 -0.7118
17692THY    HP725883   1.532   5.096   2.922 -1.0408  1.3740 -0.7365
17692THY    CA325884   1.908   5.246   2.908  0.1828  0.3577 -0.6705
17692THY    HA325885   1.928   5.275   3.011  0.1235  0.1796  0.0162
17692THY    CA425886   2.017   5.226   2.822  0.4049  0.4039  0.2300
17692THY    HA425887   2.119   5.234   2.858  0.3752  1.5568 -3.0671
17692THY    CA525888   1.987   5.193   2.687  0.0824 -0.0665 -0.2380
17692THY    CM125889   2.112   5.160   2.602  0.9743  0.1221  0.1316
17692THY    HM125890   2.202   5.183   2.660  1.2207 -0.1186 -0.2144
17692THY    HM225891   2.107   5.217   2.508  0.2683  0.1481  0.1200
17692THY    HM325892   2.120   5.053   2.583  0.5515  0.6524  0.0054
17692THY    CA625893   1.857   5.177   2.642  0.1302 -0.1722 -0.1398
17692THY    HA625894   1.833   5.150   2.540  0.5791  0.4767 -3.3663
17693THY      O25895   4.909   2.157   7.450  0.5100 -0.5643 -0.8342
17693THY     HO25896   4.907   2.242   7.497  2.1346 -1.0865 -0.4737
17693THY    CA125897   5.038   2.139   7.419  0.3055 -0.2435 -0.6139
17693THY    CA225898   5.093   2.030   7.349  0.2390  0.1101 -0.2949
17693THY    CP125899   5.014   1.915   7.290 -0.2560 -0.1289 -0.4100
17693THY    HP125900   4.909   1.932   7.314 -0.6503 -2.7598  1.4660
17693THY    CP225901   5.057   1.779   7.341 -0.5070 -0.5018  0.4694
17693THY    HP225902   4.984   1.704   7.310  1.5945 -1.1352 -1.4347
17693THY    HP325903   5.049   1.769   7.450 -3.8356 -0.7729 -1.1485
17693THY    HP425904   5.154   1.743   7.306  0.7271  4.1412 -1.3848
17693THY    CP325905   5.030   1.916   7.136  0.3224 -0.0766  0.4325
17693THY    HP525906   4.981   1.830   7.088 -0.4789  2.8053 -0.8394
17693THY    HP625907   5.137   1.908   7.118  0.4077 -0.2510  1.7014
17693THY    HP725908   4.984   2.011   7.105 -0.3804 -0.7249 -0.1049
17693THY    CA325909   5.234   2.024   7.334 -0.4966  0.2257 -0.4611
17693THY    HA325910   5.285   1.946   7.279 -0.6291 -0.9721  0.2758
17693THY    CA425911   5.310   2.133   7.383 -0.3325  0.3584  0.6168
17693THY    HA425912   5.418   2.125   7.374 -0.3322 -0.3190  1.3677
17693THY    CA525913   5.249   2.240   7.447 -0.0131 -0.2465  0.1426
17693THY    CM125914   5.321   2.349   7.516 -1.0487  0.5378  0.1949
17693THY    HM125915   5.424   2.360   7.479 -1.0078  0.8639  0.9191
17693THY    HM225916   5.306   2.320   7.621 -2.0449 -0.2440 -2.4383
17693THY    HM325917   5.282   2.446   7.485  1.2309 -0.3700  0.8916
17693THY    CA625918   5.118   2.241   7.474  0.4443 -0.0492  0.0294
17693THY    HA625919   5.060   2.313   7.532  0.2255 -1.2940  0.8836
17694THY      O25920   2.145   6.706   4.975  0.0597 -0.0410 -0.1480
17694THY     HO25921   2.095   6.650   5.036 -1.8644  0.4696  1.9730
17694THY    CA125922   2.236   6.780   5.044  0.8341 -0.7152  0.0097
17694THY    CA225923   2.354   6.817   4.982  0.1895  0.2863 -1.0054
17694THY    CP125924   2.387   6.763   4.834  0.2603 -0.8441  0.1997
17694THY    HP125925   2.310   6.701   4.787  1.8447 -3.7061  0.2133
17694THY    CP225926   2.513   6.673   4.815  0.1151  0.2128 -0.7723
17694THY    HP225927   2.524   6.647   4.709 -1.2040  0.2387 -1.5294
17694THY    HP325928   2.501   6.572   4.856  2.9750  0.5183 -1.0616
17694THY    HP425929   2.598   6.726   4.858 -0.2509  0.4753 -0.3920
17694THY    CP325930   2.395   6.889   4.744  0.2193  0.0686 -0.4714
17694THY    HP525931   2.323   6.963   4.782  1.3555  0.1163  0.6316
17694THY    HP625932   2.368   6.861   4.642 -0.7167  0.3660 -0.7087
17694THY    HP725933   2.495   6.932   4.754 -0.0883 -3.5353  1.4318
17694THY    CA325934   2.437   6.912   5.050 -0.4791 -0.0340  0.2156
17694THY    HA325935   2.537   6.938   5.014 -1.1389 -0.3309  2.5582
17694THY    CA425936   2.403   6.951   5.178  0.5204 -0.0874  0.6268
17694THY    HA425937   2.462   7.014   5.243 -0.3644  1.4495 -0.0732
17694THY    CA525938   2.284   6.904   5.246 -0.4460  0.7500  0.3303
17694THY    CM125939   2.247   6.955   5.377 -0.0452 -0.0247  0.2975
17694THY    HM125940   2.236   6.869   5.444 -1.8219  0.2976  0.7379
17694THY    HM225941   2.153   7.012   5.371  0.2503  1.7082  1.0132
17694THY    HM325942   2.317   7.024   5.426 -1.5881  0.3775  1.6421
17694THY    CA625943   2.205   6.809   5.183  0.7776  1.4861  0.3477
17694THY    HA625944   2.111   6.782   5.230  0.4120  0.5136 -0.1260
17695THY      O25945   5.924   5.239   2.048 -0.0397 -0.4099 -0.4184
17695THY     HO25946   5.896   5.332   2.045  1.3876  0.5598  0.0731
17695THY    CA125947   6.061   5.238   2.056 -1.0261 -0.0374 -0.6481
17695THY    CA225948   6.131   5.142   2.134  0.0548  0.6841  0.0753
17695THY    CP125949   6.050   5.050   2.224  0.3345  0.0219 -0.0825
17695THY    HP125950   5.946   5.036   2.191  0.5580  0.4055 -3.6463
17695THY    CP225951   6.033   5.100   2.361  0.2130 -0.0269 -1.1226
17695THY    HP225952   6.130   5.090   2.412 -0.9561  2.7106  0.2736
17695THY    HP325953   5.954   5.043   2.413  0.7146 -0.5880 -2.3613
17695THY    HP425954   5.999   5.204   2.350 -0.2252  3.0540 -0.8402
17695THY    CP325955   6.104   4.904   2.207  0.3894  0.0302  0.0788
17695THY    HP525956   6.041   4.837   2.266 -2.4613  0.4444  2.8803
17695THY    HP625957   6.212   4.901   2.219  0.3015  0.7329 -0.8854
17695THY    HP725958   6.092   4.875   2.102  0.7891 -0.1591  0.5911
17695THY    CA325959   6.271   5.144   2.140  0.0901  0.5282  0.2148
17695THY    HA325960   6.321   5.075   2.208  0.7398 -0.2656 -0.1037
17695THY    CA425961   6.344   5.229   2.053 -0.0484 -0.1074  0.0520
17695THY    HA425962   6.452   5.225   2.046  0.0456 -0.5650  2.4166
17695THY    CA525963   6.276   5.324   1.976  0.3504 -0.3935  0.8472
17695THY    CM125964   6.344   5.428   1.893 -0.3899  0.0434 -0.5979
17695THY    HM125965   6.342   5.528   1.937  3.9117 -0.0615 -0.3132
17695THY    HM225966   6.295   5.427   1.795 -2.2204  0.9056 -0.7033
17695THY    HM325967   6.449   5.404   1.874 -0.4169  1.8833 -2.4714
17695THY    CA625968   6.134   5.332   1.980  0.0868  0.2395  0.1436
17695THY    HA625969   6.087   5.408   1.918  2.0269  1.9007  2.8792
17696THY      O25970   4.132   4.811   6.537  0.1227  0.0381 -0.2264
17696THY     HO25971   4.040   4.785   6.552 -1.2408 -0.7594  3.4121
17696THY    CA125972   4.205   4.787   6.646  0.4068 -0.2850 -0.1813
17696THY    CA225973   4.345   4.796   6.650  0.1354 -0.5437  0.8896
17696THY    CP125974   4.428   4.847   6.535 -0.2894  0.7277 -0.3517
17696THY    HP125975   4.365   4.888   6.455 -1.4600  1.9198  0.2618
17696THY    CP225976   4.504   4.737   6.465 -0.3881  0.2763 -0.4544
17696THY    HP225977   4.562   4.781   6.382 -0.3726  0.2807 -0.4668
17696THY    HP325978   4.438   4.665   6.417  1.4174 -0.7881 -1.4801
17696THY    HP425979   4.573   4.697   6.540 -1.6195  2.0004  0.5464
17696THY    CP325980   4.525   4.964   6.564  0.6088 -0.1832 -0.3040
17696THY    HP525981   4.594   4.946   6.648 -0.6961  0.8317 -0.6768
17696THY    HP625982   4.462   5.051   6.584  0.6368  2.8265 -0.8691
17696THY    HP725983   4.581   4.993   6.474 -0.5321 -0.3288  1.6402
17696THY    CA325984   4.411   4.747   6.767 -0.3255 -0.1438 -0.0508
17696THY    HA325985   4.519   4.753   6.777 -0.3266 -0.2492  0.1723
17696THY    CA425986   4.345   4.695   6.873  0.3843 -0.6019 -0.3370
17696THY    HA425987   4.408   4.667   6.957  0.7369 -1.7672 -3.4902
17696THY    CA525988   4.206   4.704   6.878  0.5528  0.5538 -0.0132
17696THY    CM125989   4.125   4.636   6.990 -0.0212  0.4457 -1.1361
17696THY    HM125990   4.021   4.671   6.995  0.4995 -0.4432  0.6912
17696THY    HM225991   4.165   4.640   7.092  0.3907  0.2631 -0.0426
17696THY    HM325992   4.112   4.530   6.969 -1.6947  0.4872 -0.9598
17696THY    CA625993   4.139   4.745   6.757 -0.2840  0.4830  0.3598
17696THY    HA625994   4.031   4.737   6.760 -0.3564 -0.6181  0.8242
17697THY      O25995   0.340   4.611   7.850  0.0694 -0.0659 -1.0376
17697THY     HO25996   0.277   4.615   7.776  0.3458 -0.2437  1.9707
17697THY    CA125997   0.461   4.590   7.789 -0.1789 -0.0445 -0.2604
17697THY    CA225998   0.574   4.572   7.869  0.2623  0.0512 -0.1366
17697THY    CP125999   0.572   4.578   8.020  0.2571 -0.1213 -0.4739
17697THY    HP126000   0.481   4.625   8.059  0.9585 -1.3041  2.0344
17697THY    CP226001   0.683   4.672   8.068 -0.0544 -0.4402  0.4340
17697THY    HP226002   0.671   4.702   8.173 -0.1038 -0.3709  0.1745
17697THY    HP326003   0.671   4.761   8.005 -0.3009 -0.0824  0.6574
17697THY    HP426004   0.781   4.624   8.063 -0.4530 -2.7910 -0.2973
17697THY    CP326005   0.585   4.442   8.082 -0.5860  0.3043  1.0498
17697THY    HP526006   0.539   4.431   8.181 -0.3486  0.1632 -2.1097
17697THY    HP626007   0.689   4.407   8.088 -0.1732 -1.9781  1.7748
17697THY    HP726008   0.539   4.365   8.020 -0.4871  1.9301 -0.3694
17697THY    CA326009   0.702   4.537   7.815 -0.2003  0.2465  0.8471
17697THY    HA326010   0.792   4.529   7.875 -1.1240  1.4513 -1.4134
17697THY    CA426011   0.705   4.521   7.667 -0.1117 -0.4229  0.4458
17697THY    HA426012   0.790   4.479   7.615  0.2165  1.5097 -1.4364
17697THY    CA526013   0.593   4.555   7.596  0.2593  0.2648 -0.0189
17697THY    CM126014   0.599   4.553   7.447  0.1840  0.8628  0.8085
17697THY    HM126015   0.699   4.567   7.404  0.1389  0.8430  1.0669
17697THY    HM226016   0.541   4.634   7.401  1.8689 -2.0079  0.5258
17697THY    HM326017   0.561   4.458   7.408  3.3435  1.2348 -0.7441
17697THY    CA626018   0.473   4.590   7.655 -0.1447 -0.0555  0.1496
17697THY    HA626019   0.385   4.609   7.595 -0.4791  0.3256 -0.1598
17698THY      O26020   7.908   6.788   5.883 -0.5277  0.4213  0.1760
17698THY     HO26021   7.905   6.878   5.921 -0.6135  0.1899  0.2726
17698THY    CA126022   7.774   6.758   5.884 -0.3002 -0.2612  0.2938
17698THY    CA226023   7.726   6.641   5.820  0.6701  0.0264  0.7085
17698THY    CP126024   7.814   6.544   5.746 -0.7956  0.3690 -0.3058
17698THY    HP126025   7.749   6.463   5.710  0.4816  0.6876 -1.5256
17698THY    CP226026   7.924   6.479   5.836  0.3786  0.4390  0.0179
17698THY    HP226027   8.007   6.549   5.853  2.0522 -0.8929 -1.5126
17698THY    HP326028   7.967   6.403   5.770  4.2267  4.0926 -1.3441
17698THY    HP426029   7.876   6.423   5.917 -0.8678 -0.5538 -0.4079
17698THY    CP326030   7.880   6.600   5.613  0.2557 -0.2645  0.6986
17698THY    HP526031   7.799   6.633   5.546 -2.3345  1.8780 -0.8749
17698THY    HP626032   7.936   6.517   5.569 -0.0966  1.5486 -0.5580
17698THY    HP726033   7.960   6.670   5.638  1.6146 -2.0200 -0.1520
17698THY    CA326034   7.584   6.613   5.826 -0.7571 -0.0789 -0.4039
17698THY    HA326035   7.546   6.517   5.792  1.4093  1.6019 -1.9516
17698THY    CA426036   7.504   6.704   5.891 -0.2807  0.0108  0.0151
17698THY    HA426037   7.400   6.676   5.906 -0.9590 -3.2958  0.2977
17698THY    CA526038   7.547   6.819   5.946  0.5364 -0.7139  0.2310
17698THY    CM126039   7.447   6.898   6.029 -0.3857 -0.2690 -0.3270
17698THY    HM126040   7.359   6.919   5.966 -1.4289  1.3652  0.3821
17698THY    HM226041   7.494   6.986   6.074 -0.6126  1.3228 -0.9777
17698THY    HM326042   7.402   6.844   6.113 -0.5194  1.7326  2.7086
17698THY    CA626043   7.681   6.848   5.945 -0.6997 -0.7588 -0.1515
17698THY    HA626044   7.711   6.941   5.994 -0.2931  1.1795 -1.2387
17699THY      O26045   8.245   7.987   5.725  0.4867  0.3298 -0.0716
17699THY     HO26046   8.259   7.953   5.815 -0.0765  0.3089 -0.3734
17699THY    CA126047   8.125   7.937   5.687  0.8474  0.9339 -0.6748
17699THY    CA226048   8.085   7.932   5.551 -0.2922  0.3666 -0.1413
17699THY    CP126049   8.191   7.959   5.444 -0.4019  0.1093 -0.9758
17699THY    HP126050   8.293   7.971   5.482  0.3813 -2.1798  0.3472
17699THY    CP226051   8.157   8.095   5.363  0.1974  0.2514  0.3107
17699THY    HP226052   8.159   8.181   5.430 -0.2958  0.8179 -0.1107
17699THY    HP326053   8.056   8.091   5.322  0.6058 -0.7552 -2.7233
17699THY    HP426054   8.228   8.115   5.282 -0.9231 -1.3480 -1.7764
17699THY    CP326055   8.214   7.831   5.348 -0.2281  0.1436 -0.3916
17699THY    HP526056   8.231   7.747   5.416 -1.9245  2.7166  1.1916
17699THY    HP626057   8.296   7.836   5.276 -1.2911 -1.0549  0.7543
17699THY    HP726058   8.121   7.808   5.295 -2.2384  3.3591 -0.3172
17699THY    CA326059   7.952   7.900   5.519  0.1338 -0.3831 -0.2685
17699THY    HA326060   7.921   7.898   5.415 -0.6038 -0.2025  0.7849
17699THY    CA426061   7.865   7.856   5.618  0.3099 -0.0900  0.0267
17699THY    HA426062   7.762   7.835   5.589  0.3744 -0.6482  0.4527
17699THY    CA526063   7.910   7.858   5.756  0.5454  0.9007 -0.2370
17699THY    CM126064   7.816   7.831   5.872  0.1579  0.3101 -0.4213
17699THY    HM126065   7.797   7.725   5.892 -2.0262  0.1404 -0.1149
17699THY    HM226066   7.721   7.879   5.846  0.2329  0.0773 -0.3972
17699THY    HM326067   7.855   7.872   5.966 -0.6470  0.7146 -0.5493
17699THY    CA626068   8.040   7.901   5.786  0.7607  0.1164  0.0923
17699THY    HA626069   8.064   7.907   5.891 -0.7532  0.3964  3.3457
17700THY      O26070   4.735   2.725   3.808  0.5834  0.3681 -0.0203
17700THY     HO26071   4.827   2.693   3.815  0.8135  2.5160  0.9498
17700THY    CA126072   4.728   2.819   3.718 -0.2045  0.0972 -0.7732
17700THY    CA226073   4.609   2.890   3.689  0.0392  0.5641 -0.2516
17700THY    CP126074   4.476   2.863   3.766 -0.3070 -0.6551 -0.4660
17700THY    HP126075   4.506   2.822   3.863  4.3390 -1.6407  0.0544
17700THY    CP226076   4.388   2.763   3.696 -0.0445  0.4661 -0.3352
17700THY    HP226077   4.310   2.737   3.767 -0.4686  0.1591  0.0757
17700THY    HP326078   4.433   2.666   3.669 -0.1179 -2.0902  0.2568
17700THY    HP426079   4.336   2.796   3.605 -0.4992  1.3125  1.3757
17700THY    CP326080   4.396   2.991   3.790  0.2381 -0.1018  0.8821
17700THY    HP526081   4.345   3.024   3.699  0.8724  0.0972  2.5381
17700THY    HP626082   4.451   3.078   3.830  0.2645  0.2968  0.6861
17700THY    HP726083   4.315   2.958   3.856  0.4859 -0.0359  0.3996
17700THY    CA326084   4.608   2.964   3.570 -0.5169  0.7311 -0.1312
17700THY    HA326085   4.520   3.020   3.539  0.8411 -0.3176  1.5500
17700THY    CA426086   4.725   2.984   3.489 -0.4960 -0.3892 -0.8820
17700THY    HA426087   4.722   3.057   3.408  1.7904 -0.0713 -0.3543
17700THY    CA526088   4.842   2.937   3.540 -0.2387  0.2314 -0.1577
17700THY    CM126089   4.976   2.955   3.459  0.4142 -0.8373 -0.3423
17700THY    HM126090   4.968   3.058   3.423 -0.2967  0.1286 -0.0459
17700THY    HM226091   4.972   2.880   3.379 -0.5699  1.6664 -3.1356
17700THY    HM326092   5.068   2.941   3.517 -0.3141 -0.3719 -4.5739
17700THY    CA626093   4.845   2.850   3.654  0.1502  0.6935 -0.0932
17700THY    HA626094   4.938   2.801   3.682  0.1592  0.8515  0.0122
17701THY      O26095   1.386   8.863   6.044 -0.3105  0.6421  0.0722
17701THY     HO26096   1.470   8.845   5.998 -2.1809 -3.7671  1.0728
17701THY    CA126097   1.375   8.780   6.141 -0.1000 -0.2516  0.3540
17701THY    CA226098   1.291   8.815   6.251  0.5513 -0.1598  0.2154
17701THY    CP126099   1.217   8.947   6.253 -0.2546 -0.3668  0.0874
17701THY    HP126100   1.263   9.009   6.175  1.0399  0.0541 -0.3169
17701THY    CP226101   1.246   9.012   6.389 -0.3427 -0.6065 -0.3391
17701THY    HP226102   1.233   8.956   6.483 -0.1103  0.1840  0.8938
17701THY    HP326103   1.189   9.106   6.399  1.3505 -0.0073  0.6605
17701THY    HP426104   1.354   9.026   6.397 -0.4421 -1.7523  1.4340
17701THY    CP326105   1.067   8.944   6.223 -0.2896  0.3343 -0.2108
17701THY    HP526106   1.019   9.042   6.228 -2.0641 -0.4620 -0.9865
17701THY    HP626107   1.013   8.882   6.296  0.0559 -0.7640 -1.8741
17701THY    HP726108   1.034   8.904   6.126  0.8845 -0.5529  0.8967
17701THY    CA326109   1.266   8.714   6.352 -0.2303 -0.7163 -0.0149
17701THY    HA326110   1.195   8.727   6.433 -2.2422 -1.9846 -2.2891
17701THY    CA426111   1.329   8.590   6.337 -0.0784 -0.5476 -0.2455
17701THY    HA426112   1.310   8.519   6.416  0.7567 -0.4750 -0.4063
17701THY    CA526113   1.416   8.563   6.228  0.4024 -0.1991 -0.7628
17701THY    CM126114   1.475   8.426   6.217  0.1902  0.0635 -0.0476
17701THY    HM126115   1.525   8.410   6.121  0.1740 -0.1204  0.9604
17701THY    HM226116   1.397   8.349   6.216 -0.1707 -0.4547  0.3196
17701THY    HM326117   1.546   8.406   6.298 -1.3271  1.0741 -1.6157
17701THY    CA626118   1.439   8.658   6.132 -0.3123 -0.1719 -0.4426
17701THY    HA626119   1.500   8.635   6.045 -1.1741 -1.1691  0.9166
17702THY      O26120   6.677   8.497   5.612  0.5404 -0.3372 -0.2594
17702THY     HO26121   6.682   8.549   5.694 -1.6874  0.6500 -1.4671
17702THY    CA126122   6.652   8.573   5.507  0.9124 -0.0052  0.0975
17702THY    CA226123   6.607   8.521   5.381 -0.1791  0.5409  0.9288
17702THY    CP126124   6.585   8.365   5.364  0.4571  0.7832  0.1368
17702THY    HP126125   6.653   8.304   5.424 -1.0641  0.3300 -2.1407
17702THY    CP226126   6.618   8.331   5.208 -0.2089  0.2163  0.3770
17702THY    HP226127   6.525   8.345   5.153  0.0183 -0.3946 -0.4574
17702THY    HP326128   6.654   8.228   5.198 -3.5883  1.1779 -1.0419
17702THY    HP426129   6.696   8.394   5.165  2.5638  0.7345 -2.4626
17702THY    CP326130   6.439   8.325   5.409  0.7051  0.4972  0.2185
17702THY    HP526131   6.420   8.217   5.406  1.5150 -0.4188  0.0819
17702THY    HP626132   6.376   8.372   5.333  0.2335  0.0016 -1.1687
17702THY    HP726133   6.426   8.365   5.510  0.5495 -0.3637  2.4872
17702THY    CA326134   6.566   8.619   5.288  0.3249 -0.5604  0.9483
17702THY    HA326135   6.523   8.591   5.192 -1.6262  0.0144  1.7817
17702THY    CA426136   6.568   8.754   5.315 -0.0872  0.5082  0.7407
17702THY    HA426137   6.533   8.818   5.234 -2.1233 -0.7441 -1.7619
17702THY    CA526138   6.604   8.806   5.441 -0.5600  0.4403  0.2638
17702THY    CM126139   6.606   8.958   5.464 -0.0051  0.3208 -0.3221
17702THY    HM126140   6.708   8.979   5.498  0.0805  0.7028 -1.2726
17702THY    HM226141   6.532   8.981   5.541 -0.7643 -1.0017  2.0315
17702THY    HM326142   6.584   9.019   5.376 -0.7095 -0.3380 -1.4739
17702THY    CA626143   6.642   8.713   5.538  0.2118  0.0827  0.8678
17702THY    HA626144   6.657   8.752   5.638 -0.7333  1.5430 -2.2014
17703THY      O26145   7.751   5.140   5.829  0.2068 -0.0994  0.4009
17703THY     HO26146   7.667   5.103   5.861 -0.6339 -2.4383  0.1031
17703THY    CA126147   7.740   5.159   5.703  0.0330 -0.1305 -0.5973
17703THY    CA226148   7.847   5.197   5.624  0.4605 -0.1298  0.2370
17703THY    CP126149   7.984   5.230   5.680 -0.1034  0.5989  0.5084
17703THY    HP126150   7.969   5.283   5.775 -0.7453  0.2261  1.0022
17703THY    CP226151   8.067   5.320   5.598 -0.6463  0.3010 -0.1061
17703THY    HP226152   8.019   5.419   5.604 -2.0975 -1.3077 -0.6591
17703THY    HP326153   8.102   5.284   5.500  2.0152  0.3198  2.0662
17703THY    HP426154   8.155   5.330   5.663  0.1683 -0.4751 -1.8534
17703THY    CP326155   8.057   5.101   5.725 -0.3898  0.3024  0.0390
17703THY    HP526156   8.092   5.043   5.639 -3.1103 -0.9840  0.1644
17703THY    HP626157   7.991   5.042   5.790 -0.1433 -0.9493 -1.6959
17703THY    HP726158   8.146   5.136   5.779 -1.1453  1.6117  0.0126
17703THY    CA326159   7.832   5.203   5.487 -0.1435  0.1941 -0.1638
17703THY    HA326160   7.916   5.217   5.419 -1.2567 -1.2117 -0.1594
17703THY    CA426161   7.715   5.145   5.432  0.4639  0.4889  0.1805
17703THY    HA426162   7.702   5.132   5.325  0.9420  0.4895 -0.3489
17703THY    CA526163   7.609   5.102   5.513  0.0209  0.4695 -0.1961
17703THY    CM126164   7.482   5.066   5.446 -0.0135 -0.1884  0.4791
17703THY    HM126165   7.468   4.960   5.473 -1.2898 -0.0567  0.6658
17703THY    HM226166   7.489   5.086   5.339  0.4646 -0.4851 -1.1142
17703THY    HM326167   7.405   5.130   5.491  0.0373 -1.7236  1.6643
17703THY    CA626168   7.619   5.118   5.650  0.3761 -0.4249 -0.4670
17703THY    HA626169   7.528   5.110   5.707  0.0911 -0.2777  2.6559
17704THY      O26170   6.591   9.003   3.657  0.1172 -0.7732 -0.4635
17704THY     HO26171   6.507   9.025   3.613  0.7455 -0.6521  2.6651
17704THY    CA126172   6.678   9.092   3.609  0.3479 -0.5726  0.6675
17704THY    CA226173   6.778   9.136   3.698  0.3168  0.7996 -0.0731
17704THY    CP126174   6.777   9.096   3.852  0.2930  0.7365 -0.5826
17704THY    HP126175   6.728   8.998   3.866 -1.0752  0.1116 -0.0227
17704THY    CP226176   6.690   9.189   3.936 -0.6118  0.1347 -0.6098
17704THY    HP226177   6.682   9.158   4.041 -0.3923 -0.2933 -2.2030
17704THY    HP326178   6.584   9.183   3.908 -0.1700 -1.6584 -0.7499
17704THY    HP426179   6.722   9.294   3.932  0.9967  0.2559 -1.0592
17704THY    CP326180   6.914   9.088   3.902 -0.6486 -0.1609  0.3047
17704THY    HP526181   6.916   9.045   4.003 -1.2892  0.1203  0.9106
17704THY    HP626182   6.964   9.183   3.922 -0.7012  3.8798 -0.3557
17704THY    HP726183   6.973   9.034   3.827 -1.1028  0.6693 -1.4047
17704THY    CA326184   6.861   9.235   3.642 -0.1471  0.5748 -0.6774
17704THY    HA326185   6.944   9.274   3.700 -1.4060  0.2431  2.7855
17704THY    CA426186   6.841   9.282   3.511 -0.4125 -0.4173 -0.1822
17704THY    HA426187   6.913   9.354   3.475 -0.6601 -0.7331 -0.0890
17704THY    CA526188   6.741   9.239   3.433 -0.6550 -0.2921 -0.6807
17704THY    CM126189   6.700   9.309   3.302  0.0578  0.0474  0.7300
17704THY    HM126190   6.782   9.366   3.257  2.3589  1.3150 -1.3524
17704THY    HM226191   6.611   9.370   3.318 -0.9621  1.8347 -1.0936
17704THY    HM326192   6.680   9.233   3.225 -0.1979  2.3468 -1.7125
17704THY    CA626193   6.658   9.147   3.480  0.0068 -0.1696 -0.0536
17704THY    HA626194   6.571   9.117   3.421 -0.8507  0.5123  1.0092
17705THY      O26195   5.363   5.169   3.100  0.0309 -1.1338  0.5058
17705THY     HO26196   5.267   5.160   3.109  0.3204  0.0513 -3.2284
17705THY    CA126197   5.401   5.290   3.053 -0.2659 -0.3585 -0.7286
17705THY    CA226198   5.502   5.361   3.117  0.3881  0.0891  0.0006
17705THY    CP126199   5.572   5.316   3.249  0.0600 -0.4655  0.4022
17705THY    HP126200   5.578   5.207   3.233  1.4825  0.3677  0.3255
17705THY    CP226201   5.499   5.343   3.375  0.4123 -0.4266 -0.1069
17705THY    HP226202   5.516   5.272   3.457 -0.2991  0.9116  1.2066
17705THY    HP326203   5.392   5.342   3.350  0.3592 -0.1976 -0.2360
17705THY    HP426204   5.519   5.446   3.409  3.0482  1.0202 -0.9898
17705THY    CP326205   5.719   5.368   3.261  0.2323 -1.1695 -0.5863
17705THY    HP526206   5.734   5.475   3.277  0.3984  4.7249 -1.1670
17705THY    HP626207   5.758   5.346   3.161 -2.4231 -2.2251 -0.8420
17705THY    HP726208   5.764   5.332   3.354 -3.2810  1.3739  1.0392
17705THY    CA326209   5.536   5.482   3.057  0.1719 -1.5991 -0.4785
17705THY    HA326210   5.613   5.548   3.094 -0.4185 -1.7537  0.3087
17705THY    CA426211   5.476   5.528   2.942  0.5897  0.2108  0.1558
17705THY    HA426212   5.500   5.619   2.889 -0.5778 -0.1279  0.2866
17705THY    CA526213   5.369   5.457   2.884  0.0528  0.1955 -0.5214
17705THY    CM126214   5.296   5.509   2.764 -0.5788  0.4204  0.4147
17705THY    HM126215   5.216   5.576   2.796  0.4188  0.1707  1.7819
17705THY    HM226216   5.261   5.433   2.693 -0.7789 -2.6736  3.1616
17705THY    HM326217   5.363   5.566   2.697  2.3042  1.6877 -1.2331
17705THY    CA626218   5.331   5.338   2.944  0.2680  0.2808 -0.1405
17705THY    HA626219   5.259   5.272   2.896  1.2243 -0.7356 -0.4793
17706THY      O26220   0.814   5.275   6.005 -0.2610 -0.6439  0.2894
17706THY     HO26221   0.771   5.200   5.958  0.9494  0.3065 -1.0506
17706THY    CA126222   0.734   5.382   5.978 -0.0696 -0.3775  0.6175
17706THY    CA226223   0.762   5.513   6.038  0.2210  0.2070  0.0760
17706THY    CP126224   0.887   5.523   6.127  0.2758 -0.5864 -0.8780
17706THY    HP126225   0.950   5.434   6.119 -0.6791 -2.1961 -1.4555
17706THY    CP226226   0.842   5.522   6.277  0.4169 -0.0317 -0.0638
17706THY    HP226227   0.939   5.540   6.326  1.4575 -0.7212 -3.1468
17706THY    HP326228   0.792   5.435   6.320  0.8705  1.7871  0.5185
17706THY    HP426229   0.772   5.605   6.295  0.4727  2.1841 -0.4411
17706THY    CP326230   0.964   5.653   6.084 -1.0465 -0.3268 -0.2269
17706THY    HP526231   1.009   5.631   5.986  1.6979  0.7146  0.3254
17706THY    HP626232   1.055   5.670   6.143 -0.8944 -0.0515 -1.8521
17706THY    HP726233   0.904   5.745   6.082 -1.9184 -0.0474 -0.7840
17706THY    CA326234   0.669   5.619   6.022 -0.8507 -0.2951 -0.7303
17706THY    HA326235   0.685   5.718   6.063  0.1047  1.1054 -1.4358
17706THY    CA426236   0.552   5.604   5.947  0.5193  0.4722  0.0659
17706THY    HA426237   0.489   5.686   5.917 -1.0135  0.1092 -1.2018
17706THY    CA526238   0.523   5.478   5.889  0.1712 -0.3292 -0.2864
17706THY    CM126239   0.404   5.464   5.816 -0.3254  0.1226  0.1870
17706THY    HM126240   0.346   5.555   5.794 -1.8743 -0.1038 -0.8248
17706THY    HM226241   0.330   5.407   5.873 -0.5320  0.5389  0.8665
17706THY    HM326242   0.424   5.403   5.727  0.4231  0.7753 -0.5431
17706THY    CA626243   0.612   5.366   5.912 -0.0065 -0.4580  0.8662
17706THY    HA626244   0.589   5.263   5.887  0.1064 -0.3993  0.8262
17707THY      O26245   5.174   3.314   5.059 -0.2818 -0.3331  0.1810
17707THY     HO26246   5.190   3.265   4.978 -0.5734  1.7758 -3.7831
17707THY    CA126247   5.191   3.225   5.159  0.3049  0.8014  0.0517
17707THY    CA226248   5.234   3.256   5.289 -0.0768  0.0699 -0.3871
17707THY    CP126249   5.261   3.410   5.310 -0.4147 -0.1225 -0.2668
17707THY    HP126250   5.184   3.464   5.254 -0.0153 -0.6241 -0.2152
17707THY    CP226251   5.398   3.440   5.247  0.9832 -0.1822 -0.1857
17707THY    HP226252   5.383   3.454   5.140  0.6088 -0.1346 -0.2067
17707THY    HP326253   5.480   3.369   5.262  3.6312  0.5930  2.7985
17707THY    HP426254   5.442   3.529   5.294  0.4158  0.6447 -0.3248
17707THY    CP326255   5.260   3.450   5.465  0.1298  0.0702  0.6545
17707THY    HP526256   5.337   3.391   5.516 -1.4342  0.5021 -1.1081
17707THY    HP626257   5.163   3.431   5.511  0.0473 -0.3384  0.0758
17707THY    HP726258   5.277   3.558   5.478  1.1772 -1.3370  0.6895
17707THY    CA326259   5.257   3.160   5.389 -0.3183  0.2713 -0.6323
17707THY    HA326260   5.277   3.189   5.492 -1.3351  0.3938 -0.3026
17707THY    CA426261   5.245   3.026   5.357  0.2656  0.4461 -0.4503
17707THY    HA426262   5.256   2.951   5.435  0.1983  0.5616 -0.3398
17707THY    CA526263   5.198   2.998   5.234  0.3246 -0.2499  0.7706
17707THY    CM126264   5.171   2.854   5.208  0.3551  0.1875 -0.0534
17707THY    HM126265   5.180   2.783   5.292  1.4768 -0.2352 -0.4215
17707THY    HM226266   5.245   2.817   5.137  1.3583  1.3185 -0.2902
17707THY    HM326267   5.074   2.843   5.157  1.2070 -1.2706 -1.1420
17707THY    CA626268   5.170   3.091   5.132  0.5247  0.2745  0.0238
17707THY    HA626269   5.118   3.061   5.042  1.6132 -0.9015  1.4947
17708THY      O26270   2.171   4.278   2.877 -0.4090  0.6105 -0.5716
17708THY     HO26271   2.247   4.225   2.906  1.2347 -0.8866  0.8481
17708THY    CA126272   2.179   4.269   2.743  0.4820 -0.5026  0.1930
17708THY    CA226273   2.091   4.342   2.662  0.1869 -0.4439  0.4834
17708THY    CP126274   1.987   4.433   2.727 -0.4107  0.4511  0.0662
17708THY    HP126275   1.998   4.441   2.835 -4.2547  0.9065  1.5991
17708THY    CP226276   1.845   4.371   2.712  0.3054  0.9371  1.1906
17708THY    HP226277   1.771   4.422   2.774 -0.5965  0.8660  0.0187
17708THY    HP326278   1.838   4.264   2.735  1.2393 -0.4730  0.8018
17708THY    HP426279   1.817   4.375   2.606 -0.4663  1.1455  1.3302
17708THY    CP326280   2.001   4.572   2.670  0.6806  0.7510 -0.3151
17708THY    HP526281   1.934   4.649   2.710 -2.8295 -0.4933 -2.4608
17708THY    HP626282   1.990   4.594   2.563  4.8801  0.5056  1.4946
17708THY    HP726283   2.106   4.600   2.681  0.6072  0.2716  0.1700
17708THY    CA326284   2.099   4.333   2.525 -0.5863  0.0934  0.3097
17708THY    HA326285   2.032   4.379   2.454  0.2654  0.7780  2.7221
17708THY    CA426286   2.191   4.241   2.465  0.5553 -0.1499  0.2662
17708THY    HA426287   2.190   4.215   2.359 -0.5501  0.6301 -3.3122
17708THY    CA526288   2.280   4.172   2.549  0.4781  0.1501 -0.1806
17708THY    CM126289   2.379   4.075   2.480 -1.0368 -0.7717  0.2560
17708THY    HM126290   2.469   4.118   2.434  0.3828 -0.3668 -2.0773
17708THY    HM226291   2.329   4.026   2.396 -0.2030 -0.2561 -1.5327
17708THY    HM326292   2.405   4.005   2.560 -0.8333  0.9457  2.1745
17708THY    CA626293   2.272   4.183   2.693 -0.2443 -0.0338  0.0247
17708THY    HA626294   2.346   4.133   2.755 -0.0107  0.0965  0.5281
17709THY      O26295   5.188   8.279   4.157  0.5780 -0.0491  0.0019
17709THY     HO26296   5.251   8.333   4.108  2.0543  0.6855 -1.0011
17709THY    CA126297   5.274   8.175   4.191  0.2808  0.4119 -0.4675
17709THY    CA226298   5.248   8.074   4.284 -0.1972  0.1691 -0.8886
17709THY    CP126299   5.118   8.089   4.359  0.8190  0.4304  0.4325
17709THY    HP126300   5.050   8.144   4.292 -0.5379  0.3763 -1.2127
17709THY    CP226301   5.143   8.146   4.500  0.6717  0.2503 -0.1779
17709THY    HP226302   5.186   8.247   4.494  1.5805 -3.6311 -0.6084
17709THY    HP326303   5.208   8.081   4.559  2.8064 -0.1085  1.5134
17709THY    HP426304   5.047   8.168   4.546  2.1773  3.1733  0.7885
17709THY    CP326305   5.057   7.950   4.382  0.5153  0.1722 -0.2135
17709THY    HP526306   5.119   7.890   4.449  2.1301 -1.3678 -0.3629
17709THY    HP626307   5.045   7.892   4.290 -1.8868 -0.7662  1.5933
17709THY    HP726308   4.963   7.968   4.436  0.7304  0.4058  0.2436
17709THY    CA326309   5.351   7.982   4.316 -0.1937 -0.0748 -0.1680
17709THY    HA326310   5.336   7.904   4.390 -2.2438  1.4314  1.5204
17709THY    CA426311   5.468   7.975   4.240  0.4702  0.0585  0.7168
17709THY    HA426312   5.543   7.898   4.257 -0.1398 -0.3115  0.0334
17709THY    CA526313   5.491   8.070   4.141  0.6082  0.4028 -0.8940
17709THY    CM126314   5.624   8.073   4.073  0.5174  0.4511  0.0445
17709THY    HM126315   5.653   7.975   4.033 -1.5256 -0.3723 -0.2773
17709THY    HM226316   5.701   8.100   4.146 -1.4538  2.7508 -0.1912
17709THY    HM326317   5.618   8.144   3.990 -1.0987  0.4400 -0.0712
17709THY    CA626318   5.392   8.160   4.114  0.0106 -0.0927 -0.1575
17709THY    HA626319   5.415   8.232   4.035 -0.6241 -0.2284 -0.0973
17710THY      O26320   7.503   9.173   4.807  0.1168  0.2956 -1.0532
17710THY     HO26321   7.555   9.227   4.745 -1.6233 -1.0952 -0.8706
17710THY    CA126322   7.577   9.180   4.921  0.1270  0.2816  0.5250
17710THY    CA226323   7.529   9.132   5.048  0.2856 -0.2484 -0.7154
17710THY    CP126324   7.397   9.053   5.060 -0.1585  0.0470 -0.0481
17710THY    HP126325   7.370   9.021   4.959 -2.3864  0.5852 -0.0616
17710THY    CP226326   7.286   9.150   5.113  0.3424 -0.2362 -0.2088
17710THY    HP226327   7.189   9.100   5.124  0.5787  0.2019 -0.5757
17710THY    HP326328   7.281   9.241   5.052 -0.5417  1.6637  1.0997
17710THY    HP426329   7.330   9.179   5.210  1.0660 -1.2065  2.2281
17710THY    CP326330   7.413   8.917   5.134  0.6052 -0.1378 -0.5402
17710THY    HP526331   7.326   8.850   5.123  1.4755 -0.5541 -1.6318
17710THY    HP626332   7.429   8.945   5.238 -1.2406  0.2617 -0.8342
17710THY    HP726333   7.499   8.854   5.109  1.4945  1.9546 -0.2430
17710THY    CA326334   7.611   9.162   5.157 -0.4681 -0.9700  0.3340
17710THY    HA326335   7.570   9.132   5.254 -1.6987 -1.0169  1.7173
17710THY    CA426336   7.738   9.226   5.144 -0.7309 -0.6665  1.2432
17710THY    HA426337   7.805   9.250   5.226  0.9676 -1.6595  0.0039
17710THY    CA526338   7.794   9.246   5.020  1.0555  0.2977  0.1923
17710THY    CM126339   7.928   9.310   5.003 -0.4198 -0.0478  0.0436
17710THY    HM126340   7.943   9.402   5.061  2.4329 -0.8791  0.1915
17710THY    HM226341   7.930   9.360   4.905 -2.1121  0.9398  2.2489
17710THY    HM326342   8.017   9.248   5.012 -1.2620 -0.7514 -1.3084
17710THY    CA626343   7.703   9.243   4.908 -0.0722  0.2929  0.3329
17710THY    HA626344   7.736   9.290   4.816 -1.5511  0.6620  2.2340
17711THY      O26345   8.378   6.196   4.016 -0.7453 -0.0808  0.4511
17711THY     HO26346   8.380   6.139   3.937 -1.5067  0.2198 -0.0085
17711THY    CA126347   8.244   6.209   4.057  0.5402 -0.0514 -0.4777
17711THY    CA226348   8.199   6.324   4.124 -0.5455 -0.0554 -0.0890
17711THY    CP126349   8.286   6.446   4.124 -0.1992  0.2440 -0.4047
17711THY    HP126350   8.363   6.438   4.047  2.3251  2.8072 -3.2549
17711THY    CP226351   8.381   6.444   4.256  0.0827  0.3621 -0.1256
17711THY    HP226352   8.437   6.351   4.240 -0.9658 -0.4177 -0.6530
17711THY    HP326353   8.314   6.429   4.341  1.3878  1.6959  1.3234
17711THY    HP426354   8.441   6.535   4.271  0.6756  1.7852 -0.7214
17711THY    CP326355   8.210   6.574   4.118  0.7472 -0.0026 -0.4045
17711THY    HP526356   8.171   6.598   4.218  0.8224  0.2895 -1.4264
17711THY    HP626357   8.128   6.558   4.047  0.2316  0.8184 -1.6287
17711THY    HP726358   8.281   6.653   4.091  0.5177 -1.1900 -0.5848
17711THY    CA326359   8.064   6.327   4.155 -0.2075  0.9180 -0.1152
17711THY    HA326360   8.020   6.417   4.196 -0.4761  1.3429 -0.4365
17711THY    CA426361   7.981   6.216   4.134  0.3036  0.2023 -0.5429
17711THY    HA426362   7.880   6.227   4.171  1.0137  1.8488  1.2985
17711THY    CA526363   8.032   6.099   4.083 -0.3832  0.4284  0.2411
17711THY    CM126364   7.943   5.982   4.062 -0.2162  0.3550  0.0709
17711THY    HM126365   7.875   5.992   3.977  0.4014  0.0510  2.6475
17711THY    HM226366   7.889   5.958   4.154  1.1019  0.8522 -1.0978
17711THY    HM326367   8.013   5.899   4.047 -0.4981 -0.9910  0.0554
17711THY    CA626368   8.164   6.101   4.034  0.1894 -0.4186  0.2515
17711THY    HA626369   8.202   6.012   3.986  0.7223 -0.7734  0.6639
17712THY      O26370   7.648   6.728   4.948 -0.3273 -0.2248 -0.8887
17712THY     HO26371   7.675   6.693   5.035  0.7940 -0.4800 -0.6858
17712THY    CA126372   7.527   6.791   4.966  0.4434  0.0467  0.3071
17712THY    CA226373   7.451   6.835   4.860  0.6427 -0.2197  0.1462
17712THY    CP126374   7.504   6.846   4.720 -0.2554 -0.7346  0.6734
17712THY    HP126375   7.545   6.748   4.694 -0.0742  2.0278 -0.0707
17712THY    CP226376   7.610   6.960   4.709  0.0120 -0.2687  0.3295
17712THY    HP226377   7.633   6.976   4.603 -0.2030 -0.7143 -2.0288
17712THY    HP326378   7.696   6.928   4.769  1.6974 -1.7059  1.9680
17712THY    HP426379   7.566   7.053   4.747  2.0602 -0.8809  1.6159
17712THY    CP326380   7.405   6.867   4.605 -0.2987  0.5706  0.9439
17712THY    HP526381   7.461   6.852   4.512  2.1332  2.2204 -0.9671
17712THY    HP626382   7.347   6.960   4.605 -0.2485  0.7820  0.9756
17712THY    HP726383   7.333   6.785   4.612  0.5179 -1.4348 -0.0144
17712THY    CA326384   7.323   6.876   4.893 -0.0953 -0.4866  0.1699
17712THY    HA326385   7.259   6.919   4.816 -1.9487  1.6299  1.3717
17712THY    CA426386   7.278   6.878   5.025  0.0517  0.0469  0.2628
17712THY    HA426387   7.182   6.920   5.052  0.9401  1.7457  1.3163
17712THY    CA526388   7.358   6.829   5.124 -0.8490  0.1433  0.4418
17712THY    CM126389   7.313   6.842   5.272 -0.2335 -0.3766 -0.1560
17712THY    HM126390   7.218   6.894   5.282  1.2958  0.2650  2.6837
17712THY    HM226391   7.381   6.889   5.344  1.6677 -0.0295 -3.1386
17712THY    HM326392   7.290   6.741   5.307  0.1748 -0.8993 -0.4397
17712THY    CA626393   7.489   6.792   5.099  0.2198  0.0794  0.2518
17712THY    HA626394   7.554   6.764   5.180  0.8656 -0.4922  0.0691
17713THY      O26395   6.204   3.998   5.881 -0.3487  0.1987 -0.0406
17713THY     HO26396   6.183   3.904   5.891 -1.4526  0.6691  0.2428
17713THY    CA126397   6.210   4.037   6.008 -0.8710 -0.4574 -0.3089
17713THY    CA226398   6.280   4.163   6.041 -0.0561  0.0185 -0.2053
17713THY    CP126399   6.370   4.230   5.942  0.3413  0.1741  0.5427
17713THY    HP126400   6.319   4.213   5.846 -0.4786  0.6460  0.2894
17713THY    CP226401   6.510   4.155   5.928  0.7663 -0.0502  0.5525
17713THY    HP226402   6.500   4.046   5.914  1.1017  2.6842  0.0900
17713THY    HP326403   6.557   4.153   6.028 -0.4981  0.5739  1.0840
17713THY    HP426404   6.579   4.201   5.856  0.9094 -0.1727  0.1531
17713THY    CP326405   6.390   4.378   5.948  0.0932 -0.1542  0.6989
17713THY    HP526406   6.297   4.433   5.932  0.9446  0.0454  2.2385
17713THY    HP626407   6.448   4.404   5.858 -1.7857 -2.3802 -2.1294
17713THY    HP726408   6.435   4.415   6.041 -0.3745  0.1358  0.5414
17713THY    CA326409   6.263   4.213   6.171 -0.1438  0.2556  0.0316
17713THY    HA326410   6.316   4.301   6.205 -1.3943  0.7688  0.6139
17713THY    CA426411   6.182   4.131   6.262  0.2031  1.3301  0.4943
17713THY    HA426412   6.180   4.158   6.367 -1.4130  1.1544  1.1445
17713THY    CA526413   6.120   4.017   6.232  0.0079  0.1721 -0.2217
17713THY    CM126414   6.039   3.957   6.329  0.1275 -0.0289 -0.3017
17713THY    HM126415   6.056   3.849   6.341  3.4503  1.1308  0.2228
17713THY    HM226416   5.937   3.970   6.291  0.7746 -2.1826 -1.1593
17713THY    HM326417   6.044   4.002   6.429  1.8189 -0.0669 -0.3237
17713THY    CA626418   6.134   3.970   6.102 -0.1488  0.1205 -0.1324
17713THY    HA626419   6.079   3.881   6.075 -2.1390 -1.6153  1.4984
17714THY      O26420   3.437   5.536   2.372  0.6102  0.1467 -0.6226
17714THY     HO26421   3.399   5.571   2.454  1.3283 -0.3406  1.4578
17714THY    CA126422   3.569   5.575   2.378 -0.3872  0.3569 -0.1839
17714THY    CA226423   3.671   5.504   2.305  0.4867 -0.4255  0.1901
17714THY    CP126424   3.632   5.390   2.204 -0.5925  0.3415 -0.3308
17714THY    HP126425   3.529   5.406   2.170 -0.2002 -0.7764 -0.1310
17714THY    CP226426   3.648   5.255   2.279 -0.2754 -0.4271  0.3262
17714THY    HP226427   3.584   5.276   2.365  0.7382 -0.3235  3.4144
17714THY    HP326428   3.750   5.232   2.312  0.2503 -1.5284  0.9935
17714THY    HP426429   3.602   5.174   2.221  1.5943 -1.3772 -0.1212
17714THY    CP326430   3.727   5.394   2.074  0.7902  0.4483  0.3847
17714THY    HP526431   3.763   5.496   2.059  0.6062 -1.4725  0.1945
17714THY    HP626432   3.675   5.354   1.986  0.7440  0.4893  0.3539
17714THY    HP726433   3.809   5.326   2.100  0.7060  1.8360  0.7770
17714THY    CA326434   3.804   5.544   2.329 -0.5069  0.7113  0.7540
17714THY    HA326435   3.883   5.490   2.278 -0.7584  2.0011 -0.9181
17714THY    CA426436   3.832   5.642   2.429 -0.4896 -0.0014  0.6182
17714THY    HA426437   3.934   5.678   2.439  0.0521  0.9243 -1.1066
17714THY    CA526438   3.730   5.702   2.498 -0.1312  0.2117 -0.3967
17714THY    CM126439   3.766   5.804   2.605  0.1940 -0.1251  0.1947
17714THY    HM126440   3.852   5.871   2.589 -0.1598  0.4816  0.8042
17714THY    HM226441   3.801   5.747   2.692  1.4442 -0.3964  0.5085
17714THY    HM326442   3.681   5.867   2.634 -1.7602  1.1525 -2.8237
17714THY    CA626443   3.599   5.664   2.485  0.0513  0.1249  0.3252
17714THY    HA626444   3.516   5.715   2.532 -0.8412 -0.0777 -0.8969
17715THY      O26445   0.292   5.956   3.631 -0.0114 -0.6384  0.0421
17715THY     HO26446   0.258   5.970   3.721 -1.1669 -0.7294 -1.7954
17715THY    CA126447   0.431   5.968   3.638 -0.6818  0.5033 -0.5011
17715THY    CA226448   0.505   5.973   3.515 -0.0204 -0.2387  0.4978
17715THY    CP126449   0.428   5.969   3.378 -0.4311  0.4957  0.1246
17715THY    HP126450   0.333   6.018   3.402 -0.0475  0.4644  0.8939
17715THY    CP226451   0.403   5.832   3.319 -0.3806  0.0086  0.1398
17715THY    HP226452   0.343   5.769   3.386  1.6572  0.2598 -1.6548
17715THY    HP326453   0.498   5.782   3.298 -1.2247 -0.2935 -1.4120
17715THY    HP426454   0.355   5.837   3.220  0.6170 -0.4437  0.8870
17715THY    CP326455   0.488   6.062   3.282 -0.3723 -0.1557  0.8152
17715THY    HP526456   0.422   6.060   3.194  0.6962 -0.9682 -0.2779
17715THY    HP626457   0.584   6.030   3.241 -1.2891 -0.8042 -1.3323
17715THY    HP726458   0.491   6.166   3.316 -2.5883  1.7798  0.3499
17715THY    CA326459   0.643   5.969   3.517 -0.0986  0.8876 -0.2724
17715THY    HA326460   0.705   5.969   3.428  0.4207  1.2382  0.2759
17715THY    CA426461   0.709   5.959   3.645 -0.1475  0.8674 -0.4424
17715THY    HA426462   0.817   5.952   3.646 -0.0157  1.5568  1.2002
17715THY    CA526463   0.638   5.965   3.767 -0.0983 -0.3463 -0.0596
17715THY    CM126464   0.701   5.953   3.903 -0.0646  0.1457 -0.1196
17715THY    HM126465   0.797   5.904   3.885 -0.2479 -0.9689 -0.0951
17715THY    HM226466   0.639   5.886   3.962  0.3482 -0.1763 -0.7954
17715THY    HM326467   0.720   6.045   3.959  0.8239  0.1901 -0.3233
17715THY    CA626468   0.498   5.974   3.759  0.5088  0.0573 -0.2146
17715THY    HA626469   0.441   5.979   3.851  0.8248  0.2226  0.7287
17716THY      O26470   1.476   7.948   6.796 -0.2387 -0.2309  0.0773
17716THY     HO26471   1.540   7.901   6.853 -1.8185  1.6256  0.0514
17716THY    CA126472   1.453   7.859   6.704 -0.1264 -0.7954 -0.0014
17716THY    CA226473   1.426   7.900   6.576  0.4079  0.1674 -0.0319
17716THY    CP126474   1.446   8.047   6.537  0.0430  1.1733 -0.6510
17716THY    HP126475   1.456   8.107   6.628 -0.9521  1.2203 -0.5356
17716THY    CP226476   1.323   8.095   6.451 -0.4906 -1.2935 -0.5992
17716THY    HP226477   1.317   8.204   6.440 -2.5253 -0.0578 -0.5346
17716THY    HP326478   1.236   8.067   6.511 -0.5264  0.4118  2.6581
17716THY    HP426479   1.317   8.044   6.354  1.0999 -1.6655 -0.1379
17716THY    CP326480   1.576   8.076   6.462  0.2633  0.3405  0.0869
17716THY    HP526481   1.586   8.185   6.458  0.0477 -0.3116  0.0826
17716THY    HP626482   1.595   8.031   6.364  0.9233 -0.3647  1.8163
17716THY    HP726483   1.650   8.036   6.533 -0.6388  0.2854 -1.7520
17716THY    CA326484   1.378   7.809   6.486 -0.2151  0.1551  0.8581
17716THY    HA326485   1.358   7.834   6.383 -0.3408 -0.2054 -0.6132
17716THY    CA426486   1.359   7.671   6.523  0.1598  0.2849 -0.2035
17716THY    HA426487   1.324   7.590   6.459 -1.1609  2.3964 -1.3972
17716THY    CA526488   1.382   7.633   6.654  0.2890 -0.3592 -0.1014
17716THY    CM126489   1.331   7.497   6.709 -0.3490  0.5418  0.3218
17716THY    HM126490   1.271   7.439   6.638  0.2481 -0.3126  0.7358
17716THY    HM226491   1.280   7.521   6.803 -1.4427 -0.4656  2.1867
17716THY    HM326492   1.411   7.426   6.733 -0.8082  1.3531  0.0640
17716THY    CA626493   1.437   7.724   6.743  0.5208  0.2895  0.5486
17716THY    HA626494   1.446   7.688   6.845  0.7335 -0.4773 -1.7363
17717THY      O26495   2.373   4.504   3.288  0.6480  0.3191  0.2169
17717THY     HO26496   2.295   4.548   3.250  2.0627 -1.9810  0.8733
17717THY    CA126497   2.353   4.470   3.414  0.1592 -0.5513  1.6284
17717THY    CA226498   2.450   4.393   3.484  0.2323 -0.0148 -0.1869
17717THY    CP126499   2.586   4.358   3.414 -1.5329 -0.0751  0.0785
17717THY    HP126500   2.580   4.381   3.307  1.8344 -0.1294  1.3076
17717THY    CP226501   2.630   4.216   3.438 -0.2558 -0.1255 -0.3279
17717THY    HP226502   2.697   4.197   3.523  0.8614 -1.4616 -3.0070
17717THY    HP326503   2.685   4.173   3.354  0.8827  0.7870 -0.7340
17717THY    HP426504   2.536   4.162   3.451 -0.2863 -1.3268 -0.5955
17717THY    CP326505   2.696   4.459   3.455  0.2773  0.5485 -0.3154
17717THY    HP526506   2.736   4.437   3.555 -0.0129  0.3556 -1.8112
17717THY    HP626507   2.644   4.555   3.457 -1.9380  2.7064 -1.4537
17717THY    HP726508   2.777   4.468   3.382 -0.8250 -0.4865  1.9758
17717THY    CA326509   2.423   4.354   3.622  0.3709  0.3989  0.2372
17717THY    HA326510   2.493   4.291   3.676 -0.1804  0.1126 -0.6326
17717THY    CA426511   2.297   4.373   3.673 -0.3166  0.0125  0.0486
17717THY    HA426512   2.271   4.339   3.773 -0.2106  0.2831  0.7445
17717THY    CA526513   2.198   4.431   3.597 -0.8635 -0.4138  0.3598
17717THY    CM126514   2.053   4.438   3.652  0.2560  0.0633  0.0386
17717THY    HM126515   2.018   4.541   3.668  0.7348  1.4869 -0.0063
17717THY    HM226516   2.037   4.381   3.744 -1.5644 -0.9975 -1.2368
17717THY    HM326517   1.982   4.389   3.584  0.6630  0.1637 -0.7092
17717THY    CA626518   2.231   4.489   3.472 -0.2630 -0.4661  0.3528
17717THY    HA626519   2.149   4.532   3.415 -1.9038  1.5411  0.0430
17718THY      O26520   7.594   8.723   5.736  0.0578  0.0715 -0.6597
17718THY     HO26521   7.605   8.629   5.757 -0.1407  3.1490 -0.1236
17718THY    CA126522   7.580   8.729   5.604 -0.3360  0.2293 -0.0956
17718THY    CA226523   7.652   8.817   5.525 -0.3326  0.1358  0.3968
17718THY    CP126524   7.742   8.922   5.584 -0.6463 -0.2959  0.0588
17718THY    HP126525   7.737   8.924   5.694  1.5369 -0.1552  0.2053
17718THY    CP226526   7.710   9.058   5.528  0.1982  0.1646  1.1184
17718THY    HP226527   7.793   9.123   5.558  1.1133  1.7928 -0.7044
17718THY    HP326528   7.630   9.104   5.587  0.6830 -0.0483  2.2751
17718THY    HP426529   7.677   9.052   5.424  0.5555  0.1350 -0.9461
17718THY    CP326530   7.889   8.897   5.540 -0.1135  0.5399  0.0989
17718THY    HP526531   7.952   8.979   5.574  1.8479 -0.9970 -0.6825
17718THY    HP626532   7.907   8.888   5.432 -1.2156  0.5003 -2.6151
17718THY    HP726533   7.923   8.800   5.579  1.0607 -0.4652  0.0769
17718THY    CA326534   7.646   8.801   5.380  0.6572  0.1980 -0.5890
17718THY    HA326535   7.697   8.860   5.304 -0.6062 -0.5412 -0.4178
17718THY    CA426536   7.561   8.702   5.323  0.1711 -0.0951 -0.4145
17718THY    HA426537   7.570   8.681   5.217 -0.6469 -0.1406 -0.5499
17718THY    CA526538   7.503   8.610   5.409  0.4187  0.0567 -0.4714
17718THY    CM126539   7.418   8.499   5.358 -0.2894  0.0199 -0.2554
17718THY    HM126540   7.339   8.466   5.426 -2.1154 -0.8748  2.0041
17718THY    HM226541   7.488   8.423   5.323  0.9967  1.5323  0.1698
17718THY    HM326542   7.361   8.528   5.269 -0.5801  0.2020 -0.2634
17718THY    CA626543   7.512   8.628   5.548  0.7174 -0.3117 -0.3356
17718THY    HA626544   7.473   8.544   5.605 -0.0228  0.9571  0.8300
17719THY      O26545   6.222   1.954   6.620 -0.0734  0.3948 -0.0294
17719THY     HO26546   6.312   1.949   6.655  0.4705 -0.4116  2.5228
17719THY    CA126547   6.187   2.078   6.661  0.9219 -0.0319 -0.4794
17719THY    CA226548   6.189   2.179   6.571  0.2527  0.2483  0.2340
17719THY    CP126549   6.230   2.154   6.423  0.1914 -0.7672  0.3542
17719THY    HP126550   6.291   2.063   6.423 -0.2559 -0.6281  0.0512
17719THY    CP226551   6.326   2.264   6.380  0.2961  0.0785  0.5393
17719THY    HP226552   6.374   2.233   6.286 -0.1673 -0.3512  1.1184
17719THY    HP326553   6.407   2.267   6.454 -0.2136  0.7532 -1.3459
17719THY    HP426554   6.275   2.357   6.352  2.5765 -0.1518  1.8099
17719THY    CP326555   6.111   2.137   6.329 -0.2358 -0.5720 -0.0050
17719THY    HP526556   6.151   2.086   6.240 -0.1428  0.3641 -1.6579
17719THY    HP626557   6.047   2.224   6.312 -0.7029 -0.1882 -0.2683
17719THY    HP726558   6.037   2.074   6.379 -0.5789  1.2488  1.7608
17719THY    CA326559   6.149   2.310   6.609  0.4388  0.0898  0.8220
17719THY    HA326560   6.166   2.394   6.543 -0.0743 -1.5899 -0.3561
17719THY    CA426561   6.112   2.330   6.742  0.2097 -0.0525  0.1216
17719THY    HA426562   6.091   2.431   6.777  2.0832  0.7433  0.2708
17719THY    CA526563   6.113   2.225   6.833  0.5482 -0.0045 -0.3979
17719THY    CM126564   6.065   2.254   6.971 -0.3177 -0.3318  0.8206
17719THY    HM126565   6.147   2.290   7.034 -0.0999 -0.3469  0.3632
17719THY    HM226566   6.021   2.168   7.024  1.9626  3.2810  1.6932
17719THY    HM326567   5.993   2.336   6.966  0.4769 -1.3007  1.4873
17719THY    CA626568   6.155   2.099   6.792 -0.2922  0.7025  0.0274
17719THY    HA626569   6.155   2.010   6.855  2.3828 -0.1984 -0.7317
17720THY      O26570   8.896   5.312   2.348 -0.4279 -0.4273 -0.3640
17720THY     HO26571   8.825   5.254   2.315 -1.3929  1.0989 -0.1144
17720THY    CA126572   9.014   5.256   2.306  0.8244  0.4636  0.9214
17720THY    CA226573   9.139   5.311   2.337  0.0368  1.0231 -0.0038
17720THY    CP126574   9.143   5.431   2.430 -0.4531  1.2858  0.2152
17720THY    HP126575   9.046   5.483   2.419 -0.5201 -1.4211 -0.3306
17720THY    CP226576   9.257   5.529   2.395 -0.0732 -0.1743  0.5274
17720THY    HP226577   9.273   5.556   2.290  2.2891 -0.8659 -2.7855
17720THY    HP326578   9.349   5.473   2.419 -0.9309 -1.4685 -1.5922
17720THY    HP426579   9.244   5.619   2.456  0.8146  1.9739 -0.6994
17720THY    CP326580   9.162   5.374   2.567 -0.5673  0.2402 -0.1566
17720THY    HP526581   9.169   5.455   2.641  1.0953  0.1685 -0.2128
17720THY    HP626582   9.262   5.329   2.576 -0.6127 -1.6462 -0.7040
17720THY    HP726583   9.082   5.311   2.608  0.4101  1.3343 -0.7368
17720THY    CA326584   9.248   5.252   2.280  0.2038 -0.0587 -0.3747
17720THY    HA326585   9.344   5.300   2.298  0.2865 -0.4917 -0.3771
17720THY    CA426586   9.247   5.133   2.221  0.4580  0.2331 -0.1067
17720THY    HA426587   9.339   5.085   2.189 -1.0786 -0.0765 -3.0477
17720THY    CA526588   9.122   5.071   2.191 -0.8449  0.2530 -0.4382
17720THY    CM126589   9.120   4.937   2.129  0.0847  0.7930  0.3862
17720THY    HM126590   9.211   4.914   2.072  0.3669  1.7331 -0.9031
17720THY    HM226591   9.039   4.942   2.055 -0.0485  0.7917 -1.3075
17720THY    HM326592   9.097   4.857   2.200  1.5877  1.3187  0.3902
17720THY    CA626593   9.009   5.138   2.228  0.1886 -0.7148  0.1938
17720THY    HA626594   8.912   5.091   2.218  0.5128 -0.7395 -0.4841
17721THY      O26595   5.353   4.570   7.847  0.4052 -0.4297 -0.0603
17721THY     HO26596   5.367   4.475   7.863  1.3684  0.6045  0.2323
17721THY    CA126597   5.223   4.590   7.814 -0.5427 -0.1381 -0.1601
17721THY    CA226598   5.163   4.715   7.787  0.3730 -0.5666  0.2543
17721THY    CP126599   5.249   4.843   7.776  0.0244  0.4540  0.3373
17721THY    HP126600   5.342   4.833   7.832  1.9972 -2.3598  1.7022
17721THY    CP226601   5.185   4.966   7.844 -0.0568  0.0556  0.4952
17721THY    HP226602   5.124   4.937   7.930 -0.4135 -1.1314 -2.6949
17721THY    HP326603   5.130   5.024   7.768  3.9679 -1.0689  3.3183
17721THY    HP426604   5.270   5.032   7.866  0.1209 -1.1181  0.6850
17721THY    CP326605   5.274   4.870   7.624  0.0063 -0.1443 -0.6546
17721THY    HP526606   5.183   4.848   7.568  0.3556 -2.5627  3.1938
17721THY    HP626607   5.354   4.806   7.585  0.9408  1.0249 -0.2628
17721THY    HP726608   5.287   4.977   7.601 -1.5475  1.4167 -0.0693
17721THY    CA326609   5.025   4.728   7.781 -0.6003 -0.6639  0.1070
17721THY    HA326610   4.976   4.825   7.771  1.3371  1.3115  1.3942
17721THY    CA426611   4.955   4.609   7.795  0.7165  0.2011 -0.0185
17721THY    HA426612   4.847   4.610   7.779  0.7596 -0.2920  2.2258
17721THY    CA526613   5.008   4.484   7.814  0.1686  0.6253 -0.0025
17721THY    CM126614   4.921   4.365   7.833 -0.8314  0.1346  0.2800
17721THY    HM126615   4.956   4.286   7.766 -3.2083 -2.6818  1.4493
17721THY    HM226616   4.815   4.385   7.813 -0.6906 -0.7983  0.1092
17721THY    HM326617   4.933   4.349   7.941  1.7303 -0.3441 -1.5876
17721THY    CA626618   5.148   4.472   7.824  0.3411  0.3034 -0.2055
17721THY    HA626619   5.191   4.375   7.849  0.6416  0.0854 -0.1302
17722THY      O26620   4.959   1.849   4.526  0.1786  0.7565  0.0033
17722THY     HO26621   4.962   1.845   4.623 -0.9492  0.7808 -0.7029
17722THY    CA126622   5.078   1.795   4.475 -0.0843 -0.3898  0.9042
17722THY    CA226623   5.102   1.779   4.333  0.3251  0.5024  0.0489
17722THY    CP126624   5.004   1.825   4.225 -0.2039 -0.4622 -0.6922
17722THY    HP126625   4.913   1.848   4.282 -0.0432 -0.6368  0.4302
17722THY    CP226626   4.960   1.709   4.132 -0.6166 -0.0658  0.3814
17722THY    HP226627   5.047   1.680   4.072 -0.2933  1.4212 -2.0577
17722THY    HP326628   4.886   1.752   4.064 -0.4279  0.4339  1.5276
17722THY    HP426629   4.929   1.628   4.199 -0.5519 -0.3475  0.1224
17722THY    CP326630   5.054   1.958   4.165  0.4910  0.0595  0.0919
17722THY    HP526631   4.984   2.042   4.156 -0.9152 -0.0472 -1.0661
17722THY    HP626632   5.131   1.930   4.092  0.1582 -0.4656  0.5489
17722THY    HP726633   5.118   2.006   4.241 -1.7884 -0.2348  4.0696
17722THY    CA326634   5.227   1.731   4.292 -0.5517  0.0593 -0.1500
17722THY    HA326635   5.247   1.732   4.185  0.9366  0.3151  0.8664
17722THY    CA426636   5.325   1.686   4.387  0.2600  0.5611 -0.3856
17722THY    HA426637   5.419   1.637   4.363  0.2017  1.8954 -1.1810
17722THY    CA526638   5.294   1.694   4.528  0.0400 -0.1386  0.4193
17722THY    CM126639   5.382   1.636   4.633 -0.1440 -0.3852  0.3916
17722THY    HM126640   5.381   1.682   4.732  1.0708  0.2926 -0.9504
17722THY    HM226641   5.480   1.633   4.584  0.3513  0.4535  1.8121
17722THY    HM326642   5.352   1.534   4.660  2.9601  0.7177 -0.3388
17722THY    CA626643   5.173   1.747   4.562 -0.2353 -0.5061 -0.4509
17722THY    HA626644   5.156   1.757   4.669  1.5159 -0.1742 -0.5733
17723THY      O26645   4.775   7.137   6.594  0.8124  0.4869  0.4075
17723THY     HO26646   4.778   7.234   6.605  3.0105 -1.6772  0.6760
17723THY    CA126647   4.900   7.093   6.621 -0.1877 -0.2103  0.2948
17723THY    CA226648   4.932   6.959   6.588 -0.3242 -0.5099  0.4190
17723THY    CP126649   4.820   6.865   6.539  0.2437  0.7611 -0.2562
17723THY    HP126650   4.730   6.921   6.512 -0.7688  0.3790 -2.0164
17723THY    CP226651   4.770   6.768   6.646 -0.2066  0.4885 -0.4087
17723THY    HP226652   4.779   6.833   6.734  3.1506  0.2634 -0.4100
17723THY    HP326653   4.841   6.685   6.652  1.6570 -0.8323  1.0180
17723THY    HP426654   4.673   6.716   6.645 -0.0855  2.9429 -0.8058
17723THY    CP326655   4.851   6.774   6.419  0.2659 -0.5694  0.0113
17723THY    HP526656   4.924   6.699   6.451  0.4266  2.1857  1.2214
17723THY    HP626657   4.892   6.842   6.343 -0.8840 -1.1746  0.0577
17723THY    HP726658   4.765   6.717   6.382 -0.8280  2.5720 -0.5906
17723THY    CA326659   5.072   6.914   6.597 -0.1355  0.4129  0.0067
17723THY    HA326660   5.107   6.815   6.568 -0.3930 -2.5699  0.6778
17723THY    CA426661   5.163   7.005   6.657  0.0720  0.1344  0.4187
17723THY    HA426662   5.264   6.971   6.674 -0.9933  1.0166 -2.6688
17723THY    CA526663   5.133   7.134   6.688 -0.5042 -0.9585 -0.1147
17723THY    CM126664   5.234   7.232   6.749  0.2653 -0.1202  0.0316
17723THY    HM126665   5.193   7.319   6.802  1.5958  4.0782 -1.6188
17723THY    HM226666   5.306   7.261   6.673 -0.1650  0.2750  2.3850
17723THY    HM326667   5.282   7.171   6.827 -1.8231 -0.0253 -1.6342
17723THY    CA626668   4.999   7.179   6.660 -0.7964  0.0742  0.3704
17723THY    HA626669   4.971   7.280   6.688 -1.7128  0.4000  0.0426
17724THY      O26670   6.270   3.734   5.824  0.2084 -0.1492 -0.3437
17724THY     HO26671   6.233   3.717   5.736 -0.2503  0.1271 -0.7902
17724THY    CA126672   6.355   3.628   5.842 -0.0332 -0.1292 -0.0414
17724THY    CA226673   6.392   3.592   5.977 -0.2390  0.0666 -0.5581
17724THY    CP126674   6.322   3.640   6.097  0.2247  0.0801 -0.5959
17724THY    HP126675   6.225   3.675   6.058  0.3310 -0.7137 -1.1671
17724THY    CP226676   6.396   3.764   6.155 -0.6615 -0.4888  0.5928
17724THY    HP226677   6.502   3.743   6.174 -0.5181 -0.7677  1.0248
17724THY    HP326678   6.350   3.801   6.247  0.9939  0.4077  0.5547
17724THY    HP426679   6.399   3.850   6.086  2.8878 -0.7970  0.3816
17724THY    CP326680   6.298   3.544   6.206 -0.0432 -0.2269 -0.1486
17724THY    HP526681   6.394   3.502   6.235  0.4478  0.1939  1.2108
17724THY    HP626682   6.233   3.464   6.170 -1.2766  1.1441  0.1981
17724THY    HP726683   6.247   3.590   6.291  0.2071  0.5409 -1.2703
17724THY    CA326684   6.493   3.488   5.983  0.4618 -0.6097  0.2081
17724THY    HA326685   6.526   3.459   6.082 -1.4385  0.3676  1.2253
17724THY    CA426686   6.530   3.413   5.867 -0.4212 -0.1836  0.2899
17724THY    HA426687   6.606   3.337   5.882 -0.1024 -1.7712  0.2696
17724THY    CA526688   6.485   3.456   5.736  0.0619  0.0526  0.9506
17724THY    CM126689   6.527   3.407   5.604 -0.0744  0.0305 -0.2671
17724THY    HM126690   6.613   3.341   5.622 -0.3803  2.0568 -0.1681
17724THY    HM226691   6.529   3.490   5.532  1.1371  1.1442  0.7308
17724THY    HM326692   6.452   3.340   5.561  1.7003  1.4446 -3.3855
17724THY    CA626693   6.403   3.567   5.731 -0.1465 -0.1970 -0.6688
17724THY    HA626694   6.381   3.608   5.632 -0.3654  1.1882  2.9797
17725THY      O26695   3.350   1.679   2.867  0.0870 -0.5484  0.6360
17725THY     HO26696   3.271   1.708   2.818  0.6124 -2.3087 -0.6948
17725THY    CA126697   3.343   1.542   2.861  0.2406 -0.4596  0.0108
17725THY    CA226698   3.453   1.462   2.883 -0.0214  0.1850  0.1541
17725THY    CP126699   3.595   1.529   2.908 -0.5203  0.0396 -0.1090
17725THY    HP126700   3.607   1.611   2.837 -3.1442 -0.0050  0.3044
17725THY    CP226701   3.712   1.439   2.873 -0.9436 -0.2668 -0.1608
17725THY    HP226702   3.716   1.404   2.769  0.9092 -0.1109 -0.5383
17725THY    HP326703   3.715   1.350   2.937 -0.0446  0.5449  0.4383
17725THY    HP426704   3.804   1.492   2.899 -0.8746  2.1499 -1.3493
17725THY    CP326705   3.612   1.575   3.056  0.0606  0.3855 -0.1905
17725THY    HP526706   3.714   1.614   3.063 -0.1430  0.4375  0.3447
17725THY    HP626707   3.603   1.493   3.128 -0.6228  1.9343  1.2029
17725THY    HP726708   3.530   1.641   3.087  0.1547  1.4757 -0.5732
17725THY    CA326709   3.430   1.324   2.878  0.0401 -0.5758  0.6532
17725THY    HA326710   3.509   1.254   2.901  0.1919  2.8314  1.7791
17725THY    CA426711   3.300   1.267   2.843  0.5995 -0.0966 -0.6463
17725THY    HA426712   3.281   1.160   2.838  0.1251 -0.5185 -0.5465
17725THY    CA526713   3.197   1.352   2.818 -0.2489  0.0882 -0.2668
17725THY    CM126714   3.068   1.302   2.760 -0.1530 -0.5963  0.3939
17725THY    HM126715   3.052   1.196   2.785  0.4466 -0.1903  0.3890
17725THY    HM226716   3.063   1.305   2.651  0.1576 -0.6689 -0.8579
17725THY    HM326717   2.984   1.361   2.799 -0.2369 -1.2360  0.7028
17725THY    CA626718   3.218   1.489   2.834  0.7698 -0.0125 -0.2427
17725THY    HA626719   3.138   1.556   2.805 -2.3183  0.6359 -3.3193
17726THY      O26720   5.347   6.299   6.715  0.0696  0.2778 -0.1481
17726THY     HO26721   5.281   6.353   6.669  0.8144  0.3965  0.8875
17726THY    CA126722   5.414   6.385   6.799 -0.0866  0.3760 -0.1026
17726THY    CA226723   5.527   6.351   6.869 -0.0892 -0.1643 -0.4383
17726THY    CP126724   5.582   6.208   6.871 -0.0196 -0.4746 -0.5107
17726THY    HP126725   5.529   6.150   6.795 -0.1356 -0.4934 -0.3780
17726THY    CP226726   5.557   6.140   7.012 -0.0738  0.2520 -0.3244
17726THY    HP226727   5.455   6.156   7.047 -0.2625  0.0815 -1.1177
17726THY    HP326728   5.641   6.155   7.082  2.5957 -2.6232 -0.7799
17726THY    HP426729   5.561   6.035   6.981 -2.5109  0.0333 -0.3951
17726THY    CP326730   5.732   6.207   6.834 -0.7040 -0.0599  0.2391
17726THY    HP526731   5.795   6.253   6.911  0.3750 -0.3926 -0.6414
17726THY    HP626732   5.754   6.261   6.742 -2.0776 -0.2510  0.5119
17726THY    HP726733   5.758   6.101   6.824  0.4103 -0.0643  0.5012
17726THY    CA326734   5.576   6.447   6.950 -0.9081  0.3563 -0.5647
17726THY    HA326735   5.662   6.430   7.014  0.3908 -0.9725  0.8164
17726THY    CA426736   5.531   6.577   6.953  0.1300 -0.1620  0.1072
17726THY    HA426737   5.581   6.644   7.022 -0.3988 -0.4931  0.8517
17726THY    CA526738   5.421   6.613   6.889 -0.2881  0.7580  0.7731
17726THY    CM126739   5.383   6.761   6.872  0.2951 -0.6571 -0.5566
17726THY    HM126740   5.460   6.832   6.905  0.2079  2.7494 -1.8328
17726THY    HM226741   5.296   6.786   6.933  1.0998  0.6361 -0.7907
17726THY    HM326742   5.364   6.786   6.767  1.2855 -0.6016  0.5109
17726THY    CA626743   5.354   6.513   6.808 -0.1131 -0.2503  0.5557
17726THY    HA626744   5.271   6.545   6.746  0.4268 -1.4662 -0.3149
17727THY      O26745   8.619   6.480   1.954 -0.0671 -0.0151 -0.1770
17727THY     HO26746   8.550   6.514   1.895 -0.8340  1.1495  0.3554
17727THY    CA126747   8.572   6.356   1.993  0.7191  0.5190 -0.6041
17727THY    CA226748   8.651   6.238   2.004 -0.1714 -0.0467 -0.0067
17727THY    CP126749   8.805   6.250   1.977  0.0550 -0.1331 -0.0562
17727THY    HP126750   8.830   6.355   1.993  0.0292  1.0521 -0.2220
17727THY    CP226751   8.831   6.210   1.832 -0.6826  0.0331 -0.4377
17727THY    HP226752   8.775   6.275   1.764 -1.0092 -0.5888 -1.3481
17727THY    HP326753   8.799   6.108   1.810  0.3056 -1.6000 -0.4176
17727THY    HP426754   8.935   6.233   1.805 -1.5669 -0.3447  3.8590
17727THY    CP326755   8.884   6.179   2.085  0.6605  0.1468 -0.1742
17727THY    HP526756   8.990   6.190   2.063  0.7023  0.7816  0.7873
17727THY    HP626757   8.864   6.071   2.081 -2.2696 -1.8195  0.3253
17727THY    HP726758   8.868   6.233   2.179  0.9390  0.2503 -0.2707
17727THY    CA326759   8.590   6.112   2.036  0.0972  0.5019 -0.0011
17727THY    HA326760   8.648   6.020   2.037  0.3324  0.1716  0.1428
17727THY    CA426761   8.448   6.114   2.053 -0.3603  0.2651 -0.4677
17727THY    HA426762   8.393   6.022   2.066 -1.4676  1.2508  0.2960
17727THY    CA526763   8.374   6.232   2.050 -0.2501  0.5572 -0.2490
17727THY    CM126764   8.227   6.231   2.063  0.4441 -0.0054 -0.8666
17727THY    HM126765   8.177   6.235   1.965  1.2114 -0.4021 -0.5420
17727THY    HM226766   8.191   6.320   2.117  0.4787 -0.3676 -0.6289
17727THY    HM326767   8.197   6.144   2.122 -0.4044  1.0908  0.1305
17727THY    CA626768   8.435   6.348   2.021  0.1261 -0.1069 -0.7191
17727THY    HA626769   8.374   6.437   2.011 -0.6962  1.7477 -1.0240
17728THY      O26770   2.810   1.948   4.069  0.1825 -0.1344 -0.3344
17728THY     HO26771   2.823   1.896   4.150  0.9156 -0.8764 -1.3591
17728THY    CA126772   2.883   2.066   4.086  0.9456  0.5357  0.5023
17728THY    CA226773   2.849   2.170   4.002 -0.1772  0.0646 -0.8893
17728THY    CP126774   2.751   2.159   3.889 -0.0166  0.4594  0.0224
17728THY    HP126775   2.762   2.062   3.839 -1.4559 -1.9513  1.0166
17728THY    CP226776   2.766   2.265   3.780 -0.6904  0.3594  0.3035
17728THY    HP226777   2.865   2.284   3.735 -1.7533 -2.2600  0.0581
17728THY    HP326778   2.728   2.353   3.832  0.2756  1.5133  0.0565
17728THY    HP426779   2.690   2.248   3.703 -0.0521 -0.0530 -0.7765
17728THY    CP326780   2.607   2.164   3.932  0.1716 -0.2815  0.3495
17728THY    HP526781   2.568   2.264   3.954  1.8140  1.7736  0.5955
17728THY    HP626782   2.590   2.117   4.030  0.7272  0.6236  1.9666
17728THY    HP726783   2.548   2.117   3.852  1.4960 -0.3340 -1.3018
17728THY    CA326784   2.922   2.291   4.026 -0.3790  0.4797  0.3187
17728THY    HA326785   2.910   2.383   3.970  0.3659 -2.5455 -1.2785
17728THY    CA426786   3.019   2.295   4.133 -0.4202  0.0950  0.8027
17728THY    HA426787   3.064   2.390   4.163  0.2270  0.6340  0.3392
17728THY    CA526788   3.031   2.187   4.218  0.5763  0.9692  0.6481
17728THY    CM126789   3.111   2.196   4.342  0.2412 -0.8557 -0.1485
17728THY    HM126790   3.111   2.294   4.392  1.2368  0.4195 -0.7724
17728THY    HM226791   3.214   2.190   4.305 -0.3271 -2.3845 -1.0852
17728THY    HM326792   3.083   2.123   4.419  0.0838 -0.4405  0.3326
17728THY    CA626793   2.975   2.068   4.185  0.8233  0.4273  0.2228
17728THY    HA626794   2.993   1.989   4.257  1.2412  2.5961  2.1838
17729THY      O26795   3.144   4.121   4.161  0.0682 -0.7070  0.5531
17729THY     HO26796   3.158   4.062   4.086  3.8920 -0.2084  0.6270
17729THY    CA126797   3.201   4.058   4.264  0.1680 -0.4496  0.3459
17729THY    CA226798   3.203   4.123   4.394 -0.3509  0.0720 -0.0521
17729THY    CP126799   3.144   4.264   4.406  0.3323 -0.1224 -0.5786
17729THY    HP126800   3.110   4.305   4.310  0.5591 -0.0754 -0.2798
17729THY    CP226801   3.252   4.367   4.457 -0.1099  0.6826  0.1318
17729THY    HP226802   3.305   4.320   4.540 -1.9148  1.3900 -0.7755
17729THY    HP326803   3.216   4.466   4.487  0.2412 -0.2126  0.5359
17729THY    HP426804   3.323   4.390   4.376  0.0415  0.9467  0.6010
17729THY    CP326805   3.026   4.251   4.507 -0.4719  0.2513 -0.1072
17729THY    HP526806   3.064   4.204   4.598  0.4417 -1.8706 -3.8928
17729THY    HP626807   2.936   4.210   4.461  0.7326  0.1902 -2.8964
17729THY    HP726808   3.001   4.356   4.531  0.2709 -0.2925  0.2019
17729THY    CA326809   3.279   4.054   4.493  0.2304 -0.1040 -0.2584
17729THY    HA326810   3.284   4.105   4.589 -0.3721 -0.7819  1.1350
17729THY    CA426811   3.330   3.930   4.472 -0.5261 -0.2406  0.3591
17729THY    HA426812   3.382   3.878   4.552  1.7456 -1.6710  0.2946
17729THY    CA526813   3.325   3.870   4.345 -0.2238 -0.0823  0.6756
17729THY    CM126814   3.383   3.731   4.320  0.0962 -0.2403 -0.6803
17729THY    HM126815   3.308   3.657   4.292 -0.8677 -1.1538  0.6005
17729THY    HM226816   3.435   3.688   4.407 -0.6732  1.0594  0.8949
17729THY    HM326817   3.456   3.730   4.238 -0.7997 -1.0922 -3.2486
17729THY    CA626818   3.265   3.940   4.241  0.0225 -0.8586  0.4508
17729THY    HA626819   3.265   3.893   4.144 -1.9841 -0.5386 -0.3075
17730THY      O26820   3.068   0.834   7.791  0.3418  0.0581 -0.3142
17730THY     HO26821   3.062   0.858   7.886  0.9640 -0.1008  0.5290
17730THY    CA126822   2.960   0.894   7.725 -0.7958  0.5489 -0.2206
17730THY    CA226823   2.883   0.826   7.626 -0.7028 -0.6853  0.2750
17730THY    CP126824   2.937   0.697   7.558  0.0282 -0.1426  0.0297
17730THY    HP126825   3.012   0.657   7.629  0.7174 -2.4410 -3.1337
17730THY    CP226826   3.001   0.704   7.415  0.6737 -0.1176  0.3299
17730THY    HP226827   3.062   0.614   7.398 -0.8444  0.8690 -0.9579
17730THY    HP326828   3.065   0.792   7.404  0.3630  0.3027  0.6146
17730THY    HP426829   2.925   0.713   7.336  0.4801 -0.5918 -3.5336
17730THY    CP326830   2.834   0.588   7.562  0.2492 -0.4427  0.7899
17730THY    HP526831   2.741   0.584   7.504 -0.5999  0.8638  0.8501
17730THY    HP626832   2.781   0.575   7.657 -2.5997 -1.9795  0.1362
17730THY    HP726833   2.889   0.496   7.539 -1.1450  0.4439 -0.3001
17730THY    CA326834   2.763   0.883   7.576 -0.0015 -0.3373 -0.3858
17730THY    HA326835   2.693   0.840   7.505 -1.6200  0.7441  0.3701
17730THY    CA426836   2.732   1.012   7.624  0.2927  0.6082  0.2192
17730THY    HA426837   2.635   1.048   7.590  0.7436 -2.8355 -1.4442
17730THY    CA526838   2.798   1.070   7.732  0.4061  0.1578  0.0932
17730THY    CM126839   2.754   1.193   7.794  0.0964 -0.3684 -0.2167
17730THY    HM126840   2.658   1.224   7.752 -0.5693  0.3293 -1.2988
17730THY    HM226841   2.832   1.270   7.786  0.2397 -1.2613 -0.4367
17730THY    HM326842   2.736   1.168   7.899  1.5098 -0.5875 -2.4349
17730THY    CA626843   2.911   1.011   7.780 -0.8136  0.1327 -0.0817
17730THY    HA626844   2.959   1.046   7.871  0.0648  0.3069 -1.6459
17731THY      O26845   1.414   2.914   5.354  0.3281  0.1871  0.0703
17731THY     HO26846   1.496   2.966   5.365 -0.0686 -0.2438  0.7941
17731THY    CA126847   1.432   2.805   5.275 -0.0055 -0.1100  0.3566
17731THY    CA226848   1.381   2.680   5.314 -0.7079 -0.6032  0.0405
17731THY    CP126849   1.290   2.652   5.436 -0.6956  0.1606 -0.3992
17731THY    HP126850   1.335   2.706   5.520  1.1911 -0.8289 -0.3450
17731THY    CP226851   1.301   2.508   5.491 -0.1020  0.2361 -0.3920
17731THY    HP226852   1.408   2.491   5.508  0.2815  0.4454  1.8572
17731THY    HP326853   1.273   2.449   5.402  2.0993 -3.3247  3.3883
17731THY    HP426854   1.230   2.492   5.572  1.4224  2.0185  1.3535
17731THY    CP326855   1.150   2.696   5.400  0.2205 -0.1846 -0.4135
17731THY    HP526856   1.153   2.806   5.397  0.7877 -0.3742 -0.4335
17731THY    HP626857   1.069   2.675   5.471 -1.0365 -1.2672  0.6358
17731THY    HP726858   1.119   2.670   5.299 -0.0953 -0.2133  0.0618
17731THY    CA326859   1.413   2.573   5.218 -0.1744 -0.2520  0.3639
17731THY    HA326860   1.362   2.478   5.232  1.6637 -0.4782 -0.6940
17731THY    CA426861   1.504   2.584   5.118 -0.5129 -0.9152  0.2578
17731THY    HA426862   1.529   2.497   5.057  1.6959  1.0390 -0.5821
17731THY    CA526863   1.562   2.704   5.097 -0.3305 -0.0378 -0.1889
17731THY    CM126864   1.677   2.708   4.998  0.3382  0.4550 -0.0651
17731THY    HM126865   1.759   2.642   5.030 -0.0981  2.6228  0.3461
17731THY    HM226866   1.722   2.808   5.002  1.0091 -0.3561 -0.3243
17731THY    HM326867   1.652   2.671   4.898  1.2156  0.5080 -0.8486
17731THY    CA626868   1.523   2.817   5.175  0.2526 -0.1085  1.0267
17731THY    HA626869   1.566   2.916   5.157  2.0280  0.1211  0.3469
17732THY      O26870   9.033   0.435   3.438  0.0966  0.3999 -0.0115
17732THY     HO26871   8.996   0.345   3.447  0.2010  0.3329 -0.0613
17732THY    CA126872   8.926   0.516   3.458 -0.0639 -0.0764 -0.0967
17732THY    CA226873   8.929   0.650   3.470 -0.0988 -0.0990 -0.0643
17732THY    CP126874   9.063   0.714   3.487  0.4943 -0.1300  0.3509
17732THY    HP126875   9.132   0.649   3.542  0.6188 -0.0170  0.5761
17732THY    CP226876   9.053   0.826   3.578  0.2956 -0.1512 -0.7956
17732THY    HP226877   8.986   0.819   3.664  0.0581 -0.4124 -1.8173
17732THY    HP326878   9.018   0.915   3.524 -1.9420  2.7964  0.2578
17732THY    HP426879   9.150   0.856   3.619  0.5477 -1.9835  1.1649
17732THY    CP326880   9.118   0.754   3.350  0.8190 -0.2061 -0.1789
17732THY    HP526881   9.154   0.670   3.289  0.7601 -0.9817  0.3534
17732THY    HP626882   9.196   0.829   3.367 -0.7931 -0.1127  1.5560
17732THY    HP726883   9.041   0.813   3.300  0.0917 -0.7296 -1.5195
17732THY    CA326884   8.806   0.723   3.476  0.1189  0.2934 -0.4945
17732THY    HA326885   8.807   0.830   3.494 -1.2008  1.0629 -0.5880
17732THY    CA426886   8.684   0.660   3.453  0.0835 -0.0641  0.1870
17732THY    HA426887   8.583   0.701   3.449  0.0394 -1.9404 -0.0324
17732THY    CA526888   8.686   0.522   3.436  0.2985 -0.1292 -0.1567
17732THY    CM126889   8.565   0.446   3.438  0.3014 -0.2841  0.7090
17732THY    HM126890   8.483   0.499   3.489  0.3387  1.0329 -0.4577
17732THY    HM226891   8.571   0.357   3.502 -2.1426  2.7412  2.5155
17732THY    HM326892   8.523   0.425   3.338  0.4479 -0.5938  1.8447
17732THY    CA626893   8.807   0.449   3.452 -0.0453 -0.3166 -0.0909
17732THY    HA626894   8.803   0.340   3.456 -0.6920  0.6334 -0.0464
17733THY      O26895   0.557   1.270   3.678 -0.2180 -0.5852  0.0928
17733THY     HO26896   0.554   1.211   3.601  1.4809  0.9834 -2.2693
17733THY    CA126897   0.620   1.194   3.757  0.2559 -0.4063  0.3935
17733THY    CA226898   0.652   1.229   3.892 -0.0637  0.5238 -0.1501
17733THY    CP126899   0.609   1.362   3.945 -0.5220  0.3811  0.5005
17733THY    HP126900   0.641   1.431   3.867  1.7463  3.8403  3.7599
17733THY    CP226901   0.701   1.413   4.067 -0.2432 -0.0728  0.6161
17733THY    HP226902   0.670   1.365   4.160  1.8670  0.5697  0.4055
17733THY    HP326903   0.695   1.522   4.078 -0.0712  1.7036  0.4786
17733THY    HP426904   0.808   1.393   4.049 -0.3315 -1.2164  1.0977
17733THY    CP326905   0.457   1.370   3.989  0.3940 -0.3584  0.0032
17733THY    HP526906   0.383   1.364   3.909 -1.0559  0.8523  0.8911
17733THY    HP626907   0.438   1.470   4.031 -1.0754 -0.9323 -0.0216
17733THY    HP726908   0.427   1.300   4.067 -3.4337 -2.7613 -1.3273
17733THY    CA326909   0.745   1.149   3.967  0.2173 -0.2342 -0.1228
17733THY    HA326910   0.778   1.174   4.067  2.5495 -1.0891  0.4692
17733THY    CA426911   0.788   1.038   3.902 -0.2275  0.2575 -0.5757
17733THY    HA426912   0.863   0.974   3.949  1.3487 -2.2804 -0.7351
17733THY    CA526913   0.744   1.002   3.772 -0.4000 -0.4963  0.2848
17733THY    CM126914   0.778   0.866   3.718  0.0769  0.8726  0.4860
17733THY    HM126915   0.723   0.847   3.625 -1.1021  1.5014  0.6830
17733THY    HM226916   0.735   0.803   3.797 -0.8419  0.8174  1.0180
17733THY    HM326917   0.887   0.858   3.708 -0.1794 -0.6784 -2.1302
17733THY    CA626918   0.662   1.075   3.699 -0.5324  0.6859 -0.1914
17733THY    HA626919   0.645   1.042   3.597  0.8176  0.6477 -0.8167
17734THY      O26920   8.968   2.064   6.013 -0.2162  0.7876  0.4793
17734THY     HO26921   9.053   2.085   5.970 -1.1036 -0.5079  1.6151
17734THY    CA126922   8.887   2.081   5.903 -0.3842 -0.6360 -0.2428
17734THY    CA226923   8.751   2.051   5.911 -0.3300  0.2694 -0.2055
17734THY    CP126924   8.689   1.976   6.029 -0.5175 -0.3995 -0.4234
17734THY    HP126925   8.748   1.999   6.119 -1.7920  0.2230  0.5752
17734THY    CP226926   8.697   1.825   5.995 -0.6504  0.0406 -0.9043
17734THY    HP226927   8.644   1.808   5.901 -0.3095 -1.1924  3.6829
17734THY    HP326928   8.661   1.760   6.076 -1.3678  0.7628  0.3410
17734THY    HP426929   8.803   1.806   5.974 -0.4485 -0.1577  0.3824
17734THY    CP326930   8.537   2.011   6.060 -0.6453  0.6464  0.5987
17734THY    HP526931   8.517   2.116   6.088 -0.6248 -0.9439  1.0441
17734THY    HP626932   8.500   1.939   6.134 -0.4775 -1.3070 -1.5871
17734THY    HP726933   8.470   1.988   5.977 -2.0235  1.6259  0.9668
17734THY    CA326934   8.672   2.083   5.797  0.3179  0.0951  0.4580
17734THY    HA326935   8.566   2.059   5.799  0.2543 -2.2382  0.3855
17734THY    CA426936   8.722   2.151   5.683 -0.0733 -0.2513 -0.8046
17734THY    HA426937   8.655   2.167   5.599 -3.3481  2.3834  0.4690
17734THY    CA526938   8.857   2.188   5.687  0.3033  0.0517  0.3398
17734THY    CM126939   8.912   2.253   5.567 -0.3680 -0.2247  0.5366
17734THY    HM126940   8.918   2.358   5.597 -0.2128  4.5536 -0.6139
17734THY    HM226941   8.846   2.251   5.480 -1.9936  0.9188  1.8351
17734THY    HM326942   9.009   2.214   5.534  0.9840  3.9726 -0.1936
17734THY    CA626943   8.944   2.152   5.791  0.1515  0.1462 -0.2386
17734THY    HA626944   9.047   2.186   5.797 -0.3718  0.9981  1.3224
17735THY      O26945   6.145   8.951   7.089  0.0644 -0.6257 -0.1354
17735THY     HO26946   6.238   8.951   7.062  1.0251  2.0385  2.9809
17735THY    CA126947   6.084   8.852   7.024 -0.3275  0.1004 -0.9298
17735THY    CA226948   5.990   8.762   7.075 -0.5229  0.1934 -1.2299
17735THY    CP126949   5.925   8.797   7.207  0.0836  0.0296 -0.4319
17735THY    HP126950   5.965   8.886   7.256  0.9876  0.7392 -1.2051
17735THY    CP226951   5.937   8.688   7.304 -0.3060 -0.2106 -0.4247
17735THY    HP226952   5.928   8.590   7.254 -1.1322  1.0110 -0.9993
17735THY    HP326953   5.878   8.699   7.396  2.0804  1.1397  2.4721
17735THY    HP426954   6.041   8.700   7.334 -0.3277 -0.8151  1.6900
17735THY    CP326955   5.775   8.829   7.178  0.0108  0.6769  0.5044
17735THY    HP526956   5.755   8.902   7.098 -1.5756  1.6437  1.1952
17735THY    HP626957   5.732   8.863   7.273  1.1912  1.2460  0.4636
17735THY    HP726958   5.723   8.737   7.148 -0.7705  0.1183  1.1196
17735THY    CA326959   5.929   8.663   7.001  0.1569  0.0954 -0.0714
17735THY    HA326960   5.859   8.598   7.052  1.0223  3.1475  1.2266
17735THY    CA426961   5.967   8.643   6.867  0.9899  0.4980 -0.0723
17735THY    HA426962   5.926   8.561   6.809  0.4565  0.0819  0.4825
17735THY    CA526963   6.071   8.722   6.816 -0.3123 -0.3422  0.1060
17735THY    CM126964   6.109   8.691   6.681 -0.8276  0.7657  0.4333
17735THY    HM126965   6.032   8.712   6.606  2.4422 -3.4600 -1.3430
17735THY    HM226966   6.128   8.584   6.672  0.9907  3.0775  0.4757
17735THY    HM326967   6.198   8.742   6.642  0.5585  0.2996 -2.1662
17735THY    CA626968   6.134   8.822   6.892 -0.1423 -0.2601  0.2926
17735THY    HA626969   6.219   8.873   6.847  1.3174  0.8077 -1.1002
17736THY      O26970   5.254   1.803   3.213 -0.7215  0.0412 -0.1059
17736THY     HO26971   5.345   1.768   3.217 -0.2543 -0.7024  0.9660
17736THY    CA126972   5.265   1.906   3.127 -0.4053  0.4297  0.3101
17736THY    CA226973   5.249   2.037   3.169  0.8073 -0.8491 -0.6524
17736THY    CP126974   5.211   2.076   3.314  0.3821  0.1048  0.1873
17736THY    HP126975   5.174   1.991   3.372  1.6923  1.2313  0.3444
17736THY    CP226976   5.086   2.165   3.313  0.2405  0.2405 -0.3117
17736THY    HP226977   4.999   2.115   3.267 -1.5204  0.7089  2.1568
17736THY    HP326978   5.107   2.259   3.261 -0.5168 -0.6858 -0.6376
17736THY    HP426979   5.053   2.198   3.412  0.6787  1.3696 -2.9722
17736THY    CP326980   5.316   2.140   3.395 -0.7557 -0.5782  0.3997
17736THY    HP526981   5.301   2.149   3.503 -2.8644 -0.7729 -0.2687
17736THY    HP626982   5.332   2.239   3.352 -1.4329  0.2579  0.8839
17736THY    HP726983   5.411   2.087   3.380 -0.9478  1.6800 -0.6953
17736THY    CA326984   5.257   2.136   3.071 -0.2149  0.8072 -0.0585
17736THY    HA326985   5.243   2.241   3.094 -3.1746 -2.4600  0.4636
17736THY    CA426986   5.266   2.100   2.935 -0.0491 -0.2528  0.7073
17736THY    HA426987   5.276   2.175   2.857 -0.1871 -1.0207 -0.0592
17736THY    CA526988   5.276   1.960   2.902  0.1780  0.2028  0.5986
17736THY    CM126989   5.307   1.912   2.763  0.4700 -0.3618 -0.0768
17736THY    HM126990   5.258   1.815   2.746 -3.1413  1.0735  1.3229
17736THY    HM226991   5.415   1.915   2.744  0.7187  0.9619  0.2137
17736THY    HM326992   5.250   1.983   2.702 -1.1998  0.4877 -0.6218
17736THY    CA626993   5.278   1.863   2.999  0.1537 -1.0665  0.4781
17736THY    HA626994   5.269   1.758   2.970  0.5432  2.3473 -0.5961
17737THY      O26995   1.643   5.908   6.595 -0.1779  0.3679  0.0934
17737THY     HO26996   1.664   5.854   6.517 -2.9087 -1.2178  1.0839
17737THY    CA126997   1.605   6.029   6.549 -1.0095  0.3210  1.1664
17737THY    CA226998   1.568   6.128   6.633 -0.3606 -0.3427 -0.2614
17737THY    CP126999   1.549   6.115   6.782 -0.6482 -0.8534  0.3452
17737THY    HP127000   1.590   6.017   6.808 -0.1221 -1.2107  0.4633
17737THY    CP227001   1.411   6.120   6.833 -0.0427  0.4985  0.3424
17737THY    HP227002   1.358   6.204   6.786 -0.2397  0.8233  0.4029
17737THY    HP327003   1.407   6.120   6.943 -0.1674  0.5265 -1.4347
17737THY    HP427004   1.357   6.034   6.791 -1.3151  2.1349  0.2795
17737THY    CP327005   1.650   6.208   6.857  0.2215  0.1506  0.2854
17737THY    HP527006   1.673   6.176   6.959  0.3256 -0.6873 -2.5472
17737THY    HP627007   1.615   6.312   6.863  1.1344  1.8325  0.5279
17737THY    HP727008   1.747   6.209   6.808  0.0612 -0.1854  1.5012
17737THY    CA327009   1.535   6.254   6.583 -0.2171  0.3578 -0.2391
17737THY    HA327010   1.502   6.338   6.643  0.3736  2.9900 -1.7752
17737THY    CA427011   1.529   6.267   6.447 -0.0919  0.1704  0.3179
17737THY    HA427012   1.508   6.363   6.401 -3.5025  1.5619  0.3479
17737THY    CA527013   1.550   6.161   6.360 -0.0783  0.1902 -0.7554
17737THY    CM127014   1.534   6.179   6.212 -0.7382  0.2819 -0.1208
17737THY    HM127015   1.611   6.248   6.177  2.2387 -1.5941 -4.0229
17737THY    HM227016   1.432   6.219   6.198  0.2911  1.1676  3.1031
17737THY    HM327017   1.545   6.083   6.160 -1.6459  2.2386 -1.3484
17737THY    CA627018   1.605   6.048   6.412  0.0244 -0.1796 -0.3617
17737THY    HA627019   1.633   5.968   6.344  2.8630  0.5547 -0.1105
17738THY      O27020   5.174   6.789   5.736  0.7278 -0.2942  0.0255
17738THY     HO27021   5.146   6.877   5.766 -1.4499 -3.2289  0.4839
17738THY    CA127022   5.102   6.700   5.797 -0.0813  0.2432 -0.0541
17738THY    CA227023   5.125   6.560   5.794  0.3618  0.5673  0.9636
17738THY    CP127024   5.256   6.503   5.741  0.2432  0.3718  0.8010
17738THY    HP127025   5.305   6.575   5.675 -2.4648 -1.4974  1.0736
17738THY    CP227026   5.249   6.368   5.669  0.0585 -0.1961  0.7332
17738THY    HP227027   5.153   6.342   5.622 -0.6753  1.3244  0.5530
17738THY    HP327028   5.273   6.287   5.740 -1.5382 -0.7196 -0.2508
17738THY    HP427029   5.326   6.350   5.594 -0.6853 -0.2468 -3.1061
17738THY    CP327030   5.343   6.492   5.865  0.9373 -0.2466  0.7963
17738THY    HP527031   5.288   6.437   5.942 -2.4150 -1.4033  2.2678
17738THY    HP627032   5.355   6.592   5.905  3.5272 -0.7569  0.7570
17738THY    HP727033   5.440   6.441   5.852  0.9072  2.0158  0.0748
17738THY    CA327034   5.033   6.468   5.853 -0.2146 -0.4112  0.1196
17738THY    HA327035   5.056   6.363   5.863 -0.9801  0.3198  0.0047
17738THY    CA427036   4.915   6.523   5.913  0.5138  0.3161  0.8712
17738THY    HA427037   4.854   6.452   5.968 -0.8322 -2.3443 -0.1820
17738THY    CA527038   4.884   6.658   5.902  0.0089  0.5408 -0.6344
17738THY    CM127039   4.758   6.704   5.967  0.2280 -0.1583  0.0864
17738THY    HM127040   4.766   6.694   6.076  1.3850 -0.2178  0.1852
17738THY    HM227041   4.671   6.645   5.937 -0.0315  1.7584 -0.5975
17738THY    HM327042   4.733   6.807   5.939  0.2520 -0.8325 -0.0893
17738THY    CA627043   4.977   6.747   5.838  0.2192  0.7012  0.5482
17738THY    HA627044   4.944   6.851   5.834 -2.1976 -1.8759 -0.1940
17739THY      O27045   8.774   1.407   5.706 -0.2044 -0.3029 -0.0723
17739THY     HO27046   8.804   1.443   5.621  0.5721 -0.3884 -0.9003
17739THY    CA127047   8.779   1.274   5.676 -0.1205  0.4635 -0.2315
17739THY    CA227048   8.730   1.177   5.774 -0.1016 -0.4222  0.0417
17739THY    CP127049   8.685   1.223   5.913  0.1444  0.5359 -0.4876
17739THY    HP127050   8.676   1.332   5.925 -1.1253 -0.2309 -0.4943
17739THY    CP227051   8.786   1.173   6.023  0.3915 -0.4336  0.1493
17739THY    HP227052   8.886   1.214   6.002  0.3306 -3.4756 -0.9829
17739THY    HP327053   8.794   1.064   6.019  0.8135 -1.6431  0.2072
17739THY    HP427054   8.757   1.187   6.128  0.1822 -0.3306 -0.9602
17739THY    CP327055   8.540   1.175   5.943  0.4511 -0.0194 -0.2736
17739THY    HP527056   8.529   1.066   5.937 -2.2801 -1.5957 -0.0041
17739THY    HP627057   8.473   1.220   5.869 -1.7604  3.2226  2.3329
17739THY    HP727058   8.502   1.217   6.037 -0.5973 -0.2763 -0.6208
17739THY    CA327059   8.735   1.042   5.744 -0.0122 -0.3569 -0.3252
17739THY    HA327060   8.699   0.970   5.818 -1.1703  0.5684  1.1268
17739THY    CA427061   8.784   0.997   5.616 -0.2551  0.3337 -0.1390
17739THY    HA427062   8.789   0.893   5.588 -1.4655 -2.2216  0.3971
17739THY    CA527063   8.827   1.092   5.525  0.5338  0.2743  0.0174
17739THY    CM127064   8.866   1.057   5.384  0.8149  0.4951 -0.2098
17739THY    HM127065   8.817   0.963   5.356 -1.2907  0.5700  0.8035
17739THY    HM227066   8.973   1.057   5.360  0.5083 -0.9793 -1.0095
17739THY    HM327067   8.819   1.122   5.309  1.1885 -0.8372 -1.4182
17739THY    CA627068   8.829   1.229   5.556  0.7462  0.5771  0.3689
17739THY    HA627069   8.847   1.297   5.473 -0.3172 -0.2047 -0.2686
17740THY      O27070   8.916   5.752   4.239  0.1232  0.0001 -0.3533
17740THY     HO27071   8.979   5.801   4.184  0.2158  2.6920  2.9187
17740THY    CA127072   8.800   5.825   4.231 -0.1390 -0.1995  0.5422
17740THY    CA227073   8.681   5.775   4.280  1.6073 -0.4395 -0.0104
17740THY    CP127074   8.671   5.652   4.373  0.2782  0.3942 -0.4580
17740THY    HP127075   8.773   5.615   4.388  1.6854 -0.7550  2.6204
17740THY    CP227076   8.588   5.539   4.309  0.0684  0.1757  0.4547
17740THY    HP227077   8.481   5.561   4.309  0.2958 -0.9486  1.6577
17740THY    HP327078   8.619   5.444   4.355  1.4466 -0.3928  0.6019
17740THY    HP427079   8.611   5.533   4.202 -2.5589 -0.5896  2.5737
17740THY    CP327080   8.615   5.686   4.512 -0.0313  0.8118  0.6314
17740THY    HP527081   8.529   5.754   4.519 -0.4319 -2.8613  0.6924
17740THY    HP627082   8.702   5.728   4.563 -0.3955  2.4801 -0.5253
17740THY    HP727083   8.589   5.595   4.568 -0.5258 -1.6613 -0.8377
17740THY    CA327084   8.567   5.853   4.250  0.6025 -0.6935 -0.5276
17740THY    HA327085   8.472   5.821   4.291  0.5811 -0.9114 -0.7399
17740THY    CA427086   8.578   5.982   4.186  0.2626 -0.3928 -0.0593
17740THY    HA427087   8.492   6.049   4.182  0.3521  0.5490  0.1317
17740THY    CA527088   8.700   6.023   4.134 -0.4507 -1.2700 -0.0092
17740THY    CM127089   8.708   6.153   4.056  0.6050  0.5179 -0.0162
17740THY    HM127090   8.735   6.130   3.952  1.7313  0.7772  0.0732
17740THY    HM227091   8.790   6.211   4.100 -0.2683 -0.6758  2.2273
17740THY    HM327092   8.616   6.212   4.056  1.7052 -1.0078  1.8058
17740THY    CA627093   8.813   5.943   4.155  0.7428  0.0216  0.2368
17740THY    HA627094   8.912   5.970   4.119  0.4149 -3.0079 -2.0114
17741THY      O27095   4.447   1.247   4.508 -0.2325  0.2019  0.0788
17741THY     HO27096   4.539   1.255   4.539 -0.1446  0.2968 -1.0451
17741THY    CA127097   4.438   1.310   4.387 -0.0363 -0.8189 -0.2735
17741THY    CA227098   4.336   1.279   4.292  0.3898  0.1937 -0.0124
17741THY    CP127099   4.240   1.162   4.316  0.8019  0.4378  0.2464
17741THY    HP127100   4.250   1.135   4.422  1.7212 -0.5435 -3.9918
17741THY    CP227101   4.282   1.047   4.228  0.3383  0.4591  0.3944
17741THY    HP227102   4.267   1.084   4.126 -0.5656  1.6137  3.4494
17741THY    HP327103   4.212   0.963   4.231 -1.7565 -1.5400  1.9463
17741THY    HP427104   4.382   1.011   4.255  0.0561  2.0723  0.7551
17741THY    CP327105   4.087   1.199   4.300  0.2859  0.2528  0.1416
17741THY    HP527106   4.065   1.226   4.196  1.5927  0.6634  3.1908
17741THY    HP627107   4.065   1.293   4.351 -2.8563 -1.2135  0.3324
17741THY    HP727108   4.020   1.125   4.344 -0.5202  1.4808  1.5547
17741THY    CA327109   4.331   1.349   4.169 -0.3806 -0.1331 -0.4098
17741THY    HA327110   4.254   1.316   4.100 -0.1262 -0.9301  0.5887
17741THY    CA427111   4.416   1.461   4.148 -0.1619  0.6223  0.7942
17741THY    HA427112   4.413   1.515   4.054  0.9154 -0.2303 -0.5530
17741THY    CA527113   4.513   1.491   4.249  0.2596  0.2939 -0.0787
17741THY    CM127114   4.611   1.608   4.237 -0.2515  0.0805  0.0730
17741THY    HM127115   4.551   1.699   4.244  1.2300  1.7731  0.9891
17741THY    HM227116   4.648   1.610   4.134  2.5833  0.9760 -0.8607
17741THY    HM327117   4.694   1.613   4.308 -0.4609  0.6852 -3.2128
17741THY    CA627118   4.525   1.420   4.368  0.9826 -0.0228 -0.5970
17741THY    HA627119   4.596   1.453   4.444 -0.5844  1.8266 -1.2744
17742THY      O27120   8.859   3.871   7.627  0.2188 -0.0505  0.4314
17742THY     HO27121   8.776   3.885   7.579  1.3550 -1.5549  2.8354
17742THY    CA127122   8.943   3.826   7.522  1.0021 -0.2503  0.2496
17742THY    CA227123   9.056   3.744   7.537  0.1084 -0.3642  0.2558
17742THY    CP127124   9.089   3.684   7.667 -0.6554 -0.2946 -1.2752
17742THY    HP127125   9.008   3.711   7.736  0.5753  1.0982 -1.0040
17742THY    CP227126   9.213   3.745   7.730 -0.0342  0.3412  0.2716
17742THY    HP227127   9.303   3.707   7.680 -1.5127 -1.4713 -0.9973
17742THY    HP327128   9.223   3.719   7.836 -0.9987  0.4733  0.3894
17742THY    HP427129   9.210   3.855   7.739  0.4550  0.8500  0.2525
17742THY    CP327130   9.103   3.534   7.680 -0.7062  0.0580 -0.1224
17742THY    HP527131   9.095   3.503   7.785 -1.3754  0.3034  0.8608
17742THY    HP627132   9.197   3.502   7.633 -1.4077 -0.5075 -1.4580
17742THY    HP727133   9.026   3.486   7.619  0.5593 -2.4088  0.7869
17742THY    CA327134   9.124   3.709   7.421  0.0135 -0.1295 -0.5845
17742THY    HA327135   9.188   3.622   7.430 -1.0835  0.1228 -1.3746
17742THY    CA427136   9.091   3.765   7.295  0.0209 -0.4825 -0.0924
17742THY    HA427137   9.149   3.738   7.207 -0.6234 -1.1987  0.7884
17742THY    CA527138   8.980   3.840   7.285  0.4467  0.2312  0.5451
17742THY    CM127139   8.933   3.888   7.155 -0.2889  0.9695 -1.2479
17742THY    HM127140   8.828   3.861   7.139 -0.4316  1.4245 -0.9596
17742THY    HM227141   8.994   3.841   7.076  1.0880  1.6159 -0.5937
17742THY    HM327142   8.941   3.997   7.149 -2.0014  1.8543 -1.0416
17742THY    CA627143   8.906   3.867   7.397  0.2592 -0.1798 -0.3052
17742THY    HA627144   8.828   3.942   7.385  1.5060 -1.5528  0.8197
17743THY      O27145   8.210   2.026   1.876  0.3793 -0.0436 -0.3611
17743THY     HO27146   8.238   2.119   1.884  0.0378 -0.4157 -0.2244
17743THY    CA127147   8.231   1.971   2.001  0.6126 -0.2420  0.1752
17743THY    CA227148   8.163   1.860   2.058  0.5398 -0.5779  0.3437
17743THY    CP127149   8.058   1.779   1.979 -0.5645  0.1486  0.1755
17743THY    HP127150   8.055   1.818   1.877  3.4980  0.2455  1.1634
17743THY    CP227151   7.915   1.791   2.048 -0.1226  0.6210  0.2786
17743THY    HP227152   7.829   1.759   1.989  1.1732 -0.7751 -0.7471
17743THY    HP327153   7.902   1.899   2.065 -3.2632  1.5470 -0.1472
17743THY    HP427154   7.912   1.749   2.149 -1.1181 -0.9032 -3.7450
17743THY    CP327155   8.113   1.638   1.949  0.3279 -0.4331  0.1258
17743THY    HP527156   8.116   1.569   2.034  0.6953 -0.2886  0.3197
17743THY    HP627157   8.216   1.637   1.910  0.6165  0.0562 -3.2459
17743THY    HP727158   8.042   1.587   1.883 -0.6125  0.3642  0.3756
17743THY    CA327159   8.196   1.807   2.187 -0.2268  0.5205  0.1386
17743THY    HA327160   8.156   1.711   2.218 -0.3465  1.4570  0.4839
17743THY    CA427161   8.290   1.878   2.264 -0.6001  1.2179 -0.6133
17743THY    HA427162   8.317   1.836   2.361 -1.3549  0.3277 -3.3457
17743THY    CA527163   8.365   1.981   2.208 -0.1356 -0.1537  1.1744
17743THY    CM127164   8.475   2.044   2.292  0.1914 -0.4935  0.2842
17743THY    HM127165   8.435   2.059   2.392  3.4676  0.8424  1.0819
17743THY    HM227166   8.498   2.146   2.259  1.4918 -1.5366 -0.3100
17743THY    HM327167   8.563   1.979   2.295  0.1386 -2.0570  0.1020
17743THY    CA627168   8.335   2.023   2.080 -0.8960 -0.0230 -0.6637
17743THY    HA627169   8.385   2.110   2.038 -1.1167 -1.1557 -1.0676
17744THY      O27170   3.595   8.386   2.641  0.4815  0.0762 -0.2334
17744THY     HO27171   3.639   8.413   2.558 -1.3943 -1.0535 -0.4129
17744THY    CA127172   3.598   8.493   2.727  0.2829 -0.5986 -0.2104
17744THY    CA227173   3.495   8.509   2.820  1.8847 -0.5443 -0.0636
17744THY    CP127174   3.378   8.407   2.851 -0.1577  0.4639 -0.3895
17744THY    HP127175   3.369   8.347   2.760 -1.9516  1.5524 -1.8341
17744THY    CP227176   3.243   8.475   2.882 -0.2226  0.0303  0.0241
17744THY    HP227177   3.206   8.526   2.793 -0.9337 -0.7658 -1.7932
17744THY    HP327178   3.246   8.538   2.972  0.5785 -0.4079  0.6247
17744THY    HP427179   3.175   8.391   2.899 -0.8437 -1.7037  0.1401
17744THY    CP327180   3.412   8.326   2.974  0.6940  0.7038  0.5264
17744THY    HP527181   3.498   8.261   2.954  0.1537 -0.4974  0.1520
17744THY    HP627182   3.330   8.262   3.008  0.4517 -0.1978  0.3343
17744THY    HP727183   3.447   8.400   3.047  2.1783  0.6544 -0.0802
17744THY    CA327184   3.500   8.622   2.900  0.1025 -0.0783  0.1131
17744THY    HA327185   3.430   8.629   2.982  1.6171  1.5044 -2.0402
17744THY    CA427186   3.589   8.723   2.887 -0.5422 -0.6551 -0.0670
17744THY    HA427187   3.588   8.810   2.952  1.5838 -2.0650  1.1173
17744THY    CA527188   3.683   8.711   2.785 -0.5104 -0.3186 -0.1521
17744THY    CM127189   3.792   8.813   2.756 -0.2641 -0.4432 -0.1733
17744THY    HM127190   3.894   8.774   2.752  2.0047 -0.8029  5.1018
17744THY    HM227191   3.786   8.896   2.827  2.8003 -0.5983  0.2777
17744THY    HM327192   3.780   8.843   2.651 -3.0420 -0.4866 -1.0677
17744THY    CA627193   3.696   8.587   2.713  0.0930  0.5071  0.1872
17744THY    HA627194   3.772   8.578   2.636  1.3556  1.6044  1.0788
17745THY      O27195   1.638   1.456   5.321  0.7371 -1.1464 -0.4437
17745THY     HO27196   1.597   1.541   5.346 -0.6641  1.6902 -1.7889
17745THY    CA127197   1.648   1.385   5.440  0.3468  0.1120 -0.5448
17745THY    CA227198   1.632   1.245   5.442  0.3242 -0.4441 -0.0365
17745THY    CP127199   1.603   1.171   5.309 -0.9615 -0.0985 -0.0867
17745THY    HP127200   1.597   1.235   5.221  2.1423  0.3743  0.9946
17745THY    CP227201   1.470   1.103   5.320 -0.6980  0.5908  0.9108
17745THY    HP227202   1.389   1.177   5.324 -0.5426 -0.6227  1.1537
17745THY    HP327203   1.463   1.033   5.405 -0.8569  0.0177  0.2166
17745THY    HP427204   1.458   1.061   5.219  1.5801  0.1008  1.3503
17745THY    CP327205   1.703   1.066   5.282 -0.0444  0.5728  0.6372
17745THY    HP527206   1.680   0.980   5.346 -0.5606 -0.0339  0.3125
17745THY    HP627207   1.811   1.080   5.297  0.7123 -1.0101 -2.4289
17745THY    HP727208   1.696   1.019   5.183  0.2650  1.4280 -1.3294
17745THY    CA327209   1.652   1.176   5.564 -0.0613  0.1364  0.2832
17745THY    HA327210   1.664   1.069   5.567  1.0975 -0.2442  0.3858
17745THY    CA427211   1.679   1.251   5.678  0.2331 -0.4257  0.2032
17745THY    HA427212   1.690   1.198   5.772 -1.3104 -0.6247 -0.5312
17745THY    CA527213   1.708   1.391   5.677 -0.1953  0.4159 -0.0838
17745THY    CM127214   1.771   1.457   5.796 -0.5494 -0.6588  0.0657
17745THY    HM127215   1.705   1.475   5.881  0.9136  1.1352 -2.4818
17745THY    HM227216   1.823   1.551   5.773  1.6927  2.3604 -0.2770
17745THY    HM327217   1.841   1.385   5.840 -2.9409 -1.1693 -2.7166
17745THY    CA627218   1.691   1.461   5.554  0.2656  0.2684  0.0950
17745THY    HA627219   1.712   1.566   5.539  0.5766  0.1762  0.0187
17746THY      O27220   7.629   7.450   3.704  0.2830 -0.1328  0.1958
17746THY     HO27221   7.578   7.443   3.622 -0.6101  0.5238 -2.6432
17746THY    CA127222   7.699   7.334   3.721  0.2393  0.1465 -0.3314
17746THY    CA227223   7.813   7.320   3.809 -0.5972  0.3735  0.1291
17746THY    CP127224   7.859   7.441   3.891 -0.0626 -0.2421  0.1228
17746THY    HP127225   7.824   7.530   3.836  3.0695 -0.3761  1.3760
17746THY    CP227226   8.011   7.465   3.891 -0.0420 -0.0150  0.3721
17746THY    HP227227   8.051   7.384   3.954 -1.9613 -1.5635 -1.9369
17746THY    HP327228   8.043   7.566   3.919 -0.9891 -1.4503  1.1024
17746THY    HP427229   8.054   7.443   3.793  1.9654  0.8054  0.4379
17746THY    CP327230   7.813   7.437   4.032  0.4820 -0.2957 -0.0032
17746THY    HP527231   7.876   7.383   4.104  1.9834  0.2489  2.3319
17746THY    HP627232   7.706   7.413   4.030  0.5951 -4.3629 -0.8988
17746THY    HP727233   7.828   7.538   4.072  0.4035 -0.6892  0.1652
17746THY    CA327234   7.882   7.200   3.819 -0.4110  0.3396  0.5361
17746THY    HA327235   7.976   7.197   3.873 -1.5017  2.3203 -2.8185
17746THY    CA427236   7.845   7.093   3.734 -0.0065  0.6597  0.5193
17746THY    HA427237   7.897   6.997   3.733 -0.9196 -3.6351 -0.1305
17746THY    CA527238   7.726   7.106   3.657  0.4031 -1.1099  0.0362
17746THY    CM127239   7.681   6.999   3.564  0.4721  0.1851 -0.4549
17746THY    HM127240   7.741   6.909   3.582 -0.2659 -0.5063 -1.0997
17746THY    HM227241   7.690   7.025   3.458 -0.8837  0.5441  1.7564
17746THY    HM327242   7.578   6.972   3.592 -0.0453 -0.5307  0.6701
17746THY    CA627243   7.656   7.227   3.658  0.1113  0.2355  0.6153
17746THY    HA627244   7.562   7.236   3.605  0.5065 -0.9762 -1.5940
17747THY      O27245   1.477   5.455   3.913  0.0627  0.2271  0.4073
17747THY     HO27246   1.489   5.504   3.830 -1.1798 -0.3663 -0.2583
17747THY    CA127247   1.541   5.339   3.875  0.3449  0.1546 -0.3270
17747THY    CA227248   1.491   5.209   3.900 -0.1955  0.9694  0.1743
17747THY    CP127249   1.382   5.190   3.998  0.2150  0.2416 -0.0462
17747THY    HP127250   1.374   5.281   4.058 -0.2222  2.5744 -1.5278
17747THY    CP227251   1.409   5.072   4.093 -0.1315  0.6093  0.5563
17747THY    HP227252   1.324   5.074   4.162  1.1440  2.2307  2.1169
17747THY    HP327253   1.497   5.092   4.155 -0.0589  0.4677  0.6835
17747THY    HP427254   1.425   4.976   4.042  2.1835 -0.4843  1.4399
17747THY    CP327255   1.253   5.165   3.932  0.1908  0.6001 -0.4787
17747THY    HP527256   1.241   5.209   3.832 -0.9792  0.2424 -1.5408
17747THY    HP627257   1.173   5.201   3.998  1.2231  1.6220  0.0064
17747THY    HP727258   1.226   5.059   3.921 -0.2099 -0.1892 -0.3000
17747THY    CA327259   1.555   5.098   3.839  0.1028 -0.3263  0.0065
17747THY    HA327260   1.512   5.000   3.860 -2.1822 -1.6523  0.6418
17747THY    CA427261   1.663   5.117   3.755 -0.5847  0.3294  0.7672
17747THY    HA427262   1.716   5.038   3.703  0.2796  0.3032  1.3489
17747THY    CA527263   1.717   5.244   3.734  0.2372  0.0509 -0.0193
17747THY    CM127264   1.843   5.254   3.656  0.8263 -0.7182  0.3495
17747THY    HM127265   1.898   5.165   3.623  1.6422 -2.4758  1.4528
17747THY    HM227266   1.913   5.317   3.712 -0.6181 -0.5059  1.8072
17747THY    HM327267   1.815   5.307   3.564 -0.0756  0.1488  1.4209
17747THY    CA627268   1.659   5.351   3.794 -0.7132  0.1904 -0.5989
17747THY    HA627269   1.703   5.447   3.768  1.0274  0.9732 -1.1436
17748THY      O27270   0.593   2.182   3.650  0.1318 -0.1835  0.3084
17748THY     HO27271   0.550   2.264   3.620 -0.4546 -1.3703 -0.4063
17748THY    CA127272   0.659   2.127   3.548 -0.1275  0.3768  0.2077
17748THY    CA227273   0.741   2.013   3.561  0.1524  0.0276 -0.5099
17748THY    CP127274   0.766   1.947   3.700 -0.1551 -0.1775  0.6860
17748THY    HP127275   0.731   2.011   3.781  0.1725  0.7507 -0.2847
17748THY    CP227276   0.914   1.934   3.718 -0.3039 -0.0155 -0.5480
17748THY    HP227277   0.965   2.028   3.699  1.5302  0.7959 -1.3417
17748THY    HP327278   0.973   1.864   3.657  0.8385  2.7578 -2.1652
17748THY    HP427279   0.931   1.919   3.825  0.1665 -0.2058 -1.4613
17748THY    CP327280   0.692   1.811   3.714  0.0630  0.2165  0.0746
17748THY    HP527281   0.701   1.756   3.808  1.8948  1.1213  1.7715
17748THY    HP627282   0.732   1.744   3.636  0.2487  0.4518 -0.0899
17748THY    HP727283   0.587   1.841   3.710  0.2313  0.8414  0.7569
17748THY    CA327284   0.808   1.962   3.449 -0.2094  0.0180 -0.2103
17748THY    HA327285   0.872   1.874   3.457  0.9491  0.5919  0.6528
17748THY    CA427286   0.791   2.025   3.326 -0.2580 -0.2136  0.1022
17748THY    HA427287   0.824   1.974   3.236 -1.7243  0.2103 -1.7125
17748THY    CA527288   0.708   2.137   3.314 -0.0539 -0.2522  0.6030
17748THY    CM127289   0.661   2.180   3.184  0.4087  1.0819 -0.2112
17748THY    HM127290   0.599   2.106   3.133  0.8800 -1.2276  0.9134
17748THY    HM227291   0.740   2.198   3.110 -0.5267 -0.5136 -2.2747
17748THY    HM327292   0.603   2.272   3.193  2.2958 -0.1509  1.1637
17748THY    CA627293   0.645   2.195   3.426  0.3194 -0.2940  0.7611
17748THY    HA627294   0.569   2.272   3.417 -0.7505 -1.1531 -0.3564
17749THY      O27295   7.623   9.162   7.335  0.7656  0.6045  0.4298
17749THY     HO27296   7.678   9.147   7.256 -0.4910 -0.2508  0.0820
17749THY    CA127297   7.496   9.134   7.291 -0.3307 -0.6577 -0.1237
17749THY    CA227298   7.390   9.179   7.362  0.4679  0.5882  0.0251
17749THY    CP127299   7.399   9.246   7.496 -0.1567 -0.9530 -0.0726
17749THY    HP127300   7.500   9.262   7.533 -0.4700 -0.9032  2.2167
17749THY    CP227301   7.330   9.161   7.598 -0.2021  0.1167 -0.3342
17749THY    HP227302   7.226   9.136   7.576 -1.2467  1.6076  2.3075
17749THY    HP327303   7.311   9.220   7.688  1.1793  0.3606 -0.2287
17749THY    HP427304   7.402   9.091   7.643  0.2091  2.3561  1.4102
17749THY    CP327305   7.344   9.393   7.491  0.3212 -0.3035  0.2264
17749THY    HP527306   7.314   9.427   7.591  0.2921  0.4526 -1.8958
17749THY    HP627307   7.266   9.394   7.414  0.4792 -0.4979  2.3070
17749THY    HP727308   7.434   9.449   7.462 -0.6375 -0.2249  1.8752
17749THY    CA327309   7.266   9.140   7.307  0.1992 -0.5013 -0.4419
17749THY    HA327310   7.169   9.165   7.348 -0.9436 -2.2522 -1.7432
17749THY    CA427311   7.254   9.061   7.199  0.3443  0.1359 -0.4915
17749THY    HA427312   7.152   9.038   7.169  0.2023 -0.9016  1.2608
17749THY    CA527313   7.361   9.023   7.125  0.4295 -0.0820  0.1620
17749THY    CM127314   7.331   8.952   6.996 -0.0100  0.1130  0.8120
17749THY    HM127315   7.279   8.860   7.026  0.0324  1.5651  1.2302
17749THY    HM227316   7.421   8.917   6.946 -0.1470  0.4627 -0.0796
17749THY    HM327317   7.269   9.002   6.921 -0.4877 -0.6027 -0.7623
17749THY    CA627318   7.488   9.064   7.168 -0.9569 -0.0150  0.3663
17749THY    HA627319   7.580   9.036   7.118 -0.2009  1.5187 -0.0248
17750THY      O27320   5.207   8.515   5.674 -0.0132  0.4560 -0.2232
17750THY     HO27321   5.213   8.510   5.577  0.1125  0.3972  0.8135
17750THY    CA127322   5.299   8.423   5.713  0.2869  0.0683 -0.0610
17750THY    CA227323   5.362   8.444   5.835 -0.7384 -0.2816 -0.5515
17750THY    CP127324   5.324   8.558   5.932  0.1241  0.1108  0.6486
17750THY    HP127325   5.218   8.583   5.919 -0.8761  0.0354 -3.1346
17750THY    CP227326   5.403   8.685   5.893  0.7429  0.5245  0.1141
17750THY    HP227327   5.402   8.701   5.785 -0.9645  0.3230 -1.1161
17750THY    HP327328   5.506   8.681   5.929  0.9784 -0.2245 -1.2053
17750THY    HP427329   5.340   8.768   5.928 -0.2133 -1.9425  0.5082
17750THY    CP327330   5.334   8.528   6.085 -0.5886 -0.0130 -0.8195
17750THY    HP527331   5.268   8.581   6.155  0.8376  0.7830 -0.0429
17750THY    HP627332   5.432   8.560   6.120 -0.8778 -0.7249  0.9499
17750THY    HP727333   5.318   8.420   6.094 -2.5098  2.2062 -0.4350
17750THY    CA327334   5.470   8.357   5.871  0.2279 -0.0491 -0.4965
17750THY    HA327335   5.526   8.367   5.963  2.4244 -1.4546  0.9207
17750THY    CA427336   5.496   8.251   5.785  0.2747 -0.3434 -0.2684
17750THY    HA427337   5.584   8.200   5.824 -0.3740  3.0904  0.9800
17750THY    CA527338   5.439   8.236   5.655 -0.1715  0.0697 -0.9320
17750THY    CM127339   5.474   8.122   5.557 -0.3695  0.7887 -0.1863
17750THY    HM127340   5.449   8.164   5.460 -0.8127  1.0909  0.2548
17750THY    HM227341   5.403   8.041   5.576  1.4930  0.6897 -1.9475
17750THY    HM327342   5.576   8.082   5.553 -1.1955  0.1450 -2.3757
17750THY    CA627343   5.343   8.329   5.619 -0.6787  0.4234 -0.0417
17750THY    HA627344   5.281   8.312   5.531 -2.8441  2.0997 -1.5070
17751THY      O27345   6.774   1.909   2.134  0.3484  0.2696  0.0680
17751THY     HO27346   6.814   1.852   2.067  0.0547 -2.4212  2.7339
17751THY    CA127347   6.643   1.905   2.103 -0.9285 -0.2984 -0.2674
17751THY    CA227348   6.538   1.898   2.202  0.4612  0.2438 -0.2170
17751THY    CP127349   6.563   1.916   2.348 -0.6430  0.2717  0.2977
17751THY    HP127350   6.670   1.933   2.363 -0.5971 -0.3104  0.5359
17751THY    CP227351   6.545   1.792   2.434 -0.2162 -0.1393  0.6207
17751THY    HP227352   6.562   1.826   2.536  2.2236 -0.8798  1.8445
17751THY    HP327353   6.611   1.706   2.416 -2.0946 -0.9030 -0.7405
17751THY    HP427354   6.441   1.756   2.424  0.5443 -1.4434 -1.3981
17751THY    CP327355   6.486   2.031   2.410  0.6863  0.0637  0.2995
17751THY    HP527356   6.517   2.054   2.512 -1.3766  1.5599 -2.9114
17751THY    HP627357   6.377   2.027   2.400  0.8846 -2.3243 -1.3171
17751THY    HP727358   6.508   2.124   2.355 -0.5986  0.8177  1.0752
17751THY    CA327359   6.408   1.860   2.155 -0.3237 -0.1263  0.3324
17751THY    HA327360   6.324   1.861   2.223 -0.3404 -0.1125 -1.0516
17751THY    CA427361   6.386   1.840   2.019 -0.1462  0.2797  0.2434
17751THY    HA427362   6.287   1.808   1.989  0.2783 -0.3639 -0.5050
17751THY    CA527363   6.491   1.860   1.928 -0.7307  0.0642 -0.2995
17751THY    CM127364   6.481   1.825   1.784 -0.0691  0.0845 -0.5537
17751THY    HM127365   6.384   1.790   1.746 -0.7135  0.4127  0.8203
17751THY    HM227366   6.557   1.748   1.761  2.1175  1.7688  0.9792
17751THY    HM327367   6.503   1.913   1.723 -0.5155  0.8578  0.1035
17751THY    CA627368   6.617   1.875   1.974  0.0807  0.0557  0.0893
17751THY    HA627369   6.700   1.876   1.904 -0.8585 -1.1290 -1.0929
17752THY      O27370   4.834   4.666   2.725  0.1498  0.1065  0.3086
17752THY     HO27371   4.930   4.684   2.727  0.2288  1.3022 -0.1558
17752THY    CA127372   4.810   4.597   2.838 -0.1727  0.0887 -0.7274
17752THY    CA227373   4.677   4.593   2.902 -0.0615 -0.0755 -0.3962
17752THY    CP127374   4.552   4.664   2.841  0.0481 -0.7897 -0.2425
17752THY    HP127375   4.578   4.687   2.736 -1.0758 -1.3096 -1.2446
17752THY    CP227376   4.531   4.796   2.899  0.7828  0.5793 -0.2758
17752THY    HP227377   4.620   4.860   2.893 -1.4773  0.8161  3.1794
17752THY    HP327378   4.503   4.776   3.004  0.3882  1.0468  2.3428
17752THY    HP427379   4.443   4.847   2.859 -1.0721  1.0194 -2.9112
17752THY    CP327380   4.430   4.572   2.846  0.2402 -0.0611 -0.1242
17752THY    HP527381   4.410   4.548   2.952  2.3199  0.6721  1.0889
17752THY    HP627382   4.446   4.480   2.790  0.3702 -2.9872  1.5527
17752THY    HP727383   4.343   4.618   2.797  1.7436 -2.1287  0.6417
17752THY    CA327384   4.669   4.512   3.019 -0.1829 -1.1928 -0.0511
17752THY    HA327385   4.577   4.500   3.075 -0.0363 -1.2866 -2.1031
17752THY    CA427386   4.783   4.439   3.060 -0.0877  0.1655  0.1863
17752THY    HA427387   4.765   4.361   3.134 -3.6116 -1.7156 -1.0488
17752THY    CA527388   4.908   4.450   2.995  0.3590  0.2190  0.2579
17752THY    CM127389   5.015   4.359   3.043 -0.2108  0.0110  0.5410
17752THY    HM127390   4.984   4.277   3.109  1.1449 -1.7674 -1.5417
17752THY    HM227391   5.074   4.425   3.107 -1.3154  0.0370  1.5363
17752THY    HM327392   5.073   4.319   2.958 -0.6363  0.8703 -2.1058
17752THY    CA627393   4.922   4.534   2.888 -0.5942 -0.1587 -0.0664
17752THY    HA627394   5.018   4.555   2.844 -0.8393 -0.2546  0.8650
17753THY      O27395   4.723   6.229   5.822  0.0978  0.0129  0.4314
17753THY     HO27396   4.707   6.285   5.745 -0.5990  0.2531  0.5691
17753THY    CA127397   4.796   6.126   5.783 -0.2138  0.1212 -0.0302
17753THY    CA227398   4.884   6.064   5.876 -0.3275 -0.3291  0.5464
17753THY    CP127399   4.871   6.104   6.024  0.2169  0.3078  0.4313
17753THY    HP127400   4.861   6.213   6.025 -0.1602  0.4438  0.3962
17753THY    CP227401   4.993   6.079   6.114 -0.5203  0.2981 -0.3686
17753THY    HP227402   5.084   6.122   6.071 -1.2199  0.5910  1.4803
17753THY    HP327403   5.006   5.975   6.146  0.6333  0.7374 -0.0955
17753THY    HP427404   4.983   6.147   6.199  1.0460 -0.3580  0.7403
17753THY    CP327405   4.750   6.043   6.086 -0.4094 -0.2712  0.2947
17753THY    HP527406   4.732   6.071   6.191  0.6634  0.3531 -1.2099
17753THY    HP627407   4.753   5.933   6.081 -2.2807  0.6812  0.1518
17753THY    HP727408   4.658   6.067   6.031 -1.5965 -0.5341 -3.9655
17753THY    CA327409   4.977   5.959   5.833 -0.1301 -0.8430  0.2643
17753THY    HA327410   5.045   5.907   5.899 -1.3542 -0.1211 -0.4949
17753THY    CA427411   4.978   5.934   5.698 -0.3745 -0.4783  0.3386
17753THY    HA427412   5.055   5.866   5.662 -0.0775 -0.1710  0.5099
17753THY    CA527413   4.893   6.001   5.608  0.2269 -0.5538 -0.6303
17753THY    CM127414   4.894   5.960   5.462 -0.7420 -0.7708  0.6275
17753THY    HM127415   4.877   5.853   5.446 -0.7026  1.0240  0.3322
17753THY    HM227416   4.987   5.984   5.410  1.0945  0.0538 -3.7142
17753THY    HM327417   4.816   6.012   5.404 -0.6938 -0.2811  1.2615
17753THY    CA627418   4.803   6.097   5.657 -0.7008 -0.0957 -0.4405
17753THY    HA627419   4.739   6.143   5.582 -0.8941 -0.5804 -1.4448
17754THY      O27420   7.509   0.092   3.889  0.2841 -0.1446  0.6949
17754THY     HO27421   7.434   0.052   3.937 -0.7407 -2.4760 -0.3637
17754THY    CA127422   7.453   0.207   3.871  0.0473  0.8211 -0.7198
17754THY    CA227423   7.527   0.327   3.854 -0.3263  0.4505  0.4099
17754THY    CP127424   7.680   0.333   3.861  0.4161 -0.6480  0.9684
17754THY    HP127425   7.719   0.232   3.877 -3.2572 -0.7610 -0.6464
17754THY    CP227426   7.733   0.423   3.970 -0.1562 -0.4298 -0.2227
17754THY    HP227427   7.695   0.391   4.069  0.4805 -0.1493 -0.1151
17754THY    HP327428   7.703   0.526   3.951 -1.0794  0.8187 -0.2364
17754THY    HP427429   7.842   0.418   3.977 -0.0853 -1.6165 -0.6393
17754THY    CP327430   7.746   0.384   3.738 -0.1098  0.2685  0.1256
17754THY    HP527431   7.715   0.328   3.649 -0.9608  0.5732  0.0951
17754THY    HP627432   7.848   0.347   3.756 -0.3576  1.7198  0.0904
17754THY    HP727433   7.741   0.491   3.713 -2.2769  1.2572  0.3022
17754THY    CA327434   7.456   0.445   3.829 -0.8032 -0.0284  0.5909
17754THY    HA327435   7.509   0.535   3.800  0.0009 -0.9739 -0.1600
17754THY    CA427436   7.321   0.446   3.841 -0.2398  0.2048  0.4192
17754THY    HA427437   7.262   0.535   3.822 -0.4106 -0.1188  0.2384
17754THY    CA527438   7.244   0.334   3.863  0.8305  0.1593 -0.0792
17754THY    CM127439   7.092   0.344   3.870 -0.5783  0.4501  0.1298
17754THY    HM127440   7.058   0.423   3.938 -4.8909 -0.7941 -0.3707
17754THY    HM227441   7.059   0.246   3.908  1.1669  2.8132  0.3642
17754THY    HM327442   7.055   0.350   3.767 -1.3937  0.5842 -1.7886
17754THY    CA627443   7.313   0.214   3.877 -0.0796 -0.3581 -0.7443
17754THY    HA627444   7.242   0.134   3.896 -1.2457  1.0857  0.5497
17755THY      O27445   2.909   8.765   3.956  0.8472 -0.4621 -0.7115
17755THY     HO27446   2.891   8.786   4.050  4.3871 -0.2063  1.9864
17755THY    CA127447   3.026   8.691   3.952  0.3849 -0.0544 -0.0978
17755THY    CA227448   3.097   8.668   3.828  0.2425  0.5267 -0.1844
17755THY    CP127449   3.059   8.736   3.699 -0.2475  0.8439 -0.6855
17755THY    HP127450   2.961   8.784   3.712 -0.7420 -2.2671 -0.6095
17755THY    CP227451   3.031   8.645   3.583  0.2738 -0.0953  0.3200
17755THY    HP227452   2.924   8.621   3.583  0.4952 -0.9659 -0.8094
17755THY    HP327453   3.070   8.543   3.596  2.1151  0.9305  1.1194
17755THY    HP427454   3.066   8.697   3.492  2.7625  1.1302  0.9425
17755THY    CP327455   3.170   8.840   3.646  0.2478 -0.0957  0.0597
17755THY    HP527456   3.252   8.781   3.605 -0.6504 -0.6813 -0.8174
17755THY    HP627457   3.209   8.891   3.735 -1.5704 -0.1170  1.6157
17755THY    HP727458   3.132   8.912   3.573  0.4168 -1.1225 -0.8593
17755THY    CA327459   3.209   8.583   3.824 -0.0544  0.1513 -0.0638
17755THY    HA327460   3.267   8.571   3.733 -0.7394 -0.1404 -1.2835
17755THY    CA427461   3.258   8.526   3.939  0.7154 -0.8726 -0.2434
17755THY    HA427462   3.353   8.475   3.944 -0.1474  1.3107 -1.7616
17755THY    CA527463   3.175   8.529   4.050  0.2788  0.5803 -0.5637
17755THY    CM127464   3.209   8.439   4.168 -0.0515 -0.0478 -0.6782
17755THY    HM127465   3.121   8.433   4.234  0.2673  0.3592 -0.8938
17755THY    HM227466   3.291   8.488   4.221  1.4074 -2.9097  0.2046
17755THY    HM327467   3.242   8.337   4.147 -1.7881 -1.2367 -1.0583
17755THY    CA627468   3.060   8.612   4.059 -1.4509  0.4364  0.7478
17755THY    HA627469   2.996   8.618   4.147 -1.6626  0.3717 -0.2648
17756THY      O27470   6.614   1.204   7.619 -0.4511  0.3101 -0.5275
17756THY     HO27471   6.701   1.224   7.579 -0.0096  0.9797 -1.0851
17756THY    CA127472   6.528   1.275   7.544  0.0767  0.0020 -0.4780
17756THY    CA227473   6.394   1.264   7.555 -0.6947 -0.0414  0.4316
17756THY    CP127474   6.334   1.169   7.664  0.2672 -0.2326  0.4929
17756THY    HP127475   6.403   1.101   7.714 -0.3995  1.3683  0.9537
17756THY    CP227476   6.222   1.074   7.603 -0.2553 -0.5028  0.3375
17756THY    HP227477   6.152   1.131   7.541 -0.2539 -2.0520 -1.2783
17756THY    HP327478   6.176   1.011   7.680 -0.5341 -3.1933 -3.0346
17756THY    HP427479   6.267   0.994   7.544 -0.2896  0.9677 -0.8238
17756THY    CP327480   6.273   1.251   7.779 -0.2631 -0.7808  0.0031
17756THY    HP527481   6.335   1.326   7.830 -1.2792 -0.4934  0.6630
17756THY    HP627482   6.234   1.196   7.865 -2.4588 -1.5306  0.2770
17756THY    HP727483   6.192   1.304   7.729 -0.7272  0.2293  0.2662
17756THY    CA327484   6.310   1.343   7.476  0.1934  0.1554 -0.0580
17756THY    HA327485   6.202   1.341   7.482 -0.0477 -0.7494  3.4870
17756THY    CA427486   6.365   1.430   7.377 -0.1839 -0.6313  0.6929
17756THY    HA427487   6.307   1.503   7.321 -0.6546 -1.9913 -0.6678
17756THY    CA527488   6.509   1.436   7.364  0.7052 -0.4532 -0.0007
17756THY    CM127489   6.576   1.528   7.268  0.5657 -0.4207 -1.1926
17756THY    HM127490   6.546   1.495   7.168  1.5746 -0.8102 -0.9670
17756THY    HM227491   6.685   1.533   7.274  0.9019 -3.3275 -2.6178
17756THY    HM327492   6.524   1.623   7.278 -0.6079 -0.1078 -1.8479
17756THY    CA627493   6.589   1.354   7.441 -0.0143 -0.2368 -1.0263
17756THY    HA627494   6.696   1.371   7.440 -0.0897  2.9153  0.1829
17757THY      O27495   4.133   2.278   2.469 -0.0627 -0.7709  0.2741
17757THY     HO27496   4.157   2.371   2.486 -0.3682  0.9995  0.0648
17757THY    CA127497   4.122   2.266   2.336 -0.2404  0.0183  0.2276
17757THY    CA227498   4.146   2.143   2.274 -0.2699 -0.2887 -0.1407
17757THY    CP127499   4.211   2.024   2.343  0.8030 -0.1995  0.3629
17757THY    HP127500   4.179   2.019   2.447  0.4577 -0.3834 -2.1669
17757THY    CP227501   4.366   2.025   2.347 -0.1087  0.3172 -0.1321
17757THY    HP227502   4.402   2.125   2.372 -4.1512  3.0993  0.8958
17757THY    HP327503   4.404   1.995   2.249  0.6947  0.0774  1.5737
17757THY    HP427504   4.416   1.959   2.419  2.7604 -0.3413  1.2123
17757THY    CP327505   4.146   1.890   2.290  0.2832  0.5835  0.0534
17757THY    HP527506   4.038   1.899   2.305  0.4742  1.2493  1.8306
17757THY    HP627507   4.187   1.801   2.338  1.0044 -1.7039 -0.9157
17757THY    HP727508   4.155   1.870   2.183 -1.6911 -0.0666  2.1970
17757THY    CA327509   4.141   2.142   2.133 -0.1605 -0.5515 -0.4324
17757THY    HA327510   4.164   2.047   2.085  1.1655 -0.5836 -0.1126
17757THY    CA427511   4.103   2.254   2.055 -0.3495  0.0021 -0.5929
17757THY    HA427512   4.097   2.248   1.947  1.1412 -0.0514 -1.3868
17757THY    CA527513   4.071   2.371   2.121  0.1981 -0.2146 -0.4883
17757THY    CM127514   4.039   2.499   2.051 -0.1056  0.5046 -0.6336
17757THY    HM127515   3.934   2.510   2.023 -0.1621  0.7521 -0.5048
17757THY    HM227516   4.090   2.526   1.958 -2.1278 -0.3465  0.5120
17757THY    HM327517   4.067   2.583   2.116  0.3471 -1.5815  0.9146
17757THY    CA627518   4.088   2.381   2.262 -0.2970  0.0324 -0.2089
17757THY    HA627519   4.063   2.473   2.315 -0.0267  1.5928 -1.0025
17758THY      O27520   6.839   5.920   3.400 -0.4552  0.6913  0.6539
17758THY     HO27521   6.757   5.870   3.394 -0.8397  0.6708  1.2732
17758THY    CA127522   6.841   5.989   3.280 -0.0017 -0.4010 -0.2126
17758THY    CA227523   6.950   6.033   3.211  0.0217 -0.7322 -0.4703
17758THY    CP127524   7.089   6.010   3.259  0.1565 -0.4783 -0.1108
17758THY    HP127525   7.078   5.990   3.366 -2.4059 -0.8763 -1.3225
17758THY    CP227526   7.183   6.131   3.248  0.2459  0.5702 -0.2940
17758THY    HP227527   7.148   6.212   3.313 -2.9555 -1.4005  0.1099
17758THY    HP327528   7.213   6.169   3.150  1.1178  1.1951  0.6915
17758THY    HP427529   7.279   6.107   3.295  0.7890 -0.5015 -0.2661
17758THY    CP327530   7.160   5.890   3.193  0.2860 -0.4424  0.7074
17758THY    HP527531   7.092   5.807   3.169  0.9879 -1.9990  0.5486
17758THY    HP627532   7.233   5.848   3.264 -1.5686  1.5066  0.5962
17758THY    HP727533   7.208   5.927   3.102  0.4627 -0.6593 -0.0505
17758THY    CA327534   6.932   6.121   3.098  0.9828  0.6474 -0.1927
17758THY    HA327535   7.015   6.169   3.047  0.1765 -0.7501 -0.2452
17758THY    CA427536   6.798   6.150   3.061  0.2398  0.2649  0.5512
17758THY    HA427537   6.781   6.228   2.986 -0.3194  0.3724  0.5360
17758THY    CA527538   6.688   6.089   3.121 -0.1804 -0.0689 -1.1080
17758THY    CM127539   6.546   6.128   3.080  0.2219 -0.3595  0.1744
17758THY    HM127540   6.508   6.102   2.980 -2.4818  0.7457 -0.4332
17758THY    HM227541   6.540   6.237   3.088 -0.9150  0.6475  0.0529
17758THY    HM327542   6.478   6.087   3.155 -0.3147 -0.7718  0.3005
17758THY    CA627543   6.709   6.009   3.229  0.3244 -0.8325  0.3084
17758THY    HA627544   6.626   5.960   3.278  0.9659 -1.5746 -1.5963
17759THY      O27545   2.906   3.383   2.593  0.3142 -0.5664 -0.3179
17759THY     HO27546   2.946   3.343   2.514  1.8463 -0.8259  1.5781
17759THY    CA127547   2.771   3.392   2.573 -0.2890 -0.1756  0.4351
17759THY    CA227548   2.682   3.421   2.673 -0.7746  0.3387 -0.4724
17759THY    CP127549   2.730   3.439   2.819  0.0511 -0.7569  0.5312
17759THY    HP127550   2.838   3.427   2.833 -0.2595  0.4275 -1.2972
17759THY    CP227551   2.689   3.315   2.891 -0.0790  0.3786  0.3820
17759THY    HP227552   2.723   3.304   2.995 -3.0859  1.4100 -0.0948
17759THY    HP327553   2.731   3.227   2.841 -0.3650 -1.1156  1.0672
17759THY    HP427554   2.581   3.297   2.890 -0.0317  0.8118  0.0749
17759THY    CP327555   2.678   3.566   2.888 -0.3327  0.1180  0.8319
17759THY    HP527556   2.723   3.655   2.841 -1.6656 -0.4173  1.2463
17759THY    HP627557   2.705   3.569   2.994 -1.8724  0.5291  0.9588
17759THY    HP727558   2.569   3.572   2.884 -0.6212  0.0013 -2.6201
17759THY    CA327559   2.544   3.438   2.643  0.2056 -0.1599  0.6194
17759THY    HA327560   2.481   3.474   2.724  1.7546  2.3039 -1.7955
17759THY    CA427561   2.499   3.412   2.517  0.8960 -0.3256 -0.7430
17759THY    HA427562   2.397   3.437   2.488 -0.2591  2.1190 -2.2454
17759THY    CA527563   2.590   3.370   2.419 -0.5601  0.1582  0.4144
17759THY    CM127564   2.538   3.333   2.283  1.0666 -0.2830 -0.1008
17759THY    HM127565   2.624   3.327   2.215  1.1975 -0.1584  0.3265
17759THY    HM227566   2.482   3.423   2.254 -0.2900  1.4603 -0.3278
17759THY    HM327567   2.474   3.244   2.281  0.6370  2.7351  0.0219
17759THY    CA627568   2.726   3.366   2.446  0.4212  0.0185 -0.9187
17759THY    HA627569   2.795   3.354   2.363  1.4227  1.0555 -2.7330
17760THY      O27570   2.422   4.967   5.617  0.1792  0.2344 -0.3728
17760THY     HO27571   2.381   4.911   5.685 -0.8664 -0.4628 -0.4764
17760THY    CA127572   2.402   4.895   5.506 -0.2026  0.2623 -0.0064
17760THY    CA227573   2.469   4.941   5.384  0.0525 -0.3318 -0.0505
17760THY    CP127574   2.563   5.067   5.386 -0.2449  0.6871 -0.1190
17760THY    HP127575   2.610   5.069   5.485 -0.3422  0.7349 -0.2000
17760THY    CP227576   2.478   5.191   5.394 -0.4838  0.2014 -0.7885
17760THY    HP227577   2.536   5.283   5.389  0.9628  0.2788 -1.6611
17760THY    HP327578   2.422   5.189   5.488 -1.8551 -0.5593  0.2608
17760THY    HP427579   2.404   5.190   5.313 -1.9234  1.4494 -2.5295
17760THY    CP327580   2.674   5.064   5.283  0.4251  0.8912 -0.6926
17760THY    HP527581   2.753   5.138   5.299 -0.6036 -0.7940  0.8540
17760THY    HP627582   2.622   5.084   5.188  0.9102  1.1372  2.2394
17760THY    HP727583   2.725   4.968   5.287  0.0377 -0.8767 -1.0061
17760THY    CA327584   2.437   4.867   5.266  0.0763 -0.2883 -0.5115
17760THY    HA327585   2.482   4.902   5.173 -0.5549  0.1845  1.6987
17760THY    CA427586   2.339   4.762   5.269  0.0628  0.0720 -0.2597
17760THY    HA427587   2.305   4.714   5.177  1.9797  0.4593 -2.5170
17760THY    CA527588   2.295   4.715   5.395  0.2097  0.0911 -0.3493
17760THY    CM127589   2.208   4.593   5.406 -0.3196  0.5196  0.7300
17760THY    HM127590   2.140   4.582   5.491  0.4649  1.2445  1.4175
17760THY    HM227591   2.269   4.503   5.402 -0.6897  0.0220  0.4907
17760THY    HM327592   2.137   4.599   5.322  0.2369 -0.0222 -0.1537
17760THY    CA627593   2.320   4.786   5.510  0.1640  0.2546 -0.6387
17760THY    HA627594   2.262   4.759   5.598 -2.2201 -0.3724  2.0528
17761THY      O27595   1.616   1.759   3.122 -0.2339 -0.0586  0.2489
17761THY     HO27596   1.536   1.737   3.171  0.1536 -0.0440 -1.1872
17761THY    CA127597   1.606   1.700   2.996 -0.2631 -0.2921 -0.6865
17761THY    CA227598   1.710   1.695   2.903 -0.2386  0.2988  0.4395
17761THY    CP127599   1.846   1.746   2.955  0.3460 -0.6915 -0.4089
17761THY    HP127600   1.827   1.820   3.034  2.2300 -1.1856  0.6708
17761THY    CP227601   1.922   1.830   2.847 -0.5997 -0.0705  0.1910
17761THY    HP227602   1.911   1.778   2.751  0.1248 -1.2330  2.0741
17761THY    HP327603   2.028   1.838   2.874 -0.6416  0.8767 -1.6904
17761THY    HP427604   1.872   1.926   2.829  2.9127 -1.9640  1.8616
17761THY    CP327605   1.933   1.636   3.026  0.2278  0.5107  0.4647
17761THY    HP527606   2.012   1.682   3.086  0.3725  0.8343 -0.1998
17761THY    HP627607   1.980   1.577   2.946  2.0905  1.0398  1.1661
17761THY    HP727608   1.877   1.574   3.096  1.3115 -0.2605 -1.4871
17761THY    CA327609   1.688   1.623   2.781  0.1675  0.2859 -0.5380
17761THY    HA327610   1.771   1.610   2.712 -0.9398 -1.1631 -0.1961
17761THY    CA427611   1.562   1.566   2.758 -0.0837  0.0809  0.0569
17761THY    HA427612   1.543   1.511   2.666 -0.6555 -0.8404  1.7177
17761THY    CA527613   1.452   1.590   2.840 -0.8880 -0.5125 -0.5882
17761THY    CM127614   1.324   1.542   2.809  0.2315 -0.1704 -0.7585
17761THY    HM127615   1.268   1.635   2.795  0.5685  0.2374 -0.4858
17761THY    HM227616   1.287   1.494   2.900  1.1141 -0.0326 -1.2061
17761THY    HM327617   1.318   1.479   2.719 -0.3593 -2.0483  1.8157
17761THY    CA627618   1.477   1.662   2.956  0.6297 -0.2648  1.1858
17761THY    HA627619   1.397   1.667   3.030  0.7154  0.3143 -2.9597
17762THY      O27620   6.659   8.588   5.878  0.4370 -0.1390 -0.3600
17762THY     HO27621   6.751   8.580   5.911  0.6383 -0.2486  1.1321
17762THY    CA127622   6.570   8.602   5.981 -0.1333 -0.4887  0.3670
17762THY    CA227623   6.435   8.546   5.985  0.1445 -0.7491  0.3355
17762THY    CP127624   6.374   8.490   5.861 -0.1547 -0.4816  0.4533
17762THY    HP127625   6.438   8.517   5.776  1.9094  0.0128 -2.4338
17762THY    CP227626   6.251   8.576   5.824  0.2247 -0.7056  0.0004
17762THY    HP227627   6.168   8.552   5.892  0.3739 -0.3665  0.4468
17762THY    HP327628   6.224   8.552   5.721 -1.5275 -0.3877  0.4261
17762THY    HP427629   6.283   8.680   5.830  1.2592 -0.9912 -0.2985
17762THY    CP327630   6.342   8.343   5.868 -0.2518 -0.3536 -0.0830
17762THY    HP527631   6.249   8.322   5.921  1.0381  2.3337  0.6231
17762THY    HP627632   6.434   8.302   5.912  0.5000 -1.1845  0.6506
17762THY    HP727633   6.329   8.299   5.768 -0.5427 -0.6596  0.6915
17762THY    CA327634   6.372   8.538   6.111  0.3931  0.1863  0.4706
17762THY    HA327635   6.279   8.484   6.126  1.2065  0.9179 -0.7785
17762THY    CA427636   6.442   8.585   6.226 -0.2510 -0.4912 -0.2229
17762THY    HA427637   6.423   8.545   6.325  0.9305  0.8517  2.2958
17762THY    CA527638   6.562   8.652   6.217 -0.2148  0.0723 -0.4553
17762THY    CM127639   6.623   8.712   6.340 -0.0667  0.4831  1.2243
17762THY    HM127640   6.651   8.631   6.409 -1.5585 -0.3518 -0.0703
17762THY    HM227641   6.570   8.785   6.402 -0.5269  0.4276  0.9442
17762THY    HM327642   6.715   8.765   6.313 -0.1627 -0.1781  1.0585
17762THY    CA627643   6.626   8.656   6.092  0.3628 -0.3058  0.2165
17762THY    HA627644   6.728   8.693   6.081 -0.2004 -1.6748  1.4361
17763THY      O27645   9.042   5.805   3.056 -0.0651  0.6003  0.0292
17763THY     HO27646   9.026   5.851   2.971 -0.5286 -0.1334 -1.4176
17763THY    CA127647   9.130   5.707   3.022 -1.2287 -0.9928  0.1798
17763THY    CA227648   9.168   5.606   3.111  0.5723 -0.2359 -0.3292
17763THY    CP127649   9.123   5.609   3.262 -0.0370 -0.0775  0.3600
17763THY    HP127650   9.109   5.713   3.292  1.2482  2.2147 -0.0691
17763THY    CP227651   9.224   5.564   3.358 -0.5497 -0.6537 -0.1554
17763THY    HP227652   9.217   5.615   3.455 -1.6147  0.4368 -2.2556
17763THY    HP327653   9.320   5.585   3.309  0.7100  0.7776 -2.1806
17763THY    HP427654   9.219   5.455   3.368 -0.1542  1.1086 -0.0394
17763THY    CP327655   8.991   5.526   3.289 -0.2879 -0.0738  0.0837
17763THY    HP527656   8.969   5.529   3.396  0.5247  0.1235 -0.6524
17763THY    HP627657   8.997   5.420   3.262 -3.5110  2.1538 -0.8099
17763THY    HP727658   8.916   5.577   3.228 -0.3762  2.0323  2.7295
17763THY    CA327659   9.255   5.505   3.067  0.5208 -0.3916 -0.1827
17763THY    HA327660   9.269   5.420   3.133 -1.2495  0.7466  0.3410
17763THY    CA427661   9.310   5.519   2.933 -0.4943 -0.3890  0.8670
17763THY    HA427662   9.386   5.447   2.904 -1.7213 -0.7204 -0.3479
17763THY    CA527663   9.280   5.625   2.856 -0.2379  0.3446 -0.2865
17763THY    CM127664   9.364   5.643   2.732  0.2798  0.2411  0.1858
17763THY    HM127665   9.460   5.693   2.750  2.4238 -2.8359 -2.3569
17763THY    HM227666   9.297   5.701   2.668  1.0768 -1.1583 -0.3684
17763THY    HM327667   9.387   5.544   2.691 -0.0380 -3.6936  1.5474
17763THY    CA627668   9.186   5.719   2.897  0.0590 -0.1323 -0.2712
17763THY    HA627669   9.163   5.806   2.836 -2.6966 -0.3314 -1.0577
17764THY      O27670   9.076   5.307   7.713 -0.3904  0.4862 -0.3855
17764THY     HO27671   9.173   5.316   7.705 -0.4749 -2.5709 -0.9634
17764THY    CA127672   9.050   5.192   7.659  0.4451  0.0700  0.2472
17764THY    CA227673   8.970   5.189   7.544  0.4926  0.1558  0.3149
17764THY    CP127674   8.923   5.318   7.474  0.0030  0.3406  0.0753
17764THY    HP127675   8.966   5.401   7.531 -0.6019 -0.0079  0.6252
17764THY    CP227676   8.768   5.342   7.468  0.4018 -0.0453 -0.3973
17764THY    HP227677   8.720   5.251   7.433 -1.2256 -0.9817  0.7694
17764THY    HP327678   8.740   5.433   7.414 -0.2266 -0.4820 -0.8449
17764THY    HP427679   8.735   5.340   7.573 -1.3158 -0.5741 -2.1401
17764THY    CP327680   8.991   5.341   7.338 -0.0643 -0.4559  0.2859
17764THY    HP527681   8.968   5.267   7.261  2.6255 -0.7394 -0.3433
17764THY    HP627682   9.100   5.344   7.350 -0.1857  1.1506 -0.2337
17764THY    HP727683   8.958   5.435   7.292 -2.1837 -1.3023 -0.7974
17764THY    CA327684   8.926   5.067   7.488 -0.4737 -0.1491 -0.4733
17764THY    HA327685   8.852   5.063   7.409 -1.6646  0.6791  2.4020
17764THY    CA427686   8.968   4.947   7.555  0.6998  0.0258 -0.4386
17764THY    HA427687   8.944   4.852   7.510 -0.0964  3.4140 -1.9995
17764THY    CA527688   9.061   4.958   7.664  0.9824 -0.0866  0.6211
17764THY    CM127689   9.121   4.831   7.722 -0.0563 -0.4871 -0.2625
17764THY    HM127690   9.064   4.802   7.811  1.1220  1.3781  2.7725
17764THY    HM227691   9.228   4.843   7.744 -0.2634 -0.0834  0.9267
17764THY    HM327692   9.120   4.743   7.656 -0.3396  0.1035 -0.7066
17764THY    CA627693   9.096   5.077   7.716  0.1380  0.3227 -0.2316
17764THY    HA627694   9.164   5.073   7.800  1.3919 -0.6867 -1.1290
17765THY      O27695   0.761   8.367   2.001  0.1341 -0.6216  0.5332
17765THY     HO27696   0.773   8.271   1.988 -0.9656  1.4987  0.0480
17765THY    CA127697   0.845   8.415   2.098  0.7573  0.5621  0.0312
17765THY    CA227698   0.853   8.552   2.129  0.0789  0.4240 -0.3767
17765THY    CP127699   0.772   8.651   2.050 -0.4689 -0.1161 -0.5865
17765THY    HP127700   0.693   8.598   1.996 -1.9441  0.8434  0.5515
17765THY    CP227701   0.852   8.729   1.946  0.0247  0.0044  0.6720
17765THY    HP227702   0.783   8.785   1.882  0.3190 -2.4433 -1.5724
17765THY    HP327703   0.909   8.660   1.882  1.4081  2.6202 -0.7627
17765THY    HP427704   0.928   8.797   1.988  0.0815  1.9292 -0.5035
17765THY    CP327705   0.691   8.748   2.130  0.0776  0.5425  0.3398
17765THY    HP527706   0.628   8.685   2.194  0.1405 -0.7072 -1.0593
17765THY    HP627707   0.626   8.809   2.065 -0.6363  0.6510 -0.2821
17765THY    HP727708   0.759   8.809   2.190  2.6210 -2.7840  1.0585
17765THY    CA327709   0.949   8.593   2.223  0.5871  0.1279  0.4418
17765THY    HA327710   0.962   8.701   2.233  2.4066 -3.3326  0.6865
17765THY    CA427711   1.030   8.497   2.283 -0.2689 -0.0387 -0.6084
17765THY    HA427712   1.085   8.542   2.366 -2.5898  0.5575  1.3255
17765THY    CA527713   1.020   8.362   2.251 -0.3809 -0.1471 -0.0138
17765THY    CM127714   1.101   8.264   2.328 -0.4073  0.4099  0.1685
17765THY    HM127715   1.159   8.208   2.253 -1.0356  0.3883 -0.4715
17765THY    HM227716   1.036   8.194   2.382 -1.0732  2.7371  2.4499
17765THY    HM327717   1.167   8.305   2.405  1.1216 -1.7056  1.9077
17765THY    CA627718   0.930   8.322   2.157 -0.5539  0.1269  0.1833
17765THY    HA627719   0.928   8.215   2.139  2.5503  0.0829  0.0356
17766THY      O27720   9.368   7.359   4.454  0.6057  0.3666 -0.4480
17766THY     HO27721   9.358   7.410   4.536 -2.1879  0.6427 -1.3021
17766THY    CA127722   9.239   7.325   4.418 -0.1956  0.3191 -0.4112
17766THY    CA227723   9.216   7.228   4.324 -0.7739 -0.8717  0.3154
17766THY    CP127724   9.336   7.149   4.261  0.7572  1.2528 -0.5133
17766THY    HP127725   9.430   7.188   4.300 -0.1698  1.5180  1.6044
17766THY    CP227726   9.327   7.175   4.106 -0.6668  0.2741 -0.3497
17766THY    HP227727   9.246   7.113   4.066 -0.4372 -2.7040  1.0969
17766THY    HP327728   9.425   7.147   4.063  0.2891  1.1483  1.5025
17766THY    HP427729   9.305   7.280   4.084 -2.8298  0.5862 -0.7041
17766THY    CP327730   9.325   7.004   4.296 -0.7374  0.1191  0.5342
17766THY    HP527731   9.339   7.006   4.405 -0.5510  0.0995  0.2937
17766THY    HP627732   9.418   6.966   4.251 -1.0011 -0.7166  0.8590
17766THY    HP727733   9.229   6.962   4.267 -0.5882 -0.2165  0.4194
17766THY    CA327734   9.082   7.183   4.297  0.1405  0.6052 -1.0265
17766THY    HA327735   9.060   7.109   4.221  1.2693  0.2369 -1.0011
17766THY    CA427736   8.972   7.236   4.362  0.7133 -0.6237  0.3747
17766THY    HA427737   8.872   7.201   4.338  0.9937 -0.7848 -0.3460
17766THY    CA527738   8.991   7.336   4.461 -0.7337 -0.0974 -0.9082
17766THY    CM127739   8.867   7.401   4.525  0.1765  0.2571  0.3512
17766THY    HM127740   8.889   7.422   4.630  1.8060 -0.0024  0.0346
17766THY    HM227741   8.784   7.329   4.523 -0.3222 -2.3374  0.9175
17766THY    HM327742   8.834   7.491   4.472 -0.4354  1.5704  0.9296
17766THY    CA627743   9.124   7.386   4.481 -0.6457  0.6030 -0.1870
17766THY    HA627744   9.140   7.462   4.558 -1.0525 -0.5390  1.1027
17767THY      O27745   9.077   4.954   3.407  0.3701  0.0168 -0.0766
17767THY     HO27746   9.117   4.876   3.367 -0.4523 -0.5993 -0.1837
17767THY    CA127747   9.065   4.915   3.540  1.1823  0.3403 -0.6513
17767THY    CA227748   9.041   5.010   3.653 -0.7110  0.1283 -0.2407
17767THY    CP127749   9.012   5.157   3.620 -0.7400 -0.3281 -0.1446
17767THY    HP127750   9.003   5.163   3.511  0.5136 -0.3777  1.5083
17767THY    CP227751   9.134   5.242   3.649  0.0560  0.4105  0.7693
17767THY    HP227752   9.218   5.203   3.591 -0.2304 -0.9870  2.1529
17767THY    HP327753   9.149   5.243   3.758 -0.6055  0.5131  0.4709
17767THY    HP427754   9.119   5.342   3.607 -2.4191 -0.0380  0.2738
17767THY    CP327755   8.887   5.198   3.692  0.6443 -0.2381  0.4574
17767THY    HP527756   8.908   5.227   3.796  1.6011 -0.1212 -0.6137
17767THY    HP627757   8.807   5.123   3.696  1.3769  0.5210 -0.3097
17767THY    HP727758   8.848   5.293   3.655 -0.0965  3.6429  1.8592
17767THY    CA327759   9.040   4.956   3.782 -0.0242 -0.2373  0.4003
17767THY    HA327760   9.039   5.029   3.863  1.5884 -0.3758  0.6238
17767THY    CA427761   9.047   4.815   3.805  0.7841  0.1735 -0.2079
17767THY    HA427762   9.040   4.766   3.902  0.5365  1.4590  2.2224
17767THY    CA527763   9.075   4.730   3.694  0.5193  0.2079  0.4647
17767THY    CM127764   9.089   4.572   3.714  0.8233 -0.4659 -0.2235
17767THY    HM127765   9.151   4.525   3.637  0.8788 -0.7188  0.2505
17767THY    HM227766   8.993   4.520   3.713  0.9287 -0.5675 -0.4163
17767THY    HM327767   9.147   4.563   3.807  0.8808 -0.4954 -0.1697
17767THY    CA627768   9.084   4.786   3.565  0.2021 -0.2233  0.7120
17767THY    HA627769   9.106   4.712   3.488 -1.8413  1.2539 -1.5761
17768THY      O27770   5.150   7.221   7.477  0.3146  0.5446  0.5872
17768THY     HO27771   5.089   7.223   7.553 -0.2873  0.1555 -1.1679
17768THY    CA127772   5.135   7.103   7.419  0.3450  0.3188  0.7016
17768THY    CA227773   5.182   7.079   7.288  0.4680  0.1138  0.4063
17768THY    CP127774   5.265   7.181   7.210 -0.1214 -0.2994  0.0752
17768THY    HP127775   5.317   7.252   7.276  0.7251 -1.6362  0.7538
17768THY    CP227776   5.181   7.272   7.112 -0.4933  0.5540 -0.6513
17768THY    HP227777   5.245   7.319   7.036  1.1442  2.4116  0.2773
17768THY    HP327778   5.118   7.344   7.164 -0.2314  1.6244 -1.1661
17768THY    HP427779   5.124   7.201   7.050 -0.5997  3.0546 -2.9124
17768THY    CP327780   5.375   7.104   7.150  0.3268  0.2086 -0.6229
17768THY    HP527781   5.443   7.184   7.116 -1.9653 -0.5745  1.1005
17768THY    HP627782   5.336   7.063   7.056 -0.0436  0.1283 -0.0929
17768THY    HP727783   5.424   7.031   7.216 -0.1937  0.4293 -0.7735
17768THY    CA327784   5.131   6.970   7.215  0.0649  0.6564  0.9897
17768THY    HA327785   5.163   6.947   7.114 -0.4022  0.4411  1.2795
17768THY    CA427786   5.057   6.871   7.282  0.4697 -0.9185 -0.1567
17768THY    HA427787   5.013   6.782   7.238 -0.9225 -0.3140  0.1997
17768THY    CA527788   5.022   6.886   7.416 -0.0955  0.7709 -0.0748
17768THY    CM127789   4.952   6.777   7.486  0.0373 -0.0006 -0.4253
17768THY    HM127790   5.024   6.727   7.551  1.4265 -1.0826  0.1234
17768THY    HM227791   4.911   6.701   7.419 -2.0170 -0.6437  1.1389
17768THY    HM327792   4.871   6.820   7.547  2.3020  1.4656  2.1352
17768THY    CA627793   5.046   7.008   7.476 -0.1108  0.4427 -0.2917
17768THY    HA627794   5.021   7.021   7.581 -0.7267  0.2833 -0.1237
17769THY      O27795   1.569   7.162   5.938  0.1440 -0.4006 -0.3577
17769THY     HO27796   1.544   7.087   5.882  0.4478 -1.2752  0.1858
17769THY    CA127797   1.563   7.120   6.067 -1.1683 -0.1665  0.4936
17769THY    CA227798   1.583   7.211   6.172  0.0914 -0.8383  0.0083
17769THY    CP127799   1.614   7.356   6.136  0.1615 -0.1524  0.1951
17769THY    HP127800   1.606   7.380   6.030 -0.1497 -0.0469  0.5786
17769THY    CP227801   1.760   7.403   6.175  0.6830 -0.0742  0.8020
17769THY    HP227802   1.785   7.505   6.145  0.5704  1.2887  1.2598
17769THY    HP327803   1.833   7.339   6.123  2.4767  3.1677 -0.0300
17769THY    HP427804   1.784   7.391   6.282  0.1911 -0.1085 -0.7079
17769THY    CP327805   1.510   7.454   6.204 -0.1341  1.1653 -0.1491
17769THY    HP527806   1.527   7.558   6.174  2.1061  1.2014 -0.4651
17769THY    HP627807   1.501   7.443   6.313 -0.3237  0.9783 -2.5311
17769THY    HP727808   1.409   7.433   6.167 -0.6202  0.8126  2.5573
17769THY    CA327809   1.571   7.155   6.303 -0.1450  0.1160 -0.5491
17769THY    HA327810   1.580   7.222   6.388  0.5680 -0.3694 -0.0049
17769THY    CA427811   1.527   7.027   6.323  0.3992  0.4434  0.1605
17769THY    HA427812   1.513   6.982   6.421 -1.3214 -0.5843 -1.7069
17769THY    CA527813   1.507   6.940   6.215  0.3405 -0.9390 -0.5965
17769THY    CM127814   1.452   6.801   6.241 -0.4709 -0.1805 -0.3381
17769THY    HM127815   1.383   6.806   6.326  0.2550  0.3614  1.3158
17769THY    HM227816   1.528   6.725   6.263 -1.3717  0.7875 -0.9756
17769THY    HM327817   1.383   6.771   6.162 -1.2901  0.0084  0.9690
17769THY    CA627818   1.529   6.985   6.087 -0.0689  0.2192 -0.4808
17769THY    HA627819   1.507   6.923   6.001  0.4732  1.4695 -2.4743
17770THY      O27820   1.922   7.990   5.844  0.0491 -0.1363 -0.6768
17770THY     HO27821   1.976   8.046   5.786 -0.5760 -0.4370 -0.3795
17770THY    CA127822   1.800   8.050   5.877 -0.9194  0.6042 -0.7526
17770THY    CA227823   1.704   7.984   5.961 -0.1718 -0.1113 -0.1962
17770THY    CP127824   1.732   7.851   6.023  0.3346 -0.2691  0.5620
17770THY    HP127825   1.828   7.816   5.982  0.9957  1.4813  0.2090
17770THY    CP227826   1.623   7.749   5.979  0.3533  0.3345 -0.7907
17770THY    HP227827   1.673   7.653   5.966 -0.3943 -1.6186 -0.9573
17770THY    HP327828   1.572   7.776   5.885  2.0096 -0.5447 -0.5532
17770THY    HP427829   1.541   7.748   6.051 -0.5085 -0.5775  0.7568
17770THY    CP327830   1.737   7.843   6.180 -0.0997  0.7604 -0.4654
17770THY    HP527831   1.640   7.849   6.231 -0.2438  0.5204 -0.7804
17770THY    HP627832   1.783   7.934   6.222  1.1270 -1.4920  0.0255
17770THY    HP727833   1.793   7.755   6.212 -0.1913 -0.5118 -1.0001
17770THY    CA327834   1.582   8.051   5.987  0.2063  0.0364 -0.4030
17770THY    HA327835   1.496   8.015   6.042  0.9902  1.7444  0.2102
17770THY    CA427836   1.556   8.170   5.914 -0.2789  0.0801  0.5118
17770THY    HA427837   1.464   8.223   5.935  0.5484 -0.6514  2.3120
17770THY    CA527838   1.645   8.225   5.820  0.5136  0.1175 -0.8018
17770THY    CM127839   1.621   8.351   5.735  0.5062  0.6437  0.3967
17770THY    HM127840   1.693   8.352   5.652 -0.9350 -0.7069 -1.4460
17770THY    HM227841   1.625   8.448   5.786  1.1540 -1.0119  1.2783
17770THY    HM327842   1.520   8.348   5.691 -0.1453  1.8328  2.5437
17770THY    CA627843   1.774   8.167   5.810  0.8283 -0.1166 -0.4867
17770THY    HA627844   1.841   8.205   5.733 -0.6909  0.3010  3.4189
17771THY      O27845   6.451   1.935   6.746  0.1234  0.2598 -0.3153
17771THY     HO27846   6.505   2.007   6.782  0.4393 -0.7958 -0.0135
17771THY    CA127847   6.524   1.832   6.700  0.6134  0.0358  0.0134
17771THY    CA227848   6.470   1.702   6.701  0.7727  0.4264 -0.1944
17771THY    CP127849   6.337   1.663   6.767  0.4894 -0.3870  0.3178
17771THY    HP127850   6.280   1.750   6.801  0.1608 -1.2502  0.4515
17771THY    CP227851   6.364   1.571   6.883  0.4172  0.4831  0.2980
17771THY    HP227852   6.278   1.552   6.949 -0.2658 -0.9367 -1.8666
17771THY    HP327853   6.447   1.621   6.935 -0.7397  1.5619  1.1440
17771THY    HP427854   6.405   1.475   6.849 -1.3480  0.1690 -0.3747
17771THY    CP327855   6.241   1.597   6.663 -0.3069 -0.7989 -1.3451
17771THY    HP527856   6.162   1.559   6.728  0.5619  0.0149 -1.8163
17771THY    HP627857   6.286   1.512   6.610 -0.9345 -2.4955 -0.6549
17771THY    HP727858   6.214   1.676   6.593  0.0478 -0.4521 -0.9096
17771THY    CA327859   6.545   1.593   6.640 -0.0031 -0.5696  0.1008
17771THY    HA327860   6.512   1.490   6.650 -1.0435  1.6360  0.5837
17771THY    CA427861   6.677   1.622   6.586  0.1658  0.4956 -0.2568
17771THY    HA427862   6.748   1.546   6.552 -0.3786  0.7748 -0.9045
17771THY    CA527863   6.717   1.756   6.574 -0.3004 -0.5043 -0.3934
17771THY    CM127864   6.834   1.791   6.494  0.2554 -0.2903 -0.3309
17771THY    HM127865   6.836   1.730   6.404 -1.4477 -1.7337  1.5905
17771THY    HM227866   6.927   1.776   6.551  0.1840 -0.2878 -0.7867
17771THY    HM327867   6.829   1.898   6.471 -0.9603  0.7452 -0.1332
17771THY    CA627868   6.644   1.858   6.633 -0.1919 -0.0484  0.7048
17771THY    HA627869   6.685   1.959   6.630 -0.7513 -0.5739  0.9214
17772THY      O27870   6.617   7.944   4.257  0.6837  0.6755  0.1793
17772THY     HO27871   6.545   7.934   4.192  0.5736  0.9360 -0.8127
17772THY    CA127872   6.548   8.013   4.357  0.0057  0.5464  0.2203
17772THY    CA227873   6.579   7.990   4.496 -0.1474 -0.0742 -0.6384
17772THY    CP127874   6.696   7.893   4.531 -0.2567 -0.1230 -0.0262
17772THY    HP127875   6.717   7.833   4.441 -0.6688 -1.9124  2.3302
17772THY    CP227876   6.687   7.782   4.645 -0.2798 -0.2879 -0.4134
17772THY    HP227877   6.663   7.821   4.745 -0.0775  0.1168 -1.3005
17772THY    HP327878   6.784   7.731   4.654 -1.2049 -2.7221 -2.7810
17772THY    HP427879   6.614   7.703   4.630  0.0774  1.5904 -1.1477
17772THY    CP327880   6.817   7.981   4.548 -0.5561 -0.0657 -0.6144
17772THY    HP527881   6.897   7.914   4.581  0.0154 -0.9991 -0.4075
17772THY    HP627882   6.802   8.059   4.624  0.0310 -1.1051  0.5323
17772THY    HP727883   6.848   8.031   4.456 -0.4524  0.6510  0.6806
17772THY    CA327884   6.510   8.067   4.596  0.7074 -0.7224  0.2903
17772THY    HA327885   6.534   8.053   4.701 -1.2401 -0.0395  1.6185
17772THY    CA427886   6.403   8.150   4.554  0.7917  0.6144  0.0676
17772THY    HA427887   6.332   8.177   4.633  1.5839  0.9069  1.4269
17772THY    CA527888   6.368   8.156   4.415  0.7887  0.0706 -0.0352
17772THY    CM127889   6.261   8.250   4.373 -0.7023  0.9665  0.7525
17772THY    HM127890   6.182   8.193   4.323  0.1877  0.0216  0.2993
17772THY    HM227891   6.300   8.334   4.314 -0.2215  2.1992  1.4163
17772THY    HM327892   6.219   8.302   4.459 -3.2331  1.6627 -2.2050
17772THY    CA627893   6.440   8.088   4.315 -0.4050 -0.4004  0.8322
17772THY    HA627894   6.422   8.093   4.208  0.6801 -0.6679 -0.4484
17773THY      O27895   6.645   6.514   4.390  0.7136  0.4647  0.1177
17773THY     HO27896   6.571   6.482   4.336  0.3542 -0.3921  2.2556
17773THY    CA127897   6.576   6.577   4.489  0.7271  0.0786  0.9143
17773THY    CA227898   6.605   6.696   4.553  0.5830  0.1822  0.2532
17773THY    CP127899   6.741   6.775   4.525 -0.5436 -0.6207  0.0017
17773THY    HP127900   6.773   6.735   4.428 -0.5318 -0.7661  0.3584
17773THY    CP227901   6.836   6.740   4.641 -0.0172  0.3986 -0.6988
17773THY    HP227902   6.930   6.796   4.639  0.0972 -2.6933 -0.8170
17773THY    HP327903   6.868   6.636   4.628  3.6701  1.7230  0.1276
17773THY    HP427904   6.773   6.757   4.729 -0.1779 -0.2249  2.5138
17773THY    CP327905   6.734   6.926   4.515  0.0061 -0.2853 -0.4789
17773THY    HP527906   6.669   6.974   4.590 -0.2626  0.1184 -1.4509
17773THY    HP627907   6.710   6.950   4.411 -0.4432  0.1199  0.9711
17773THY    HP727908   6.835   6.968   4.525 -1.3142 -0.5592  3.1257
17773THY    CA327909   6.509   6.755   4.642 -0.6734  0.7431 -0.4482
17773THY    HA327910   6.515   6.855   4.683 -1.3827  0.8718 -0.4510
17773THY    CA427911   6.383   6.696   4.650  0.2819 -0.3671 -0.5074
17773THY    HA427912   6.308   6.754   4.703 -1.4538 -2.4713 -0.6789
17773THY    CA527913   6.347   6.578   4.584 -1.5572 -0.0215 -0.8126
17773THY    CM127914   6.204   6.533   4.592 -0.4704 -0.3434 -0.3192
17773THY    HM127915   6.138   6.613   4.628  2.2654 -0.2546  2.0718
17773THY    HM227916   6.199   6.441   4.651 -1.8351 -0.2579 -0.2201
17773THY    HM327917   6.165   6.502   4.494  0.4557 -0.7135 -0.3402
17773THY    CA627918   6.447   6.520   4.503 -0.1973 -0.4141  0.4582
17773THY    HA627919   6.428   6.435   4.438 -1.4481 -2.4061  2.1687
17774THY      O27920   3.725   9.102   3.982  0.1113  0.3038  0.6773
17774THY     HO27921   3.809   9.147   3.959  0.5447  0.3719 -0.0732
17774THY    CA127922   3.640   9.129   3.883 -0.1702  0.3067 -0.4019
17774THY    CA227923   3.512   9.079   3.879 -0.6194 -0.1887 -0.1511
17774THY    CP127924   3.463   8.986   3.997  0.1244  0.7020 -0.2481
17774THY    HP127925   3.537   8.983   4.078 -0.1400  0.9596  0.0096
17774THY    CP227926   3.427   8.840   3.960 -0.4635  0.0935  0.8947
17774THY    HP227927   3.362   8.831   3.872  0.1834 -0.3596  0.6038
17774THY    HP327928   3.385   8.783   4.044  1.1164  1.3331  1.5048
17774THY    HP427929   3.522   8.790   3.939 -0.0534 -0.2498  1.8077
17774THY    CP327930   3.341   9.062   4.050 -1.1641 -0.2548  0.0118
17774THY    HP527931   3.343   9.031   4.155  2.4334 -0.0558  0.4744
17774THY    HP627932   3.242   9.036   4.011 -0.6266 -1.5357 -0.1505
17774THY    HP727933   3.359   9.170   4.041 -1.3682 -1.3074 -0.0352
17774THY    CA327934   3.427   9.111   3.774  0.2110  0.7553  0.1136
17774THY    HA327935   3.326   9.071   3.766  0.2882 -1.6638  0.2563
17774THY    CA427936   3.478   9.197   3.676 -0.3743 -0.1383  0.8336
17774THY    HA427937   3.414   9.243   3.602 -0.4368 -0.0618  0.8686
17774THY    CA527938   3.609   9.248   3.682 -0.3187  0.1272 -0.1805
17774THY    CM127939   3.659   9.336   3.576 -0.5744  0.0174  0.0244
17774THY    HM127940   3.766   9.355   3.584 -0.5680  0.2612 -0.1096
17774THY    HM227941   3.597   9.426   3.573  0.7240  1.3134  1.0042
17774THY    HM327942   3.652   9.282   3.480  1.7839  1.5502 -3.3721
17774THY    CA627943   3.690   9.211   3.780 -0.2917  0.0647  0.0957
17774THY    HA627944   3.792   9.245   3.796 -0.2528  4.2210 -1.3328
17775THY      O27945   2.128   1.858   5.629  0.0657 -0.0256  0.1265
17775THY     HO27946   2.071   1.797   5.579 -1.2569  0.8979  0.5489
17775THY    CA127947   2.045   1.931   5.707  0.0259 -0.5768  0.4602
17775THY    CA227948   2.094   2.050   5.773 -0.3107  0.3401 -0.2107
17775THY    CP127949   2.240   2.082   5.749  0.1513 -0.2289 -0.3568
17775THY    HP127950   2.282   2.030   5.662  1.2260 -0.4811  0.8633
17775THY    CP227951   2.328   2.050   5.869  0.4058  0.4103  0.0876
17775THY    HP227952   2.298   2.092   5.966  2.0236  0.0668  2.1536
17775THY    HP327953   2.431   2.078   5.845 -0.1243  0.6559  2.4512
17775THY    HP427954   2.327   1.940   5.873 -0.2969 -0.3858  0.0545
17775THY    CP327955   2.267   2.223   5.694  0.8150 -1.3907 -0.1791
17775THY    HP527956   2.197   2.249   5.614  2.0656 -2.2183  0.6945
17775THY    HP627957   2.369   2.235   5.656  0.9151 -0.6221  1.8171
17775THY    HP727958   2.242   2.297   5.771  0.4533 -1.4843 -0.1998
17775THY    CA327959   2.014   2.118   5.863 -0.3277 -0.0999  0.7612
17775THY    HA327960   2.059   2.192   5.929 -0.5924  1.0141 -0.0319
17775THY    CA427961   1.880   2.070   5.878  0.6931 -0.2086  0.5263
17775THY    HA427962   1.815   2.126   5.945 -1.2500 -0.9864 -0.6920
17775THY    CA527963   1.836   1.954   5.813 -0.1291  0.5159  0.2134
17775THY    CM127964   1.700   1.902   5.834  0.1127  0.2976  0.2433
17775THY    HM127965   1.626   1.979   5.862  0.4332 -2.4723  1.6669
17775THY    HM227966   1.703   1.830   5.917  3.5492 -2.0182 -2.5743
17775THY    HM327967   1.668   1.857   5.740  0.5140  1.0528 -1.7036
17775THY    CA627968   1.917   1.875   5.734  0.0937  0.6373 -0.1834
17775THY    HA627969   1.887   1.780   5.692  1.4656 -1.8123  0.3973
17776THY      O27970   8.914   8.569   6.850 -0.1902 -0.9414 -0.3793
17776THY     HO27971   8.861   8.592   6.772 -0.1871 -0.6114  0.8319
17776THY    CA127972   9.045   8.548   6.814  0.0816 -0.3218 -0.4277
17776THY    CA227973   9.141   8.510   6.911 -0.5643 -0.2021  0.2703
17776THY    CP127974   9.089   8.466   7.052  0.2836  0.2366 -0.6861
17776THY    HP127975   9.018   8.536   7.097  1.7596  1.0047  0.3736
17776THY    CP227976   9.201   8.467   7.157  0.6801  0.5115  0.0400
17776THY    HP227977   9.166   8.420   7.250  1.7654  0.9267  0.0264
17776THY    HP327978   9.235   8.570   7.174  0.1901 -1.8551  0.6544
17776THY    HP427979   9.288   8.411   7.121 -1.9458  0.0544 -4.1661
17776THY    CP327980   9.042   8.318   7.025  0.4662 -0.1212  0.4992
17776THY    HP527981   9.117   8.271   6.962  1.6753  0.7194  1.2369
17776THY    HP627982   8.954   8.320   6.959 -0.0745  0.3192 -3.0058
17776THY    HP727983   9.025   8.255   7.113  2.1638 -1.4991 -2.0143
17776THY    CA327984   9.275   8.497   6.866  0.0839 -0.2397  1.2054
17776THY    HA327985   9.354   8.457   6.929 -2.7015  2.1272 -1.0102
17776THY    CA427986   9.301   8.514   6.731  0.2990  0.3033  0.9986
17776THY    HA427987   9.397   8.475   6.699 -1.1520  0.7679 -3.5615
17776THY    CA527988   9.204   8.551   6.639  0.3845 -0.0995  0.4139
17776THY    CM127989   9.243   8.562   6.497 -1.0354 -0.5052 -0.4347
17776THY    HM127990   9.317   8.495   6.451 -0.6405 -1.3041  0.5113
17776THY    HM227991   9.256   8.667   6.467  0.9827 -0.8108 -0.7275
17776THY    HM327992   9.151   8.540   6.441 -2.3779 -0.4546  4.0125
17776THY    CA627993   9.074   8.568   6.681  0.6291 -0.3583 -0.4968
17776THY    HA627994   8.992   8.600   6.616 -0.4380  1.6966  1.2155
17777THY      O27995   3.154   2.969   3.601  0.0270  0.0400  0.6713
17777THY     HO27996   3.246   2.991   3.626 -0.5285  1.0114  2.0475
17777THY    CA127997   3.097   2.970   3.721  0.4347  0.1877  0.0475
17777THY    CA227998   2.982   2.895   3.748 -0.2571  0.0496 -0.2506
17777THY    CP127999   2.927   2.796   3.642  0.0808  0.1774  0.2151
17777THY    HP128000   2.991   2.796   3.553 -0.5126 -0.2742  1.6836
17777THY    CP228001   2.788   2.831   3.597  0.3463 -0.2106 -1.0769
17777THY    HP228002   2.724   2.783   3.672  1.3914  1.1272 -0.4401
17777THY    HP328003   2.762   2.788   3.499  1.6035 -0.0395 -2.3001
17777THY    HP428004   2.784   2.941   3.595  2.9674  0.2321 -0.9121
17777THY    CP328005   2.922   2.649   3.695 -0.1013  0.3319  0.0948
17777THY    HP528006   3.020   2.633   3.740 -1.0561  2.7937  0.6817
17777THY    HP628007   2.893   2.582   3.613 -1.2257  2.1994 -1.8181
17777THY    HP728008   2.840   2.649   3.768 -0.9954 -0.6311  0.7161
17777THY    CA328009   2.911   2.923   3.872  0.4584  0.3176  0.1235
17777THY    HA328010   2.810   2.886   3.884 -0.2835 -1.5673  1.3628
17777THY    CA428011   2.959   3.023   3.961  0.5880  0.3620 -0.1534
17777THY    HA428012   2.910   3.060   4.051  1.1703  0.9732 -0.8274
17777THY    CA528013   3.080   3.093   3.936  0.4056  1.2749  0.1578
17777THY    CM128014   3.142   3.195   4.027 -0.1336  0.7007 -0.5460
17777THY    HM128015   3.146   3.164   4.132  2.3951  1.2179  1.2849
17777THY    HM228016   3.086   3.288   4.013 -0.8379  1.3028 -0.8670
17777THY    HM328017   3.247   3.216   4.006 -0.6602 -2.4568 -0.5843
17777THY    CA628018   3.144   3.071   3.806  0.0586 -0.6446  0.7556
17777THY    HA628019   3.227   3.135   3.778 -0.6235 -0.8537  1.5698
17778THY      O28020   5.276   6.338   3.071 -0.1012 -0.2323 -0.4726
17778THY     HO28021   5.308   6.327   2.980  0.5939 -0.0040 -0.3802
17778THY    CA128022   5.142   6.349   3.080 -0.6289  0.2484 -0.3948
17778THY    CA228023   5.087   6.376   3.207 -0.3864  1.0349 -0.4630
17778THY    CP128024   5.182   6.373   3.326 -0.0321 -0.1471 -0.5530
17778THY    HP128025   5.284   6.341   3.300  0.0945 -0.2898 -0.0391
17778THY    CP228026   5.142   6.270   3.439  0.0018  0.8718  0.3650
17778THY    HP228027   5.056   6.302   3.498  0.0344  0.0241  2.0946
17778THY    HP328028   5.222   6.242   3.508  1.2895  0.0671  1.9269
17778THY    HP428029   5.113   6.172   3.399  0.5260  1.9929 -0.2680
17778THY    CP328030   5.190   6.515   3.396 -1.2056 -0.5243  0.8579
17778THY    HP528031   5.218   6.589   3.320 -1.4077  1.9119  3.6170
17778THY    HP628032   5.257   6.506   3.482  1.2368 -2.4981 -1.4212
17778THY    HP728033   5.094   6.532   3.446 -0.6972  1.0358 -0.5720
17778THY    CA328034   4.948   6.394   3.212  0.5085 -0.1632  0.1688
17778THY    HA328035   4.904   6.398   3.312  0.2806 -0.3241  2.5429
17778THY    CA428036   4.874   6.405   3.097 -0.3693  1.0487 -0.5467
17778THY    HA428037   4.769   6.433   3.105 -0.4249 -0.9511 -0.0199
17778THY    CA528038   4.928   6.387   2.965 -0.6214 -0.0100 -0.2089
17778THY    CM128039   4.841   6.389   2.850 -0.4446  0.3311 -0.6130
17778THY    HM128040   4.859   6.301   2.788 -2.5348 -0.3409 -0.6215
17778THY    HM228041   4.863   6.477   2.790 -3.0417 -1.2435 -0.9290
17778THY    HM328042   4.736   6.365   2.874 -0.5257 -0.9354 -1.6290
17778THY    CA628043   5.068   6.344   2.961 -0.0611  0.0354  0.5067
17778THY    HA628044   5.111   6.316   2.865  1.5872  1.1631 -1.0208
17779THY      O28045   5.582   3.259   3.892  0.5904 -0.3423 -0.3777
17779THY     HO28046   5.601   3.326   3.960  2.4669 -0.7943 -0.4068
17779THY    CA128047   5.612   3.302   3.771 -0.0318  1.1738  0.4214
17779THY    CA228048   5.563   3.236   3.651 -0.7233  0.0309 -0.4922
17779THY    CP128049   5.463   3.118   3.655  0.3679 -0.7860 -0.4897
17779THY    HP128050   5.482   3.064   3.749 -2.5784  1.1503  1.5230
17779THY    CP228051   5.486   3.019   3.546 -0.5439 -0.0537  0.0774
17779THY    HP228052   5.421   2.934   3.569 -0.5078  2.4955  0.6574
17779THY    HP328053   5.592   2.991   3.541 -0.7640 -1.2168 -0.6102
17779THY    HP428054   5.462   3.053   3.444  1.0772 -0.6303 -0.4391
17779THY    CP328055   5.319   3.176   3.655  0.8880  0.0434 -0.0647
17779THY    HP528056   5.315   3.238   3.564  3.6125 -1.4751 -1.9202
17779THY    HP628057   5.288   3.234   3.742 -0.7185  0.7863 -1.9157
17779THY    HP728058   5.244   3.096   3.654  2.3413  1.9611 -1.5429
17779THY    CA328059   5.602   3.282   3.527  0.2767  0.4689  0.1378
17779THY    HA328060   5.579   3.228   3.435  2.3706 -1.1774  1.8414
17779THY    CA428061   5.691   3.398   3.514 -0.0774  0.6789  0.4512
17779THY    HA428062   5.724   3.423   3.413 -2.8610 -0.4474  0.0062
17779THY    CA528063   5.733   3.461   3.632  0.4580 -0.3700  0.3376
17779THY    CM128064   5.820   3.578   3.626  0.4970 -0.0628 -0.5358
17779THY    HM128065   5.924   3.562   3.596  1.7725  3.5188  0.2104
17779THY    HM228066   5.822   3.637   3.718 -2.4548  1.4787 -2.5859
17779THY    HM328067   5.780   3.647   3.550 -0.3855  0.1278 -0.8249
17779THY    CA628068   5.695   3.418   3.761  0.2530 -0.2660  0.1111
17779THY    HA628069   5.729   3.472   3.849 -1.5728  0.6792 -0.1893
17780THY      O28070   4.016   6.530   6.725  0.0423  0.2643  0.6732
17780THY     HO28071   4.069   6.471   6.669 -0.0669  1.1146 -0.2665
17780THY    CA128072   3.937   6.598   6.643  0.1905  0.3623 -0.5908
17780THY    CA228073   3.828   6.673   6.700 -0.3153 -0.4393 -0.7519
17780THY    CP128074   3.803   6.684   6.858 -0.5764  0.0066 -0.1283
17780THY    HP128075   3.896   6.661   6.912 -1.8832  2.7395  0.6782
17780THY    CP228076   3.690   6.597   6.908  0.0247 -0.3262  0.5058
17780THY    HP228077   3.713   6.492   6.886 -0.1675  2.7239 -0.2961
17780THY    HP328078   3.600   6.625   6.853 -0.1660 -1.4824 -2.0946
17780THY    HP428079   3.676   6.604   7.017  3.0956  0.1320  0.6944
17780THY    CP328080   3.779   6.829   6.911 -0.7818  0.4948 -0.9164
17780THY    HP528081   3.877   6.877   6.920 -1.5307 -1.0646  1.0763
17780THY    HP628082   3.737   6.850   7.010 -0.4721 -0.1748  4.2128
17780THY    HP728083   3.731   6.902   6.844  0.3332 -0.1413 -0.7561
17780THY    CA328084   3.740   6.734   6.610  0.4180  0.5076 -0.2511
17780THY    HA328085   3.661   6.798   6.647  2.8164  1.0128  2.6378
17780THY    CA428086   3.750   6.711   6.472  0.1123  0.1383  0.1733
17780THY    HA428087   3.684   6.753   6.397  0.8752 -0.9123 -0.4423
17780THY    CA528088   3.867   6.643   6.419  0.2543  0.5195 -0.5589
17780THY    CM128089   3.892   6.616   6.280 -0.5065  0.2436 -0.0644
17780THY    HM128090   3.801   6.580   6.233 -0.3449 -1.1684  1.2615
17780THY    HM228091   3.974   6.543   6.274 -0.9691  1.5146 -0.7040
17780THY    HM328092   3.910   6.709   6.224 -0.6296 -0.3051 -0.3722
17780THY    CA628093   3.946   6.587   6.509 -0.0487 -0.4612  0.3355
17780THY    HA628094   4.042   6.549   6.473 -0.4627 -0.2615 -0.9523
17781THY      O28095   2.937   6.471   2.345 -1.0555 -0.0188 -0.2099
17781THY     HO28096   2.975   6.532   2.410 -1.2758 -0.3473  0.2854
17781THY    CA128097   2.802   6.465   2.353  0.1494 -0.2125  0.2211
17781THY    CA228098   2.728   6.416   2.240  0.5542  0.4828 -0.1203
17781THY    CP128099   2.784   6.381   2.102  0.2944 -0.4617  0.1543
17781THY    HP128100   2.893   6.390   2.104  0.4308  0.3755 -1.2141
17781THY    CP228101   2.725   6.483   2.001  0.4456 -0.0594 -0.4041
17781THY    HP228102   2.710   6.584   2.042  0.8065  2.0141 -1.1504
17781THY    HP328103   2.623   6.453   1.978 -1.8062  3.2677  3.6259
17781THY    HP428104   2.797   6.504   1.920  0.1413 -0.1556  0.2799
17781THY    CP328105   2.757   6.233   2.054 -0.3573 -0.0174 -0.3106
17781THY    HP528106   2.664   6.232   1.997 -0.6729  0.4378  0.9489
17781THY    HP628107   2.744   6.172   2.144  1.7637  0.4180 -0.2178
17781THY    HP728108   2.843   6.193   1.998 -0.5902 -0.0110 -0.8197
17781THY    CA328109   2.590   6.409   2.260 -0.3776  0.4583  0.0046
17781THY    HA328110   2.521   6.381   2.180 -2.5699  2.2127  0.0795
17781THY    CA428111   2.534   6.439   2.384  0.3229  0.2145 -0.5268
17781THY    HA428112   2.427   6.427   2.399  0.6777  3.2862 -0.5740
17781THY    CA528113   2.611   6.481   2.491 -0.2315  0.4422 -0.0612
17781THY    CM128114   2.548   6.519   2.620 -0.4755  0.6705 -0.4928
17781THY    HM128115   2.449   6.476   2.636 -0.5965  0.5312 -0.2690
17781THY    HM228116   2.533   6.628   2.619  0.8568 -1.2066 -0.2745
17781THY    HM328117   2.613   6.493   2.704 -0.5843  1.9080  2.7888
17781THY    CA628118   2.750   6.494   2.475  0.0824 -0.5448  0.5861
17781THY    HA628119   2.805   6.551   2.549  0.8905  1.2368 -2.2961
17782THY      O28120   3.992   6.235   3.104 -0.2445 -0.0461 -0.3657
17782THY     HO28121   4.073   6.212   3.152  0.0900 -1.2515 -1.8027
17782THY    CA128122   3.993   6.167   2.988 -0.1484  0.1201  1.2670
17782THY    CA228123   3.938   6.216   2.868  0.5423 -0.0841  0.3452
17782THY    CP128124   3.837   6.336   2.872 -1.1584  0.3853  0.4756
17782THY    HP128125   3.821   6.371   2.974 -0.4381  0.3817  0.8244
17782THY    CP228126   3.703   6.291   2.815 -0.0125 -0.8904 -0.4217
17782THY    HP228127   3.631   6.372   2.828  0.0861  1.7563 -0.6611
17782THY    HP328128   3.657   6.221   2.885 -0.6403 -1.2272 -0.3494
17782THY    HP428129   3.716   6.257   2.712  1.2368 -0.9537  0.1904
17782THY    CP328130   3.902   6.460   2.813  0.2284  0.1393  0.3192
17782THY    HP528131   3.979   6.501   2.878 -0.7942  1.6712 -0.1192
17782THY    HP628132   3.827   6.539   2.798  0.3087 -2.3084  0.0371
17782THY    HP728133   3.931   6.447   2.708  1.8339  0.2901  2.2351
17782THY    CA328134   3.958   6.151   2.751 -0.1127 -0.3417 -0.1326
17782THY    HA328135   3.930   6.204   2.660  1.8742  0.5076  2.5990
17782THY    CA428136   4.024   6.024   2.758 -0.3524 -0.4477  1.0929
17782THY    HA428137   4.040   5.970   2.665  1.9048  1.2003 -1.2629
17782THY    CA528138   4.074   5.973   2.881 -0.3318  0.8361 -0.0809
17782THY    CM128139   4.135   5.842   2.887  0.1629 -0.1837 -0.1540
17782THY    HM128140   4.238   5.850   2.852 -0.1451 -1.1573 -0.2528
17782THY    HM228141   4.085   5.776   2.815  1.6955 -1.2870 -0.1672
17782THY    HM328142   4.119   5.801   2.987 -2.1453 -0.9816 -1.3618
17782THY    CA628143   4.059   6.047   2.994 -0.7073  0.2646 -0.1392
17782THY    HA628144   4.081   6.007   3.093 -0.2435  0.1409 -0.2013
17783THY      O28145   2.875   1.983   4.578 -0.2862 -0.3204  0.2200
17783THY     HO28146   2.952   1.955   4.630 -0.4019 -0.2794 -0.0218
17783THY    CA128147   2.842   1.898   4.483  0.6838 -0.3184 -0.1128
17783THY    CA228148   2.721   1.916   4.405 -0.8028  1.2641 -0.1180
17783THY    CP128149   2.616   2.021   4.446 -0.9462 -0.4032 -0.3952
17783THY    HP128150   2.668   2.083   4.521  1.8880 -0.5445 -2.4412
17783THY    CP228151   2.501   1.954   4.525  0.1015 -0.5423 -0.1552
17783THY    HP228152   2.418   2.021   4.551 -0.0036  3.1085 -1.4805
17783THY    HP328153   2.543   1.904   4.613 -0.9268  0.7700  1.1941
17783THY    HP428154   2.454   1.874   4.466  1.0353 -1.0380 -0.3487
17783THY    CP328155   2.567   2.112   4.333  0.2557  0.6621 -0.2832
17783THY    HP528156   2.496   2.181   4.379  1.3601  0.7927  0.7969
17783THY    HP628157   2.521   2.043   4.262  0.0907  0.2081  0.2856
17783THY    HP728158   2.647   2.170   4.285 -0.5107 -1.6113 -1.0115
17783THY    CA328159   2.699   1.819   4.300 -0.1044  0.3476  0.3079
17783THY    HA328160   2.606   1.823   4.243 -0.7181  1.1587 -1.4533
17783THY    CA428161   2.786   1.722   4.271  0.1416 -0.2448  0.0076
17783THY    HA428162   2.746   1.660   4.192 -1.5891 -0.7192  1.6215
17783THY    CA528163   2.896   1.702   4.350 -0.3734  0.0106  0.1797
17783THY    CM128164   2.994   1.598   4.327 -0.1277 -0.1107  0.4144
17783THY    HM128165   3.020   1.549   4.421 -1.0668  0.5975  1.2308
17783THY    HM228166   3.077   1.644   4.272 -1.1057 -0.1837  2.1912
17783THY    HM328167   2.961   1.532   4.246  1.9346 -2.0635  1.6251
17783THY    CA628168   2.928   1.789   4.455  0.2562  0.3816  0.9692
17783THY    HA628169   3.008   1.767   4.525  0.4306 -0.4481 -1.3990
17784THY      O28170   9.473   3.113   5.175  0.0445 -0.4385  0.3575
17784THY     HO28171   9.497   3.194   5.126  1.2159  0.6720  0.7172
17784THY    CA128172   9.366   3.055   5.116 -0.0810  0.1943 -0.0903
17784THY    CA228173   9.286   2.966   5.182  0.1260  0.3108 -1.0169
17784THY    CP128174   9.303   2.930   5.326  0.0500 -0.0800 -0.2592
17784THY    HP128175   9.394   2.970   5.371 -0.6615  0.3644  0.9221
17784THY    CP228176   9.311   2.785   5.357  0.9160  0.3312  0.0907
17784THY    HP228177   9.317   2.753   5.462 -0.3225  0.2232 -0.5887
17784THY    HP328178   9.390   2.732   5.303 -1.1476  0.0113 -2.9190
17784THY    HP428179   9.216   2.742   5.322  0.5428  1.2879  0.0992
17784THY    CP328180   9.188   2.987   5.401 -0.6118 -0.6962 -0.1329
17784THY    HP528181   9.173   3.094   5.384 -0.1980 -0.3419 -0.0166
17784THY    HP628182   9.221   2.992   5.506 -0.2094 -0.8018 -0.4447
17784THY    HP728183   9.094   2.931   5.402  0.1673  0.0958 -1.4724
17784THY    CA328184   9.171   2.907   5.116  0.0402  0.1853 -0.1471
17784THY    HA328185   9.105   2.840   5.171 -0.2524 -0.2612 -0.2340
17784THY    CA428186   9.139   2.946   4.987 -1.0569 -0.2541 -0.8354
17784THY    HA428187   9.056   2.903   4.930 -0.2332 -0.5998 -2.0438
17784THY    CA528188   9.220   3.039   4.918  0.8114  0.2359  0.1079
17784THY    CM128189   9.190   3.076   4.774 -0.1046 -0.3195 -0.1742
17784THY    HM128190   9.279   3.095   4.714 -0.1980 -0.9615 -1.6639
17784THY    HM228191   9.123   3.163   4.769  0.4834 -0.7572  0.2633
17784THY    HM328192   9.127   2.997   4.730  1.3771 -1.9649 -0.4982
17784THY    CA628193   9.335   3.091   4.979  0.4295  0.9048 -0.5856
17784THY    HA628194   9.392   3.168   4.928 -3.7556 -0.7611  1.7451
17785THY      O28195   8.246   2.123   6.534 -0.5697  0.4780  0.0256
17785THY     HO28196   8.306   2.110   6.609 -1.7264  1.8189  1.8779
17785THY    CA128197   8.314   2.206   6.456 -0.6271  0.2754 -0.1858
17785THY    CA228198   8.269   2.243   6.326 -0.2627 -0.0047  0.1969
17785THY    CP128199   8.139   2.187   6.269  0.3235  0.1406 -0.1721
17785THY    HP128200   8.134   2.079   6.287 -0.1814 -1.2138 -0.3923
17785THY    CP228201   8.118   2.215   6.118 -0.2712  0.2405 -0.5856
17785THY    HP228202   8.211   2.196   6.064  1.4106  1.9972  2.0755
17785THY    HP328203   8.089   2.319   6.098  0.6203  2.1137  0.0618
17785THY    HP428204   8.036   2.153   6.079  0.9797 -4.0962  0.1609
17785THY    CP328205   8.027   2.262   6.339 -0.0712 -0.3975  0.0647
17785THY    HP528206   8.039   2.366   6.307 -1.1837 -2.3406 -0.3379
17785THY    HP628207   8.041   2.250   6.447  0.8769 -0.4641  0.4959
17785THY    HP728208   7.928   2.229   6.304 -0.6410  0.4374  0.8518
17785THY    CA328209   8.355   2.331   6.257 -0.6363 -0.7235 -0.1952
17785THY    HA328210   8.328   2.379   6.163  0.0344  0.5237  2.8191
17785THY    CA428211   8.480   2.373   6.305 -0.7433 -0.1540 -0.1173
17785THY    HA428212   8.547   2.433   6.244 -1.5545 -0.8584  0.1071
17785THY    CA528213   8.507   2.337   6.442  0.9811  0.1579 -0.1297
17785THY    CM128214   8.639   2.369   6.504 -1.0975 -0.7075  0.3924
17785THY    HM128215   8.679   2.470   6.491  0.5498  0.5945 -0.0303
17785THY    HM228216   8.710   2.297   6.461  0.1077 -0.1764  1.2382
17785THY    HM328217   8.653   2.357   6.612 -0.8151 -0.4139  2.8102
17785THY    CA628218   8.427   2.261   6.518 -0.3908  0.3060  0.5062
17785THY    HA628219   8.456   2.242   6.621  2.2996 -0.4352  0.2846
17786THY      O28220   7.587   5.214   6.981  0.6600 -0.1729  0.2640
17786THY     HO28221   7.589   5.307   7.008 -1.1122 -0.1311  0.3135
17786THY    CA128222   7.618   5.132   7.082  0.4717  0.1489  0.3163
17786THY    CA228223   7.605   5.172   7.215 -0.4963  0.1946  0.2703
17786THY    CP128224   7.554   5.306   7.264 -0.5191 -0.4771  0.4017
17786THY    HP128225   7.565   5.380   7.184  0.1301 -1.2519 -0.5092
17786THY    CP228226   7.626   5.371   7.386 -0.2345  0.4605  0.4287
17786THY    HP228227   7.606   5.478   7.379  0.0532  1.6944  0.5843
17786THY    HP328228   7.735   5.357   7.379  0.1157 -0.7446  3.1821
17786THY    HP428229   7.594   5.317   7.476  1.2605  0.2701 -0.8520
17786THY    CP328230   7.404   5.299   7.315 -0.1662  1.0003  0.1659
17786THY    HP528231   7.362   5.400   7.324 -1.0486  2.8111 -0.3112
17786THY    HP628232   7.394   5.251   7.413 -1.1779 -0.4037 -2.7053
17786THY    HP728233   7.340   5.244   7.245  1.6502  1.3250 -2.5275
17786THY    CA328234   7.657   5.087   7.312  0.3081  0.1217  0.3551
17786THY    HA328235   7.665   5.117   7.416  1.1743 -0.3231  1.8164
17786THY    CA428236   7.694   4.955   7.283  0.4015  0.5726 -0.3448
17786THY    HA428237   7.730   4.895   7.366  2.3588 -0.6706 -0.9427
17786THY    CA528238   7.686   4.910   7.153  0.1128 -0.2043 -0.4087
17786THY    CM128239   7.711   4.763   7.120 -0.6879 -0.4156  0.2407
17786THY    HM128240   7.675   4.693   7.196  2.5526 -0.6176 -1.8635
17786THY    HM228241   7.819   4.747   7.127 -0.8157  4.7596 -0.0216
17786THY    HM328242   7.660   4.730   7.029 -2.2236 -0.1130  1.6296
17786THY    CA628243   7.652   5.001   7.048 -0.0209  0.1768 -0.2232
17786THY    HA628244   7.662   4.972   6.944  2.0426  0.1214  0.5416
17787THY      O28245   7.087   2.663   2.291 -0.2044 -0.0835  0.0187
17787THY     HO28246   6.996   2.685   2.317 -0.2437  0.2850 -0.5381
17787THY    CA128247   7.109   2.528   2.316  0.3895  0.0236 -0.4408
17787THY    CA228248   7.238   2.469   2.319 -0.2099 -0.2429 -0.4091
17787THY    CP128249   7.355   2.563   2.292  0.6174  0.8193 -0.3845
17787THY    HP128250   7.322   2.662   2.323 -1.7362 -0.9102 -0.5306
17787THY    CP228251   7.383   2.581   2.144 -0.1565 -0.0161  0.2699
17787THY    HP228252   7.309   2.648   2.098 -0.4551 -0.6891 -0.5049
17787THY    HP328253   7.390   2.479   2.106 -0.0629 -1.1200  0.6788
17787THY    HP428254   7.479   2.634   2.135 -0.4409 -0.7066  0.6774
17787THY    CP328255   7.480   2.513   2.365  0.6340 -0.6354  0.0182
17787THY    HP528256   7.505   2.408   2.344 -3.3595 -0.1285 -1.1974
17787THY    HP628257   7.459   2.531   2.471 -1.1958 -0.8297 -0.7507
17787THY    HP728258   7.571   2.571   2.347  0.8649 -0.5669 -0.3200
17787THY    CA328259   7.249   2.326   2.330  0.6096  0.3469 -0.4063
17787THY    HA328260   7.342   2.269   2.323 -0.1231 -0.7184 -1.4906
17787THY    CA428261   7.129   2.255   2.338  0.2468 -0.0120  0.0415
17787THY    HA428262   7.141   2.149   2.360  0.8142 -1.4979 -0.2402
17787THY    CA528263   7.006   2.315   2.333  0.6428 -0.3665  0.2412
17787THY    CM128264   6.879   2.235   2.355 -0.0265  0.3230 -0.2582
17787THY    HM128265   6.892   2.177   2.447 -0.3957  2.4232  2.7422
17787THY    HM228266   6.857   2.170   2.269  2.6328 -0.1660 -0.6327
17787THY    HM328267   6.801   2.311   2.359  1.6025 -4.2370  2.0426
17787THY    CA628268   6.995   2.450   2.307 -0.5754 -0.5381  0.5437
17787THY    HA628269   6.898   2.492   2.285 -1.9764 -1.0685 -2.7059
17788THY      O28270   0.830   7.523   5.684  0.4726 -0.2663  0.1673
17788THY     HO28271   0.878   7.605   5.668 -1.2571 -0.8242  1.1149
17788THY    CA128272   0.857   7.444   5.584 -0.4799 -0.6184 -0.0882
17788THY    CA228273   0.798   7.319   5.565 -0.1056  0.2793  0.1371
17788THY    CP128274   0.691   7.263   5.660  0.1577  0.2669  0.2462
17788THY    HP128275   0.703   7.315   5.755  1.0271 -0.4971  1.5197
17788THY    CP228276   0.711   7.112   5.689 -0.2498  0.6069  0.5868
17788THY    HP228277   0.692   7.064   5.592 -0.0125  0.1269  1.4342
17788THY    HP328278   0.641   7.089   5.770 -0.2497  0.1523 -1.1743
17788THY    HP428279   0.814   7.090   5.719  0.0391 -0.6384  0.1221
17788THY    CP328280   0.545   7.289   5.611  0.6864  0.2648 -0.3146
17788THY    HP528281   0.545   7.397   5.592 -0.0225 -0.4616 -0.4257
17788THY    HP628282   0.469   7.255   5.683  0.4167 -0.7447 -1.9549
17788THY    HP728283   0.530   7.238   5.515  1.2791 -0.6869  1.2596
17788THY    CA328284   0.837   7.247   5.455  0.6282 -0.0472  0.4959
17788THY    HA328285   0.787   7.156   5.425 -0.4492 -3.5574  2.0624
17788THY    CA428286   0.943   7.286   5.374 -0.0740 -0.1858  0.0888
17788THY    HA428287   0.969   7.227   5.287  0.7462  0.2171 -0.1550
17788THY    CA528288   1.008   7.412   5.397 -0.1735 -0.9658  0.6666
17788THY    CM128289   1.128   7.461   5.320 -0.1919 -0.4235  0.5908
17788THY    HM128290   1.229   7.449   5.362 -1.4144  1.9725 -2.4330
17788THY    HM228291   1.117   7.568   5.297 -0.9575  0.6026  0.7487
17788THY    HM328292   1.134   7.404   5.227  0.8615 -0.6608  1.0531
17788THY    CA628293   0.963   7.491   5.507  0.6830  0.4687  0.1177
17788THY    HA628294   1.006   7.590   5.517 -1.4862  0.0658  1.1563
17789THY      O28295   8.565   1.382   4.901  0.2175 -0.3080  0.3508
17789THY     HO28296   8.655   1.347   4.907 -0.7974  1.3583 -2.3134
17789THY    CA128297   8.553   1.435   4.776  0.0864  0.0602 -0.6509
17789THY    CA228298   8.430   1.432   4.711 -0.3485 -0.0498 -0.2724
17789THY    CP128299   8.304   1.363   4.768 -1.1198  0.4549  0.0425
17789THY    HP128300   8.343   1.289   4.838  1.2660  1.7229  2.3623
17789THY    CP228301   8.216   1.300   4.661 -0.0226 -0.0544  0.3842
17789THY    HP228302   8.254   1.221   4.596 -0.2512  1.7102 -1.2515
17789THY    HP328303   8.175   1.376   4.592 -2.8252  0.8377 -0.2174
17789THY    HP428304   8.125   1.264   4.710 -0.2830 -0.5128  0.4076
17789THY    CP328305   8.219   1.458   4.847  0.7296 -0.1684 -0.3779
17789THY    HP528306   8.183   1.538   4.781 -1.1041  1.5053  0.2509
17789THY    HP628307   8.283   1.504   4.924 -0.9786  2.9802 -2.8834
17789THY    HP728308   8.143   1.409   4.907  0.2089  0.0914  0.7096
17789THY    CA328309   8.424   1.502   4.590 -0.4455  0.5059 -0.5535
17789THY    HA328310   8.331   1.516   4.536 -1.2081  1.7829 -0.5202
17789THY    CA428311   8.537   1.562   4.538 -0.2904  0.1368 -0.5001
17789THY    HA428312   8.538   1.628   4.452  0.4177  0.7475  0.3078
17789THY    CA528313   8.664   1.553   4.605  0.6214  0.1583  0.0146
17789THY    CM128314   8.791   1.598   4.538  0.0232  0.3569 -0.4135
17789THY    HM128315   8.784   1.705   4.514  0.2555 -0.1121 -0.5024
17789THY    HM228316   8.807   1.542   4.445  2.3866 -0.7206  1.8242
17789THY    HM328317   8.879   1.592   4.603 -0.2600  1.0670  2.0025
17789THY    CA628318   8.671   1.485   4.725  0.0241  0.7360 -0.3783
17789THY    HA628319   8.764   1.466   4.778  0.4443 -0.7331 -2.7838
17790THY      O28320   2.299   2.569   3.887  0.2280  0.4022 -0.2761
17790THY     HO28321   2.308   2.660   3.922 -0.2767  1.1847 -0.5187
17790THY    CA128322   2.169   2.534   3.876 -0.8771 -0.2701 -0.1827
17790THY    CA228323   2.140   2.405   3.835 -0.7888 -0.2180  0.0171
17790THY    CP128324   2.263   2.317   3.778 -0.0092 -0.0728  0.5608
17790THY    HP128325   2.349   2.344   3.841 -0.5974  1.3693 -0.7643
17790THY    CP228326   2.300   2.338   3.626  0.5385 -0.2406  0.3822
17790THY    HP228327   2.340   2.435   3.597  2.3909  1.3903  0.1662
17790THY    HP328328   2.211   2.317   3.566  0.7816  0.1664 -2.2121
17790THY    HP428329   2.373   2.259   3.606  1.0409  1.7256  0.2930
17790THY    CP328330   2.228   2.163   3.795 -0.1725 -0.6720  0.0515
17790THY    HP528331   2.197   2.149   3.899 -1.2885 -1.1433 -1.1196
17790THY    HP628332   2.314   2.097   3.776 -0.5157 -0.9753 -0.3166
17790THY    HP728333   2.155   2.125   3.724 -0.7282  0.1758 -0.5145
17790THY    CA328334   2.007   2.361   3.840  0.0243 -0.6544 -0.3118
17790THY    HA328335   1.974   2.264   3.803 -0.6616 -2.4920  0.5715
17790THY    CA428336   1.906   2.455   3.888 -0.3656 -0.5061  0.8404
17790THY    HA428337   1.806   2.416   3.872 -0.7163 -0.1536  1.5796
17790THY    CA528338   1.939   2.581   3.923  0.4284 -0.0102 -0.6910
17790THY    CM128339   1.838   2.687   3.945  0.1443  0.2554  0.6244
17790THY    HM128340   1.788   2.686   4.043 -1.0975 -0.3092 -2.4470
17790THY    HM228341   1.765   2.677   3.863 -0.9797  1.4605 -1.9831
17790THY    HM328342   1.874   2.790   3.938 -0.1777 -0.0726  0.7198
17790THY    CA628343   2.072   2.620   3.917 -0.4705 -0.4894  0.4491
17790THY    HA628344   2.103   2.722   3.939  0.8957  0.5874 -0.1712
17791THY      O28345   5.731   4.768   1.963 -0.6796  0.2666  0.2307
17791THY     HO28346   5.682   4.840   1.920  0.1599  1.9367  1.8847
17791THY    CA128347   5.732   4.780   2.101 -0.0419 -0.3820 -0.9441
17791THY    CA228348   5.791   4.688   2.186 -0.0732  0.0351 -0.0871
17791THY    CP128349   5.869   4.568   2.132 -0.2756  0.6730  0.1343
17791THY    HP128350   5.878   4.574   2.023 -0.7310  0.5914 -0.5080
17791THY    CP228351   5.786   4.443   2.142 -1.0387 -0.7382  0.0316
17791THY    HP228352   5.691   4.453   2.089  0.4455 -3.7031 -0.5466
17791THY    HP328353   5.770   4.435   2.250 -1.6796 -0.8847 -0.7383
17791THY    HP428354   5.838   4.349   2.122 -0.7202  1.3409 -0.2877
17791THY    CP328355   6.006   4.551   2.187 -0.5358 -0.2702 -0.5594
17791THY    HP528356   6.069   4.625   2.136 -0.0366  0.5075 -0.4301
17791THY    HP628357   6.048   4.453   2.163  0.9096  2.4695 -0.7054
17791THY    HP728358   6.007   4.571   2.295  2.8807 -0.2006 -0.5673
17791THY    CA328359   5.787   4.712   2.323  0.0936  0.2413 -1.0885
17791THY    HA328360   5.832   4.641   2.391  0.1006  1.4159  0.0056
17791THY    CA428361   5.730   4.837   2.372 -0.1312  0.3572  0.2979
17791THY    HA428362   5.725   4.860   2.478  2.3652  0.8319 -1.0142
17791THY    CA528363   5.675   4.925   2.285  0.9063  0.9204  0.4014
17791THY    CM128364   5.613   5.053   2.338  0.2144 -0.5281 -0.6363
17791THY    HM128365   5.512   5.067   2.298  0.7406 -2.2910 -1.5516
17791THY    HM228366   5.675   5.139   2.310 -0.5468 -0.1767  0.0439
17791THY    HM328367   5.603   5.054   2.447 -1.9351 -0.6840  0.6634
17791THY    CA628368   5.668   4.897   2.152  0.0209  0.0613 -0.1259
17791THY    HA628369   5.618   4.969   2.088  1.1736 -2.2838 -1.2977
17792THY      O28370   0.609   1.437   2.588 -0.1719 -0.0268  0.2121
17792THY     HO28371   0.539   1.371   2.602  1.5938  0.6043 -1.6174
17792THY    CA128372   0.595   1.505   2.705  0.6657  0.1685  0.0016
17792THY    CA228373   0.660   1.627   2.720  0.0405  0.4056  0.7018
17792THY    CP128374   0.747   1.679   2.605  0.3353  0.2326  0.3328
17792THY    HP128375   0.752   1.605   2.524 -0.9343  1.0347 -0.6738
17792THY    CP228376   0.896   1.707   2.645  0.0801 -0.2418  0.2115
17792THY    HP228377   0.907   1.752   2.744  2.9445 -1.4071  2.4468
17792THY    HP328378   0.941   1.778   2.574 -0.2829 -1.0805 -0.3813
17792THY    HP428379   0.955   1.614   2.647 -1.5380 -1.0880 -0.8755
17792THY    CP328380   0.699   1.814   2.551 -0.0341 -0.4414  0.2847
17792THY    HP528381   0.713   1.877   2.639 -2.7294 -0.3781  0.8831
17792THY    HP628382   0.592   1.812   2.529  0.1064 -1.0890 -0.9917
17792THY    HP728383   0.767   1.845   2.471  1.5993  0.5881 -0.4712
17792THY    CA328384   0.637   1.698   2.839  0.1472 -0.3710  0.6823
17792THY    HA328385   0.676   1.799   2.852  4.7800 -1.6021 -0.6927
17792THY    CA428386   0.550   1.644   2.928 -0.3587  0.4111 -0.4003
17792THY    HA428387   0.541   1.707   3.017 -0.2812 -1.3082  2.1844
17792THY    CA528388   0.481   1.528   2.907  0.1976 -0.1600 -0.5114
17792THY    CM128389   0.383   1.470   3.003 -0.6865 -0.0517  0.2852
17792THY    HM128390   0.339   1.554   3.058 -1.4463  0.3529 -0.3562
17792THY    HM228391   0.418   1.396   3.075  1.4250 -1.7804 -0.5073
17792THY    HM328392   0.300   1.415   2.957 -1.4613  3.4307 -1.7643
17792THY    CA628393   0.508   1.452   2.797  0.5050 -0.0424 -0.1048
17792THY    HA628394   0.454   1.358   2.784 -3.0871 -0.7991  1.8835
17793THY      O28395   7.861   1.469   6.738 -0.9887 -0.0656 -0.1007
17793THY     HO28396   7.849   1.539   6.805  1.6188 -1.3333  1.7137
17793THY    CA128397   7.766   1.498   6.650 -0.2998  0.2897 -1.1058
17793THY    CA228398   7.729   1.410   6.543  0.4905 -0.7596  0.1805
17793THY    CP128399   7.783   1.262   6.524 -0.3005 -0.2215  0.5825
17793THY    HP128400   7.814   1.215   6.619  2.5503 -2.4276 -2.4594
17793THY    CP228401   7.904   1.272   6.428  0.6101  0.4136  0.4978
17793THY    HP228402   7.940   1.173   6.401  1.3595 -0.0900  0.8938
17793THY    HP328403   7.990   1.329   6.466  0.2981  0.5694  0.8777
17793THY    HP428404   7.878   1.319   6.332  2.8488 -0.7111 -0.4258
17793THY    CP328405   7.685   1.161   6.463 -0.0200 -0.3917 -0.1605
17793THY    HP528406   7.743   1.068   6.467  3.9335 -1.0314  2.0540
17793THY    HP628407   7.683   1.179   6.355  2.1676 -0.0735  2.6623
17793THY    HP728408   7.587   1.158   6.512  0.3676  0.8247  3.2391
17793THY    CA328409   7.632   1.455   6.452 -0.1978  0.4816  0.0345
17793THY    HA328410   7.595   1.400   6.366 -0.3972  0.3455  0.3824
17793THY    CA428411   7.582   1.589   6.464 -0.6901 -0.3603 -0.5067
17793THY    HA428412   7.514   1.635   6.393  0.4233 -1.3205 -0.3035
17793THY    CA528413   7.626   1.672   6.566 -0.6325  0.4944 -0.7990
17793THY    CM128414   7.571   1.806   6.587 -0.3727  0.3003  0.2822
17793THY    HM128415   7.462   1.811   6.585 -0.4224  1.6583  0.2895
17793THY    HM228416   7.600   1.872   6.504  0.8945  0.4721 -0.0281
17793THY    HM328417   7.592   1.854   6.684 -2.2005  0.9220 -0.0867
17793THY    CA628418   7.724   1.631   6.649 -0.6814  0.8262 -0.4978
17793THY    HA628419   7.758   1.713   6.712 -3.0457 -1.7506  2.7185
17794THY      O28420   0.242   4.904   3.406  0.4516  0.3204 -0.3066
17794THY     HO28421   0.241   4.847   3.327 -2.1553  0.8957 -1.2230
17794THY    CA128422   0.356   4.881   3.469 -0.3577 -0.0745 -0.0065
17794THY    CA228423   0.397   4.968   3.575 -0.4683  0.5504  0.9476
17794THY    CP128424   0.296   5.062   3.630 -0.1126 -1.0726 -0.4573
17794THY    HP128425   0.253   5.122   3.549 -1.4519  0.5029  0.8130
17794THY    CP228426   0.344   5.155   3.738 -0.7333 -0.3240 -0.6440
17794THY    HP228427   0.427   5.214   3.695  0.3450  0.5114 -1.5055
17794THY    HP328428   0.388   5.089   3.813  0.2802  0.5959  0.9957
17794THY    HP428429   0.268   5.228   3.769  0.1044  0.5148 -0.0935
17794THY    CP328430   0.180   4.979   3.711  0.0831 -0.1395  0.4256
17794THY    HP528431   0.116   4.929   3.638  0.0173 -1.7250  2.6864
17794THY    HP628432   0.113   5.056   3.750 -0.4141 -0.6172  0.2399
17794THY    HP728433   0.222   4.913   3.788 -1.2774  0.5348  0.3209
17794THY    CA328434   0.533   4.960   3.617  0.0379 -0.1960 -0.1878
17794THY    HA328435   0.566   5.032   3.691 -0.4596 -0.0097 -0.1476
17794THY    CA428436   0.621   4.858   3.574 -0.4228  0.6318  0.1352
17794THY    HA428437   0.723   4.870   3.608 -0.4479  0.7931 -0.1245
17794THY    CA528438   0.568   4.764   3.482 -0.6697  0.3841  0.0390
17794THY    CM128439   0.658   4.657   3.422 -0.0777  0.6957 -0.2237
17794THY    HM128440   0.744   4.647   3.489  1.0749 -0.6021  0.6589
17794THY    HM228441   0.704   4.683   3.326  1.3879  1.2146 -0.7916
17794THY    HM328442   0.594   4.573   3.394  0.5180  0.8614 -0.7431
17794THY    CA628443   0.438   4.775   3.437 -0.2647 -0.0661 -0.3683
17794THY    HA628444   0.400   4.691   3.379 -3.9229 -0.3860  1.3326
17795THY      O28445   6.706   0.368   4.201 -0.0769 -0.0277  0.3220
17795THY     HO28446   6.726   0.403   4.289 -3.0669  0.6681  0.5378
17795THY    CA128447   6.598   0.440   4.156  0.2198 -0.5021  1.0373
17795THY    CA228448   6.558   0.433   4.022  0.2136 -0.2296  0.7607
17795THY    CP128449   6.637   0.337   3.925  0.2531  0.1731 -0.1178
17795THY    HP128450   6.682   0.250   3.975  0.9389 -0.5725 -0.2133
17795THY    CP228451   6.757   0.413   3.864 -0.9595 -0.8413  0.0371
17795THY    HP228452   6.824   0.355   3.799  1.2620 -1.9782  3.5422
17795THY    HP328453   6.824   0.454   3.941  0.9625 -1.0470 -2.4078
17795THY    HP428454   6.719   0.488   3.794 -0.3441  0.8291  1.9854
17795THY    CP328455   6.545   0.278   3.810  0.5606 -0.5341 -0.2721
17795THY    HP528456   6.511   0.355   3.740  1.5815  1.2939  1.9783
17795THY    HP628457   6.453   0.238   3.855  1.0706  4.9433  3.5327
17795THY    HP728458   6.592   0.191   3.762  2.9655 -0.7320  1.0312
17795THY    CA328459   6.454   0.510   3.973  1.1165  0.0866 -0.1671
17795THY    HA328460   6.425   0.506   3.868  1.0404  0.1480 -2.5092
17795THY    CA428461   6.386   0.594   4.062  0.4770  0.8443  0.3319
17795THY    HA428462   6.301   0.644   4.016  1.1800 -3.1519 -1.7924
17795THY    CA528463   6.424   0.601   4.194 -0.0330  0.8883 -0.8344
17795THY    CM128464   6.356   0.689   4.292 -0.3886  0.0958  0.2240
17795THY    HM128465   6.399   0.790   4.295  1.1480  2.0060 -0.4133
17795THY    HM228466   6.384   0.644   4.388  2.9869 -0.7826  0.1977
17795THY    HM328467   6.247   0.703   4.289 -0.1678 -2.2243  2.2539
17795THY    CA628468   6.528   0.525   4.245  0.1829  1.1813  0.7045
17795THY    HA628469   6.544   0.522   4.353 -0.3727  1.2554 -0.3625
17796THY      O28470   5.530   0.349   5.323  0.3830 -0.0868 -0.1449
17796THY     HO28471   5.436   0.361   5.303 -0.5459  3.1727 -0.9979
17796THY    CA128472   5.531   0.369   5.456  0.0585  0.6027 -0.1080
17796THY    CA228473   5.638   0.318   5.537  0.1962  0.3916  0.1348
17796THY    CP128474   5.772   0.281   5.472 -0.0341 -1.0651 -0.0850
17796THY    HP128475   5.775   0.341   5.380 -3.0514 -0.7228  0.7792
17796THY    CP228476   5.775   0.127   5.444 -0.2089  0.8767 -0.8029
17796THY    HP228477   5.796   0.062   5.530  1.9210  0.4483 -0.7621
17796THY    HP328478   5.839   0.115   5.355 -1.7019 -0.7805  2.4527
17796THY    HP428479   5.679   0.111   5.395  0.4971 -0.8968  0.1230
17796THY    CP328480   5.888   0.318   5.566 -0.4268 -0.0559 -0.1089
17796THY    HP528481   5.985   0.293   5.521 -0.8682 -0.8602 -0.4312
17796THY    HP628482   5.882   0.275   5.666  3.3168  0.3724  0.0722
17796THY    HP728483   5.886   0.426   5.585  1.6615 -0.6311  0.0661
17796THY    CA328484   5.611   0.311   5.675  0.3232  0.0804 -0.1620
17796THY    HA328485   5.692   0.275   5.738  0.6473 -0.2067  0.0611
17796THY    CA428486   5.493   0.364   5.731 -0.1538 -0.6826  0.1156
17796THY    HA428487   5.478   0.358   5.838 -0.0851 -0.6218  0.9788
17796THY    CA528488   5.400   0.432   5.648  0.0860 -0.6347 -0.3690
17796THY    CM128489   5.269   0.489   5.710 -0.0869 -0.2960  0.5751
17796THY    HM128490   5.265   0.488   5.820 -0.9815 -0.1786  3.8260
17796THY    HM228491   5.185   0.421   5.691 -1.5532  2.9506  1.2728
17796THY    HM328492   5.247   0.589   5.670  1.8143  0.6032  1.4009
17796THY    CA628493   5.414   0.424   5.512 -0.9230  0.3334 -0.1697
17796THY    HA628494   5.332   0.464   5.452 -0.8493  0.3498  0.0063
17797THY      O28495   6.696   5.756   4.925  0.0439  0.6261 -0.2486
17797THY     HO28496   6.627   5.754   4.993 -1.4948 -0.7679  1.7011
17797THY    CA128497   6.761   5.874   4.946  0.3708 -0.1597  0.2190
17797THY    CA228498   6.877   5.900   4.874 -0.3372 -0.3431  0.2444
17797THY    CP128499   6.920   5.804   4.762  0.9709  0.2120 -0.0860
17797THY    HP128500   6.878   5.703   4.777 -1.1651  0.1983  0.7381
17797THY    CP228501   7.072   5.801   4.743  0.3087  0.3324 -0.2077
17797THY    HP228502   7.108   5.719   4.679 -2.2805 -1.1190 -0.3464
17797THY    HP328503   7.130   5.799   4.836 -0.2889  0.8005  1.9327
17797THY    HP428504   7.101   5.893   4.691 -3.7449 -1.2818  0.3688
17797THY    CP328505   6.850   5.859   4.629 -0.5335  0.4410 -0.6791
17797THY    HP528506   6.741   5.872   4.640 -0.8214 -2.6841  0.1414
17797THY    HP628507   6.860   5.791   4.544  0.6922  2.4436 -3.1656
17797THY    HP728508   6.902   5.949   4.596  1.4186 -3.2176 -2.9457
17797THY    CA328509   6.940   6.025   4.889  0.2272  0.1874  0.6915
17797THY    HA328510   7.038   6.038   4.844  0.5362  0.3390 -0.8836
17797THY    CA428511   6.892   6.119   4.978 -0.3917 -0.4466  0.7561
17797THY    HA428512   6.950   6.209   4.996  1.6392  1.0394 -0.7568
17797THY    CA528513   6.775   6.090   5.045 -0.4040 -0.6462 -0.2339
17797THY    CM128514   6.705   6.196   5.127 -0.3701  0.2163 -0.3431
17797THY    HM128515   6.692   6.163   5.231 -1.3882 -0.0619 -0.8604
17797THY    HM228516   6.604   6.222   5.092 -0.1500  0.1885  0.4944
17797THY    HM328517   6.758   6.292   5.131 -0.9502  0.4863 -0.0290
17797THY    CA628518   6.711   5.970   5.032 -0.6664  0.8812 -1.0895
17797THY    HA628519   6.625   5.950   5.096 -1.8109 -0.8134 -1.7967
17798THY      O28520   7.010   1.052   6.508  0.3982 -0.5607  0.8055
17798THY     HO28521   6.942   1.105   6.463 -1.2819 -0.5103 -1.1763
17798THY    CA128522   7.075   1.003   6.406 -0.0077  0.7131  0.6820
17798THY    CA228523   7.182   0.908   6.407  0.2523  0.8929  0.0656
17798THY    CP128524   7.229   0.861   6.541 -0.3191  1.0080  0.4360
17798THY    HP128525   7.138   0.877   6.600 -1.8264 -0.5530 -1.8518
17798THY    CP228526   7.338   0.940   6.605  0.0567 -0.1486  0.4657
17798THY    HP228527   7.320   1.046   6.588  0.5586 -1.3023  0.3721
17798THY    HP328528   7.432   0.916   6.555  0.3525 -0.4881  2.2183
17798THY    HP428529   7.353   0.925   6.713  1.1398  0.0746  2.8184
17798THY    CP328530   7.258   0.710   6.539  0.3621 -0.2907 -0.9203
17798THY    HP528531   7.346   0.710   6.473 -0.4748 -1.4964  1.2602
17798THY    HP628532   7.178   0.648   6.498 -0.3092  2.1761 -1.7835
17798THY    HP728533   7.284   0.675   6.640  1.0073 -0.3460 -0.6267
17798THY    CA328534   7.238   0.868   6.283  0.6444  0.1298 -0.0800
17798THY    HA328535   7.320   0.798   6.281  1.9384  0.9554  1.3295
17798THY    CA428536   7.203   0.928   6.161  0.2319  0.3881  0.2849
17798THY    HA428537   7.248   0.901   6.066  0.5875  0.7740 -0.5053
17798THY    CA528538   7.105   1.029   6.163  0.0663  0.0398  0.6526
17798THY    CM128539   7.067   1.114   6.045  0.4567  0.7433 -0.0959
17798THY    HM128540   7.071   1.218   6.079 -0.3566 -2.3195  1.0537
17798THY    HM228541   6.969   1.075   6.016  1.7190 -3.4362 -0.7293
17798THY    HM328542   7.138   1.108   5.962 -0.3802  0.0037 -0.0387
17798THY    CA628543   7.042   1.063   6.283  0.3579 -0.0520  0.1903
17798THY    HA628544   6.968   1.142   6.290  1.3896  0.6771  1.1227
17799THY      O28545   9.006   3.986   2.368 -0.3157  0.3652 -0.5070
17799THY     HO28546   9.048   4.039   2.297 -1.3406  1.0469  1.3055
17799THY    CA128547   9.082   4.008   2.471  0.6235  1.0684  0.0807
17799THY    CA228548   9.031   4.069   2.589  0.2416 -0.0569  0.0810
17799THY    CP128549   8.883   4.102   2.613 -0.0926  0.2344  0.4268
17799THY    HP128550   8.823   4.071   2.528 -3.4100  1.7592  2.1892
17799THY    CP228551   8.876   4.256   2.636 -0.0620  0.3709  0.0840
17799THY    HP228552   8.897   4.319   2.548  0.0005  0.9307  0.8505
17799THY    HP328553   8.944   4.282   2.717 -1.2645  2.0419 -1.7633
17799THY    HP428554   8.773   4.278   2.666  0.3263  1.0353  1.0552
17799THY    CP328555   8.819   4.018   2.725  0.2236 -0.7273 -0.8597
17799THY    HP528556   8.844   4.052   2.826 -2.1340 -0.3923  0.0219
17799THY    HP628557   8.828   3.909   2.720 -0.3150  1.8521 -1.0938
17799THY    HP728558   8.713   4.042   2.724  0.1391  2.3265 -0.7791
17799THY    CA328559   9.122   4.071   2.697 -0.3985 -0.6540  0.2002
17799THY    HA328560   9.094   4.100   2.798 -0.6220 -0.6563 -0.0046
17799THY    CA428561   9.256   4.032   2.683  1.0249  0.0486 -0.5766
17799THY    HA428562   9.322   4.053   2.767 -0.6592  0.9521  1.5033
17799THY    CA528563   9.303   3.987   2.562  0.3057  0.4011  0.5130
17799THY    CM128564   9.452   3.962   2.549  0.1386  0.0197  0.1138
17799THY    HM128565   9.498   4.057   2.520 -1.8234 -0.2129  1.0523
17799THY    HM228566   9.478   3.888   2.473  0.3083  1.1103 -0.9694
17799THY    HM328567   9.496   3.942   2.647 -0.4363  0.2344 -0.1200
17799THY    CA628568   9.213   3.964   2.463 -0.3581  0.7902  0.1484
17799THY    HA628569   9.255   3.925   2.371 -0.0705  0.9494  0.0796
17800THY      O28570   2.775   8.522   3.867 -0.0899  0.1917 -0.0831
17800THY     HO28571   2.812   8.612   3.859  2.1533 -1.0942 -1.0309
17800THY    CA128572   2.651   8.539   3.822 -0.4771 -0.0886  0.1627
17800THY    CA228573   2.583   8.431   3.764  0.2052  0.2589 -0.3806
17800THY    CP128574   2.649   8.297   3.762 -0.3501  0.8322  0.3584
17800THY    HP128575   2.714   8.290   3.850 -0.6184  1.0244  0.2653
17800THY    CP228576   2.732   8.283   3.634  0.1405 -0.3011  0.5513
17800THY    HP228577   2.688   8.338   3.550 -1.8622  0.9715  1.0111
17800THY    HP328578   2.742   8.180   3.599 -0.2790 -0.4155  0.5491
17800THY    HP428579   2.837   8.315   3.643  1.0053  0.5226 -2.2341
17800THY    CP328580   2.554   8.179   3.766 -0.5168 -0.5924 -0.9440
17800THY    HP528581   2.493   8.169   3.675 -1.5953 -0.1105  0.7634
17800THY    HP628582   2.483   8.196   3.848 -1.8766 -2.1681  1.7946
17800THY    HP728583   2.614   8.088   3.775 -0.1861 -1.5307 -0.8370
17800THY    CA328584   2.449   8.456   3.718 -0.5195 -0.1393 -0.6672
17800THY    HA328585   2.399   8.374   3.668  1.5089  0.0323 -2.0773
17800THY    CA428586   2.397   8.583   3.713 -0.1331 -0.6474 -0.0105
17800THY    HA428587   2.300   8.599   3.667 -1.0242  1.5857  1.5212
17800THY    CA528588   2.469   8.694   3.771  0.4132  0.2247 -0.4962
17800THY    CM128589   2.407   8.839   3.764 -0.1528 -0.0034  0.0836
17800THY    HM128590   2.371   8.862   3.865 -1.9006 -0.8752  1.4072
17800THY    HM228591   2.333   8.847   3.683 -1.5217  1.1207 -0.6392
17800THY    HM328592   2.483   8.907   3.726 -2.1940 -2.2365  1.2694
17800THY    CA628593   2.597   8.670   3.825 -0.0325  0.4328  0.6754
17800THY    HA628594   2.650   8.753   3.871 -0.9167  1.3611  0.7431
17801THY      O28595   2.420   7.326   4.375 -0.0776 -0.2566  0.3245
17801THY     HO28596   2.497   7.345   4.430 -0.8134  1.0870 -0.3908
17801THY    CA128597   2.335   7.436   4.393 -0.3516  0.0327 -0.1616
17801THY    CA228598   2.241   7.476   4.296  0.4079 -0.5241 -0.0270
17801THY    CP128599   2.238   7.408   4.162 -0.8762 -0.2525 -0.2729
17801THY    HP128600   2.336   7.358   4.150  0.8052  2.5018  2.0544
17801THY    CP228601   2.256   7.519   4.050 -0.4362  0.1414  0.1029
17801THY    HP228602   2.284   7.466   3.958 -0.5049  0.1427  0.0641
17801THY    HP328603   2.338   7.589   4.070 -0.8538 -0.3394  0.7374
17801THY    HP428604   2.170   7.580   4.023 -0.2600 -0.3315  0.1478
17801THY    CP328605   2.117   7.312   4.135 -0.0182 -0.5610 -0.2647
17801THY    HP528606   2.024   7.369   4.144  0.7768  0.3051  0.9307
17801THY    HP628607   2.104   7.230   4.207  0.3538  0.5392  0.6194
17801THY    HP728608   2.143   7.276   4.035  0.5136 -0.2960 -0.6323
17801THY    CA328609   2.155   7.578   4.321 -0.4665 -0.1234 -0.0884
17801THY    HA328610   2.077   7.602   4.250 -1.3211  1.1161  0.9350
17801THY    CA428611   2.146   7.630   4.452 -0.2019  0.7243 -0.2888
17801THY    HA428612   2.064   7.690   4.490  0.2679  3.4081 -1.2129
17801THY    CA528613   2.235   7.587   4.551 -0.9379  0.4699 -0.1470
17801THY    CM128614   2.224   7.629   4.698  0.3514 -0.1951 -0.0870
17801THY    HM128615   2.122   7.663   4.720 -0.4994 -3.5248 -0.2096
17801THY    HM228616   2.292   7.710   4.728  0.3500 -0.9941  0.2153
17801THY    HM328617   2.253   7.543   4.761 -0.2433 -1.4391 -1.2363
17801THY    CA628618   2.334   7.486   4.526  0.4111  0.4168 -0.0535
17801THY    HA628619   2.399   7.454   4.607  0.7788  0.1328 -0.0330
17802THY      O28620   1.270   7.259   3.582  0.1021 -0.4657  0.1380
17802THY     HO28621   1.304   7.242   3.492 -2.0392 -1.2797 -0.1569
17802THY    CA128622   1.140   7.218   3.589 -0.0653 -0.2233  0.2297
17802THY    CA228623   1.036   7.300   3.648  0.4277 -0.4987 -0.2412
17802THY    CP128624   1.070   7.436   3.710 -0.1094  0.2976 -0.0261
17802THY    HP128625   1.178   7.434   3.729 -0.0760  0.3710 -3.5560
17802THY    CP228626   1.001   7.473   3.838 -0.0533  0.3366 -0.4095
17802THY    HP228627   0.892   7.463   3.825  0.4788 -5.0965 -2.9012
17802THY    HP328628   1.028   7.576   3.859  0.9495 -3.3235  0.2104
17802THY    HP428629   1.035   7.405   3.917 -0.6462 -1.1668 -2.5767
17802THY    CP328630   1.044   7.538   3.601  0.1821 -0.5409 -0.0809
17802THY    HP528631   0.944   7.534   3.557  1.0821 -3.2744  2.7262
17802THY    HP628632   1.122   7.521   3.525  2.6133  1.8472 -0.3816
17802THY    HP728633   1.060   7.640   3.639  0.3405 -0.3333 -0.1833
17802THY    CA328634   0.899   7.260   3.638  0.1894  0.9636 -0.1282
17802THY    HA328635   0.822   7.327   3.674 -0.9994 -0.3455 -0.7422
17802THY    CA428636   0.866   7.133   3.584  0.6037  0.8488 -0.2792
17802THY    HA428637   0.765   7.099   3.560 -0.5420  0.0767  3.2757
17802THY    CA528638   0.967   7.049   3.536 -0.6186  0.2424 -0.6797
17802THY    CM128639   0.934   6.930   3.460  0.4483  0.5754 -0.3166
17802THY    HM128640   0.978   6.935   3.360  1.2527  0.9193 -0.4745
17802THY    HM228641   0.828   6.900   3.463 -0.6759 -0.6962  3.0398
17802THY    HM328642   0.981   6.848   3.516  1.0366 -0.4579 -0.6984
17802THY    CA628643   1.104   7.096   3.529 -0.0959 -0.1532 -0.2989
17802THY    HA628644   1.184   7.041   3.480  1.5305  0.2481  1.6319
17803THY      O28645   1.410   0.649   2.729 -0.4983  0.1535 -0.2408
17803THY     HO28646   1.464   0.611   2.657  2.1741  0.2497  2.9276
17803THY    CA128647   1.492   0.727   2.800 -0.3033  0.2334  0.4963
17803THY    CA228648   1.442   0.809   2.903  0.8962 -0.5214 -0.9747
17803THY    CP128649   1.295   0.787   2.966 -0.5316  0.3108  0.0871
17803THY    HP128650   1.241   0.719   2.899 -1.2061  1.2850 -0.3540
17803THY    CP228651   1.214   0.914   2.975 -0.4846  0.0214  0.1275
17803THY    HP228652   1.233   0.975   2.887  1.2485  1.5743  1.9863
17803THY    HP328653   1.227   0.986   3.057  0.3082 -0.5056  0.6022
17803THY    HP428654   1.110   0.881   2.967 -0.8778 -0.2409  1.4157
17803THY    CP328655   1.308   0.726   3.105 -0.5351 -0.4438 -0.1949
17803THY    HP528656   1.350   0.627   3.087  1.2863  1.0551  0.2375
17803THY    HP628657   1.214   0.722   3.161  1.0885  2.6416  0.6449
17803THY    HP728658   1.376   0.787   3.166 -1.0135 -0.0789 -0.0154
17803THY    CA328659   1.523   0.910   2.954 -0.1284  0.0011 -0.1451
17803THY    HA328660   1.485   0.986   3.022 -0.6410 -1.1243  0.6161
17803THY    CA428661   1.658   0.911   2.916 -0.0871  0.4074  0.2590
17803THY    HA428662   1.727   0.986   2.956  1.3864  1.1863 -1.4467
17803THY    CA528663   1.710   0.831   2.817  0.0645  0.3984  0.0614
17803THY    CM128664   1.856   0.835   2.776 -0.4964 -0.2736  0.3185
17803THY    HM128665   1.907   0.932   2.777  0.2935  2.8688 -0.0258
17803THY    HM228666   1.864   0.797   2.674 -1.7796 -0.6219  0.9304
17803THY    HM328667   1.918   0.761   2.828  0.1095 -1.1032  0.2277
17803THY    CA628668   1.626   0.744   2.752  0.5063 -0.2526 -0.4371
17803THY    HA628669   1.666   0.696   2.663 -1.3529 -1.6413  0.4120
17804THY      O28670   4.677   8.387   7.517  0.3436  0.3061 -0.2383
17804THY     HO28671   4.748   8.433   7.564  1.4707 -2.0742  0.6458
17804THY    CA128672   4.690   8.448   7.389 -0.4690 -0.4319 -0.0030
17804THY    CA228673   4.576   8.472   7.311  0.1426 -0.9759 -0.0335
17804THY    CP128674   4.438   8.445   7.363 -0.1373  0.2305 -0.0737
17804THY    HP128675   4.426   8.360   7.431 -0.9219 -0.6975 -0.7276
17804THY    CP228676   4.325   8.429   7.259  0.3267 -0.5873  0.3308
17804THY    HP228677   4.234   8.432   7.320  0.5216 -0.3268  2.3972
17804THY    HP328678   4.335   8.338   7.198  0.7139 -1.3923  0.9072
17804THY    HP428679   4.318   8.520   7.199 -1.9711  2.0089  2.0382
17804THY    CP328680   4.407   8.559   7.458 -0.2819  0.1472  0.2451
17804THY    HP528681   4.485   8.565   7.535 -0.5403  0.5088 -0.7628
17804THY    HP628682   4.314   8.522   7.503 -0.2932  0.8206  1.0799
17804THY    HP728683   4.388   8.655   7.409  0.5555  0.3803  0.5398
17804THY    CA328684   4.592   8.519   7.178  0.5581  0.2215 -0.2252
17804THY    HA328685   4.512   8.532   7.106  0.3565  0.2034 -1.4611
17804THY    CA428686   4.725   8.560   7.134 -0.1123  1.0292  0.1397
17804THY    HA428687   4.728   8.613   7.039 -0.4318  1.9038  1.7835
17804THY    CA528688   4.838   8.537   7.211 -0.5294  0.0274 -0.1506
17804THY    CM128689   4.976   8.567   7.153  0.2418  0.2897 -0.5411
17804THY    HM128690   4.975   8.664   7.102  4.0616 -0.9433 -0.9579
17804THY    HM228691   5.001   8.501   7.069  2.0141 -0.0199  0.4620
17804THY    HM328692   5.055   8.566   7.229  1.1279 -0.6032 -0.2052
17804THY    CA628693   4.820   8.489   7.347 -0.0742  0.1852  0.9191
17804THY    HA628694   4.908   8.489   7.410  0.1892 -0.1783  1.4457
17805THY      O28695   7.984   0.674   6.017 -0.5609  0.5005  0.5253
17805THY     HO28696   8.030   0.742   6.070  0.5949 -0.5819  0.6137
17805THY    CA128697   7.852   0.676   6.029 -0.2458 -0.3055  0.1962
17805THY    CA228698   7.782   0.555   6.002 -0.4264  0.1050  0.0822
17805THY    CP128699   7.848   0.427   5.973 -0.6361 -0.1852 -0.6978
17805THY    HP128700   7.955   0.437   5.993 -0.6611 -0.4736  0.1800
17805THY    CP228701   7.816   0.385   5.826 -0.4756 -0.4441  0.2195
17805THY    HP228702   7.713   0.353   5.808 -0.5895  1.1713 -0.4661
17805THY    HP328703   7.873   0.294   5.803 -0.4728 -0.9385  0.3471
17805THY    HP428704   7.847   0.462   5.755 -0.6646 -1.6047 -0.7376
17805THY    CP328705   7.816   0.323   6.086  0.1655 -0.0299 -0.3576
17805THY    HP528706   7.900   0.256   6.107 -0.5959  2.4795 -0.6453
17805THY    HP628707   7.725   0.272   6.053 -0.1725 -0.8154  0.6974
17805THY    HP728708   7.795   0.355   6.189 -1.3777 -0.3693 -0.2229
17805THY    CA328709   7.641   0.567   5.995  0.6610 -0.4243 -0.1854
17805THY    HA328710   7.581   0.485   5.956  0.6301  0.8620 -0.7964
17805THY    CA428711   7.579   0.686   6.036 -0.2794  0.0991  0.3616
17805THY    HA428712   7.471   0.686   6.023 -0.1840 -0.7673 -0.4933
17805THY    CA528713   7.651   0.799   6.073 -0.2587  0.3507 -0.1732
17805THY    CM128714   7.585   0.935   6.097 -0.4949 -0.3032  0.4032
17805THY    HM128715   7.599   0.976   6.198  2.7466 -0.3229 -0.4167
17805THY    HM228716   7.479   0.926   6.071 -0.1408 -2.3650  1.6022
17805THY    HM328717   7.642   1.006   6.036  0.9731  0.1933 -0.3340
17805THY    CA628718   7.789   0.791   6.074 -0.3210  0.3431 -0.1787
17805THY    HA628719   7.842   0.880   6.104 -2.0457  2.0723  0.3412
17806THY      O28720   5.492   5.812   6.857 -0.0258  0.2300 -0.1090
17806THY     HO28721   5.419   5.858   6.811  0.2717  0.5399  0.6967
17806THY    CA128722   5.443   5.697   6.901 -0.0285  0.2363 -0.0318
17806THY    CA228723   5.494   5.628   7.011  0.8967  0.1479  0.5223
17806THY    CP128724   5.614   5.684   7.088  0.1149  0.3542  0.2730
17806THY    HP128725   5.685   5.730   7.018  1.4296  1.3835 -0.1352
17806THY    CP228726   5.694   5.583   7.171  0.5741 -0.0909 -0.9777
17806THY    HP228727   5.780   5.633   7.218 -0.3537  0.0544  0.5421
17806THY    HP328728   5.745   5.515   7.102 -0.7334  0.0323 -2.1161
17806THY    HP428729   5.635   5.523   7.241 -0.3489 -1.6367 -1.9271
17806THY    CP328730   5.553   5.786   7.193 -0.4361  0.1529  0.5556
17806THY    HP528731   5.490   5.862   7.145 -1.1537  1.5439  0.8764
17806THY    HP628732   5.632   5.839   7.247 -1.0594  3.1532 -1.3402
17806THY    HP728733   5.491   5.727   7.261  1.3826  1.7524  0.3899
17806THY    CA328734   5.413   5.512   7.056  0.2184 -0.1949 -0.7634
17806THY    HA328735   5.447   5.449   7.138 -0.0402 -1.0579 -2.0776
17806THY    CA428736   5.302   5.473   6.985 -0.1045  0.2259 -0.5980
17806THY    HA428737   5.251   5.383   7.018  1.9001  0.5207 -1.6839
17806THY    CA528738   5.259   5.545   6.865  0.3907 -0.3925 -0.3410
17806THY    CM128739   5.146   5.499   6.780 -0.2272 -0.2859 -0.2927
17806THY    HM128740   5.180   5.413   6.721  2.3803 -1.1972  1.2074
17806THY    HM228741   5.116   5.581   6.713 -2.2691 -2.0333 -2.3313
17806THY    HM328742   5.059   5.473   6.841  1.2897  0.3251 -4.6450
17806THY    CA628743   5.330   5.658   6.824  0.4710  0.0777  0.6155
17806THY    HA628744   5.295   5.701   6.731  1.4488  0.3103  1.9539
17807THY      O28745   3.293   2.874   3.097  0.8778 -0.3703 -0.1435
17807THY     HO28746   3.218   2.904   3.152 -2.5116 -3.6775 -1.6773
17807THY    CA128747   3.270   2.933   2.981 -0.3406  0.7215  0.7051
17807THY    CA228748   3.329   2.889   2.862 -0.3826 -0.4246 -0.0355
17807THY    CP128749   3.398   2.764   2.854 -0.8362 -0.1369 -0.4839
17807THY    HP128750   3.440   2.733   2.950  1.5185 -0.4159  1.5670
17807THY    CP228751   3.511   2.753   2.751  0.1663 -0.0504  0.6588
17807THY    HP228752   3.472   2.742   2.649 -0.5182  0.2971 -0.2280
17807THY    HP328753   3.550   2.651   2.754 -0.9373 -1.0935  0.1717
17807THY    HP428754   3.595   2.822   2.764 -0.2271  2.4081  0.7870
17807THY    CP328755   3.292   2.661   2.829  0.0992 -0.3956  0.2284
17807THY    HP528756   3.248   2.662   2.729  0.5240 -0.5803  0.6360
17807THY    HP628757   3.206   2.679   2.895  0.3783  0.0176  0.0784
17807THY    HP728758   3.324   2.558   2.850  0.5090  0.0381  0.4407
17807THY    CA328759   3.329   2.977   2.748  0.0252  0.2773 -0.3325
17807THY    HA328760   3.358   2.943   2.649 -2.0453  0.3145 -2.4848
17807THY    CA428761   3.265   3.102   2.764  1.0183  0.6524 -0.0813
17807THY    HA428762   3.267   3.162   2.674 -2.9285  0.5078  0.0511
17807THY    CA528763   3.202   3.146   2.879  0.6235 -0.6430 -0.0654
17807THY    CM128764   3.148   3.290   2.886  0.4890  0.0094  0.5087
17807THY    HM128765   3.096   3.318   2.795 -2.4764  1.4566  0.0560
17807THY    HM228766   3.233   3.358   2.900  0.9281 -0.3631  0.0443
17807THY    HM328767   3.075   3.291   2.968 -0.1951 -0.5117 -1.4081
17807THY    CA628768   3.203   3.055   2.986  0.8364 -0.5920  0.5519
17807THY    HA628769   3.140   3.082   3.071  1.4025  0.0326 -0.0456
17808THY      O28770   2.267   7.413   3.435  0.0907  0.0445 -0.3110
17808THY     HO28771   2.317   7.420   3.352 -0.1070  0.0500  2.6961
17808THY    CA128772   2.187   7.308   3.429  0.2955 -0.6249  0.6550
17808THY    CA228773   2.067   7.296   3.494 -0.5736  0.1732 -0.7107
17808THY    CP128774   2.010   7.413   3.582  0.1757 -0.1134  0.7099
17808THY    HP128775   2.085   7.490   3.563  1.6605  0.2223 -0.6068
17808THY    CP228776   1.997   7.396   3.732 -0.1022  0.8245 -0.0734
17808THY    HP228777   1.956   7.295   3.743  0.3581 -0.0963 -0.3706
17808THY    HP328778   1.932   7.469   3.781 -0.4804 -0.1770  0.2785
17808THY    HP428779   2.096   7.402   3.779  0.5538 -0.4844 -0.3187
17808THY    CP328780   1.878   7.465   3.532 -0.1822  0.2205 -0.4894
17808THY    HP528781   1.893   7.494   3.428 -0.6336  0.2140 -0.2676
17808THY    HP628782   1.835   7.549   3.589  2.5083 -1.6357  2.3833
17808THY    HP728783   1.808   7.381   3.532 -1.9874  1.6646  0.9213
17808THY    CA328784   1.991   7.176   3.474  0.4220 -0.4988 -0.3018
17808THY    HA328785   1.896   7.161   3.524  1.3705  1.0687 -1.3674
17808THY    CA428786   2.035   7.067   3.390  0.1987  0.4124  0.2218
17808THY    HA428787   1.970   6.982   3.373  1.2295  0.7177 -0.6523
17808THY    CA528788   2.160   7.082   3.333  0.5332  0.5204 -0.3974
17808THY    CM128789   2.235   6.976   3.262 -0.2993  0.5704 -0.4014
17808THY    HM128790   2.160   6.899   3.240 -2.2909 -2.9769  2.2159
17808THY    HM228791   2.323   6.943   3.318  0.5980 -0.4734  0.1216
17808THY    HM328792   2.262   7.008   3.160  0.7239  1.2914  1.1895
17808THY    CA628793   2.230   7.198   3.351  0.2997  0.1061  0.2966
17808THY    HA628794   2.326   7.213   3.301  0.0853 -0.6678 -0.8072
17809THY      O28795   2.519   2.803   4.329  0.5675 -0.5795 -0.0227
17809THY     HO28796   2.460   2.872   4.365 -1.0827 -2.3796 -0.4041
17809THY    CA128797   2.506   2.820   4.195 -0.0134 -0.0608 -0.0175
17809THY    CA228798   2.565   2.737   4.099  0.1313  0.1339 -0.6688
17809THY    CP128799   2.661   2.625   4.142  0.4434 -0.4394  0.0536
17809THY    HP128800   2.667   2.630   4.251  2.4767 -0.4855 -0.7880
17809THY    CP228801   2.813   2.655   4.097  0.4364  0.2188  0.1795
17809THY    HP228802   2.873   2.571   4.136  0.7147  0.0050  0.2765
17809THY    HP328803   2.857   2.747   4.137  2.3923  0.1983 -0.6867
17809THY    HP428804   2.824   2.661   3.989 -0.6332  0.0539 -0.5335
17809THY    CP328805   2.623   2.486   4.097  0.3261  0.5135  0.3054
17809THY    HP528806   2.648   2.471   3.991 -3.2191 -0.2557 -1.4495
17809THY    HP628807   2.514   2.480   4.105  0.3873  1.1159 -0.0797
17809THY    HP728808   2.668   2.409   4.160  2.9181 -1.0000  0.4593
17809THY    CA328809   2.543   2.759   3.963 -0.1800 -0.2530  0.0707
17809THY    HA328810   2.581   2.693   3.886  2.3053 -0.9591  2.1839
17809THY    CA428811   2.458   2.869   3.931  0.1279  0.4867  0.3322
17809THY    HA428812   2.437   2.880   3.824 -0.9486  0.7014  0.5011
17809THY    CA528813   2.408   2.959   4.023 -0.0924  0.1124  0.7423
17809THY    CM128814   2.325   3.082   3.988  0.2176  0.8503  0.0557
17809THY    HM128815   2.360   3.127   3.895  0.9951  1.5719  0.9876
17809THY    HM228816   2.319   3.161   4.064  1.7930 -0.7794  1.8370
17809THY    HM328817   2.220   3.056   3.969  0.1126 -1.8707  1.9689
17809THY    CA628818   2.428   2.930   4.155  0.3016 -0.4069 -0.4764
17809THY    HA628819   2.379   2.988   4.232 -2.1142 -2.9593  1.1450
17810THY      O28820   4.931   2.495   3.637  0.2403  0.9987  0.3786
17810THY     HO28821   5.005   2.497   3.701 -0.6909  2.0782  1.8752
17810THY    CA128822   4.980   2.543   3.525  0.1338  0.5421  0.3308
17810THY    CA228823   4.902   2.551   3.409 -0.1566 -0.0919 -0.1242
17810THY    CP128824   4.746   2.529   3.414  0.3145 -0.2907 -0.2547
17810THY    HP128825   4.723   2.521   3.521  2.4449  0.3335  1.1474
17810THY    CP228826   4.694   2.402   3.356 -0.1219 -0.3083  0.4271
17810THY    HP228827   4.760   2.318   3.384 -0.9299  3.1676  0.8103
17810THY    HP328828   4.690   2.407   3.246 -3.3968 -0.3141 -0.3065
17810THY    HP428829   4.597   2.373   3.397  1.1687  2.2307 -0.6459
17810THY    CP328830   4.663   2.652   3.365  0.5011 -0.2494  0.1390
17810THY    HP528831   4.613   2.620   3.273  1.5844 -0.9944  0.5222
17810THY    HP628832   4.719   2.744   3.344  1.5756  0.5130 -0.3291
17810THY    HP728833   4.583   2.675   3.436  0.8797 -0.1180  1.1044
17810THY    CA328834   4.963   2.605   3.292 -0.8706  0.4181  0.2868
17810THY    HA328835   4.901   2.638   3.209 -0.5340 -0.3146 -0.8443
17810THY    CA428836   5.101   2.634   3.289 -0.3963  0.0225  0.1574
17810THY    HA428837   5.149   2.687   3.207  1.0378  1.6959  1.6019
17810THY    CA528838   5.178   2.620   3.411 -0.4281 -0.0520  0.5221
17810THY    CM128839   5.326   2.644   3.415  0.1061 -0.4713 -0.1029
17810THY    HM128840   5.341   2.714   3.498 -2.0260 -0.4949  0.4514
17810THY    HM228841   5.345   2.692   3.318 -0.5535  0.3225  1.8410
17810THY    HM328842   5.381   2.549   3.420 -0.8005  0.3605 -0.6094
17810THY    CA628843   5.117   2.569   3.524  0.1001 -0.4499  0.3798
17810THY    HA628844   5.176   2.554   3.613  1.3307 -1.3494 -0.2594
17811THY      O28845   3.736   5.995   3.547 -0.0071  0.2006 -0.2669
17811THY     HO28846   3.730   6.005   3.450  1.1725  0.0640 -0.7514
17811THY    CA128847   3.619   5.931   3.576  0.1035 -0.3423 -0.3418
17811THY    CA228848   3.595   5.880   3.709 -0.1105  0.2019 -0.5159
17811THY    CP128849   3.696   5.895   3.821  0.2401 -0.2267 -0.6429
17811THY    HP128850   3.730   5.999   3.811 -3.9831 -1.3847  0.8613
17811THY    CP228851   3.819   5.803   3.797 -0.8346 -0.1952  0.2480
17811THY    HP228852   3.778   5.704   3.774 -0.8226 -1.1278  0.4470
17811THY    HP328853   3.874   5.784   3.890 -1.6216  0.2419  0.1112
17811THY    HP428854   3.889   5.835   3.718 -0.3640 -0.0813 -0.4486
17811THY    CP328855   3.640   5.881   3.964  0.2831 -0.6461 -0.0317
17811THY    HP528856   3.645   5.777   3.997 -0.4265  1.0540  0.4431
17811THY    HP628857   3.534   5.906   3.969  0.6776  2.6270  1.4454
17811THY    HP728858   3.684   5.945   4.042 -1.3381  0.3686 -0.1133
17811THY    CA328859   3.475   5.808   3.724  0.1420 -0.2272 -0.4817
17811THY    HA328860   3.463   5.762   3.822  1.6576  0.1990 -0.0246
17811THY    CA428861   3.381   5.790   3.617 -0.4289  0.0189 -0.3942
17811THY    HA428862   3.290   5.736   3.642 -0.3932 -0.2447 -0.5768
17811THY    CA528863   3.404   5.851   3.491  0.4264  0.2475  0.7681
17811THY    CM128864   3.314   5.833   3.374  0.7115  0.5897 -0.9404
17811THY    HM128865   3.224   5.893   3.389 -0.6760 -1.0690 -2.4798
17811THY    HM228866   3.290   5.726   3.360  3.6675  0.9272 -1.7348
17811THY    HM328867   3.359   5.873   3.282 -3.6775  0.2289  4.2606
17811THY    CA628868   3.523   5.931   3.482 -0.1815 -0.2647 -0.7002
17811THY    HA628869   3.542   5.979   3.386  1.8350  0.8734  0.9226
17812THY      O28870   4.656   5.936   1.770 -0.0926 -0.0004  0.2323
17812THY     HO28871   4.607   6.017   1.745 -0.9187 -0.4872 -0.4014
17812THY    CA128872   4.787   5.975   1.764  0.3159  0.4746 -0.0333
17812THY    CA228873   4.891   5.901   1.820 -0.7924 -0.1974  0.4139
17812THY    CP128874   4.862   5.766   1.886  0.8978 -0.2402  0.4059
17812THY    HP128875   4.756   5.745   1.900  0.6950 -1.6670  0.4021
17812THY    CP228876   4.935   5.744   2.023 -0.0972 -0.2389 -0.1920
17812THY    HP228877   5.041   5.740   1.995  0.0129 -0.2086  1.7451
17812THY    HP328878   4.891   5.656   2.071  0.4354  0.5953 -0.0124
17812THY    HP428879   4.924   5.836   2.082  1.1488 -1.6599  0.9351
17812THY    CP328880   4.894   5.648   1.790 -0.5615  0.6450 -0.1607
17812THY    HP528881   4.841   5.655   1.694  0.3519 -0.3236 -4.2648
17812THY    HP628882   4.880   5.558   1.851 -1.3400  0.0492 -0.4511
17812THY    HP728883   4.998   5.674   1.767 -1.3529 -0.3278  2.4817
17812THY    CA328884   5.022   5.953   1.809  1.1918  0.3005 -0.1385
17812THY    HA328885   5.101   5.899   1.862  0.6025 -0.1343 -1.4796
17812THY    CA428886   5.046   6.069   1.743 -0.6929  0.3513 -0.1278
17812THY    HA428887   5.148   6.103   1.724 -0.8729  0.1560  0.3110
17812THY    CA528888   4.937   6.146   1.690 -0.2671  0.6184 -0.2363
17812THY    CM128889   4.959   6.283   1.635 -0.1679  0.2293  0.3914
17812THY    HM128890   4.896   6.354   1.689 -0.3157 -1.6558  1.7812
17812THY    HM228891   4.942   6.290   1.527  0.3920  0.0754 -0.4724
17812THY    HM328892   5.066   6.306   1.642  0.1333 -1.1202 -0.4542
17812THY    CA628893   4.806   6.095   1.700 -0.2843  0.4162  0.1357
17812THY    HA628894   4.728   6.161   1.663  0.8702 -0.8571  0.8501
17813THY      O28895   5.212   8.368   3.136 -0.4818  0.0025 -0.3708
17813THY     HO28896   5.136   8.427   3.121 -1.3643 -0.9530 -1.6633
17813THY    CA128897   5.161   8.244   3.119 -0.2210 -0.2879  0.7824
17813THY    CA228898   5.233   8.137   3.093 -0.2439 -0.0874  0.1532
17813THY    CP128899   5.385   8.158   3.072  0.7017 -0.2885  0.3613
17813THY    HP128900   5.411   8.263   3.056  0.4756 -1.9687  0.1779
17813THY    CP228901   5.417   8.085   2.937 -0.1391  0.1194 -0.5074
17813THY    HP228902   5.522   8.097   2.907  0.2097  1.0258 -1.1269
17813THY    HP328903   5.358   8.113   2.849 -2.1331  1.2345 -0.9906
17813THY    HP428904   5.400   7.978   2.955  0.0769  0.0144 -0.5607
17813THY    CP328905   5.476   8.109   3.184  0.1000 -0.2761  0.4892
17813THY    HP528906   5.428   8.127   3.281 -0.2688 -0.5750  1.1567
17813THY    HP628907   5.572   8.162   3.192 -1.1774 -2.4764  3.4038
17813THY    HP728908   5.491   8.000   3.178 -1.4905  1.5309  0.1040
17813THY    CA328909   5.172   8.010   3.086 -0.3151 -0.1620 -0.2796
17813THY    HA328910   5.231   7.920   3.078  1.4891 -2.5725  1.0101
17813THY    CA428911   5.037   7.995   3.119  0.1970  0.7320 -0.6063
17813THY    HA428912   5.000   7.893   3.121  1.5726  2.8381 -1.1241
17813THY    CA528913   4.964   8.108   3.149  0.5710  0.3567 -0.0619
17813THY    CM128914   4.819   8.094   3.198  0.2519 -0.2319 -0.0258
17813THY    HM128915   4.832   8.087   3.306 -2.8869  0.1706 -1.2939
17813THY    HM228916   4.768   8.004   3.161 -2.3847 -0.5202  1.5069
17813THY    HM328917   4.757   8.181   3.175 -0.3911  1.4800  0.0105
17813THY    CA628918   5.021   8.232   3.143 -0.3522 -0.6252 -0.1111
17813THY    HA628919   4.960   8.320   3.161 -2.0653 -1.1489 -1.1377
17814THY      O28920   7.423   6.536   6.715 -0.1684  0.2916 -0.2754
17814THY     HO28921   7.380   6.453   6.689  1.7601 -0.6749 -1.0354
17814THY    CA128922   7.480   6.502   6.829 -0.9991  0.1402 -0.2243
17814THY    CA228923   7.574   6.591   6.897 -0.4711 -0.6103 -0.2074
17814THY    CP128924   7.621   6.723   6.828 -0.6839  0.2950  0.3916
17814THY    HP128925   7.528   6.763   6.787 -0.7073 -0.0156  0.0202
17814THY    CP228926   7.717   6.700   6.713  0.2247  0.5408 -0.0706
17814THY    HP228927   7.662   6.623   6.657  0.3889  0.8786 -0.4398
17814THY    HP328928   7.811   6.654   6.746 -0.6453  2.3181 -0.6754
17814THY    HP428929   7.731   6.795   6.661 -0.1867 -1.3763 -1.0027
17814THY    CP328930   7.676   6.835   6.917 -0.3860  0.4228  0.5072
17814THY    HP528931   7.597   6.860   6.988 -1.9457 -0.5018 -1.4558
17814THY    HP628932   7.707   6.922   6.857 -0.8639 -0.7603 -0.1072
17814THY    HP728933   7.770   6.806   6.965  0.2566 -1.0058  0.1310
17814THY    CA328934   7.627   6.554   7.022 -0.3077  0.2672 -0.3770
17814THY    HA328935   7.686   6.625   7.080 -1.7525 -1.3710  2.3326
17814THY    CA428936   7.603   6.426   7.077 -0.0578 -0.1162  0.0342
17814THY    HA428937   7.649   6.391   7.169  0.2940 -0.7598 -1.2508
17814THY    CA528938   7.518   6.343   7.010  0.3354  0.0695  1.0952
17814THY    CM128939   7.479   6.210   7.077  0.3375  0.0047  0.0138
17814THY    HM128940   7.373   6.187   7.060  0.1642  0.8329  0.1825
17814THY    HM228941   7.482   6.220   7.186 -1.5033  0.5606 -3.6318
17814THY    HM328942   7.544   6.127   7.048 -0.2877 -0.0988 -0.4460
17814THY    CA628943   7.456   6.371   6.891 -0.8704 -0.5551 -0.4323
17814THY    HA628944   7.390   6.302   6.839  0.0766 -1.4463 -0.6859
17815THY      O28945   4.613   5.529   7.609 -0.1836  0.4732  0.1549
17815THY     HO28946   4.651   5.580   7.683 -3.2060  0.3344  2.9466
17815THY    CA128947   4.491   5.501   7.660  0.0582 -1.0182  0.1257
17815THY    CA228948   4.378   5.499   7.583  0.2500 -0.3393 -0.3277
17815THY    CP128949   4.369   5.529   7.429 -0.0949  0.2592 -0.5647
17815THY    HP128950   4.470   5.544   7.389 -0.5819 -0.6923  0.3211
17815THY    CP228951   4.292   5.663   7.399  0.4399  0.3077  0.0364
17815THY    HP228952   4.274   5.685   7.293 -1.6273  0.6169  0.0495
17815THY    HP328953   4.327   5.756   7.446 -0.1807  0.4787  0.1925
17815THY    HP428954   4.188   5.667   7.434  0.4423  0.4576  4.4664
17815THY    CP328955   4.303   5.419   7.349  0.5036 -0.1906  0.1870
17815THY    HP528956   4.292   5.454   7.246 -1.3717 -0.1345 -0.1406
17815THY    HP628957   4.198   5.400   7.375  0.3405 -1.6095 -1.1083
17815THY    HP728958   4.350   5.320   7.360 -1.1763 -1.9668 -0.8862
17815THY    CA328959   4.265   5.462   7.650 -0.2448 -0.3626 -0.0368
17815THY    HA328960   4.169   5.469   7.601 -0.9277  0.7013 -1.5021
17815THY    CA428961   4.257   5.435   7.786 -0.4956 -0.7923 -0.5161
17815THY    HA428962   4.158   5.430   7.832 -0.1938 -0.1281 -0.5331
17815THY    CA528963   4.375   5.438   7.864 -0.2792  0.4053  0.0787
17815THY    CM128964   4.363   5.397   8.012 -0.3168 -0.3596  0.1948
17815THY    HM128965   4.464   5.383   8.053 -1.5195  2.3546 -1.5373
17815THY    HM228966   4.323   5.297   8.031  0.1569  0.8012  0.2004
17815THY    HM328967   4.315   5.470   8.079  2.8956  2.6176 -0.1353
17815THY    CA628968   4.496   5.465   7.796  0.0111 -0.1095  0.3586
17815THY    HA628969   4.592   5.463   7.847 -0.3580  0.9827  3.8866
17816THY      O28970   3.400   3.476   6.695 -0.3351 -0.1801 -0.1974
17816THY     HO28971   3.475   3.446   6.641  0.2448  1.0108 -0.9481
17816THY    CA128972   3.391   3.399   6.807  0.1127  0.2131 -0.1884
17816THY    CA228973   3.374   3.451   6.939 -0.4186 -0.1276  0.8303
17816THY    CP128974   3.365   3.604   6.957 -0.3760  0.1221  0.2351
17816THY    HP128975   3.347   3.651   6.860  2.3434 -0.5240  0.1002
17816THY    CP228976   3.494   3.665   7.010 -0.7102 -0.0213 -0.5986
17816THY    HP228977   3.498   3.683   7.118  1.5162 -0.0864 -0.4255
17816THY    HP328978   3.503   3.761   6.956  0.4111 -1.3316 -1.4146
17816THY    HP428979   3.584   3.611   6.979  0.1977 -0.6472  1.1884
17816THY    CP328980   3.250   3.657   7.041  0.1729  0.6686  0.8475
17816THY    HP528981   3.250   3.766   7.025  2.2651  0.3140  0.8333
17816THY    HP628982   3.279   3.626   7.142  1.4525 -0.1414 -0.7153
17816THY    HP728983   3.155   3.608   7.018 -0.4742  0.6918  2.0428
17816THY    CA328984   3.379   3.358   7.053 -0.7174  0.2673 -0.2048
17816THY    HA328985   3.368   3.394   7.155 -0.0935 -0.7625  3.2758
17816THY    CA428986   3.389   3.225   7.022 -0.1006 -0.3359  0.2969
17816THY    HA428987   3.395   3.150   7.100 -2.3478 -0.6768 -0.3033
17816THY    CA528988   3.410   3.175   6.891  0.0330  0.0155  0.0481
17816THY    CM128989   3.402   3.029   6.865 -0.2484  0.1128  1.1785
17816THY    HM128990   3.501   2.985   6.878 -0.9712 -0.6409 -0.7966
17816THY    HM228991   3.371   3.017   6.760 -0.8965  0.4879 -0.6448
17816THY    HM328992   3.324   2.980   6.924  1.5359  0.7351 -1.0629
17816THY    CA628993   3.421   3.263   6.785  0.3855  0.1112  0.8272
17816THY    HA628994   3.464   3.231   6.690 -1.3980  0.3178 -2.6275
17817THY      O28995   1.985   3.684   3.729  0.4244  0.3537 -0.0146
17817THY     HO28996   1.974   3.675   3.825  0.2541  0.7465  3.2182
17817THY    CA128997   1.895   3.785   3.710 -0.2411 -0.5418  0.2771
17817THY    CA228998   1.818   3.797   3.595 -0.0079 -0.8949 -0.0641
17817THY    CP128999   1.831   3.703   3.482  0.0193  0.2648  0.5066
17817THY    HP129000   1.900   3.620   3.498 -0.9759 -1.5552 -0.7533
17817THY    CP229001   1.862   3.786   3.354 -0.4422 -0.0940 -0.3783
17817THY    HP229002   1.967   3.814   3.358 -0.8085  1.8411  0.8925
17817THY    HP329003   1.795   3.870   3.332 -0.6955 -0.5685 -0.6984
17817THY    HP429004   1.862   3.718   3.268 -1.6974 -1.4513  1.2504
17817THY    CP329005   1.703   3.631   3.463 -0.8236 -0.1968  0.2096
17817THY    HP529006   1.706   3.540   3.524  0.5861 -0.0600  0.3196
17817THY    HP629007   1.696   3.606   3.357  3.2977 -0.1346 -2.2195
17817THY    HP729008   1.615   3.688   3.495 -0.3941 -2.1929  2.0918
17817THY    CA329009   1.718   3.904   3.592  0.1782  0.1663  0.3929
17817THY    HA329010   1.649   3.921   3.509  0.7968 -0.1538  1.4254
17817THY    CA429011   1.706   3.998   3.696  0.0486  0.2024 -0.7340
17817THY    HA429012   1.626   4.071   3.687 -0.5382 -0.7524 -1.4658
17817THY    CA529013   1.778   3.979   3.810  0.0468  0.5814 -0.1674
17817THY    CM129014   1.766   4.077   3.932  0.4975 -0.0348  0.1205
17817THY    HM129015   1.869   4.111   3.949  0.3888 -0.8089  0.8612
17817THY    HM229016   1.723   4.030   4.021 -1.6466  0.4754  2.7559
17817THY    HM329017   1.712   4.172   3.920 -3.8872 -0.3171 -2.1708
17817THY    CA629018   1.885   3.882   3.812 -0.0194  0.5150 -0.2722
17817THY    HA629019   1.948   3.882   3.900 -1.1535  1.3704  1.0297
17818THY      O29020   4.670   8.524   4.955  0.1814  0.1376 -0.2287
17818THY     HO29021   4.720   8.464   4.897 -0.0237 -0.9131  0.5993
17818THY    CA129022   4.631   8.625   4.885  0.6399 -0.4219  0.1094
17818THY    CA229023   4.591   8.745   4.942 -0.0864 -0.0814 -0.3136
17818THY    CP129024   4.600   8.760   5.095  0.2803  0.3033 -0.2840
17818THY    HP129025   4.666   8.682   5.134 -1.8213  1.3212 -1.6481
17818THY    CP229026   4.463   8.744   5.161  0.5062 -0.3774 -0.0765
17818THY    HP229027   4.459   8.780   5.265 -3.1288 -0.7720  1.1082
17818THY    HP329028   4.444   8.636   5.166 -0.2811  1.0856  0.0977
17818THY    HP429029   4.386   8.791   5.098  0.6857 -2.1189 -1.9719
17818THY    CP329030   4.667   8.893   5.141  0.0554  0.8572 -0.0994
17818THY    HP529031   4.770   8.905   5.105 -0.2155 -0.3056 -1.0007
17818THY    HP629032   4.663   8.910   5.249 -0.5368  0.3198  4.2215
17818THY    HP729033   4.606   8.977   5.107  1.1132  1.1474  0.8141
17818THY    CA329034   4.555   8.849   4.856 -0.0288  0.3933  0.0588
17818THY    HA329035   4.513   8.939   4.901  0.6978  0.2403  0.4845
17818THY    CA429036   4.571   8.832   4.720 -0.0902  0.5246 -0.3233
17818THY    HA429037   4.547   8.916   4.657  0.1854 -2.8570 -2.6014
17818THY    CA529038   4.600   8.707   4.666 -0.2644  0.0721 -0.0003
17818THY    CM129039   4.595   8.689   4.521 -0.5072  0.3936  0.8627
17818THY    HM129040   4.680   8.739   4.472 -1.3134 -1.4617  0.5113
17818THY    HM229041   4.497   8.707   4.475 -0.1450 -1.8520 -2.1522
17818THY    HM329042   4.621   8.587   4.491  0.6111  0.1622  1.1998
17818THY    CA629043   4.628   8.600   4.749  0.4557 -0.0149 -0.0713
17818THY    HA629044   4.654   8.500   4.715 -3.0168 -1.4225 -0.6169
17819THY      O29045   3.587   2.259   3.767 -0.3321 -0.6511  0.4010
17819THY     HO29046   3.662   2.245   3.707  0.3365  0.5616 -1.6966
17819THY    CA129047   3.612   2.366   3.838 -0.0352 -1.0798 -0.6392
17819THY    CA229048   3.513   2.428   3.919 -0.4787 -0.2084  0.6132
17819THY    CP129049   3.369   2.359   3.931 -0.3247  0.6662  0.1573
17819THY    HP129050   3.349   2.313   3.833  0.1451 -1.0061  3.1945
17819THY    CP229051   3.252   2.454   3.938  0.4940 -0.0139 -0.6270
17819THY    HP229052   3.266   2.520   4.025 -0.9800  0.4355 -0.8589
17819THY    HP329053   3.162   2.392   3.945 -0.2034  0.6817  0.4269
17819THY    HP429054   3.250   2.514   3.846  1.0083  1.2087  1.3516
17819THY    CP329055   3.366   2.260   4.047  0.3630  0.5962  0.0289
17819THY    HP529056   3.435   2.185   4.005  0.3720 -0.5480  0.6637
17819THY    HP629057   3.272   2.204   4.050  1.3362 -1.2270 -1.8567
17819THY    HP729058   3.390   2.294   4.148  0.7733  0.2385  0.8198
17819THY    CA329059   3.548   2.536   3.995  0.9479  0.4854 -0.1238
17819THY    HA329060   3.472   2.574   4.062 -0.7245 -1.6639  0.4938
17819THY    CA429061   3.675   2.594   3.984  0.0628 -0.4180 -0.2327
17819THY    HA429062   3.709   2.683   4.037 -0.9916 -3.5193  2.1929
17819THY    CA529063   3.771   2.538   3.899  0.6053 -0.6912 -0.0158
17819THY    CM129064   3.911   2.598   3.879  0.2393 -0.4303  0.2835
17819THY    HM129065   3.909   2.690   3.820 -1.2122 -0.2543  0.3863
17819THY    HM229066   3.988   2.531   3.840  0.6883  1.8181 -0.6202
17819THY    HM329067   3.954   2.635   3.972 -0.5112 -1.1165  3.0955
17819THY    CA629068   3.739   2.422   3.830  1.0462  0.4802 -0.0713
17819THY    HA629069   3.818   2.356   3.795  0.5370  0.9709 -0.9514
17820THY      O29070   7.987   9.167   3.789 -0.2568  0.2371 -0.7170
17820THY     HO29071   7.901   9.158   3.832 -0.8028 -0.5692  0.3070
17820THY    CA129072   7.962   9.144   3.660 -0.0378 -0.4560  0.7431
17820THY    CA229073   8.056   9.146   3.557  0.3175  0.1113  0.4853
17820THY    CP129074   8.201   9.185   3.593  0.3158 -0.3511  0.5424
17820THY    HP129075   8.214   9.200   3.701 -0.7090 -0.2099  0.4887
17820THY    CP229076   8.231   9.319   3.524  0.4058  0.2098 -0.7291
17820THY    HP229077   8.338   9.342   3.533  0.1559  1.1204  0.1393
17820THY    HP329078   8.172   9.403   3.563  0.7251  1.7341 -1.1708
17820THY    HP429079   8.211   9.315   3.416 -0.3158  0.2798  0.3810
17820THY    CP329080   8.301   9.082   3.550 -0.4470 -0.1586 -0.0424
17820THY    HP529081   8.302   9.079   3.440 -2.9041 -0.2504  0.6135
17820THY    HP629082   8.274   8.980   3.581 -1.1898 -1.2246 -0.1796
17820THY    HP729083   8.404   9.108   3.579 -0.4892 -0.5520  0.5834
17820THY    CA329084   8.020   9.093   3.425 -0.2204  0.1474 -0.9404
17820THY    HA329085   8.082   9.086   3.336 -0.1105  0.1101  0.2964
17820THY    CA429086   7.888   9.066   3.398  0.3764  0.0085 -0.5931
17820THY    HA429087   7.852   9.031   3.301  0.1995 -0.8273  1.7152
17820THY    CA529088   7.795   9.080   3.503  0.3009 -0.5749 -0.5113
17820THY    CM129089   7.653   9.054   3.478  0.4529  0.4661  0.2551
17820THY    HM129090   7.581   9.070   3.559  0.0796  0.2463 -0.2918
17820THY    HM229091   7.634   8.959   3.428 -2.2127 -1.4984  1.6922
17820THY    HM329092   7.622   9.129   3.405 -1.3649  0.0369 -0.8650
17820THY    CA629093   7.833   9.107   3.635 -0.2357  0.0143 -0.7978
17820THY    HA629094   7.763   9.111   3.717  0.3681  0.6400 -2.3888
17821THY      O29095   9.215   0.952   2.125  0.5450 -0.3230 -0.3523
17821THY     HO29096   9.273   0.913   2.192  1.0554 -0.4972  0.0893
17821THY    CA129097   9.105   0.870   2.113 -0.0780  0.3998 -0.5236
17821THY    CA229098   8.988   0.925   2.060  0.1640 -0.0217 -0.4267
17821THY    CP129099   8.985   1.077   2.015  0.1717 -0.1969 -0.5938
17821THY    HP129100   9.074   1.131   2.050 -0.1403  1.5819 -1.1566
17821THY    CP229101   8.865   1.159   2.065 -0.2666 -0.3515 -0.4543
17821THY    HP229102   8.864   1.154   2.175  3.0894 -0.2271 -0.5633
17821THY    HP329103   8.769   1.120   2.028 -0.0273 -0.5963 -0.8154
17821THY    HP429104   8.878   1.264   2.037 -0.5378 -0.8821 -0.5569
17821THY    CP329105   8.992   1.074   1.860 -0.0222 -0.1696  0.1024
17821THY    HP529106   8.914   1.005   1.823 -0.8614 -0.9015  1.4004
17821THY    HP629107   9.086   1.028   1.828  0.1721  0.0713  0.3317
17821THY    HP729108   8.996   1.177   1.824 -4.1539  0.9557  0.8350
17821THY    CA329109   8.877   0.841   2.050 -0.2727  0.6443 -0.5688
17821THY    HA329110   8.783   0.888   2.020  0.0764  0.7355  0.2015
17821THY    CA429111   8.889   0.708   2.090  0.1856  0.3631 -0.6251
17821THY    HA429112   8.805   0.639   2.095  0.0145  3.5278 -0.3248
17821THY    CA529113   9.007   0.654   2.146  0.0413  0.2356 -0.2649
17821THY    CM129114   9.013   0.508   2.179 -0.5527 -0.2980 -0.3649
17821THY    HM129115   9.099   0.479   2.242 -0.1202 -0.3557  0.7261
17821THY    HM229116   9.008   0.447   2.088  1.7002  0.1125 -1.2650
17821THY    HM329117   8.923   0.492   2.239 -1.2907 -1.0435  0.8412
17821THY    CA629118   9.119   0.737   2.153 -0.3777  0.9120 -0.3649
17821THY    HA629119   9.218   0.702   2.183 -0.9018  0.5742 -2.2692
17822THY      O29120   6.903   4.538   7.450  0.5131 -0.7024 -0.4497
17822THY     HO29121   6.902   4.632   7.477 -1.0530 -3.7180  0.5180
17822THY    CA129122   6.848   4.477   7.556 -0.3328 -0.2613 -0.0923
17822THY    CA229123   6.827   4.341   7.563  0.6017  0.7477  0.9165
17822THY    CP129124   6.871   4.242   7.444 -0.5729 -0.2249 -0.4000
17822THY    HP129125   6.899   4.298   7.354  0.8277  0.7651  0.5623
17822THY    CP229126   6.748   4.150   7.405 -0.8911 -0.0895 -0.2264
17822THY    HP229127   6.658   4.209   7.386 -0.2096 -3.1058 -0.0002
17822THY    HP329128   6.718   4.081   7.484 -0.7015  1.3700  1.3064
17822THY    HP429129   6.768   4.098   7.310  1.1616  1.5042 -2.6335
17822THY    CP329130   7.000   4.165   7.480 -0.2755  0.3285 -0.0276
17822THY    HP529131   7.085   4.234   7.476 -0.1187  0.0130 -0.2373
17822THY    HP629132   7.021   4.088   7.405  1.2748  1.0709 -0.3529
17822THY    HP729133   6.995   4.115   7.578 -0.7117  0.6641  0.6596
17822THY    CA329134   6.773   4.291   7.685  0.5026 -0.0069  0.1599
17822THY    HA329135   6.772   4.183   7.701  0.1467  1.7253  0.3820
17822THY    CA429136   6.743   4.381   7.787 -0.0086 -0.1191  0.6065
17822THY    HA429137   6.706   4.345   7.883  0.1297 -0.4108 -0.3312
17822THY    CA529138   6.760   4.517   7.770 -0.5611 -0.3392  0.0581
17822THY    CM129139   6.725   4.619   7.865  0.1713  0.2357 -0.1083
17822THY    HM129140   6.651   4.686   7.820  2.0406  2.5938  3.9654
17822THY    HM229141   6.807   4.690   7.882  0.1970 -3.8367  1.0637
17822THY    HM329142   6.690   4.580   7.962 -1.6623 -0.9355 -1.5255
17822THY    CA629143   6.815   4.563   7.653 -0.0838  0.3696  0.5048
17822THY    HA629144   6.831   4.670   7.648  0.1655  1.0918  0.5071
17823THY      O29145   8.899   8.690   3.306  0.8688 -0.2413 -0.6687
17823THY     HO29146   8.889   8.738   3.222 -1.4087 -0.3164 -1.1474
17823THY    CA129147   9.036   8.671   3.324 -0.6960  0.8960 -0.1908
17823THY    CA229148   9.100   8.546   3.289 -0.6725 -0.6650  0.4094
17823THY    CP129149   9.024   8.426   3.262  0.3846  0.1072 -0.5072
17823THY    HP129150   8.916   8.445   3.257  0.6780  0.5025  1.5617
17823THY    CP229151   9.043   8.326   3.369  0.0952 -0.8515  0.1804
17823THY    HP229152   8.978   8.351   3.454 -4.0276 -3.2719 -1.2739
17823THY    HP329153   9.144   8.316   3.409 -0.5736  0.7185 -0.8059
17823THY    HP429154   9.008   8.226   3.339 -0.4137 -0.8923  0.3653
17823THY    CP329155   9.072   8.358   3.133 -0.2907 -0.3304  0.4074
17823THY    HP529156   9.074   8.441   3.063  0.2956  0.2521  0.8963
17823THY    HP629157   8.998   8.284   3.098 -1.4042  2.6783 -0.0771
17823THY    HP729158   9.175   8.322   3.138 -0.4981  2.3510 -0.0848
17823THY    CA329159   9.242   8.547   3.303 -0.0375 -0.3945  1.3170
17823THY    HA329160   9.286   8.447   3.296 -2.0943 -1.1669  0.4192
17823THY    CA429161   9.315   8.659   3.337 -0.1514  0.2841  0.4235
17823THY    HA429162   9.423   8.650   3.342  0.0001  0.3373  2.0050
17823THY    CA529163   9.251   8.775   3.371  0.0610  0.0943  0.0411
17823THY    CM129164   9.335   8.896   3.403  0.4575  0.5685  0.3113
17823THY    HM129165   9.400   8.912   3.316  1.6738  0.8082 -2.7230
17823THY    HM229166   9.403   8.875   3.485  1.0077  0.1073  0.2726
17823THY    HM329167   9.271   8.979   3.434 -2.0973 -0.2717 -1.2248
17823THY    CA629168   9.109   8.781   3.362 -0.5525 -0.5787 -0.1411
17823THY    HA629169   9.072   8.882   3.372  2.4210  1.7889  0.8578
17824THY      O29170   3.008   0.625   3.906 -0.1068 -0.0614 -0.0619
17824THY     HO29171   3.090   0.594   3.947 -0.0401 -0.8007 -0.9108
17824THY    CA129172   2.925   0.646   4.012 -0.8757  0.4973  0.2744
17824THY    CA229173   2.806   0.713   4.000 -0.1962 -1.2027 -1.0855
17824THY    CP129174   2.760   0.775   3.871  0.3531  0.4494  0.2113
17824THY    HP129175   2.839   0.780   3.794  0.0100  0.1656  1.7639
17824THY    CP229176   2.722   0.925   3.893 -0.0621 -0.3126 -0.1914
17824THY    HP229177   2.741   0.976   3.798  0.7744  0.2970  0.6871
17824THY    HP329178   2.791   0.972   3.964 -0.6425 -0.7180  1.3335
17824THY    HP429179   2.624   0.943   3.941  0.2146 -0.2544  1.3549
17824THY    CP329180   2.633   0.700   3.812  0.2610  0.0586  0.9689
17824THY    HP529181   2.620   0.714   3.704 -0.6021  0.0689  0.3331
17824THY    HP629182   2.543   0.738   3.862 -0.3747 -0.1558 -0.2085
17824THY    HP729183   2.637   0.591   3.826 -0.5239  0.1059  0.9442
17824THY    CA329184   2.727   0.723   4.119  0.3521  0.0641  1.2038
17824THY    HA329185   2.627   0.765   4.110 -0.1161 -4.9087 -0.3062
17824THY    CA429186   2.766   0.673   4.239  1.1044  0.0364  0.2921
17824THY    HA429187   2.703   0.699   4.324 -2.1584 -2.2176  0.3336
17824THY    CA529188   2.894   0.613   4.252  0.3203  0.2003 -0.4611
17824THY    CM129189   2.961   0.593   4.382 -0.3623 -0.0307 -0.2929
17824THY    HM129190   2.897   0.540   4.453  1.8500  1.6606 -0.8423
17824THY    HM229191   2.989   0.693   4.418  2.9852 -2.0330 -0.3609
17824THY    HM329192   3.052   0.537   4.359  0.2763 -1.8841  1.3997
17824THY    CA629193   2.971   0.599   4.133 -0.1816  0.1627 -0.1351
17824THY    HA629194   3.072   0.559   4.136 -0.1475  3.0655 -0.0240
17825THY      O29195   4.776   0.685   7.434 -0.2113 -0.2180  0.2520
17825THY     HO29196   4.708   0.733   7.384  1.5253 -1.4345  1.5829
17825THY    CA129197   4.725   0.631   7.547  0.4908 -0.4216 -0.2789
17825THY    CA229198   4.805   0.640   7.665  0.2766  0.7558  0.9738
17825THY    CP129199   4.945   0.694   7.672 -0.1353 -0.1882  0.0095
17825THY    HP129200   4.987   0.697   7.571  1.9171  0.6612  1.6780
17825THY    CP229201   5.054   0.610   7.745  0.4305  0.6103 -0.4679
17825THY    HP229202   5.043   0.506   7.712  0.7756  1.4265 -0.7720
17825THY    HP329203   5.038   0.601   7.853 -0.1137  0.4734 -1.2258
17825THY    HP429204   5.156   0.647   7.727  0.6953  1.2398 -0.8820
17825THY    CP329205   4.937   0.826   7.745  0.1108  0.5523 -0.2085
17825THY    HP529206   4.851   0.839   7.811 -1.1386 -1.0690  0.1088
17825THY    HP629207   4.924   0.903   7.668  0.1041  3.0718  2.4903
17825THY    HP729208   5.035   0.851   7.785 -0.5002 -0.2348  4.1727
17825THY    CA329209   4.739   0.604   7.791 -0.0917 -0.1507 -0.3457
17825THY    HA329210   4.796   0.616   7.882  0.3792 -0.2808 -1.5062
17825THY    CA429211   4.605   0.568   7.791  0.5935 -0.5859  0.3718
17825THY    HA429212   4.557   0.565   7.888 -0.6968 -1.2274 -1.3819
17825THY    CA529213   4.528   0.564   7.668 -0.1249 -0.0702  0.7067
17825THY    CM129214   4.389   0.522   7.675  0.7758  0.0455  0.0972
17825THY    HM129215   4.343   0.500   7.578  2.6567 -0.8122 -0.2205
17825THY    HM229216   4.330   0.599   7.726 -1.4557 -1.2219 -0.6788
17825THY    HM329217   4.396   0.431   7.737  1.1439  0.8002  0.6300
17825THY    CA629218   4.591   0.593   7.545  0.3843  0.4859  0.1297
17825THY    HA629219   4.529   0.593   7.456 -0.1196  0.8198 -0.9614
17826THY      O29220   2.683   2.384   3.073  0.5509  0.4159 -0.0468
17826THY     HO29221   2.752   2.337   3.022 -1.5728 -3.6124  0.7767
17826THY    CA129222   2.678   2.333   3.194 -0.2151  0.8230  0.6543
17826THY    CA229223   2.612   2.386   3.300 -0.1461 -0.0237 -0.7373
17826THY    CP129224   2.540   2.525   3.285  0.2382  0.3186  0.7425
17826THY    HP129225   2.572   2.569   3.190  0.7970  0.9351  1.7053
17826THY    CP229226   2.564   2.632   3.388 -0.1722 -0.1103  0.6433
17826THY    HP229227   2.672   2.621   3.406 -0.3162 -0.5884 -2.4640
17826THY    HP329228   2.515   2.604   3.482 -1.0808 -0.4025  1.2061
17826THY    HP429229   2.544   2.739   3.376 -1.3436  1.7519  0.6928
17826THY    CP329230   2.391   2.512   3.279 -0.0993 -0.0826  0.0949
17826THY    HP529231   2.355   2.436   3.350 -1.0666 -1.5602 -0.8829
17826THY    HP629232   2.368   2.474   3.178  2.4915 -0.2761 -1.2447
17826THY    HP729233   2.340   2.609   3.281 -0.0083 -1.4532  0.1879
17826THY    CA329234   2.613   2.319   3.424 -0.0844 -0.6394  0.1002
17826THY    HA329235   2.553   2.357   3.506 -0.8476 -1.5562  0.9113
17826THY    CA429236   2.677   2.198   3.434  0.3946  0.5647 -0.4175
17826THY    HA429237   2.665   2.137   3.523 -0.8593  0.2455 -0.6530
17826THY    CA529238   2.752   2.149   3.329  0.6331  0.3498 -0.5361
17826THY    CM129239   2.826   2.020   3.345 -0.3092  0.1471 -0.2365
17826THY    HM129240   2.764   1.949   3.400  0.9269  0.4608 -1.1089
17826THY    HM229241   2.917   2.026   3.407 -1.1577  1.3519  0.6081
17826THY    HM329242   2.847   1.978   3.246 -1.2523 -0.9122  1.6457
17826THY    CA629243   2.754   2.220   3.208  0.4694 -0.5891  0.8651
17826THY    HA629244   2.804   2.179   3.120 -2.7210 -1.9490 -0.4137
17827THY      O29245   1.879   1.489   1.845  0.0402 -0.3620 -0.4903
17827THY     HO29246   1.799   1.437   1.863  0.9854 -0.3316 -2.0121
17827THY    CA129247   1.931   1.430   1.734 -0.0205 -0.3179  0.2096
17827THY    CA229248   2.035   1.484   1.653  0.0423 -0.0308 -0.2963
17827THY    CP129249   2.084   1.631   1.683 -0.3019  0.6288 -0.3628
17827THY    HP129250   2.003   1.685   1.735  2.4459  2.6163  2.2026
17827THY    CP229251   2.119   1.709   1.549 -0.1832  0.3866 -0.0373
17827THY    HP229252   2.222   1.685   1.520 -0.1295  0.3771  0.1973
17827THY    HP329253   2.122   1.818   1.561  0.3685 -0.3870  0.0443
17827THY    HP429254   2.037   1.692   1.478  0.1062  0.3717 -1.5019
17827THY    CP329255   2.198   1.631   1.793 -0.3215 -0.4330 -0.5974
17827THY    HP529256   2.210   1.731   1.837 -0.8879 -0.2150 -0.6235
17827THY    HP629257   2.297   1.601   1.756  0.0556 -1.0943  1.2898
17827THY    HP729258   2.169   1.559   1.869 -1.3612  0.3423  0.6060
17827THY    CA329259   2.085   1.410   1.540  0.2359  0.2114  0.2614
17827THY    HA329260   2.160   1.458   1.477  0.7114  1.0919  0.6929
17827THY    CA429261   2.050   1.277   1.515 -0.4698 -0.1749 -0.2958
17827THY    HA429262   2.087   1.217   1.433 -0.6648 -1.5274  1.3568
17827THY    CA529263   1.957   1.220   1.601  0.3810  0.4336 -0.9493
17827THY    CM129264   1.915   1.083   1.575  0.0130  0.8042  0.3462
17827THY    HM129265   1.990   1.004   1.589  0.0805  1.5708  0.5442
17827THY    HM229266   1.881   1.081   1.471  0.6034  0.5868 -1.9436
17827THY    HM329267   1.836   1.050   1.644 -0.5888 -0.5743 -1.2156
17827THY    CA629268   1.896   1.295   1.707  0.1769  0.4210 -0.1629
17827THY    HA629269   1.824   1.240   1.766 -0.7770 -1.1015 -0.6159
17828THY      O29270   8.312   2.981   4.841 -0.0505 -0.3931 -0.1332
17828THY     HO29271   8.365   3.001   4.762 -2.4271 -2.1171 -0.2693
17828THY    CA129272   8.373   2.885   4.913 -0.0600  0.5031  0.0026
17828THY    CA229273   8.311   2.769   4.964  0.0411  0.2111 -0.5806
17828THY    CP129274   8.165   2.750   4.929  0.2861 -0.3251 -0.4498
17828THY    HP129275   8.124   2.843   4.887 -0.2272 -0.3854 -0.6984
17828THY    CP229276   8.079   2.735   5.055  0.2865 -0.3676 -0.0344
17828THY    HP229277   7.972   2.734   5.031  0.0441  0.6786 -0.6655
17828THY    HP329278   8.083   2.810   5.135 -1.5663 -2.1717  2.1569
17828THY    HP429279   8.095   2.637   5.101 -0.7045 -0.5205 -0.2765
17828THY    CP329280   8.148   2.631   4.829  0.7208 -0.4144  0.4030
17828THY    HP529281   8.177   2.668   4.730 -1.6709 -0.3961  2.6646
17828THY    HP629282   8.042   2.604   4.819  0.5736 -0.2017  0.8803
17828THY    HP729283   8.188   2.542   4.879 -2.9752  0.7762 -0.7785
17828THY    CA329284   8.382   2.681   5.054  0.3755 -0.0909 -0.2428
17828THY    HA329285   8.329   2.598   5.099  0.5883  1.5601  0.4681
17828THY    CA429286   8.513   2.700   5.081  0.0533  0.7281 -0.7478
17828THY    HA429287   8.575   2.643   5.150  1.0867  3.1673  2.9857
17828THY    CA529288   8.570   2.828   5.030 -0.1910 -0.8637  0.8108
17828THY    CM129289   8.704   2.867   5.088  0.4634  0.2181  0.2556
17828THY    HM129290   8.710   2.977   5.091 -1.1643  0.3941  0.3723
17828THY    HM229291   8.791   2.820   5.042  1.0627  0.3746  1.1942
17828THY    HM329292   8.732   2.834   5.188  2.0028 -0.6041 -1.0468
17828THY    CA629293   8.500   2.915   4.951  0.5523 -0.4505  0.3448
17828THY    HA629294   8.554   3.003   4.918 -0.0174  0.5862  1.1113
17829THY      O29295   5.710   3.997   1.829  0.6790 -0.7080 -0.4435
17829THY     HO29296   5.702   4.011   1.733  0.8191 -1.0564 -2.4654
17829THY    CA129297   5.605   3.921   1.862 -0.4113 -0.3522 -0.0409
17829THY    CA229298   5.550   3.923   1.993  0.4467  0.6451  0.7467
17829THY    CP129299   5.612   4.002   2.109 -0.2232 -0.2255  1.5470
17829THY    HP129300   5.692   4.058   2.060  1.1121  0.1339  0.0243
17829THY    CP229301   5.686   3.902   2.216 -0.6440 -0.7335 -0.9265
17829THY    HP229302   5.616   3.842   2.277  1.2265  1.2546 -1.2083
17829THY    HP329303   5.743   3.956   2.292  0.9671 -0.9563 -2.2488
17829THY    HP429304   5.748   3.832   2.159  1.2676 -0.9572  0.8582
17829THY    CP329305   5.523   4.102   2.179 -0.2172 -0.0553 -0.2068
17829THY    HP529306   5.455   4.150   2.107  0.3393  0.5584  1.5717
17829THY    HP629307   5.584   4.183   2.220 -2.0925  1.5963  0.4557
17829THY    HP729308   5.460   4.067   2.262  0.1588  1.2115  1.8966
17829THY    CA329309   5.426   3.858   2.010  0.6667 -0.1535  0.5182
17829THY    HA329310   5.387   3.847   2.111  0.6166 -0.4212 -2.8231
17829THY    CA429311   5.363   3.797   1.903 -0.1177  0.3541 -0.5085
17829THY    HA429312   5.267   3.748   1.917 -0.7115 -0.0777  0.4886
17829THY    CA529313   5.424   3.803   1.781  0.2634 -0.6059 -0.2025
17829THY    CM129314   5.352   3.751   1.656  0.1570  0.2607 -0.2513
17829THY    HM129315   5.402   3.667   1.605 -0.3446  0.0521 -0.4224
17829THY    HM229316   5.350   3.829   1.580  0.8112  0.9444  0.4561
17829THY    HM329317   5.250   3.723   1.683  0.4084 -0.9768 -2.5976
17829THY    CA629318   5.548   3.857   1.758 -0.8914 -0.1376 -0.1814
17829THY    HA629319   5.587   3.849   1.657  0.9483  0.5664 -0.4801
17830THY      O29320   3.083   2.104   6.391  0.5818  0.3770  0.0932
17830THY     HO29321   3.168   2.150   6.400  1.0811  0.4217 -0.7992
17830THY    CA129322   2.998   2.207   6.370 -0.6629  0.2173  0.3672
17830THY    CA229323   2.869   2.184   6.335 -0.0347  0.0528 -0.2053
17830THY    CP129324   2.810   2.045   6.330 -0.1799 -0.7782 -0.0338
17830THY    HP129325   2.861   1.983   6.404  0.8197 -0.4299  1.1740
17830THY    CP229326   2.831   1.979   6.195  0.2554  0.2860  1.1463
17830THY    HP229327   2.757   1.898   6.194 -2.0996  2.8822  3.0564
17830THY    HP329328   2.935   1.944   6.194  0.2033 -0.3694  1.0061
17830THY    HP429329   2.814   2.041   6.106  0.7228 -2.0275 -1.8221
17830THY    CP329330   2.661   2.036   6.366  0.1162  0.6128 -0.4287
17830THY    HP529331   2.622   2.083   6.276  2.4678  0.3425  1.1635
17830THY    HP629332   2.639   2.097   6.455 -2.3587 -0.5646  0.5356
17830THY    HP729333   2.627   1.934   6.387  0.0049  3.2096  0.0618
17830THY    CA329334   2.796   2.295   6.302 -0.2048  0.2176 -0.2337
17830THY    HA329335   2.697   2.270   6.264 -0.0181  0.6652 -1.7310
17830THY    CA429336   2.843   2.431   6.314  0.8505 -0.3291 -0.2529
17830THY    HA429337   2.784   2.521   6.298 -1.2414  1.3506 -1.2541
17830THY    CA529338   2.975   2.441   6.358  0.2936  0.4280 -0.9530
17830THY    CM129339   3.029   2.578   6.383 -0.3822  0.5975  0.5345
17830THY    HM129340   2.944   2.643   6.403  0.2475  2.1391  0.9247
17830THY    HM229341   3.073   2.607   6.286 -0.3563  0.6238  0.5828
17830THY    HM329342   3.097   2.576   6.470  0.8408 -0.2780  1.5732
17830THY    CA629343   3.054   2.330   6.366 -0.3227 -0.6501 -0.1063
17830THY    HA629344   3.157   2.339   6.398  0.0432 -1.3651 -1.5217
17831THY      O29345   2.313   5.060   5.919  0.8609  0.4418  0.3001
17831THY     HO29346   2.314   5.074   6.015  2.1480  0.5424 -0.3335
17831THY    CA129347   2.260   4.943   5.888 -0.0597  0.1075  0.2808
17831THY    CA229348   2.127   4.933   5.841 -0.3543 -0.4392 -0.3320
17831THY    CP129349   2.039   5.063   5.833 -0.5124 -0.1156  0.6392
17831THY    HP129350   2.086   5.152   5.875 -0.7459  0.3795  0.5318
17831THY    CP229351   1.913   5.053   5.922 -0.2812 -0.1939  0.4897
17831THY    HP229352   1.942   5.030   6.025  0.9948 -0.8581 -1.0751
17831THY    HP329353   1.841   4.976   5.891 -0.5165  0.5929  0.3833
17831THY    HP429354   1.852   5.144   5.913 -2.7801 -1.4509 -1.2042
17831THY    CP329355   1.994   5.087   5.689  0.2598 -0.4097 -0.7829
17831THY    HP529356   2.088   5.106   5.636  2.0014  1.8891 -2.3759
17831THY    HP629357   1.929   5.175   5.692 -1.2763  1.9589 -1.9007
17831THY    HP729358   1.928   5.004   5.662 -2.4350  0.8543  0.8205
17831THY    CA329359   2.073   4.805   5.805  0.1227  0.7179 -0.3914
17831THY    HA329360   1.978   4.796   5.753  0.1559  0.2427  1.5004
17831THY    CA429361   2.153   4.692   5.818 -0.6416  0.4133 -0.1546
17831THY    HA429362   2.108   4.603   5.775 -2.2090  1.4408  0.1169
17831THY    CA529363   2.291   4.707   5.850 -0.4959  0.7425 -1.0314
17831THY    CM129364   2.379   4.582   5.850 -0.4685 -0.1808 -0.2389
17831THY    HM129365   2.361   4.526   5.758  1.1480  1.2711 -3.4437
17831THY    HM229366   2.361   4.522   5.940  1.6079 -0.2792 -1.1155
17831THY    HM329367   2.486   4.608   5.853 -0.3327 -1.5370 -0.5894
17831THY    CA629368   2.343   4.826   5.900  0.2392  0.2205 -0.0764
17831THY    HA629369   2.447   4.834   5.931  1.3215 -2.6107 -1.5254
17832THY      O29370   1.839   7.645   4.735  0.6660 -0.2214  0.0005
17832THY     HO29371   1.821   7.714   4.801 -0.4082 -0.8680  0.3517
17832THY    CA129372   1.748   7.544   4.748 -0.2899 -0.4534 -1.2306
17832THY    CA229373   1.724   7.455   4.643 -0.9184  0.6187 -0.4545
17832THY    CP129374   1.800   7.459   4.506  0.5399  0.2490 -0.2135
17832THY    HP129375   1.893   7.514   4.527 -1.5557  5.4023  2.0486
17832THY    CP229376   1.714   7.555   4.413  0.1841 -0.3099  0.3340
17832THY    HP229377   1.737   7.550   4.306 -0.3318 -0.5812  2.6901
17832THY    HP329378   1.726   7.659   4.444  0.3018 -1.0955  0.5612
17832THY    HP429379   1.609   7.525   4.427  0.6913 -0.6411 -1.8213
17832THY    CP329380   1.837   7.321   4.452 -0.5309  0.3803 -0.5484
17832THY    HP529381   1.889   7.256   4.523 -0.5243  0.9862  0.0991
17832THY    HP629382   1.909   7.338   4.370 -0.2838  0.6955 -0.0378
17832THY    HP729383   1.750   7.265   4.415 -1.6011 -1.0862  1.8998
17832THY    CA329384   1.633   7.352   4.669  0.0537  0.4209 -0.5615
17832THY    HA329385   1.616   7.279   4.590  2.2663  1.2300 -2.0491
17832THY    CA429386   1.578   7.333   4.801  0.1273 -0.1799 -0.1810
17832THY    HA429387   1.511   7.249   4.817 -1.3852 -3.1835  0.3485
17832THY    CA529388   1.591   7.431   4.900 -0.4576 -0.1581 -0.0226
17832THY    CM129389   1.532   7.408   5.034  0.1058 -0.0806 -0.9075
17832THY    HM129390   1.577   7.481   5.102  0.3176  0.3808 -1.4633
17832THY    HM229391   1.567   7.307   5.058 -0.3555 -2.9252 -1.8332
17832THY    HM329392   1.423   7.418   5.036 -0.2294 -5.5554 -0.6584
17832THY    CA629393   1.687   7.534   4.875 -0.0561  0.1112 -0.0630
17832THY    HA629394   1.718   7.594   4.960  0.4874  0.5280 -0.9131
17833THY      O29395   9.006   1.884   6.232  0.3977 -0.4935 -0.7457
17833THY     HO29396   9.009   1.924   6.143 -0.5207 -0.6788 -1.0781
17833THY    CA129397   9.005   1.746   6.208  1.3266  0.4177 -0.1518
17833THY    CA229398   9.002   1.643   6.310 -0.7727 -0.4332  0.1999
17833THY    CP129399   9.004   1.678   6.460  0.5376  0.1275  0.1471
17833THY    HP129400   9.033   1.783   6.471 -0.6488 -0.0635  0.5007
17833THY    CP229401   9.103   1.600   6.538  0.2880 -0.4916 -0.4930
17833THY    HP229402   9.189   1.589   6.472 -0.7103 -1.7221 -1.1313
17833THY    HP329403   9.071   1.495   6.543  0.3766 -1.1646 -0.5570
17833THY    HP429404   9.114   1.640   6.640  1.0061 -0.6030 -0.3850
17833THY    CP329405   8.861   1.664   6.514  0.6307  0.1181 -0.6011
17833THY    HP529406   8.793   1.739   6.470 -2.2171  0.7846 -2.6455
17833THY    HP629407   8.865   1.681   6.622 -1.2035 -0.1137  2.1136
17833THY    HP729408   8.813   1.566   6.504 -0.0906  0.5441 -0.3029
17833THY    CA329409   9.026   1.508   6.268  0.6216  0.3160 -0.2746
17833THY    HA329410   9.022   1.421   6.332  0.6396  0.7662  0.0480
17833THY    CA429411   9.023   1.485   6.132  0.5084  0.5401  0.3947
17833THY    HA429412   9.032   1.384   6.094  0.1880 -0.1634  0.6232
17833THY    CA529413   9.030   1.588   6.034 -0.7420 -0.4978 -0.4795
17833THY    CM129414   9.030   1.552   5.892  0.1559  0.2372 -0.9757
17833THY    HM129415   9.087   1.462   5.865  1.3093  0.6831 -0.3978
17833THY    HM229416   9.077   1.628   5.828 -0.2148  0.4518 -0.5606
17833THY    HM329417   8.924   1.552   5.864 -0.3370  1.7812  1.5407
17833THY    CA629418   9.024   1.720   6.076 -0.0322 -0.1925 -0.1562
17833THY    HA629419   9.022   1.801   6.003  3.2869  1.8956  2.0555
17834THY      O29420   2.134   5.941   5.000  0.1653  0.5778  0.8516
17834THY     HO29421   2.182   5.889   5.066  0.0866 -0.8894 -1.2015
17834THY    CA129422   2.028   5.864   4.976 -0.0545 -0.5264 -0.6079
17834THY    CA229423   1.936   5.886   4.871  0.2696 -0.0858 -0.2703
17834THY    CP129424   1.924   6.025   4.795  0.4905  0.4304  0.3457
17834THY    HP129425   1.958   6.104   4.863 -1.3517 -1.0732  2.5477
17834THY    CP229426   1.781   6.075   4.766 -0.0866  0.4204 -0.2904
17834THY    HP229427   1.750   6.025   4.673 -0.7799 -0.3512  1.4698
17834THY    HP329428   1.785   6.184   4.758 -0.1393  0.6783 -0.2696
17834THY    HP429429   1.721   6.048   4.854  0.2094  1.9096  3.3781
17834THY    CP329430   2.004   6.022   4.668 -0.1781  0.6609 -0.4668
17834THY    HP529431   2.111   6.000   4.682 -0.1156  0.5744 -0.2324
17834THY    HP629432   1.988   6.118   4.618 -1.5505 -0.6418 -1.3380
17834THY    HP729433   1.969   5.944   4.599  1.1085 -0.6022  0.0124
17834THY    CA329434   1.860   5.778   4.831 -0.0407  0.6211  0.2230
17834THY    HA329435   1.785   5.797   4.755  1.1638 -0.0362  2.7320
17834THY    CA429436   1.868   5.651   4.885  0.4644  0.3746  0.1607
17834THY    HA429437   1.809   5.562   4.861 -0.0474  1.8114  0.0898
17834THY    CA529438   1.951   5.635   5.000 -0.2595  0.3867 -0.1887
17834THY    CM129439   1.959   5.497   5.073  0.0706  0.3177 -0.1768
17834THY    HM129440   1.889   5.434   5.016  0.3576  1.8379 -1.9387
17834THY    HM229441   1.912   5.500   5.172  1.7331  1.1982 -1.4515
17834THY    HM329442   2.062   5.460   5.072 -0.1320  0.5713 -0.7590
17834THY    CA629443   2.023   5.737   5.047 -0.6420  0.1571  0.4465
17834THY    HA629444   2.077   5.720   5.140 -1.6753  1.1989  2.4772
17835THY      O29445   9.278   1.129   6.681 -0.2310  0.2337  0.3475
17835THY     HO29446   9.361   1.082   6.700  0.4450 -0.6027  1.1635
17835THY    CA129447   9.290   1.182   6.554  0.8816 -1.5520 -0.7963
17835THY    CA229448   9.204   1.140   6.449 -0.2291 -0.0689  0.3061
17835THY    CP129449   9.121   1.021   6.469  0.3545  0.4471  0.6357
17835THY    HP129450   9.095   1.006   6.574 -0.5313  0.0930 -0.4445
17835THY    CP229451   9.190   0.892   6.418  0.7625  0.1643 -0.3559
17835THY    HP229452   9.154   0.809   6.479 -0.0202  3.2962  2.1055
17835THY    HP329453   9.299   0.907   6.421  1.0840 -0.1983 -2.3317
17835THY    HP429454   9.163   0.880   6.312 -1.6302  0.3964  1.9658
17835THY    CP329455   8.987   1.047   6.402  0.4479  0.3895 -0.3878
17835THY    HP529456   8.908   0.980   6.438 -0.5715 -0.5457  0.2855
17835THY    HP629457   8.993   1.027   6.295 -0.9386 -0.0399  1.3129
17835THY    HP729458   8.946   1.145   6.427 -0.5641  0.8888 -0.9153
17835THY    CA329459   9.222   1.202   6.327  0.0676 -0.7580  0.8405
17835THY    HA329460   9.164   1.158   6.246  0.0913 -0.7453  0.7870
17835THY    CA429461   9.331   1.288   6.301  0.1784  0.3663  0.0272
17835THY    HA429462   9.355   1.321   6.200 -0.9598  0.2372  0.5091
17835THY    CA529463   9.404   1.330   6.411  0.3127 -0.0005  0.2219
17835THY    CM129464   9.508   1.435   6.390  0.1120  0.4491  0.2274
17835THY    HM129465   9.553   1.419   6.291 -1.0787 -0.4117  1.7743
17835THY    HM229466   9.584   1.433   6.468 -0.0957  0.6774  0.9400
17835THY    HM329467   9.468   1.536   6.371  1.8868  0.6836  1.0030
17835THY    CA629468   9.381   1.284   6.540  0.0149 -0.6810 -0.1102
17835THY    HA629469   9.430   1.319   6.630  0.8669 -0.9722 -0.5399
17836THY      O29470   4.152   0.549   5.588  0.0850 -0.6926  0.3878
17836THY     HO29471   4.164   0.614   5.517  0.0660  0.4803  1.7235
17836THY    CA129472   4.102   0.631   5.681  0.7112  0.5438 -0.2634
17836THY    CA229473   4.043   0.577   5.797 -0.3257 -0.1389 -0.3001
17836THY    CP129474   4.032   0.426   5.815  0.1776  0.3893 -0.3358
17836THY    HP129475   4.023   0.373   5.719 -0.6083  0.1961  0.1278
17836THY    CP229476   3.905   0.383   5.883  0.4094  0.4297 -0.0357
17836THY    HP229477   3.887   0.277   5.864 -0.7560  0.2026  0.1904
17836THY    HP329478   3.818   0.440   5.848 -0.1366  0.6288 -0.7213
17836THY    HP429479   3.915   0.392   5.992 -1.8899  0.7598 -0.6963
17836THY    CP329480   4.145   0.366   5.895  0.2250  0.0569  0.7303
17836THY    HP529481   4.234   0.403   5.844 -1.3122 -4.1559 -0.8256
17836THY    HP629482   4.159   0.257   5.890  0.2350 -0.7776  0.7661
17836THY    HP729483   4.146   0.387   6.003 -1.2766  0.4303 -0.8231
17836THY    CA329484   3.995   0.667   5.899 -0.1864  0.0151 -0.0341
17836THY    HA329485   3.946   0.641   5.992  0.2856  0.1982 -0.2980
17836THY    CA429486   4.029   0.799   5.884  0.4159 -0.0703  0.1658
17836THY    HA429487   4.001   0.870   5.962  0.9039 -2.0893  2.7300
17836THY    CA529488   4.082   0.853   5.770  0.3428  1.0239  0.3807
17836THY    CM129489   4.094   0.998   5.757 -0.3883 -0.7270 -1.0711
17836THY    HM129490   4.192   1.026   5.718 -0.6191 -1.3372 -1.0971
17836THY    HM229491   4.075   1.050   5.852 -0.6925 -0.8689 -0.9216
17836THY    HM329492   4.014   1.041   5.696  0.4894 -0.0887  1.6822
17836THY    CA629493   4.119   0.761   5.664  0.7480  0.5249 -0.0750
17836THY    HA629494   4.174   0.801   5.579  0.5739  0.2178 -0.4847
17837THY      O29495   8.707   3.234   6.122  0.7410  0.2137  0.1657
17837THY     HO29496   8.695   3.330   6.111 -4.7579  2.0247 -0.0002
17837THY    CA129497   8.822   3.197   6.061  0.3628  0.7435 -0.4304
17837THY    CA229498   8.917   3.121   6.134  0.1472  0.5329  0.3612
17837THY    CP129499   8.865   3.047   6.265  0.1398 -0.1285 -0.3622
17837THY    HP129500   8.772   3.089   6.306 -0.4463  0.8415 -2.4870
17837THY    CP229501   8.959   3.072   6.375 -0.2329  0.1231 -0.4678
17837THY    HP229502   9.005   3.171   6.381  0.2313 -2.6069 -0.4242
17837THY    HP329503   9.042   3.001   6.380 -0.1606  3.5688 -0.2754
17837THY    HP429504   8.901   3.056   6.467  0.9591  0.9111 -0.3731
17837THY    CP329505   8.843   2.898   6.257  0.6142 -0.4860 -0.0529
17837THY    HP529506   8.937   2.843   6.244  0.2885 -1.0140 -0.5039
17837THY    HP629507   8.772   2.882   6.174 -0.0931  0.2908 -1.1511
17837THY    HP729508   8.794   2.873   6.352  3.3264  0.9393 -0.2087
17837THY    CA329509   9.036   3.085   6.067 -0.4579  0.6809 -0.2463
17837THY    HA329510   9.100   3.009   6.110 -0.7779 -0.8595 -1.4192
17837THY    CA429511   9.066   3.142   5.939  0.2450 -0.1030 -0.1419
17837THY    HA429512   9.159   3.123   5.888  0.1648 -1.4295  2.5237
17837THY    CA529513   8.976   3.228   5.878  0.5677  0.1300 -0.0813
17837THY    CM129514   8.999   3.276   5.732 -0.4083 -0.5883 -0.2157
17837THY    HM129515   8.938   3.205   5.675 -1.4572 -0.8716  0.8903
17837THY    HM229516   9.103   3.250   5.710 -0.6796 -0.0678 -1.8477
17837THY    HM329517   8.979   3.383   5.724  2.2691 -0.1261  0.3994
17837THY    CA629518   8.854   3.244   5.933 -0.1623  0.0596  0.4224
17837THY    HA629519   8.778   3.289   5.870 -1.1776  0.7467 -0.2861
17838THY      O29520   2.721   5.238   7.467 -0.1337  0.4289 -0.4156
17838THY     HO29521   2.724   5.157   7.413 -0.4749 -0.9114  0.4411
17838THY    CA129522   2.853   5.268   7.492  0.2455 -1.0062  0.1788
17838THY    CA229523   2.911   5.398   7.468 -0.2622  0.6065  0.2985
17838THY    CP129524   2.820   5.516   7.413  0.7570 -0.1471  0.4575
17838THY    HP129525   2.713   5.493   7.408  0.4897  1.4927  1.1933
17838THY    CP229526   2.876   5.571   7.271  0.1271  0.0515 -0.6907
17838THY    HP229527   2.888   5.488   7.200 -2.0617 -1.5756  0.2938
17838THY    HP329528   2.974   5.615   7.291 -0.5605  2.1520 -0.0040
17838THY    HP429529   2.814   5.643   7.215 -0.2362  3.1936  1.6415
17838THY    CP329530   2.831   5.633   7.512  1.3790  0.1818 -0.2614
17838THY    HP529531   2.936   5.653   7.539  1.5485 -0.0730 -0.7770
17838THY    HP629532   2.774   5.613   7.604  0.4103 -0.6698 -1.5666
17838THY    HP729533   2.784   5.718   7.462 -0.1411 -1.6092 -2.0629
17838THY    CA329534   3.054   5.409   7.485  0.3351  0.2902 -0.0567
17838THY    HA329535   3.099   5.504   7.457 -0.5643 -2.3019 -0.3158
17838THY    CA429536   3.126   5.309   7.532  0.8511  1.4718 -0.1944
17838THY    HA429537   3.235   5.313   7.530  0.8140 -0.2816  0.9909
17838THY    CA529538   3.067   5.184   7.549 -0.2368 -0.1618 -0.1072
17838THY    CM129539   3.158   5.068   7.579  0.4623 -0.3252  0.5955
17838THY    HM129540   3.264   5.076   7.554  0.5153 -0.2590  0.1556
17838THY    HM229541   3.116   4.975   7.538  0.4604 -0.0229  0.4612
17838THY    HM329542   3.154   5.053   7.688  1.3176 -0.4549 -0.7393
17838THY    CA629543   2.930   5.161   7.533  0.9182 -0.2318  0.3686
17838THY    HA629544   2.876   5.068   7.546 -1.0315  0.2799  1.4973
17839THY      O29545   7.096   1.129   2.516  0.2853 -0.2029  0.2410
17839THY     HO29546   7.181   1.134   2.562  0.7109 -1.0646  2.2389
17839THY    CA129547   7.078   1.007   2.467  0.1702 -0.4351  0.2238
17839THY    CA229548   6.947   0.952   2.459 -0.3262  0.3175  0.1698
17839THY    CP129549   6.824   1.041   2.495  0.8159  0.0477 -0.2530
17839THY    HP129550   6.840   1.149   2.500  0.6181 -1.6265 -0.1307
17839THY    CP229551   6.779   0.993   2.623  0.7579 -0.2666  0.2864
17839THY    HP229552   6.851   1.026   2.698  2.9807 -2.4339  0.6966
17839THY    HP329553   6.768   0.885   2.631  0.6930 -0.0867  0.3068
17839THY    HP429554   6.679   1.032   2.647 -0.0672 -0.6417 -1.5264
17839THY    CP329555   6.711   1.012   2.392  0.4534 -0.5790 -0.0589
17839THY    HP529556   6.754   1.033   2.293 -1.8376 -1.4019  1.1902
17839THY    HP629557   6.627   1.080   2.411 -0.0487 -1.0984 -0.5254
17839THY    HP729558   6.666   0.912   2.386 -0.8264 -3.2783  0.5751
17839THY    CA329559   6.936   0.823   2.398  0.5733  0.3517 -0.1962
17839THY    HA329560   6.840   0.774   2.388  0.7480 -0.4487 -0.3855
17839THY    CA429561   7.048   0.749   2.371 -0.4679 -0.3059  0.1497
17839THY    HA429562   7.036   0.644   2.346  1.2019  1.7185 -0.5936
17839THY    CA529563   7.173   0.803   2.378 -0.4681 -0.6775 -0.3201
17839THY    CM129564   7.294   0.724   2.327 -0.6002 -0.4169 -0.1004
17839THY    HM129565   7.279   0.673   2.231  0.2008  0.4593 -2.0633
17839THY    HM229566   7.322   0.648   2.400  0.2108 -0.6731 -0.0634
17839THY    HM329567   7.378   0.792   2.308 -2.3750 -3.0224  1.5815
17839THY    CA629568   7.190   0.931   2.426 -0.2608 -0.1549 -0.5644
17839THY    HA629569   7.291   0.971   2.430  0.2043  0.8661 -1.7796
17840THY      O29570   3.046   3.267   2.391 -0.6284  0.6364 -0.1406
17840THY     HO29571   3.073   3.334   2.326  0.2964  1.4744  0.3301
17840THY    CA129572   3.015   3.152   2.316 -0.2521 -0.2483 -0.2726
17840THY    CA229573   2.957   3.044   2.375 -0.6789 -0.0120  0.6886
17840THY    CP129574   2.926   3.036   2.519 -0.4650  0.4092  0.1606
17840THY    HP129575   2.963   3.123   2.574  2.4196  0.5533 -1.0640
17840THY    CP229576   2.994   2.910   2.590  0.1693  0.1833 -1.5861
17840THY    HP229577   2.947   2.876   2.683  1.2636  1.2653 -0.2834
17840THY    HP329578   3.102   2.918   2.607 -0.2598  2.3474  1.1572
17840THY    HP429579   2.974   2.821   2.529 -2.0712  1.0732 -1.7724
17840THY    CP329580   2.778   3.034   2.543  0.4379  0.3732  0.7146
17840THY    HP529581   2.764   3.058   2.650  0.2407  0.2499  1.1644
17840THY    HP629582   2.729   2.937   2.528 -0.1502  0.8516  0.9275
17840THY    HP729583   2.728   3.108   2.479 -0.4695 -0.2353 -0.3854
17840THY    CA329584   2.915   2.937   2.299 -0.5180 -0.1599  0.3059
17840THY    HA329585   2.860   2.853   2.341 -1.6160  0.0304  1.0943
17840THY    CA429586   2.946   2.928   2.165 -0.2107  0.0965  0.7272
17840THY    HA429587   2.925   2.839   2.107  0.4170 -0.8442  1.1770
17840THY    CA529588   3.016   3.033   2.106 -0.5279  0.1679 -1.2650
17840THY    CM129589   3.055   3.024   1.957  0.4530  0.0615  0.3113
17840THY    HM129590   2.997   2.948   1.905 -0.5967 -0.2013  1.2782
17840THY    HM229591   3.158   2.987   1.958  0.4507 -0.1508  0.2985
17840THY    HM329592   3.056   3.115   1.896 -0.2611 -0.2808  0.0915
17840THY    CA629593   3.047   3.152   2.181  0.1454  0.1058 -0.5233
17840THY    HA629594   3.087   3.236   2.126  2.1422  1.5401 -0.4373
17841THY      O29595   2.153   4.605   3.154 -0.1839 -0.2248  0.5244
17841THY     HO29596   2.094   4.527   3.149  0.3571  0.0084  0.0968
17841THY    CA129597   2.084   4.699   3.081 -0.2028  0.3584  0.6552
17841THY    CA229598   2.153   4.789   3.000  0.7397 -0.2000  0.1653
17841THY    CP129599   2.312   4.801   2.996 -0.3761 -0.4521  0.5178
17841THY    HP129600   2.351   4.698   2.992  0.0901  1.7876  0.5518
17841THY    CP229601   2.368   4.875   3.124  0.3161  0.3301  0.4035
17841THY    HP229602   2.315   4.970   3.114 -0.0805  0.0838  0.1623
17841THY    HP329603   2.477   4.883   3.123  0.4663 -1.1273 -1.2041
17841THY    HP429604   2.348   4.811   3.210  1.1962  1.2245  1.3030
17841THY    CP329605   2.363   4.864   2.875 -0.2982  0.2257  0.4546
17841THY    HP529606   2.339   4.969   2.855 -0.1372 -0.1446  0.4212
17841THY    HP629607   2.344   4.814   2.780 -0.2823 -0.3905  1.5753
17841THY    HP729608   2.472   4.862   2.883 -0.3406  0.7420 -0.8065
17841THY    CA329609   2.071   4.880   2.927 -0.2954  0.1723 -0.9443
17841THY    HA329610   2.117   4.960   2.869  0.1593  1.2021 -0.4394
17841THY    CA429611   1.929   4.874   2.938  0.4178 -0.2247  0.5492
17841THY    HA429612   1.868   4.940   2.876  0.3819  0.9377  1.6402
17841THY    CA529613   1.873   4.772   3.015 -0.4988  0.1563 -0.1896
17841THY    CM129614   1.729   4.753   3.017  0.4229  0.2894 -0.2411
17841THY    HM129615   1.705   4.713   2.918  0.7168  0.9249 -2.1165
17841THY    HM229616   1.673   4.847   3.025  0.3189 -1.3064 -0.1361
17841THY    HM329617   1.699   4.684   3.096  1.0964 -0.6906 -1.7159
17841THY    CA629618   1.950   4.685   3.086 -0.4206 -0.3752 -0.5291
17841THY    HA629619   1.912   4.614   3.160 -0.6814 -0.0168 -0.0276
17842THY      O29620   6.177   5.615   4.602 -0.2107 -0.0401  0.2686
17842THY     HO29621   6.248   5.617   4.535 -0.1073  0.0461 -0.3453
17842THY    CA129622   6.058   5.599   4.543  0.1247 -0.1635 -0.3846
17842THY    CA229623   5.943   5.648   4.597 -0.0238 -0.3019  0.0208
17842THY    CP129624   5.940   5.726   4.727 -0.0000 -0.4933 -0.1005
17842THY    HP129625   6.039   5.722   4.774  0.7870 -2.0665 -0.2693
17842THY    CP229626   5.854   5.672   4.845  0.5582  1.0027  0.5052
17842THY    HP229627   5.879   5.565   4.855  0.9747 -3.2618  0.0222
17842THY    HP329628   5.749   5.694   4.823  0.8363 -0.9075  0.1027
17842THY    HP429629   5.883   5.723   4.937  1.2089  0.9150  0.3166
17842THY    CP329630   5.894   5.870   4.696  0.7328 -0.4204  0.5558
17842THY    HP529631   5.876   5.936   4.782  0.8314 -0.2744  0.3914
17842THY    HP629632   5.802   5.871   4.637 -1.0602  2.1656 -0.2796
17842THY    HP729633   5.974   5.917   4.637 -0.0846 -0.6977  1.6286
17842THY    CA329634   5.820   5.618   4.534  0.3341  0.1872 -0.3487
17842THY    HA329635   5.729   5.657   4.579  0.1199 -1.1537  0.7816
17842THY    CA429636   5.829   5.551   4.406 -0.0949 -0.6311  0.1600
17842THY    HA429637   5.739   5.521   4.353 -0.6491  1.4947 -2.3014
17842THY    CA529638   5.950   5.512   4.349 -0.1499  0.5673 -0.9220
17842THY    CM129639   5.955   5.453   4.210 -0.2468 -0.0607 -1.2296
17842THY    HM129640   5.919   5.533   4.144 -0.0221  0.0457 -1.0378
17842THY    HM229641   5.887   5.368   4.198 -1.1612  3.1238 -1.1020
17842THY    HM329642   6.053   5.413   4.181  1.4574 -0.0759  2.4814
17842THY    CA629643   6.068   5.540   4.418  0.2690 -0.6932 -0.1560
17842THY    HA629644   6.165   5.512   4.378  1.7539  1.3096  1.8135
17843THY      O29645   1.988   3.531   6.752  0.2233 -0.0876  0.2225
17843THY     HO29646   1.911   3.481   6.782 -0.4080 -1.4316  0.3294
17843THY    CA129647   1.984   3.640   6.838 -0.1251 -0.3617 -0.1014
17843THY    CA229648   2.069   3.746   6.817 -0.6207 -0.0734 -0.2950
17843THY    CP129649   2.170   3.742   6.702 -0.0239 -0.7484  0.2790
17843THY    HP129650   2.203   3.638   6.698 -0.1761  0.3422  0.1843
17843THY    CP229651   2.304   3.819   6.723 -1.8099 -0.0714 -0.0218
17843THY    HP229652   2.385   3.747   6.706 -2.6108 -0.1784 -0.9294
17843THY    HP329653   2.317   3.848   6.828 -0.2475 -0.0481 -0.6935
17843THY    HP429654   2.315   3.911   6.664 -0.8839  1.6598  1.0210
17843THY    CP329655   2.105   3.767   6.562  0.0727 -0.0162 -0.5879
17843THY    HP529656   2.183   3.765   6.484 -0.5474 -0.6552 -0.1946
17843THY    HP629657   2.049   3.861   6.556  1.1846 -0.2110  0.0800
17843THY    HP729658   2.034   3.687   6.538 -0.9044 -0.7202  0.4597
17843THY    CA329659   2.061   3.857   6.901 -0.6060  0.6048 -0.0380
17843THY    HA329660   2.131   3.940   6.893 -1.8675 -1.2760  0.9018
17843THY    CA429661   1.967   3.857   7.007 -0.6508 -0.7368  0.2277
17843THY    HA429662   1.966   3.934   7.084  1.5856  1.5470 -1.8556
17843THY    CA529663   1.881   3.748   7.021 -0.4281  0.3754 -0.1671
17843THY    CM129664   1.775   3.756   7.134 -0.6499 -0.1703  0.0574
17843THY    HM129665   1.822   3.781   7.229  0.4567 -0.8523  0.6492
17843THY    HM229666   1.735   3.655   7.149  1.3205  0.3213 -0.7052
17843THY    HM329667   1.693   3.827   7.120 -0.2174  1.4910  0.9323
17843THY    CA629668   1.886   3.638   6.934  0.2929 -0.2335 -0.2479
17843THY    HA629669   1.817   3.556   6.952  1.2597  0.8349 -0.8650
17844THY      O29670   8.084   1.602   3.658 -0.0883 -0.0390 -0.5878
17844THY     HO29671   8.012   1.546   3.625  0.0299  0.9932 -1.3749
17844THY    CA129672   8.148   1.665   3.559 -0.6036  0.2450 -0.2648
17844THY    CA229673   8.174   1.802   3.563 -0.3008 -0.2878 -1.4276
17844THY    CP129674   8.119   1.880   3.691  0.1064  0.1257  0.1982
17844THY    HP129675   8.023   1.842   3.728 -0.4763  1.6117  2.8335
17844THY    CP229676   8.104   2.032   3.668 -0.3260 -0.2481  0.1188
17844THY    HP229677   8.045   2.078   3.748 -0.6130 -1.8121  2.6135
17844THY    HP329678   8.067   2.057   3.568 -1.6780  0.3038  0.4092
17844THY    HP429679   8.203   2.081   3.667 -0.8514 -0.4417  1.1969
17844THY    CP329680   8.219   1.855   3.802 -0.0273  0.2743  0.1317
17844THY    HP529681   8.231   1.749   3.827 -0.4267 -1.1108 -0.2582
17844THY    HP629682   8.193   1.899   3.899 -1.3469  0.0907 -0.1756
17844THY    HP729683   8.314   1.905   3.780 -1.1611 -2.0567  1.4526
17844THY    CA329684   8.256   1.860   3.465  0.3464 -0.5375  0.1061
17844THY    HA329685   8.281   1.966   3.466 -0.1476  0.8512  0.2365
17844THY    CA429686   8.314   1.778   3.367 -0.6209 -0.7967 -0.0007
17844THY    HA429687   8.391   1.820   3.303  0.2547 -0.4263 -0.9888
17844THY    CA529688   8.288   1.642   3.366  0.1297 -0.0899  0.5066
17844THY    CM129689   8.364   1.549   3.272 -0.0712 -0.3391  0.2270
17844THY    HM129690   8.319   1.449   3.264  0.7529 -0.5898 -0.1278
17844THY    HM229691   8.471   1.554   3.293 -0.2751  0.9499 -0.3159
17844THY    HM329692   8.371   1.574   3.166  3.2453 -0.9626 -2.6808
17844THY    CA629693   8.213   1.583   3.466  0.8135  0.1673 -0.3027
17844THY    HA629694   8.213   1.475   3.476  0.1300 -2.4373 -0.6226
17845THY      O29695   2.589   7.231   3.478 -0.0776  0.2336 -0.2113
17845THY     HO29696   2.561   7.276   3.560 -1.8543  0.3834 -1.4690
17845THY    CA129697   2.621   7.106   3.519  0.6899  0.1377  0.2299
17845THY    CA229698   2.527   7.010   3.576 -0.6431 -0.6441 -0.6521
17845THY    CP129699   2.388   7.056   3.632  0.2738 -0.1693  0.7343
17845THY    HP129700   2.337   7.123   3.562 -3.4301  0.8575 -0.7850
17845THY    CP229701   2.412   7.118   3.764 -0.0131 -0.5529 -0.1931
17845THY    HP229702   2.318   7.158   3.804  0.2498  0.6108 -0.6880
17845THY    HP329703   2.494   7.190   3.764  0.4124  0.3112 -0.6580
17845THY    HP429704   2.437   7.045   3.841 -1.9109  0.1401 -0.1825
17845THY    CP329705   2.283   6.942   3.649  0.4199 -0.3086 -0.3845
17845THY    HP529706   2.298   6.900   3.750 -0.1569  0.0779  0.3260
17845THY    HP629707   2.291   6.865   3.571 -0.2879 -0.9835  0.2176
17845THY    HP729708   2.186   6.990   3.635  0.8079 -2.1436 -0.0831
17845THY    CA329709   2.573   6.880   3.593  0.0752  0.3050 -0.3964
17845THY    HA329710   2.519   6.809   3.655 -0.5355 -0.9040 -1.0172
17845THY    CA429711   2.701   6.843   3.549  0.2577 -0.1383  0.3599
17845THY    HA429712   2.748   6.748   3.572  1.2481  0.3199  0.9365
17845THY    CA529713   2.787   6.930   3.489  0.4291  0.4375 -0.7666
17845THY    CM129714   2.926   6.883   3.438 -0.3592 -0.1947  0.4951
17845THY    HM129715   2.938   6.849   3.335 -0.0732  0.1559 -0.4950
17845THY    HM229716   2.966   6.797   3.493  0.2213 -1.9162 -0.3935
17845THY    HM329717   2.996   6.966   3.451  0.2944 -0.2646 -0.0310
17845THY    CA629718   2.748   7.067   3.473  0.8567  0.3364 -0.4544
17845THY    HA629719   2.817   7.139   3.431 -0.6707 -0.0460  0.8250
17846THY      O29720   6.015   8.223   6.103  0.0420  0.3197 -0.1342
17846THY     HO29721   6.037   8.133   6.132 -1.4845 -1.0776 -1.0228
17846THY    CA129722   6.049   8.303   6.200  0.0541 -0.3996  0.1270
17846THY    CA229723   5.983   8.427   6.225 -0.3442 -0.2775 -0.2225
17846THY    CP129724   5.859   8.461   6.143 -0.2298  0.5222 -0.2237
17846THY    HP129725   5.875   8.415   6.044 -0.9172  0.0232  0.5785
17846THY    CP229726   5.850   8.608   6.133 -0.2639  0.2471 -0.5796
17846THY    HP229727   5.948   8.640   6.094  1.5059  1.6914 -3.7614
17846THY    HP329728   5.826   8.670   6.220  0.7962 -0.7169  1.2525
17846THY    HP429729   5.774   8.640   6.061  0.9669 -0.4785  0.8375
17846THY    CP329730   5.735   8.403   6.209  0.1010 -0.0082 -0.2565
17846THY    HP529731   5.637   8.440   6.174 -0.1396 -2.7301 -3.1148
17846THY    HP629732   5.744   8.420   6.317  0.9681  0.2743 -2.3288
17846THY    HP729733   5.729   8.294   6.204 -2.4847  1.4703 -0.2721
17846THY    CA329734   6.036   8.506   6.330 -0.5677 -0.2396 -0.4583
17846THY    HA329735   5.991   8.602   6.353 -1.2790 -0.1404 -0.8043
17846THY    CA429736   6.151   8.467   6.406  0.7258  0.3029  0.2619
17846THY    HA429737   6.200   8.529   6.479 -2.3092  1.5613  1.3660
17846THY    CA529738   6.198   8.338   6.387  0.0590  0.5740 -0.0371
17846THY    CM129739   6.305   8.284   6.468  0.1989  0.1085  0.1615
17846THY    HM129740   6.356   8.366   6.520  0.3777  1.2563 -0.6484
17846THY    HM229741   6.388   8.250   6.405  1.1542  1.4669 -0.0861
17846THY    HM329742   6.283   8.211   6.547 -0.8638 -0.0391  0.3142
17846THY    CA629743   6.154   8.258   6.273 -0.6912  0.5341 -0.1491
17846THY    HA629744   6.195   8.158   6.257  0.0749  1.3459  0.0185
17847THY      O29745   5.530   6.007   6.116 -0.2458 -0.1806  0.4137
17847THY     HO29746   5.473   5.956   6.055  1.4248 -0.1366 -1.6579
17847THY    CA129747   5.506   5.960   6.237 -0.3454  0.3462  0.4277
17847THY    CA229748   5.582   6.003   6.351  0.3323 -0.2000 -0.8710
17847THY    CP129749   5.697   6.104   6.342  0.0997 -0.8479 -0.8466
17847THY    HP129750   5.699   6.152   6.243  0.8867 -1.5121 -2.1832
17847THY    CP229751   5.825   6.025   6.353  0.3507 -0.4960  1.0938
17847THY    HP229752   5.844   5.966   6.263 -0.2323 -0.4942  0.8926
17847THY    HP329753   5.819   5.944   6.428 -2.7451 -0.1191  1.5334
17847THY    HP429754   5.916   6.081   6.378  2.1884 -0.6294 -1.6149
17847THY    CP329755   5.695   6.208   6.454 -0.0850  0.0156 -1.0945
17847THY    HP529756   5.779   6.279   6.453  0.3473 -0.6973 -1.5964
17847THY    HP629757   5.687   6.165   6.554  0.0626 -0.4991 -2.3736
17847THY    HP729758   5.607   6.268   6.428  0.6430 -0.2412 -0.1080
17847THY    CA329759   5.556   5.936   6.473  0.0626  0.3823  0.1490
17847THY    HA329760   5.611   5.959   6.563 -1.7340  1.6741 -0.4011
17847THY    CA429761   5.461   5.839   6.486  0.4664 -0.6197  0.2730
17847THY    HA429762   5.446   5.787   6.580 -1.7067 -0.6995  0.6745
17847THY    CA529763   5.378   5.807   6.380  0.7716  0.5576 -0.2949
17847THY    CM129764   5.265   5.710   6.383 -0.1444 -0.1607  0.4527
17847THY    HM129765   5.222   5.695   6.483 -0.2699 -0.3411 -0.4874
17847THY    HM229766   5.307   5.611   6.362  0.1599 -0.3815  0.6294
17847THY    HM329767   5.177   5.723   6.318  0.1239 -0.7305 -0.4685
17847THY    CA629768   5.402   5.872   6.254  0.0985  0.1631  0.1764
17847THY    HA629769   5.338   5.855   6.168  0.7144 -0.5324  1.2362
17848THY      O29770   5.438   0.731   5.265  0.2111  0.5138 -0.0203
17848THY     HO29771   5.510   0.687   5.216  0.8548  1.2060  0.2368
17848THY    CA129772   5.482   0.861   5.287  0.2177  0.6442 -0.2343
17848THY    CA229773   5.402   0.956   5.365  0.2229  0.4525  0.0355
17848THY    CP129774   5.280   0.905   5.441  0.1773 -1.3081 -0.0297
17848THY    HP129775   5.240   0.810   5.403  0.7073 -1.5202 -0.1719
17848THY    CP229776   5.158   1.010   5.411 -0.2563 -0.7494  0.2242
17848THY    HP229777   5.167   1.099   5.475  0.9982 -0.0008 -0.4141
17848THY    HP329778   5.066   0.965   5.450  0.5297  1.9750  0.7823
17848THY    HP429779   5.140   1.024   5.304  1.9852 -0.9789  1.8576
17848THY    CP329780   5.297   0.891   5.591 -0.0545 -0.3824 -0.2998
17848THY    HP529781   5.357   0.803   5.615 -0.4558  2.8507  0.1825
17848THY    HP629782   5.203   0.873   5.645  1.2047  1.6784 -1.0092
17848THY    HP729783   5.349   0.975   5.638  1.8235 -1.1279 -0.9920
17848THY    CA329784   5.461   1.078   5.390 -0.2958  0.0920 -0.6916
17848THY    HA329785   5.412   1.146   5.460 -0.2567 -0.0965 -0.4670
17848THY    CA429786   5.587   1.111   5.335 -0.1732 -0.5880 -0.5130
17848THY    HA429787   5.633   1.205   5.363 -0.3899  1.1713 -0.8912
17848THY    CA529788   5.653   1.019   5.253  0.4557  0.0031 -0.5519
17848THY    CM129789   5.795   1.052   5.210  0.2795 -0.2230  0.3643
17848THY    HM129790   5.795   1.160   5.191  0.8269 -0.2481  0.3618
17848THY    HM229791   5.835   0.996   5.125 -1.6872  0.0448 -1.6434
17848THY    HM329792   5.862   1.026   5.293  0.1072 -0.6449 -1.6186
17848THY    CA629793   5.595   0.895   5.224  0.0899 -0.0119 -0.9259
17848THY    HA629794   5.657   0.825   5.167  2.1778 -0.4844  1.1634
17849THY      O29795   5.347   4.858   7.224  0.6845  0.0223  0.0582
17849THY     HO29796   5.430   4.832   7.180 -0.0165 -1.6746  0.5977
17849THY    CA129797   5.315   4.750   7.307 -0.0835  0.3128  0.6282
17849THY    CA229798   5.416   4.664   7.364  0.2295  0.4385  0.3880
17849THY    CP129799   5.566   4.696   7.346  0.1982 -0.4344  0.2218
17849THY    HP129800   5.570   4.739   7.245  0.2575  0.4896  2.4905
17849THY    CP229801   5.668   4.584   7.369  0.0539 -0.6870 -0.1652
17849THY    HP229802   5.632   4.496   7.314 -1.3999  0.2089 -0.1606
17849THY    HP329803   5.678   4.548   7.472  0.6465 -1.5284 -2.6161
17849THY    HP429804   5.770   4.611   7.339  0.9926  1.7782 -0.7154
17849THY    CP329805   5.612   4.800   7.447 -0.0343 -0.2551  0.2903
17849THY    HP529806   5.721   4.812   7.446  0.2008  0.8036 -1.4533
17849THY    HP629807   5.575   4.765   7.545 -0.5378 -0.9159 -1.0949
17849THY    HP729808   5.558   4.890   7.416 -1.8237 -2.1811 -1.3429
17849THY    CA329809   5.376   4.558   7.447 -0.0261  0.5063 -0.5045
17849THY    HA329810   5.447   4.511   7.514  1.5166 -1.3387 -0.9108
17849THY    CA429811   5.241   4.538   7.476 -0.0505  0.0910 -0.3792
17849THY    HA429812   5.207   4.466   7.550  1.6396  1.3591  0.0605
17849THY    CA529813   5.145   4.609   7.418 -0.1445  0.5814 -0.2248
17849THY    CM129814   4.998   4.594   7.443  0.0609 -0.2017 -0.5028
17849THY    HM129815   4.973   4.556   7.543 -1.2432 -0.6157 -0.8112
17849THY    HM229816   4.956   4.526   7.368  2.5375 -1.8649 -0.3205
17849THY    HM329817   4.946   4.690   7.430  0.7218 -1.3465 -0.2840
17849THY    CA629818   5.180   4.714   7.335 -0.4760 -0.3027  0.1943
17849THY    HA629819   5.103   4.777   7.291  0.3375  0.9012  2.1141
17850THY      O29820   3.408   1.357   4.847  0.3088  0.3569 -0.4639
17850THY     HO29821   3.380   1.290   4.783 -0.7861  1.7667 -1.3917
17850THY    CA129822   3.512   1.425   4.789  0.0757 -0.1671  0.4092
17850THY    CA229823   3.598   1.506   4.869  0.5448  0.5611 -0.1810
17850THY    CP129824   3.554   1.533   5.009  0.4819  0.3124  0.3401
17850THY    HP129825   3.476   1.462   5.038 -1.4503  0.8593  2.5573
17850THY    CP229826   3.471   1.669   5.000 -0.0264 -0.1763 -0.7005
17850THY    HP229827   3.388   1.656   4.930  0.6009 -1.1654  0.4287
17850THY    HP329828   3.538   1.749   4.968  0.1601 -2.9774 -1.8604
17850THY    HP429829   3.433   1.686   5.101  2.0625  0.7566 -1.3392
17850THY    CP329830   3.668   1.540   5.110  0.2883 -0.3937 -0.3679
17850THY    HP529831   3.730   1.629   5.092  1.1440 -1.1043 -1.0968
17850THY    HP629832   3.739   1.460   5.088  1.7256 -2.7753  1.4038
17850THY    HP729833   3.632   1.540   5.213 -0.0954 -0.5282 -0.8581
17850THY    CA329834   3.713   1.567   4.811 -0.6472 -0.2876  0.0398
17850THY    HA329835   3.773   1.634   4.872  0.1516 -1.5353  0.4837
17850THY    CA429836   3.725   1.552   4.674  0.8564 -0.3037  0.4954
17850THY    HA429837   3.812   1.604   4.634  0.6845  1.0204  1.8637
17850THY    CA529838   3.653   1.456   4.598  0.3975  0.0766  0.5019
17850THY    CM129839   3.707   1.406   4.469 -0.4643  0.1890  0.8006
17850THY    HM129840   3.795   1.466   4.441  1.0206  2.1130 -0.3570
17850THY    HM229841   3.635   1.389   4.389  1.0070 -0.4103 -4.4551
17850THY    HM329842   3.754   1.307   4.477  1.3755 -1.3142  1.4976
17850THY    CA629843   3.544   1.396   4.661  0.1032  0.5045 -0.5304
17850THY    HA629844   3.490   1.321   4.604  1.0723 -1.3677  0.1207
17851THY      O29845   3.656   8.564   5.902  0.6002 -0.5961  0.2166
17851THY     HO29846   3.647   8.602   5.991 -0.7782 -1.1208  1.1851
17851THY    CA129847   3.529   8.541   5.863  1.1439 -0.1340 -0.0477
17851THY    CA229848   3.494   8.520   5.722  0.1346 -1.1293 -0.3325
17851THY    CP129849   3.595   8.558   5.622 -0.2927 -0.4887  0.6351
17851THY    HP129850   3.692   8.559   5.671 -1.5161  2.1648 -0.4787
17851THY    CP229851   3.565   8.691   5.562 -0.7418  0.8690 -0.3992
17851THY    HP229852   3.463   8.711   5.527 -0.9153  0.5609 -1.7319
17851THY    HP329853   3.635   8.721   5.483 -1.5610  0.4724  0.5246
17851THY    HP429854   3.574   8.764   5.643 -0.5016 -1.2475  2.0462
17851THY    CP329855   3.607   8.452   5.505 -0.0046 -0.2229 -0.3148
17851THY    HP529856   3.700   8.466   5.448  0.0796  0.3291  1.7950
17851THY    HP629857   3.526   8.459   5.432 -2.3028  2.0946 -1.1049
17851THY    HP729858   3.613   8.352   5.548  1.7043  2.2877  0.7421
17851THY    CA329859   3.365   8.475   5.701  0.5191 -0.3307 -0.8658
17851THY    HA329860   3.320   8.473   5.602 -1.1763  0.3719  0.0622
17851THY    CA429861   3.284   8.449   5.811 -0.3765 -0.9180 -0.5433
17851THY    HA429862   3.182   8.428   5.781  0.0196 -1.7705 -1.3007
17851THY    CA529863   3.324   8.470   5.945 -0.4554 -0.8094  0.0648
17851THY    CM129864   3.223   8.457   6.054  0.1033  0.1153 -0.3930
17851THY    HM129865   3.167   8.551   6.057  0.4984  2.0660 -0.1814
17851THY    HM229866   3.265   8.444   6.155  0.1623  0.2088  0.4932
17851THY    HM329867   3.158   8.371   6.034  0.3052 -2.6137  0.0068
17851THY    CA629868   3.443   8.521   5.974  0.6142 -0.1439  0.3069
17851THY    HA629869   3.465   8.541   6.079 -1.8158  0.5070 -0.0548
17852THY      O29870   6.392   7.491   2.392 -0.1616 -0.2606  0.8182
17852THY     HO29871   6.464   7.538   2.438 -0.9176  2.7253 -0.7326
17852THY    CA129872   6.449   7.385   2.331 -0.7335 -0.1879 -0.3056
17852THY    CA229873   6.411   7.331   2.209  0.0059  0.3522  0.0708
17852THY    CP129874   6.309   7.394   2.118  0.3650 -0.0966 -0.2093
17852THY    HP129875   6.256   7.476   2.169 -0.6820  0.8655 -1.4505
17852THY    CP229876   6.198   7.304   2.061 -0.3976  0.2002 -0.6415
17852THY    HP229877   6.234   7.241   1.979  1.0821  0.4618 -0.1659
17852THY    HP329878   6.123   7.375   2.025 -0.1865  0.6378 -0.1902
17852THY    HP429879   6.153   7.252   2.146 -0.3441  0.9197  0.4601
17852THY    CP329880   6.392   7.458   2.002  0.1402 -0.2219  0.6475
17852THY    HP529881   6.458   7.387   1.951  1.5404  0.4910  1.3808
17852THY    HP629882   6.453   7.532   2.055  0.9164 -0.0472 -0.1057
17852THY    HP729883   6.318   7.503   1.935  0.6024  0.2058  2.1062
17852THY    CA329884   6.477   7.216   2.156  0.4200 -0.0456 -0.4471
17852THY    HA329885   6.447   7.174   2.060  3.5285 -2.1461  1.6521
17852THY    CA429886   6.587   7.163   2.223 -0.1632  0.4345 -0.1683
17852THY    HA429887   6.639   7.074   2.188  0.1756  1.8659 -0.5514
17852THY    CA529888   6.628   7.217   2.350  0.4307 -0.0560  0.3398
17852THY    CM129889   6.742   7.151   2.411  0.1515 -0.3766 -0.5839
17852THY    HM129890   6.740   7.041   2.404 -0.6139 -1.1881 -0.5268
17852THY    HM229891   6.731   7.180   2.516  2.3683  0.0875 -1.1963
17852THY    HM329892   6.833   7.197   2.370  0.7426  1.3412 -0.1550
17852THY    CA629893   6.555   7.328   2.405  0.7949 -0.2405  0.3049
17852THY    HA629894   6.587   7.367   2.501  2.2363 -0.5227 -0.1290
17853THY      O29895   2.185   8.256   2.146 -0.1703 -0.5727 -0.1949
17853THY     HO29896   2.232   8.173   2.163  2.6930 -1.1547  1.1386
17853THY    CA129897   2.167   8.265   2.013  0.5063 -0.3519  1.3969
17853THY    CA229898   2.115   8.150   1.946  0.2899 -1.1099 -0.5945
17853THY    CP129899   2.033   8.049   2.031  0.3553 -0.8456  0.6045
17853THY    HP129900   2.017   8.096   2.128 -1.1706 -0.7154 -0.1106
17853THY    CP229901   2.109   7.919   2.060  0.1679  0.6126 -0.5697
17853THY    HP229902   2.119   7.862   1.966 -0.1408 -1.2154  2.1676
17853THY    HP329903   2.056   7.855   2.131  2.3897  2.1012 -0.8705
17853THY    HP429904   2.209   7.935   2.101 -1.3458  4.4628 -0.0132
17853THY    CP329905   1.897   8.006   1.968 -0.0644 -0.2823  0.4406
17853THY    HP529906   1.843   7.944   2.040 -0.5471 -0.3641  0.7619
17853THY    HP629907   1.921   7.938   1.885 -0.1677  2.5676 -3.3875
17853THY    HP729908   1.834   8.093   1.946 -1.3442  2.9086  0.4294
17853THY    CA329909   2.118   8.150   1.808 -0.7305  0.4000 -0.0598
17853THY    HA329910   2.086   8.066   1.746  1.0368  1.9870 -2.0295
17853THY    CA429911   2.166   8.260   1.736  0.0831  0.2919  0.9209
17853THY    HA429912   2.153   8.251   1.629  1.1055  0.3625 -3.1569
17853THY    CA529913   2.210   8.374   1.806 -0.2286 -0.2127  0.9152
17853THY    CM129914   2.260   8.493   1.730  0.0006 -0.2352 -0.6933
17853THY    HM129915   2.188   8.576   1.743  2.1804  2.1801  0.9573
17853THY    HM229916   2.272   8.468   1.624 -1.4371 -0.2921 -1.2368
17853THY    HM329917   2.358   8.525   1.765 -0.1471  0.0049 -0.5050
17853THY    CA629918   2.212   8.368   1.946  0.9181  0.1398 -0.5311
17853THY    HA629919   2.257   8.453   1.997  0.8411  1.1864 -1.0992
17854THY      O29920   1.979   0.855   3.902 -0.2206  0.0205  0.1222
17854THY     HO29921   1.905   0.814   3.853  0.6725  0.1437 -1.7420
17854THY    CA129922   2.088   0.853   3.815  0.8754 -0.4008 -0.7426
17854THY    CA229923   2.214   0.916   3.841 -0.1737 -0.0261  0.0800
17854THY    CP129924   2.224   1.007   3.967 -0.5600  0.6055 -0.6703
17854THY    HP129925   2.130   1.025   4.020 -0.9179  0.0327 -0.8335
17854THY    CP229926   2.287   1.145   3.933  0.1009  0.3780  0.0519
17854THY    HP229927   2.380   1.130   3.877 -1.4675 -2.5384  0.4905
17854THY    HP329928   2.316   1.202   4.023 -2.2039  0.6696  0.8573
17854THY    HP429929   2.221   1.200   3.865 -1.0902  1.4720  0.0394
17854THY    CP329930   2.321   0.943   4.068 -0.5476  0.2931  0.4799
17854THY    HP529931   2.292   0.840   4.091  0.8289  0.3520  0.0850
17854THY    HP629932   2.317   1.007   4.157  0.9178  0.1591  0.8009
17854THY    HP729933   2.426   0.944   4.036 -0.5092  0.2903 -1.0790
17854THY    CA329934   2.321   0.889   3.751 -0.0359  0.0633  0.1386
17854THY    HA329935   2.418   0.927   3.779  0.3645 -0.9644 -0.0959
17854THY    CA429936   2.297   0.801   3.642 -0.0697  0.3861 -0.2618
17854THY    HA429937   2.389   0.766   3.596  0.6615  2.6430 -1.4935
17854THY    CA529938   2.178   0.728   3.628  0.3123 -0.4189 -0.5716
17854THY    CM129939   2.174   0.613   3.545  0.2699  0.2929  0.4345
17854THY    HM129940   2.212   0.633   3.444 -0.8828  0.1601  2.1955
17854THY    HM229941   2.080   0.559   3.533  0.2062 -0.4611  0.7014
17854THY    HM329942   2.247   0.543   3.586  3.6169  1.5187  4.2490
17854THY    CA629943   2.069   0.760   3.715 -0.0539  0.6629  0.0884
17854THY    HA629944   1.980   0.698   3.713 -0.1207 -0.3740  0.1945
17855THY      O29945   1.668   7.388   5.782 -0.2314 -0.3026 -0.2045
17855THY     HO29946   1.632   7.316   5.836 -2.9208  0.6016  1.6748
17855THY    CA129947   1.558   7.460   5.740 -0.8092 -0.1830  0.4104
17855THY    CA229948   1.578   7.555   5.646  0.2015 -0.3858 -0.2391
17855THY    CP129949   1.710   7.592   5.585  0.0292  0.2985  0.2308
17855THY    HP129950   1.782   7.588   5.668  1.6549 -1.1141 -0.7019
17855THY    CP229951   1.723   7.741   5.531  0.3766 -0.5535  0.7391
17855THY    HP229952   1.652   7.767   5.453 -2.6201  1.8206  0.2498
17855THY    HP329953   1.825   7.764   5.497  0.1386 -0.3133  2.2814
17855THY    HP429954   1.711   7.821   5.605 -0.2060  0.2271 -0.0531
17855THY    CP329955   1.745   7.487   5.478 -0.2483  0.2163  0.6744
17855THY    HP529956   1.790   7.399   5.525  0.5020 -2.2842 -0.3774
17855THY    HP629957   1.821   7.533   5.413  0.2986  0.9178  0.7809
17855THY    HP729958   1.659   7.457   5.418  2.6640 -3.0849 -1.9101
17855THY    CA329959   1.461   7.620   5.594  0.3836  0.1554  0.1352
17855THY    HA329960   1.468   7.687   5.509  0.9463 -0.0821 -0.2120
17855THY    CA429961   1.336   7.600   5.655 -0.5443 -0.7946  0.1969
17855THY    HA429962   1.242   7.647   5.628 -0.2440 -1.5076  0.4063
17855THY    CA529963   1.323   7.518   5.767 -0.0717 -0.0162 -0.0069
17855THY    CM129964   1.189   7.504   5.823  0.3876  0.1994 -0.2059
17855THY    HM129965   1.192   7.455   5.920  0.6419  0.9189  1.1886
17855THY    HM229966   1.124   7.445   5.757  1.0145  1.1404 -1.9947
17855THY    HM329967   1.143   7.603   5.835  0.1967  1.5946 -0.4514
17855THY    CA629968   1.433   7.446   5.801 -0.5655 -0.2302 -0.3949
17855THY    HA629969   1.424   7.364   5.872  1.6568  0.5037 -0.0788
17856THY      O29970   5.413   6.330   2.823  0.5590  0.0785 -0.6004
17856THY     HO29971   5.370   6.382   2.753  1.1852  0.8247  0.9886
17856THY    CA129972   5.445   6.205   2.779 -1.2402  0.8865 -0.4815
17856THY    CA229973   5.558   6.138   2.838 -0.0550 -0.0389  0.1633
17856THY    CP129974   5.640   6.200   2.955  0.0489 -0.1063 -0.9412
17856THY    HP129975   5.582   6.278   3.007  0.6128 -0.5224 -0.2279
17856THY    CP229976   5.773   6.262   2.905  1.2684 -0.4016  0.9095
17856THY    HP229977   5.854   6.190   2.890  0.7090  0.1887  0.1514
17856THY    HP329978   5.811   6.342   2.970  1.2133  0.1563  0.4800
17856THY    HP429979   5.763   6.309   2.806  3.5815 -0.4963  1.3166
17856THY    CP329980   5.667   6.101   3.067 -0.5951  0.2369  0.0096
17856THY    HP529981   5.761   6.047   3.057  0.7321 -0.1844  2.2845
17856THY    HP629982   5.588   6.026   3.081  1.3390 -0.8583 -2.3372
17856THY    HP729983   5.674   6.149   3.166 -1.6414 -0.7296  2.3559
17856THY    CA329984   5.603   6.013   2.788 -0.2651 -0.2545 -0.1161
17856THY    HA329985   5.680   5.949   2.829 -1.0608  0.4488 -0.6409
17856THY    CA429986   5.542   5.977   2.669 -0.9235 -0.6267 -0.2211
17856THY    HA429987   5.577   5.881   2.632  0.6828 -0.1108  0.1347
17856THY    CA529988   5.448   6.054   2.603  0.2043 -0.1775  0.2097
17856THY    CM129989   5.402   6.009   2.470 -0.0619  0.3544 -0.4134
17856THY    HM129990   5.312   5.948   2.478 -0.0154 -1.1491 -0.7189
17856THY    HM229991   5.479   5.952   2.417 -0.8005 -3.3771  1.7549
17856THY    HM329992   5.381   6.094   2.404 -1.3577  0.4534 -0.6446
17856THY    CA629993   5.398   6.168   2.655  0.7279 -0.1019  0.3390
17856THY    HA629994   5.328   6.230   2.600  2.0517 -0.2032  1.8136
17857THY      O29995   0.354   4.979   2.382 -0.0132  0.2672  0.3702
17857THY     HO29996   0.406   5.043   2.434  1.8200  1.0169 -1.6125
17857THY    CA129997   0.426   4.918   2.281 -0.1951  0.4297 -0.3611
17857THY    CA229998   0.368   4.879   2.161  0.7162 -0.6208  0.4862
17857THY    CP129999   0.217   4.911   2.138 -0.1391  0.1266  0.1912
17857THY    HP130000   0.182   5.003   2.187 -1.6925 -1.2401  0.3852
17857THY    CP230001   0.125   4.814   2.199  0.4088 -0.2563  1.2239
17857THY    HP230002   0.148   4.783   2.302 -0.4142  0.2315  2.1790
17857THY    HP330003   0.111   4.728   2.132 -1.1286  0.5364  0.8097
17857THY    HP430004   0.025   4.856   2.214 -0.5911  0.6994 -1.3110
17857THY    CP330005   0.186   4.935   1.993  0.3806 -0.8349  0.4417
17857THY    HP530006   0.176   4.840   1.939  1.1303  0.6608 -0.5236
17857THY    HP630007   0.260   5.000   1.946 -0.3893 -0.5524  1.5456
17857THY    HP730008   0.097   4.997   1.977  1.3764 -1.1601  1.8187
17857THY    CA330009   0.445   4.808   2.069 -0.2823  0.1809  0.9238
17857THY    HA330010   0.403   4.764   1.979 -2.6631  1.3864  0.5574
17857THY    CA430011   0.580   4.779   2.098  0.0510 -0.2546  0.0097
17857THY    HA430012   0.641   4.719   2.031 -0.6232  0.6696 -1.7808
17857THY    CA530013   0.638   4.822   2.217  0.8903  0.3326 -0.3834
17857THY    CM130014   0.781   4.785   2.245  0.3880 -0.5336 -0.2771
17857THY    HM130015   0.792   4.678   2.221 -1.3634  0.1406 -0.6534
17857THY    HM230016   0.808   4.785   2.351  2.1651 -0.9539 -0.8525
17857THY    HM330017   0.854   4.841   2.187 -1.0375 -0.7959  1.3700
17857THY    CA630018   0.563   4.895   2.304 -0.3002 -0.0035  0.0743
17857THY    HA630019   0.617   4.930   2.391  0.1213 -0.7004  1.2124
17858THY      O30020   2.734   8.975   3.004  0.1309 -0.1189  0.3130
17858THY     HO30021   2.664   9.031   3.041 -1.2096 -0.0437 -1.3301
17858THY    CA130022   2.737   8.868   3.077  0.7447 -0.6079  0.3310
17858THY    CA230023   2.764   8.736   3.026  0.1510 -1.1207  0.2086
17858THY    CP130024   2.796   8.713   2.882 -0.0087  0.3474 -0.0666
17858THY    HP130025   2.754   8.797   2.825  0.4767  0.0221 -0.0391
17858THY    CP230026   2.734   8.587   2.831 -0.0611 -0.0995  0.4911
17858THY    HP230027   2.789   8.499   2.865 -0.6085 -1.9115 -0.6148
17858THY    HP330028   2.751   8.593   2.723  1.6686  0.1029 -0.1663
17858THY    HP430029   2.627   8.594   2.855 -0.1213  0.0063 -0.5669
17858THY    CP330030   2.946   8.711   2.864 -0.1595 -0.6318  1.0939
17858THY    HP530031   2.984   8.802   2.912  0.1135  2.0845 -0.3500
17858THY    HP630032   2.968   8.723   2.757 -0.7632 -0.9688 -0.4928
17858THY    HP730033   3.009   8.626   2.892 -2.9657 -0.7017 -1.1579
17858THY    CA330034   2.770   8.630   3.118 -0.8051  0.2215 -0.5101
17858THY    HA330035   2.790   8.529   3.084 -0.7143 -0.9586 -0.1094
17858THY    CA430036   2.776   8.664   3.252 -0.1470 -0.2962  0.2876
17858THY    HA430037   2.805   8.587   3.324  0.3557 -1.8099 -0.9828
17858THY    CA530038   2.740   8.789   3.303 -0.0990 -0.7130 -0.8745
17858THY    CM130039   2.730   8.816   3.454  0.2947 -0.5454  1.0454
17858THY    HM130040   2.828   8.826   3.503  0.6820 -1.0090 -0.1889
17858THY    HM230041   2.667   8.739   3.500 -1.6710 -0.0809  2.8522
17858THY    HM330042   2.687   8.916   3.465 -0.6461  0.6921  0.5212
17858THY    CA630043   2.707   8.884   3.211  0.0696  0.6289  0.4393
17858THY    HA630044   2.667   8.978   3.248 -1.9759 -1.2502  0.4137
17859THY      O30045   7.557   1.937   4.452 -0.0972  0.7467 -0.2282
17859THY     HO30046   7.497   1.927   4.528  1.0877  1.5531 -1.6574
17859THY    CA130047   7.669   1.871   4.477  0.1095 -0.4177 -0.0605
17859THY    CA230048   7.799   1.916   4.451 -0.1850  0.3249  0.4280
17859THY    CP130049   7.815   2.040   4.364  0.6778 -0.0124 -0.2236
17859THY    HP130050   7.739   2.040   4.286  0.1852  0.4319  1.1179
17859THY    CP230051   7.936   2.037   4.284  0.5893 -0.4909 -0.4319
17859THY    HP230052   8.022   2.050   4.351  1.5365 -1.7983  0.2212
17859THY    HP330053   7.928   2.125   4.220 -0.4264  2.4689  1.7962
17859THY    HP430054   7.941   1.946   4.223  1.2266 -2.2847  0.7600
17859THY    CP330055   7.807   2.163   4.451 -0.1173  0.1161 -0.4329
17859THY    HP530056   7.884   2.163   4.529 -1.1221  1.1379  0.3908
17859THY    HP630057   7.706   2.158   4.495 -1.2142 -2.0378  1.0716
17859THY    HP730058   7.806   2.249   4.384  0.4414 -3.1972 -2.8071
17859THY    CA330059   7.907   1.840   4.505  0.2309 -0.6009 -0.5236
17859THY    HA330060   8.009   1.870   4.480  0.4622  2.1151  1.4350
17859THY    CA430061   7.883   1.730   4.588  0.1306 -0.4539  0.4535
17859THY    HA430062   7.968   1.674   4.625 -0.6727  1.8594  0.6633
17859THY    CA530063   7.752   1.689   4.619  0.0771 -0.0291 -0.1291
17859THY    CM130064   7.730   1.577   4.707  0.4452 -1.3146  0.9573
17859THY    HM130065   7.814   1.507   4.704 -0.8527  1.0121 -0.8604
17859THY    HM230066   7.648   1.511   4.675  1.2166 -2.0036  0.3069
17859THY    HM330067   7.707   1.603   4.810  0.4683 -1.1513  0.3568
17859THY    CA630068   7.648   1.757   4.554 -0.2837 -0.3226 -0.0760
17859THY    HA630069   7.551   1.716   4.577  0.6800  2.3276 -1.1389
17860THY      O30070   4.280   1.710   7.583 -0.2127 -0.3278 -0.8455
17860THY     HO30071   4.353   1.763   7.621 -1.0422  1.7025 -1.0438
17860THY    CA130072   4.306   1.730   7.452 -0.2292  0.0794 -0.2007
17860THY    CA230073   4.215   1.779   7.361 -0.0195 -0.4610 -0.4482
17860THY    CP130074   4.079   1.822   7.405  0.5408  0.6140  0.5942
17860THY    HP130075   4.039   1.751   7.478 -1.7650 -0.3188  0.8800
17860THY    CP230076   3.965   1.831   7.296  0.8522  0.4546  0.2046
17860THY    HP230077   3.972   1.903   7.214 -3.2686 -1.1893 -1.0028
17860THY    HP330078   3.872   1.840   7.353 -0.3038 -1.5854  1.9939
17860THY    HP430079   3.953   1.732   7.251  1.1232 -1.0327  0.8294
17860THY    CP330080   4.085   1.948   7.496  0.3364  0.0520 -0.0419
17860THY    HP530081   3.986   1.968   7.538  1.1912  1.9184  0.5775
17860THY    HP630082   4.125   2.023   7.427 -0.6472 -2.0563 -1.3731
17860THY    HP730083   4.154   1.935   7.581 -0.8030  0.8576 -1.0663
17860THY    CA330084   4.260   1.811   7.238 -0.0728  0.0223 -0.6650
17860THY    HA330085   4.188   1.856   7.171  0.2050  1.7083  2.4994
17860THY    CA430086   4.395   1.797   7.201  0.2226  0.5050  0.6415
17860THY    HA430087   4.436   1.830   7.106  1.0100  0.7450  0.3834
17860THY    CA530088   4.483   1.728   7.287  0.5075  0.1309 -0.6497
17860THY    CM130089   4.630   1.700   7.252  0.0149 -0.3051  0.5549
17860THY    HM130090   4.637   1.705   7.143 -1.5604 -0.5260 -1.0373
17860THY    HM230091   4.652   1.596   7.280 -2.9254 -3.6132 -1.1777
17860THY    HM330092   4.702   1.762   7.307  0.7315  0.1131 -0.6082
17860THY    CA630093   4.436   1.695   7.418  0.5951 -0.3735 -1.0558
17860THY    HA630094   4.507   1.657   7.491  2.6777 -1.4535  0.5492
17861THY      O30095   1.498   7.264   3.783  0.3421  0.4977 -0.3782
17861THY     HO30096   1.435   7.270   3.710  1.7037 -0.5720  2.3282
17861THY    CA130097   1.492   7.391   3.838  0.0811 -0.1398 -0.2431
17861THY    CA230098   1.535   7.423   3.970 -0.6890  0.1649 -0.6829
17861THY    CP130099   1.592   7.313   4.051  0.0431  0.5795 -0.1691
17861THY    HP130100   1.548   7.222   4.008 -1.0886 -2.2673  1.5795
17861THY    CP230101   1.542   7.314   4.192 -0.1739  0.2399 -0.3367
17861THY    HP230102   1.433   7.324   4.185  0.1122 -1.4694  3.0871
17861THY    HP330103   1.584   7.402   4.242  0.3645 -2.4342  1.0264
17861THY    HP430104   1.568   7.222   4.245  1.6681  0.1744  0.1051
17861THY    CP330105   1.743   7.315   4.054  0.0463  0.2675 -0.8180
17861THY    HP530106   1.773   7.329   3.950 -0.2214  0.2266 -0.5174
17861THY    HP630107   1.793   7.231   4.103 -0.5941 -0.2773 -1.5320
17861THY    HP730108   1.779   7.407   4.102  0.5842  0.4101 -1.1040
17861THY    CA330109   1.553   7.559   4.003  0.4627  0.1218  0.1754
17861THY    HA330110   1.599   7.591   4.096 -0.8287 -0.1629  3.2008
17861THY    CA430111   1.490   7.660   3.926 -0.5018  0.0200 -0.3370
17861THY    HA430112   1.503   7.763   3.958 -1.0210  1.7683 -0.7755
17861THY    CA530113   1.433   7.620   3.799  0.4943  0.4384 -0.6879
17861THY    CM130114   1.381   7.740   3.715  0.0934  0.1459  0.1984
17861THY    HM130115   1.325   7.708   3.626 -1.5930  0.7794  1.2612
17861THY    HM230116   1.458   7.804   3.672 -0.3166  0.0912  0.6606
17861THY    HM330117   1.318   7.808   3.774 -0.9426  0.1012 -0.6822
17861THY    CA630118   1.428   7.488   3.758  0.0979  0.2553 -0.7184
17861THY    HA630119   1.387   7.461   3.661 -0.3383  0.0471  0.6267
17862THY      O30120   7.319   7.506   4.742 -0.0269  0.3649 -0.0321
17862THY     HO30121   7.355   7.418   4.763 -2.9450  0.6737 -1.2637
17862THY    CA130122   7.423   7.588   4.714 -0.5027  0.1739 -0.1111
17862THY    CA230123   7.412   7.718   4.677 -0.5114 -0.1121 -1.1109
17862THY    CP130124   7.272   7.793   4.672  0.0657 -0.0744  0.1584
17862THY    HP130125   7.199   7.732   4.728  1.5174  0.9585 -0.6970
17862THY    CP230126   7.227   7.823   4.533 -0.9622  0.1175 -0.1460
17862THY    HP230127   7.256   7.744   4.463 -1.1729 -0.3988  0.2323
17862THY    HP330128   7.270   7.916   4.493  2.8916  0.1357 -1.7525
17862THY    HP430129   7.122   7.837   4.505 -0.3337 -2.2924  0.1554
17862THY    CP330130   7.276   7.917   4.767 -0.0421  0.2777  0.3492
17862THY    HP530131   7.320   7.879   4.859  1.4120 -0.6505 -0.2864
17862THY    HP630132   7.177   7.960   4.785 -0.6553  0.4122 -1.0636
17862THY    HP730133   7.334   8.000   4.723 -1.0917 -0.3628  0.7629
17862THY    CA330134   7.532   7.785   4.643 -0.2040 -0.2322 -0.1221
17862THY    HA330135   7.530   7.892   4.626 -1.5898  1.7586  0.2455
17862THY    CA430136   7.649   7.725   4.629 -0.9898  0.2532  0.2628
17862THY    HA430137   7.738   7.777   4.594 -0.4667  0.2015 -0.6254
17862THY    CA530138   7.657   7.585   4.658  0.4642 -0.5557 -0.2350
17862THY    CM130139   7.782   7.507   4.629  0.2722 -0.0102 -0.3034
17862THY    HM130140   7.863   7.576   4.605 -1.1530 -0.6184  1.2218
17862THY    HM230141   7.779   7.444   4.539  2.5104 -0.7091  0.5033
17862THY    HM330142   7.812   7.448   4.717  0.9176  0.5725  0.8691
17862THY    CA630143   7.547   7.524   4.712  0.1210  0.3215  0.5671
17862THY    HA630144   7.552   7.422   4.748 -1.9231 -0.9978 -0.0630
17863THY      O30145   6.761   4.622   6.250 -0.2588  0.7213 -0.2617
17863THY     HO30146   6.734   4.657   6.163 -1.8950  1.3675  0.1793
17863THY    CA130147   6.812   4.499   6.221  0.3088  0.6362 -0.1620
17863THY    CA230148   6.870   4.427   6.323 -0.8146 -0.0762 -0.0834
17863THY    CP130149   6.868   4.469   6.465 -0.0701 -0.9672  0.6418
17863THY    HP130150   6.800   4.553   6.478 -2.2162  1.4960 -1.3179
17863THY    CP230151   7.002   4.528   6.500  0.1234 -0.1558 -0.5855
17863THY    HP230152   7.010   4.563   6.603 -2.2051 -0.3210  0.6467
17863THY    HP330153   7.022   4.623   6.449  1.3279 -0.8418 -1.1873
17863THY    HP430154   7.087   4.458   6.492 -2.5673  0.2489 -4.1979
17863THY    CP330155   6.812   4.365   6.571 -0.3852  0.0113  0.3883
17863THY    HP530156   6.812   4.424   6.663  1.8958  0.5469 -0.3625
17863THY    HP630157   6.860   4.269   6.591 -0.5869  1.2820  0.5459
17863THY    HP730158   6.706   4.344   6.548 -0.5879  1.5152 -0.3620
17863THY    CA330159   6.921   4.298   6.290 -0.1469 -0.1381  0.3925
17863THY    HA330160   6.957   4.225   6.362 -0.6976 -0.6001 -0.3460
17863THY    CA430161   6.909   4.250   6.158 -0.0272  0.2298 -0.3167
17863THY    HA430162   6.946   4.150   6.136  1.1390  1.4097 -0.1832
17863THY    CA530163   6.848   4.325   6.060  0.1147 -0.2582  0.2032
17863THY    CM130164   6.850   4.265   5.921  0.4041  0.2237 -0.1424
17863THY    HM130165   6.944   4.229   5.876 -0.4273 -0.0498 -2.1183
17863THY    HM230166   6.816   4.342   5.850 -2.4916 -2.0738 -3.2152
17863THY    HM330167   6.779   4.182   5.913 -1.1876  0.0216  1.1992
17863THY    CA630168   6.793   4.448   6.091 -0.7475 -0.1979 -0.7936
17863THY    HA630169   6.748   4.508   6.012  1.8265 -0.6393  0.6805
17864THY      O30170   5.832   3.260   2.018 -0.0189 -0.8393 -0.2541
17864THY     HO30171   5.924   3.234   2.000 -0.0016  0.1373 -0.9085
17864THY    CA130172   5.820   3.390   1.979 -0.2290  0.8585  0.2037
17864THY    CA230173   5.701   3.466   1.995  0.4512  1.0197  0.8777
17864THY    CP130174   5.565   3.403   2.055 -0.0365 -0.2342 -0.1421
17864THY    HP130175   5.563   3.294   2.052  2.6153 -1.0752 -0.2322
17864THY    CP230176   5.437   3.445   1.971  0.2247  0.4698 -0.5191
17864THY    HP230177   5.456   3.403   1.872  3.7613  0.2228  1.3529
17864THY    HP330178   5.429   3.553   1.954 -0.5287  0.0111 -0.6381
17864THY    HP430179   5.341   3.416   2.016  0.8772  2.5469  0.3526
17864THY    CP330180   5.544   3.435   2.202 -0.6916  0.0220  0.3619
17864THY    HP530181   5.438   3.428   2.230 -0.8192 -0.5345 -0.0042
17864THY    HP630182   5.580   3.534   2.231  1.7530  1.5947 -0.8827
17864THY    HP730183   5.599   3.368   2.269  2.8683 -0.2682  2.7366
17864THY    CA330184   5.707   3.603   1.986  0.0365  0.4159 -0.1492
17864THY    HA330185   5.618   3.664   1.994 -0.1523 -0.5731 -0.2938
17864THY    CA430186   5.836   3.661   1.967  0.0656  0.0447 -0.5947
17864THY    HA430187   5.838   3.768   1.987 -4.8829  0.9909 -0.4027
17864THY    CA530188   5.948   3.581   1.945 -0.5519  0.5147 -0.0443
17864THY    CM130189   6.076   3.655   1.932 -0.0507  0.2350  0.3690
17864THY    HM130190   6.074   3.704   1.833  3.2860  0.2526  0.7431
17864THY    HM230191   6.166   3.594   1.942 -1.4503  0.1681 -1.7929
17864THY    HM330192   6.086   3.726   2.015  0.2730  0.5479 -0.0412
17864THY    CA630193   5.938   3.443   1.943  0.7231  0.1450  0.2262
17864THY    HA630194   6.024   3.382   1.920  0.7587 -0.2778  0.4322
17865THY      O30195   9.180   4.778   3.202  0.3029 -0.5936 -0.3041
17865THY     HO30196   9.222   4.851   3.153 -3.3446 -0.5509  2.1158
17865THY    CA130197   9.167   4.677   3.112 -0.5000 -0.1069  0.3996
17865THY    CA230198   9.080   4.673   3.000 -0.4031  0.3358  0.1488
17865THY    CP130199   8.999   4.796   2.963 -0.3115 -0.5676 -0.0640
17865THY    HP130200   9.015   4.875   3.037  1.8083 -0.0575 -0.8902
17865THY    CP230201   8.851   4.747   2.950  0.3033  0.1151  0.0410
17865THY    HP230202   8.840   4.671   3.028  1.6229  1.1103  0.8353
17865THY    HP330203   8.825   4.704   2.852 -1.4031 -0.2024  1.6568
17865THY    HP430204   8.780   4.830   2.963 -1.1523 -0.0346 -1.1459
17865THY    CP330205   9.057   4.861   2.828  0.8362 -0.0534  0.6184
17865THY    HP530206   8.994   4.947   2.805 -0.5723 -0.8371 -0.5839
17865THY    HP630207   9.048   4.790   2.745 -2.6483  2.1743 -1.8562
17865THY    HP730208   9.161   4.897   2.838  0.2957 -0.7334  2.4941
17865THY    CA330209   9.081   4.553   2.917  0.2162  0.0939 -0.0545
17865THY    HA330210   9.019   4.540   2.829  0.9455 -0.5786  0.8972
17865THY    CA430211   9.173   4.450   2.948  0.1691  0.3872  0.2264
17865THY    HA430212   9.179   4.355   2.896 -1.8306  0.6859 -0.0987
17865THY    CA530213   9.262   4.457   3.060  1.0775  0.4363  0.2829
17865THY    CM130214   9.356   4.345   3.097 -0.1322  0.5857  0.0911
17865THY    HM130215   9.355   4.317   3.203 -1.4207  0.7486  0.6902
17865THY    HM230216   9.456   4.389   3.086 -0.5662  1.2029  1.2632
17865THY    HM330217   9.344   4.271   3.017 -0.2462 -3.1206  3.7059
17865THY    CA630218   9.261   4.576   3.132 -0.5865 -0.5026 -0.6982
17865THY    HA630219   9.341   4.593   3.204 -1.7155  0.2210  2.3106
17866THY      O30220   8.714   4.194   3.800 -0.2137  0.2294  0.1385
17866THY     HO30221   8.664   4.118   3.765  1.2010 -1.2733 -0.1637
17866THY    CA130222   8.684   4.200   3.934 -0.3124  0.1436  0.4804
17866THY    CA230223   8.714   4.303   4.017  0.6947 -0.3491 -0.0954
17866THY    CP130224   8.819   4.413   3.974 -0.2114 -0.4772 -0.5478
17866THY    HP130225   8.805   4.434   3.867 -0.3347 -0.7660 -1.9903
17866THY    CP230226   8.957   4.354   3.974 -0.2451 -0.0506 -0.1599
17866THY    HP230227   8.996   4.315   4.068  2.2922 -0.5693  0.9317
17866THY    HP330228   9.014   4.442   3.943 -0.9050  2.2388  1.1637
17866THY    HP430229   8.958   4.287   3.887 -4.8708 -0.7832  0.3500
17866THY    CP330230   8.824   4.541   4.049  0.5720  0.0272 -0.2186
17866THY    HP530231   8.904   4.545   4.124 -0.2794  0.9055  1.2655
17866THY    HP630232   8.724   4.574   4.080  1.1058 -0.1253  1.6451
17866THY    HP730233   8.852   4.621   3.979 -2.4776 -0.5304  0.4579
17866THY    CA330234   8.667   4.291   4.154  0.4475 -0.0227  0.0136
17866THY    HA330235   8.688   4.372   4.222  3.2123 -1.2719  0.4556
17866THY    CA430236   8.589   4.181   4.196  0.0611  0.1266  0.5077
17866THY    HA430237   8.553   4.178   4.298  0.7428  0.3546 -0.4059
17866THY    CA530238   8.559   4.080   4.103  0.5624 -0.0967 -0.7844
17866THY    CM130239   8.470   3.964   4.135 -0.1590  0.4710  0.2017
17866THY    HM130240   8.487   3.869   4.083  0.6895  0.5364  0.3096
17866THY    HM230241   8.362   3.977   4.118 -0.5223  2.3674 -0.1397
17866THY    HM330242   8.483   3.928   4.237  0.3868 -0.5380 -2.7707
17866THY    CA630243   8.616   4.090   3.973  0.4145  0.0449 -0.3042
17866THY    HA630244   8.594   4.015   3.897 -0.5989 -2.5210  2.3955
17867THY      O30245   9.091   6.257   3.289 -0.0764  0.1670  0.0921
17867THY     HO30246   9.054   6.172   3.257 -1.1744  0.8891  0.2787
17867THY    CA130247   9.191   6.215   3.375 -0.0379  0.1433 -0.6037
17867THY    CA230248   9.270   6.307   3.448  0.0073 -0.8555 -0.3755
17867THY    CP130249   9.231   6.451   3.441 -0.0633  0.1178 -0.3651
17867THY    HP130250   9.225   6.489   3.339 -1.4771  0.3558  0.1022
17867THY    CP230251   9.344   6.540   3.493  0.2442  0.0295  0.3297
17867THY    HP230252   9.324   6.643   3.462  1.2369  1.7038  1.0713
17867THY    HP330253   9.439   6.503   3.453 -0.5080  0.1638 -1.8515
17867THY    HP430254   9.357   6.540   3.602 -0.3939  0.1229  1.0597
17867THY    CP330255   9.094   6.458   3.513 -0.3544 -0.6722  0.3012
17867THY    HP530256   9.067   6.564   3.507 -1.6927 -0.9985 -0.0248
17867THY    HP630257   9.104   6.434   3.620  0.1407 -0.8091 -0.1220
17867THY    HP730258   9.011   6.404   3.465 -1.2642  1.1513 -0.0201
17867THY    CA330259   9.377   6.261   3.526 -0.7244  0.1158  0.2434
17867THY    HA330260   9.438   6.326   3.588  1.0337 -1.9368  0.6591
17867THY    CA430261   9.398   6.121   3.534  0.0283 -0.3302  0.5941
17867THY    HA430262   9.477   6.080   3.597  0.7691 -0.4525  1.7842
17867THY    CA530263   9.322   6.036   3.457 -0.5728  0.3462  0.1950
17867THY    CM130264   9.358   5.885   3.468 -0.0687  0.5435  0.2117
17867THY    HM130265   9.302   5.820   3.400 -0.2304  1.5407 -0.7268
17867THY    HM230266   9.323   5.836   3.559 -2.6776 -1.7436 -2.5402
17867THY    HM330267   9.466   5.868   3.461 -0.3933  0.9629 -2.3419
17867THY    CA630268   9.211   6.079   3.385 -0.0627 -0.7200 -0.0280
17867THY    HA630269   9.152   6.007   3.329  2.2261 -1.2904 -1.5795
17868THY      O30270   5.138   5.446   4.236 -0.0844  0.2991  0.1955
17868THY     HO30271   5.189   5.426   4.317  1.5916 -0.7799 -0.1755
17868THY    CA130272   5.203   5.548   4.182 -0.6304  0.3750  0.2717
17868THY    CA230273   5.167   5.587   4.057 -0.2720  0.0545  0.7783
17868THY    CP130274   5.059   5.509   3.975  0.7426 -0.2248 -0.2690
17868THY    HP130275   5.028   5.424   4.036 -1.2205  0.7504  1.0709
17868THY    CP230276   5.129   5.460   3.839 -0.4498 -0.5525  0.1556
17868THY    HP230277   5.228   5.423   3.866 -1.0360 -1.3710 -2.1939
17868THY    HP330278   5.134   5.542   3.766 -1.9459 -1.6907 -0.7110
17868THY    HP430279   5.070   5.386   3.783 -1.0084  0.0272  0.1472
17868THY    CP330280   4.933   5.593   3.942  0.2085  0.0924  0.1079
17868THY    HP530281   4.871   5.606   4.031 -0.5455 -0.2890 -0.7715
17868THY    HP630282   4.876   5.539   3.865 -0.1191  0.9759 -0.8269
17868THY    HP730283   4.958   5.696   3.912 -2.9902  1.3475  1.3828
17868THY    CA330284   5.231   5.691   3.996  0.7856 -0.4538 -0.0909
17868THY    HA330285   5.204   5.734   3.901  0.6824  0.5434  2.2031
17868THY    CA430286   5.332   5.759   4.073 -0.1915 -0.3812  0.4920
17868THY    HA430287   5.371   5.850   4.029 -0.6817 -3.7602 -0.7903
17868THY    CA530288   5.367   5.727   4.204  0.7408 -0.6033  0.1799
17868THY    CM130289   5.460   5.815   4.288 -0.0041 -0.0972 -0.7185
17868THY    HM130290   5.425   5.837   4.389  0.4571  0.4461 -2.4030
17868THY    HM230291   5.476   5.914   4.244  1.6481  0.1902 -0.8439
17868THY    HM330292   5.553   5.763   4.312  2.2867 -2.6228  1.8364
17868THY    CA630293   5.294   5.626   4.259  0.2667  0.2158  0.9225
17868THY    HA630294   5.313   5.590   4.360 -0.5611 -0.4510 -1.5926
17869THY      O30295   4.591   9.196   6.071  0.5575 -0.4545 -0.0458
17869THY     HO30296   4.566   9.108   6.038 -0.0376  0.5436 -0.2674
17869THY    CA130297   4.565   9.177   6.203 -0.3900  0.1927 -0.5830
17869THY    CA230298   4.637   9.247   6.308  0.2304 -0.5879  0.4678
17869THY    CP130299   4.722   9.366   6.272 -0.4144 -0.2309  1.1557
17869THY    HP130300   4.696   9.431   6.188  0.4357 -1.9391 -0.5933
17869THY    CP230301   4.856   9.302   6.235  0.2867 -0.1229 -0.0723
17869THY    HP230302   4.932   9.380   6.219 -1.5158  0.2217  1.8189
17869THY    HP330303   4.859   9.236   6.147  3.0719 -0.4731  0.3953
17869THY    HP430304   4.896   9.239   6.316  1.6162  0.0947  0.9976
17869THY    CP330305   4.734   9.470   6.389  0.3639  0.7733 -0.5714
17869THY    HP530306   4.765   9.424   6.483  0.5075  0.0002 -2.1181
17869THY    HP630307   4.641   9.527   6.390 -0.5459  0.9002 -2.0230
17869THY    HP730308   4.822   9.534   6.374 -0.7018  1.3680  1.1107
17869THY    CA330309   4.610   9.204   6.445  0.7566 -0.6318  0.3937
17869THY    HA330310   4.657   9.256   6.529  1.0155 -1.4611  1.5350
17869THY    CA430311   4.505   9.106   6.465 -0.0359 -0.3403  0.4999
17869THY    HA430312   4.480   9.084   6.568  0.9422 -0.2300 -0.1296
17869THY    CA530313   4.447   9.043   6.361 -0.4230 -0.6857  0.3214
17869THY    CM130314   4.352   8.920   6.381  0.3530  0.5823 -0.6587
17869THY    HM130315   4.248   8.942   6.356  0.3392  0.5389 -0.7735
17869THY    HM230316   4.350   8.895   6.487  1.3986  0.9738  0.7618
17869THY    HM330317   4.398   8.836   6.328  3.2665 -0.5474  1.4482
17869THY    CA630318   4.478   9.074   6.230 -0.1581 -0.3962 -0.1847
17869THY    HA630319   4.417   9.027   6.154  0.8925 -0.1246 -2.0694
17870THY      O30320   8.398   5.925   4.898  0.4802 -0.1591  0.0640
17870THY     HO30321   8.340   5.892   4.827  0.2514 -1.6796  3.2967
17870THY    CA130322   8.484   6.019   4.852 -0.2632 -0.2571 -0.4301
17870THY    CA230323   8.544   6.123   4.934  0.6152 -0.4410 -0.0827
17870THY    CP130324   8.514   6.138   5.086 -0.2086  0.5691  0.5246
17870THY    HP130325   8.417   6.093   5.110 -0.3014 -0.0683  0.3776
17870THY    CP230326   8.490   6.286   5.117 -0.0046  0.1502  0.1804
17870THY    HP230327   8.425   6.339   5.046 -0.6369  0.5298 -0.0833
17870THY    HP330328   8.589   6.334   5.124 -0.6104 -0.6848  1.6299
17870THY    HP430329   8.454   6.289   5.221  0.5364  0.5322  5.8074
17870THY    CP330330   8.625   6.069   5.169 -0.4071  0.3175  0.2650
17870THY    HP530331   8.721   6.120   5.168  0.1929 -1.5087 -0.7948
17870THY    HP630332   8.644   5.968   5.130 -3.4966  1.1716 -0.7744
17870THY    HP730333   8.595   6.071   5.274  1.0517  0.8389 -1.9456
17870THY    CA330334   8.643   6.195   4.870  0.0648  0.1691 -0.8100
17870THY    HA330335   8.701   6.267   4.927  0.5950 -1.2435 -0.0651
17870THY    CA430336   8.668   6.184   4.731 -0.1758  0.4775  0.1678
17870THY    HA430337   8.737   6.247   4.677 -0.7945  0.5914  0.9636
17870THY    CA530338   8.594   6.095   4.653  0.0637 -0.4798  0.3395
17870THY    CM130339   8.605   6.107   4.505 -0.1706  0.3172 -0.2432
17870THY    HM130340   8.549   6.024   4.459  0.9810 -0.5616 -0.5531
17870THY    HM230341   8.710   6.092   4.478 -0.3702 -0.2063 -0.7411
17870THY    HM330342   8.566   6.202   4.466 -1.3426  1.2319 -0.3239
17870THY    CA630343   8.499   6.010   4.712  0.1804  0.0148  0.7173
17870THY    HA630344   8.433   5.943   4.658  1.0681 -1.7549  1.2054
17871THY      O30345   9.057   5.454   5.007  0.2329  0.5326  0.1788
17871THY     HO30346   9.112   5.378   4.981  0.5494  0.5870  0.3879
17871THY    CA130347   9.032   5.510   4.886 -0.3151  0.4568  0.0490
17871THY    CA230348   8.953   5.625   4.869  0.1526  0.1425 -0.3407
17871THY    CP130349   8.884   5.693   4.996  0.0746  1.0100  0.4570
17871THY    HP130350   8.874   5.632   5.087  1.8585  1.3858  0.6807
17871THY    CP230351   8.741   5.737   4.959 -0.0508  0.8196  0.2395
17871THY    HP230352   8.739   5.829   4.899  0.6291 -0.3042 -0.4594
17871THY    HP330353   8.674   5.739   5.046  0.5408  1.4194 -2.4427
17871THY    HP430354   8.693   5.666   4.892 -1.2775  0.8490  1.0118
17871THY    CP330355   8.952   5.820   5.041 -0.3514  0.3309 -0.2316
17871THY    HP530356   8.922   5.870   5.133  1.9681  0.6552  0.7137
17871THY    HP630357   8.951   5.895   4.961  0.2263 -0.6712 -1.2427
17871THY    HP730358   9.059   5.795   5.037 -0.4041 -2.2093 -0.2818
17871THY    CA330359   8.936   5.683   4.744  0.0022  0.9022  0.4868
17871THY    HA330360   8.885   5.778   4.734 -0.2145 -0.9468  0.2046
17871THY    CA430361   8.990   5.623   4.634 -0.4163 -0.4426 -0.4538
17871THY    HA430362   8.966   5.661   4.535  2.9334 -0.6328  1.6470
17871THY    CA530363   9.060   5.501   4.649  0.3147 -0.6184 -0.2811
17871THY    CM130364   9.118   5.432   4.537 -0.0605  0.7327 -0.1103
17871THY    HM130365   9.115   5.322   4.537 -0.1330 -1.4404 -0.1601
17871THY    HM230366   9.218   5.470   4.516 -0.2107 -0.8384 -0.4956
17871THY    HM330367   9.065   5.455   4.444 -2.1379  1.5918 -1.1657
17871THY    CA630368   9.077   5.441   4.778  0.5421 -0.5109 -0.0026
17871THY    HA630369   9.141   5.354   4.786  3.3988 -0.9320  1.9233
17872THY      O30370   2.152   7.125   6.844  0.1816 -0.2981  0.1471
17872THY     HO30371   2.246   7.143   6.831  0.1190 -0.8314  0.1088
17872THY    CA130372   2.131   7.021   6.768  0.4305 -0.2116 -0.1810
17872THY    CA230373   2.004   7.005   6.713 -0.0829  0.0335 -0.5128
17872THY    CP130374   1.897   7.113   6.726  0.4057  0.3266 -0.6171
17872THY    HP130375   1.949   7.208   6.739  0.9858  3.8696 -1.2753
17872THY    CP230376   1.812   7.112   6.854 -0.1932 -0.3498 -0.0331
17872THY    HP230377   1.767   7.012   6.863  1.9855 -0.4402 -1.0791
17872THY    HP330378   1.726   7.181   6.854 -0.1470 -0.0156  0.0236
17872THY    HP430379   1.872   7.132   6.943  1.7881 -1.9490  1.4372
17872THY    CP330380   1.809   7.127   6.603  0.0576 -0.3761  0.4410
17872THY    HP530381   1.755   7.222   6.592 -0.2990 -2.2779  0.0573
17872THY    HP630382   1.730   7.052   6.598  0.1354  0.2301  0.3211
17872THY    HP730383   1.867   7.105   6.512  1.5413  0.2138  1.6721
17872THY    CA330384   1.974   6.888   6.638 -0.1507  0.4647  0.6579
17872THY    HA330385   1.875   6.876   6.593  0.7503 -1.2353 -0.8649
17872THY    CA430386   2.073   6.793   6.615 -0.5100  0.3988 -0.4614
17872THY    HA430387   2.066   6.708   6.549  2.2386  0.4481 -0.7993
17872THY    CA530388   2.196   6.810   6.681  0.8989 -0.2433  0.6013
17872THY    CM130389   2.291   6.696   6.694  0.6526  0.5514  0.5387
17872THY    HM130390   2.238   6.600   6.688  0.8170  1.2838  0.3891
17872THY    HM230391   2.331   6.699   6.797  1.1958  0.3426  0.6593
17872THY    HM330392   2.376   6.710   6.626 -0.4626 -0.4539  2.7845
17872THY    CA630393   2.224   6.920   6.765  0.3536  0.0244 -0.3512
17872THY    HA630394   2.316   6.927   6.823 -0.2170  0.9828 -0.6180
17873THY      O30395   7.592   2.266   5.995  0.6561  0.4452 -0.2070
17873THY     HO30396   7.663   2.299   5.937  1.7045  0.9472 -1.5162
17873THY    CA130397   7.611   2.135   6.006  0.1686  0.4783 -0.1951
17873THY    CA230398   7.544   2.058   6.103  0.8063  1.0320 -0.4346
17873THY    CP130399   7.429   2.122   6.184 -0.0403  0.5099  0.7644
17873THY    HP130400   7.412   2.228   6.164 -0.4666 -0.6186  0.4884
17873THY    CP230401   7.460   2.126   6.340  0.4628 -0.2243  0.2912
17873THY    HP230402   7.488   2.032   6.389 -1.8329  2.6101  0.9317
17873THY    HP330403   7.378   2.178   6.391  0.7502  0.5062  0.0392
17873THY    HP430404   7.546   2.192   6.357  1.6266 -2.0296 -0.6655
17873THY    CP330405   7.307   2.038   6.153  1.0827  0.1599  0.4432
17873THY    HP530406   7.224   2.100   6.190  0.1906 -0.1988 -0.5005
17873THY    HP630407   7.296   1.938   6.197  0.0167 -1.1919 -0.0615
17873THY    HP730408   7.287   2.022   6.047 -1.5214  0.6037  0.1897
17873THY    CA330409   7.577   1.920   6.111 -0.1903  0.3552  0.8194
17873THY    HA330410   7.526   1.855   6.183 -1.2828 -2.4736 -1.6965
17873THY    CA430411   7.685   1.863   6.039 -0.1136  0.3094  0.2952
17873THY    HA430412   7.710   1.759   6.056 -0.8418 -0.2014  0.0222
17873THY    CA530413   7.753   1.945   5.946  0.4164  0.1303  0.1337
17873THY    CM130414   7.866   1.889   5.859 -0.8809  1.0871  0.4198
17873THY    HM130415   7.898   1.945   5.769  2.4905  2.8049  1.5418
17873THY    HM230416   7.826   1.797   5.816 -1.2456 -0.6270  1.3302
17873THY    HM330417   7.952   1.855   5.917 -1.0149 -0.0209 -1.9816
17873THY    CA630418   7.709   2.080   5.925 -0.1769 -0.2231  0.1969
17873THY    HA630419   7.762   2.147   5.858 -1.4167  0.0672  1.5243
17874THY      O30420   8.298   3.096   6.634 -0.1440 -0.2944  0.0053
17874THY     HO30421   8.236   3.022   6.637 -0.5580  0.0776  0.3605
17874THY    CA130422   8.423   3.054   6.634 -0.0293 -0.2895  0.8142
17874THY    CA230423   8.531   3.142   6.635 -0.4259 -0.0986 -0.5878
17874THY    CP130424   8.513   3.293   6.635 -0.5622  0.4775  0.3946
17874THY    HP130425   8.408   3.320   6.618 -0.0649 -0.3640  1.8976
17874THY    CP230426   8.612   3.351   6.526  0.6495 -0.1268 -0.0838
17874THY    HP230427   8.613   3.286   6.438  2.4104  0.3652 -0.7939
17874THY    HP330428   8.716   3.334   6.556  0.2874  1.0124 -0.3865
17874THY    HP430429   8.586   3.454   6.499 -1.8420  1.9635 -0.0747
17874THY    CP330430   8.547   3.347   6.772 -0.5061  0.2565  0.5583
17874THY    HP530431   8.539   3.456   6.775 -0.2326 -0.8455  0.6228
17874THY    HP630432   8.650   3.323   6.801 -0.6375  1.6063  1.5000
17874THY    HP730433   8.487   3.297   6.849  0.6873  1.0647  0.3402
17874THY    CA330434   8.661   3.083   6.645 -0.4140 -0.4006  0.0475
17874THY    HA330435   8.752   3.142   6.652  0.4157 -2.3578 -0.9078
17874THY    CA430436   8.681   2.944   6.632 -0.1074  0.7165  0.0280
17874THY    HA430437   8.782   2.908   6.618  0.0690 -1.3104  1.1472
17874THY    CA530438   8.576   2.858   6.630  0.6675  0.3358  0.4907
17874THY    CM130439   8.591   2.711   6.603 -0.0720 -0.5002  0.4386
17874THY    HM130440   8.635   2.696   6.504 -0.3040 -0.6055  0.4395
17874THY    HM230441   8.494   2.661   6.612  0.8286 -1.3924 -1.5582
17874THY    HM330442   8.653   2.667   6.682 -2.2915  0.4608 -1.1446
17874THY    CA630443   8.446   2.917   6.624  0.3530 -0.2241 -0.1384
17874THY    HA630444   8.359   2.853   6.611 -2.3195  0.3573  3.0777
17875THY      O30445   3.606   7.884   6.855  0.4576 -0.5802  0.6759
17875THY     HO30446   3.569   7.874   6.766 -2.4354  0.7320 -2.2660
17875THY    CA130447   3.737   7.903   6.835 -0.0221 -0.2697  0.0430
17875THY    CA230448   3.836   7.818   6.887  0.2587 -0.1573 -0.2387
17875THY    CP130449   3.799   7.687   6.951 -0.3064  0.3049  0.1695
17875THY    HP130450   3.692   7.667   6.961 -1.1319 -2.0841  2.7045
17875THY    CP230451   3.869   7.648   7.081  0.1850 -0.1611 -0.4010
17875THY    HP230452   3.875   7.726   7.158  0.6859 -2.2634  1.7404
17875THY    HP330453   3.976   7.631   7.064 -0.1763 -1.9624 -1.1341
17875THY    HP430454   3.831   7.561   7.135  1.5367 -1.2630 -1.7213
17875THY    CP330455   3.845   7.573   6.862 -1.0279  0.6220 -0.4144
17875THY    HP530456   3.776   7.570   6.777  0.9849 -1.1347  0.4767
17875THY    HP630457   3.831   7.474   6.908  2.5319  2.6482 -0.1584
17875THY    HP730458   3.951   7.577   6.833 -1.3330 -0.4869 -0.0644
17875THY    CA330459   3.972   7.851   6.872 -0.2611  0.3892  0.1170
17875THY    HA330460   4.045   7.781   6.913  1.8527 -2.3633  0.5141
17875THY    CA430461   4.002   7.976   6.811  0.7505  0.3832 -0.6912
17875THY    HA430462   4.105   8.011   6.803  0.2456  0.6190  0.9323
17875THY    CA530463   3.903   8.053   6.749  0.3819 -0.0880  0.3332
17875THY    CM130464   3.926   8.177   6.673  0.1833 -0.4255 -0.3158
17875THY    HM130465   3.942   8.142   6.571 -2.1455 -0.1572 -2.4757
17875THY    HM230466   4.012   8.229   6.716 -2.1536  3.1913  1.0071
17875THY    HM330467   3.846   8.252   6.675  2.2998  0.0038  2.0651
17875THY    CA630468   3.767   8.018   6.763 -0.7615  0.3403  0.4813
17875THY    HA630469   3.690   8.085   6.725 -0.0074 -1.6504  0.2771
17876THY      O30470   8.177   6.414   6.361  0.0888  0.0538 -0.4174
17876THY     HO30471   8.100   6.364   6.328  0.4799 -0.5460 -0.6233
17876THY    CA130472   8.268   6.391   6.264 -0.1990  0.0944 -0.7392
17876THY    CA230473   8.326   6.496   6.190  0.4504 -0.0977 -0.4066
17876THY    CP130474   8.288   6.641   6.226  0.7641  0.3236 -0.7427
17876THY    HP130475   8.244   6.650   6.325  0.7446  0.2233  0.4195
17876THY    CP230476   8.173   6.707   6.148  0.4076  0.5484  0.0664
17876THY    HP230477   8.161   6.813   6.172  0.3951  2.5174 -0.3416
17876THY    HP330478   8.078   6.653   6.162 -0.7730 -0.5646  1.7650
17876THY    HP430479   8.199   6.692   6.042 -1.2399  0.1193 -0.0303
17876THY    CP330480   8.415   6.739   6.221  0.4937  0.8301 -0.2144
17876THY    HP530481   8.493   6.684   6.276  0.1484 -0.9735 -2.6825
17876THY    HP630482   8.397   6.838   6.265 -0.6501  0.7565 -0.3718
17876THY    HP730483   8.447   6.757   6.118 -3.1091 -0.1785  1.3857
17876THY    CA330484   8.426   6.469   6.099 -0.4012 -0.4110  0.7603
17876THY    HA330485   8.477   6.550   6.048 -0.5127  0.6559  1.5278
17876THY    CA430486   8.474   6.333   6.080  0.0130 -0.0840  0.2089
17876THY    HA430487   8.560   6.321   6.015 -1.4517 -2.2088  0.6355
17876THY    CA530488   8.426   6.232   6.159 -0.1806  0.0692  0.0090
17876THY    CM130489   8.482   6.094   6.144  0.4434 -0.0734  0.0536
17876THY    HM130490   8.560   6.067   6.216  0.5376 -0.8184 -1.8142
17876THY    HM230491   8.526   6.071   6.046  0.0735 -0.6009  1.4904
17876THY    HM330492   8.389   6.037   6.155 -0.2363  0.2211  1.1958
17876THY    CA630493   8.319   6.262   6.244 -0.4654 -0.1999  0.3329
17876THY    HA630494   8.286   6.186   6.314 -2.2800 -1.0104  0.3060
17877THY      O30495   7.112   2.624   4.153  0.7679 -0.2521  0.2397
17877THY     HO30496   7.147   2.714   4.161 -2.0436  0.3580  1.3697
17877THY    CA130497   7.069   2.603   4.287 -0.5412  0.7331  0.7406
17877THY    CA230498   6.998   2.487   4.324  0.6027 -0.1564  0.7798
17877THY    CP130499   6.951   2.390   4.218 -0.4694 -0.8658  0.5325
17877THY    HP130500   7.001   2.408   4.121 -0.2906 -0.8710  0.0176
17877THY    CP230501   6.801   2.402   4.186 -0.2506 -0.2481  0.3249
17877THY    HP230502   6.788   2.325   4.109 -0.2507 -1.6559  1.6790
17877THY    HP330503   6.791   2.500   4.139  2.8208 -0.5640  0.5941
17877THY    HP430504   6.750   2.379   4.280 -1.8634 -0.9709  0.7922
17877THY    CP330505   6.984   2.245   4.260  0.6099  0.4837 -0.4386
17877THY    HP530506   6.910   2.197   4.326 -1.1605  0.9133  2.5603
17877THY    HP630507   7.079   2.260   4.313  0.7766 -0.6272  3.7193
17877THY    HP730508   6.996   2.188   4.168  2.1620 -2.1742  3.7562
17877THY    CA330509   6.954   2.465   4.461 -0.5142  0.4906  0.4552
17877THY    HA330510   6.882   2.391   4.493  0.4393  0.3907 -0.5429
17877THY    CA430511   6.995   2.565   4.554 -0.3357 -0.3673 -0.7596
17877THY    HA430512   6.950   2.565   4.652 -0.5977 -0.4129  1.9265
17877THY    CA530513   7.070   2.675   4.507 -0.2746  0.7865 -0.4576
17877THY    CM130514   7.099   2.787   4.608  0.3307  0.7902 -0.5209
17877THY    HM130515   7.157   2.864   4.554  0.7921  0.8105 -0.8503
17877THY    HM230516   7.154   2.758   4.698  1.1209  0.6259  0.3817
17877THY    HM330517   7.006   2.834   4.642 -0.9164 -0.1569 -2.2078
17877THY    CA630518   7.110   2.692   4.375  0.1689 -0.8081  0.8003
17877THY    HA630519   7.177   2.775   4.351  3.6114  0.7180 -1.3272
17878THY      O30520   2.025   6.534   5.160 -0.0634  0.3146 -0.2045
17878THY     HO30521   1.935   6.496   5.153  0.8204 -1.2943 -2.2065
17878THY    CA130522   2.067   6.497   5.278 -0.7263 -0.4675  0.0030
17878THY    CA230523   2.197   6.446   5.296 -0.8350 -0.5539 -0.1718
17878THY    CP130524   2.297   6.441   5.179  0.3401 -0.1766 -0.3547
17878THY    HP130525   2.255   6.480   5.085 -1.3551 -0.1775 -2.0263
17878THY    CP230526   2.318   6.295   5.139 -0.5444  0.5693  0.0682
17878THY    HP230527   2.369   6.240   5.220  0.5286  0.2789  0.6103
17878THY    HP330528   2.385   6.279   5.053 -0.6610  0.3115  0.9317
17878THY    HP430529   2.226   6.247   5.104  0.9513  0.8282 -3.3238
17878THY    CP330530   2.426   6.524   5.199  0.3465 -0.0257 -0.0024
17878THY    HP530531   2.503   6.469   5.143 -0.6806 -1.1779 -0.3031
17878THY    HP630532   2.458   6.536   5.304  2.4940 -0.6514  0.2733
17878THY    HP730533   2.417   6.623   5.152  0.8964 -0.7552 -0.2925
17878THY    CA330534   2.236   6.423   5.429 -0.3358  0.3741  0.4799
17878THY    HA330535   2.339   6.394   5.445 -0.1642  1.2534  1.5199
17878THY    CA430536   2.154   6.430   5.538 -0.0304  0.2046 -0.2958
17878THY    HA430537   2.189   6.420   5.640 -0.1752  0.3340  0.4888
17878THY    CA530538   2.017   6.465   5.513 -0.2350 -0.1798 -0.1415
17878THY    CM130539   1.924   6.480   5.629  0.1379 -0.2020 -0.7109
17878THY    HM130540   1.906   6.385   5.680 -0.9401  1.2827  0.2513
17878THY    HM230541   1.827   6.504   5.585  0.8961 -0.9971  1.0881
17878THY    HM330542   1.964   6.549   5.705 -0.1771  0.7163 -1.5251
17878THY    CA630543   1.972   6.497   5.381 -0.8356  0.4227 -0.1112
17878THY    HA630544   1.866   6.507   5.362 -0.3315 -2.1559  0.9558
17879THY      O30545   5.776   1.272   7.316  0.3007 -0.8388 -0.0763
17879THY     HO30546   5.781   1.292   7.221 -0.6425 -0.8296  0.2907
17879THY    CA130547   5.644   1.301   7.337  0.2495  0.3095  0.5007
17879THY    CA230548   5.580   1.245   7.450 -0.3855 -1.0213  0.1693
17879THY    CP130549   5.663   1.143   7.530 -0.7478  0.7578  0.1918
17879THY    HP130550   5.767   1.179   7.534 -0.3577 -2.9999 -0.0606
17879THY    CP230551   5.667   1.005   7.464  0.1149  0.3806  0.5652
17879THY    HP230552   5.760   0.959   7.499  0.1950 -1.2277 -0.5650
17879THY    HP330553   5.675   1.017   7.356 -2.3996  0.2298  1.4240
17879THY    HP430554   5.576   0.947   7.485  0.3520 -1.1120 -0.3845
17879THY    CP330555   5.620   1.138   7.682  0.1143  0.2457 -1.0228
17879THY    HP530556   5.595   1.239   7.716 -2.4407  1.4811 -1.9772
17879THY    HP630557   5.699   1.084   7.736  0.5199 -1.7939 -2.6183
17879THY    HP730558   5.529   1.078   7.696  0.3246 -1.1648 -1.7279
17879THY    CA330559   5.447   1.275   7.472 -0.3114 -0.3121  0.4404
17879THY    HA330560   5.395   1.231   7.557  2.3990  0.9339 -0.6405
17879THY    CA430561   5.388   1.374   7.387  0.3202  0.2496  0.5226
17879THY    HA430562   5.285   1.398   7.412 -0.7115  1.0214 -3.7925
17879THY    CA530563   5.458   1.436   7.289 -0.6090  0.1515  0.0614
17879THY    CM130564   5.392   1.550   7.219 -0.1051 -0.2435 -0.4494
17879THY    HM130565   5.434   1.567   7.119  3.1495  1.1203  0.3994
17879THY    HM230566   5.412   1.645   7.271  1.3298 -0.2530 -0.7184
17879THY    HM330567   5.284   1.534   7.211 -0.2659 -0.0320  0.4529
17879THY    CA630568   5.590   1.399   7.261  0.0816 -0.1468  0.1399
17879THY    HA630569   5.642   1.451   7.181 -0.6422 -0.6144  0.1691
17880THY      O30570   8.907   0.386   4.183  0.0294 -0.4755 -0.7657
17880THY     HO30571   8.950   0.392   4.270 -1.7169  0.3360  1.1292
17880THY    CA130572   8.998   0.402   4.088  0.3432 -0.3942 -0.3402
17880THY    CA230573   8.964   0.388   3.950 -0.9285 -0.1449 -0.1647
17880THY    CP130574   8.819   0.380   3.904  0.6809  0.2725  0.3460
17880THY    HP130575   8.753   0.349   3.986 -1.4285 -1.3938  0.1360
17880THY    CP230576   8.804   0.261   3.808  0.1701 -0.4442  0.1147
17880THY    HP230577   8.832   0.163   3.850  0.8498  0.2909  0.6153
17880THY    HP330578   8.874   0.268   3.724 -0.6389 -0.9510  2.9510
17880THY    HP430579   8.710   0.266   3.752  1.0158 -1.7738  2.0097
17880THY    CP330580   8.771   0.512   3.841  0.1688 -0.4714  0.6447
17880THY    HP530581   8.665   0.526   3.862  0.0129 -1.4281  0.9859
17880THY    HP630582   8.782   0.515   3.732  1.7124 -0.5181 -2.4387
17880THY    HP730583   8.818   0.600   3.886  0.2978  1.3579 -0.3109
17880THY    CA330584   9.071   0.382   3.860 -0.6745 -0.5051  0.1762
17880THY    HA330585   9.058   0.374   3.752  1.2524 -0.9459  1.9315
17880THY    CA430586   9.203   0.388   3.907  0.9918  0.0784  0.4810
17880THY    HA430587   9.292   0.388   3.844  1.8601  1.2257 -1.2088
17880THY    CA530588   9.235   0.404   4.042 -0.0178  0.4230  0.5237
17880THY    CM130589   9.381   0.408   4.091  0.7544 -0.6776 -0.1625
17880THY    HM130590   9.376   0.380   4.197 -0.2235 -1.0347 -1.4604
17880THY    HM230591   9.436   0.498   4.059  0.0849 -3.9213 -0.7804
17880THY    HM330592   9.444   0.334   4.040  0.9006 -1.8988  0.7668
17880THY    CA630593   9.131   0.407   4.134  0.2044 -0.0857  0.5648
17880THY    HA630594   9.152   0.415   4.240 -0.0109  0.1595 -1.4982
17881THY      O30595   3.124   6.668   3.724 -0.4624 -0.0634  0.3653
17881THY     HO30596   3.040   6.629   3.693  1.0440 -1.3375 -2.1085
17881THY    CA130597   3.083   6.795   3.747  0.4196 -0.3653 -0.0040
17881THY    CA230598   3.176   6.900   3.771  0.2906 -0.2390  0.0652
17881THY    CP130599   3.317   6.880   3.755 -0.4707 -0.5374 -1.1596
17881THY    HP130600   3.342   6.794   3.692 -1.1381 -0.7992 -1.1656
17881THY    CP230601   3.382   6.885   3.897 -0.3201 -0.0808 -1.0619
17881THY    HP230602   3.373   6.974   3.960  0.8193  1.0766 -1.7484
17881THY    HP330603   3.488   6.863   3.877 -0.6018 -1.3105 -1.3997
17881THY    HP430604   3.348   6.802   3.958  1.3944 -0.8479 -2.3888
17881THY    CP330605   3.376   6.991   3.665  0.3803 -0.1334 -0.0822
17881THY    HP530606   3.484   6.980   3.652  0.6762 -0.5668  2.5272
17881THY    HP630607   3.353   7.088   3.711 -3.6625  1.2948 -1.5025
17881THY    HP730608   3.340   6.986   3.561  0.1848 -0.0372 -0.7279
17881THY    CA330609   3.108   7.018   3.827  0.6190 -0.4433  0.7828
17881THY    HA330610   3.160   7.105   3.865  0.5241  0.2957  0.5245
17881THY    CA430611   2.973   7.018   3.858 -0.3448 -0.4013  0.3876
17881THY    HA430612   2.933   7.097   3.920 -2.4477 -0.4814 -0.5479
17881THY    CA530613   2.892   6.909   3.841 -0.1937  0.2400 -0.1255
17881THY    CM130614   2.757   6.908   3.899  0.1328 -0.1295  0.0981
17881THY    HM130615   2.767   6.881   4.005 -0.5306  0.8661  3.3626
17881THY    HM230616   2.690   6.837   3.850  0.8421 -1.2176  0.1675
17881THY    HM330617   2.705   7.004   3.895 -0.1808 -0.0701 -0.0657
17881THY    CA630618   2.946   6.795   3.788 -0.0768  0.4066  0.4675
17881THY    HA630619   2.883   6.707   3.773  0.0047 -0.1280  0.5015
17882THY      O30620   5.309   3.707   7.370  0.1347 -0.1360  0.2458
17882THY     HO30621   5.234   3.646   7.358  1.9298 -5.4258 -1.4423
17882THY    CA130622   5.274   3.782   7.474  0.1655  0.7575 -0.6629
17882THY    CA230623   5.361   3.807   7.581 -0.4019 -0.1025  0.3439
17882THY    CP130624   5.505   3.754   7.588  0.2923 -0.0974  0.1107
17882THY    HP130625   5.523   3.698   7.496 -2.6522  0.6208 -2.2840
17882THY    CP230626   5.522   3.661   7.711  0.6102  0.0553  0.0159
17882THY    HP230627   5.501   3.715   7.805 -1.0596 -1.1521  1.6180
17882THY    HP330628   5.613   3.606   7.733  0.6331 -0.8857 -0.3350
17882THY    HP430629   5.446   3.582   7.710  0.9366 -0.6312 -0.2909
17882THY    CP330630   5.609   3.862   7.589 -0.1554  0.3902  0.0043
17882THY    HP530631   5.710   3.827   7.612 -0.1894  3.0207  1.4065
17882THY    HP630632   5.580   3.937   7.663  2.9375 -0.0705  1.8405
17882THY    HP730633   5.605   3.919   7.495 -2.4555 -0.4353 -1.3661
17882THY    CA330634   5.311   3.896   7.686 -0.1660 -0.1051  0.3278
17882THY    HA330635   5.373   3.932   7.767 -0.9763  0.2057  1.0646
17882THY    CA430636   5.186   3.955   7.670 -0.3600 -0.0358  0.0511
17882THY    HA430637   5.149   4.017   7.751  0.0675  0.9799 -0.9884
17882THY    CA530638   5.100   3.936   7.558 -0.0368  0.5554 -0.0629
17882THY    CM130639   4.976   4.015   7.539  0.0814 -0.0334 -0.3267
17882THY    HM130640   4.930   4.040   7.635 -0.6176  0.1212 -2.0816
17882THY    HM230641   4.901   3.956   7.484 -0.2838  2.1950 -2.0717
17882THY    HM330642   4.996   4.111   7.489 -1.0548  0.6223  0.2660
17882THY    CA630643   5.144   3.844   7.460 -0.1809 -0.5311  0.1002
17882THY    HA630644   5.070   3.826   7.383 -2.2706  0.6532  2.8913
17883THY      O30645   8.448   1.462   5.728 -0.0982  0.1179 -0.1472
17883THY     HO30646   8.543   1.442   5.721  0.5924  2.5385  1.7588
17883THY    CA130647   8.399   1.481   5.601  0.1822 -0.5707 -0.8250
17883THY    CA230648   8.333   1.596   5.556 -0.2021  0.3030 -0.9944
17883THY    CP130649   8.321   1.718   5.651 -0.0765 -0.1564 -0.3686
17883THY    HP130650   8.331   1.693   5.757  0.6498 -0.0719  0.2285
17883THY    CP230651   8.189   1.801   5.637  0.2300 -0.0034  0.2288
17883THY    HP230652   8.182   1.880   5.713 -0.1823 -0.0125  0.2023
17883THY    HP330653   8.106   1.733   5.661  0.3932  5.1559  1.3848
17883THY    HP430654   8.178   1.860   5.545 -1.3887  1.0739  1.7362
17883THY    CP330655   8.430   1.812   5.622  0.0874  0.3953  0.0572
17883THY    HP530656   8.430   1.901   5.686 -0.7303 -0.7991  0.9438
17883THY    HP630657   8.431   1.843   5.517 -3.8679  0.2047  0.1432
17883THY    HP730658   8.520   1.753   5.641  0.9322 -0.9623  0.8619
17883THY    CA330659   8.301   1.612   5.415  0.2951  0.0113  0.5377
17883THY    HA330660   8.245   1.697   5.377 -1.4058 -1.2514 -1.0588
17883THY    CA430661   8.334   1.500   5.326  0.2918  0.5515 -0.1926
17883THY    HA430662   8.317   1.506   5.219  0.2371  0.5801  0.1358
17883THY    CA530663   8.393   1.387   5.378 -0.1530 -0.1172 -0.5262
17883THY    CM130664   8.416   1.268   5.283 -0.1464  0.3844  0.0446
17883THY    HM130665   8.327   1.205   5.276  0.0838  2.1291 -0.5390
17883THY    HM230666   8.496   1.202   5.321  1.5626  1.2167  2.4416
17883THY    HM330667   8.436   1.306   5.182 -0.7326  0.6117  0.9997
17883THY    CA630668   8.430   1.379   5.513  0.1696 -0.9975  0.3641
17883THY    HA630669   8.489   1.292   5.540  0.4342 -0.1397  0.8018
17884THY      O30670   3.286   8.101   6.784 -0.3572 -0.1471 -0.2097
17884THY     HO30671   3.305   8.071   6.874  3.8658 -1.1676 -1.2797
17884THY    CA130672   3.262   8.231   6.779 -0.0667 -0.5312  0.4428
17884THY    CA230673   3.237   8.293   6.656 -0.2198  0.1716 -0.2046
17884THY    CP130674   3.241   8.215   6.520 -0.6258 -0.5281  0.1819
17884THY    HP130675   3.215   8.110   6.540 -1.3944 -1.2692  0.2197
17884THY    CP230676   3.369   8.218   6.444  0.3133 -0.1987  1.3606
17884THY    HP230677   3.448   8.196   6.516 -0.0436 -0.4218 -0.8422
17884THY    HP330678   3.391   8.312   6.392  2.6715 -2.2924 -0.1972
17884THY    HP430679   3.385   8.138   6.371  2.7238  1.2441  0.4166
17884THY    CP330680   3.132   8.264   6.429 -0.3317  0.7170  0.3368
17884THY    HP530681   3.097   8.183   6.363 -1.6449 -0.3998  1.7743
17884THY    HP630682   3.160   8.357   6.379 -3.2686 -0.3715  0.7351
17884THY    HP730683   3.047   8.292   6.492 -1.4937 -0.5403 -0.2437
17884THY    CA330684   3.200   8.431   6.664  0.3414  0.3147  0.7738
17884THY    HA330685   3.179   8.482   6.571 -1.6337  1.2753  1.8362
17884THY    CA430686   3.197   8.497   6.789  0.4426  0.7467 -0.1348
17884THY    HA430687   3.172   8.602   6.780 -1.6500 -1.2088 -0.7331
17884THY    CA530688   3.210   8.426   6.910  0.3679  0.2360  0.2821
17884THY    CM130689   3.196   8.502   7.032 -0.0571 -0.3443  0.8711
17884THY    HM130690   3.204   8.610   7.017  0.9991 -1.4001  0.6626
17884THY    HM230691   3.271   8.465   7.103 -0.5042  0.0494  0.7050
17884THY    HM330692   3.096   8.489   7.076  0.5024  1.0255  1.1119
17884THY    CA630693   3.242   8.294   6.903 -0.7539  0.0928  0.3910
17884THY    HA630694   3.256   8.243   6.998 -1.5361 -0.4444 -0.8813
17885THY      O30695   8.170   8.120   2.392 -0.0246 -0.2916 -0.0886
17885THY     HO30696   8.242   8.095   2.452  0.8438 -0.7282  1.2170
17885THY    CA130697   8.233   8.102   2.281 -0.1148  0.1008 -0.3618
17885THY    CA230698   8.210   8.182   2.164 -0.4835  0.6523 -0.6113
17885THY    CP130699   8.121   8.303   2.171  0.2271  0.1719 -0.2377
17885THY    HP130700   8.062   8.293   2.263  0.3278  0.1784 -0.8452
17885THY    CP230701   8.014   8.305   2.059 -0.8144  0.0545  0.4602
17885THY    HP230702   7.969   8.205   2.061  2.1278  1.1456 -0.9924
17885THY    HP330703   8.053   8.315   1.957  0.6474  0.4791 -0.4533
17885THY    HP430704   7.943   8.381   2.093  0.5544  0.3073  1.6831
17885THY    CP330705   8.194   8.429   2.177  0.0540 -0.7084  0.7108
17885THY    HP530706   8.269   8.430   2.097  1.4972  0.4005 -2.6971
17885THY    HP630707   8.248   8.441   2.272 -3.0154  1.3127 -0.4391
17885THY    HP730708   8.117   8.507   2.178 -2.0140  1.4617 -1.1869
17885THY    CA330709   8.266   8.140   2.044  0.2189  0.3008 -0.6907
17885THY    HA330710   8.257   8.202   1.955  0.6812 -0.7260 -2.0470
17885THY    CA430711   8.346   8.026   2.039 -0.1931  0.1230  0.1074
17885THY    HA430712   8.408   7.999   1.954  0.9845  0.0610  2.6844
17885THY    CA530713   8.360   7.950   2.151  0.2199 -0.1985 -0.5828
17885THY    CM130714   8.430   7.816   2.139 -0.3772  0.3163  0.3994
17885THY    HM130715   8.460   7.791   2.037 -0.4996  0.1778  0.7975
17885THY    HM230716   8.352   7.746   2.172  1.5985  1.8412 -1.1814
17885THY    HM330717   8.514   7.810   2.208  0.2652 -0.2997  1.7244
17885THY    CA630718   8.307   7.987   2.270  0.4029  0.3827 -0.7534
17885THY    HA630719   8.309   7.923   2.357 -3.0918 -0.5745 -2.4201
17886THY      O30720   0.410   1.328   6.733  0.1789 -0.1013 -0.8440
17886THY     HO30721   0.419   1.413   6.687  0.7205 -0.1231 -0.9066
17886THY    CA130722   0.522   1.259   6.695 -0.2799  0.5165 -0.4980
17886THY    CA230723   0.562   1.136   6.749  0.2753 -0.8527 -0.0229
17886THY    CP130724   0.470   1.060   6.846  0.0832 -0.1476 -0.6578
17886THY    HP130725   0.378   1.114   6.871  0.2650 -1.4042  0.2985
17886THY    CP230726   0.535   1.045   6.984  0.1724 -0.2006 -0.4560
17886THY    HP230727   0.590   0.950   6.989  0.5349 -2.4877 -0.4235
17886THY    HP330728   0.470   1.063   7.071  0.9599  0.1533  0.8788
17886THY    HP430729   0.604   1.127   7.006  0.3802  0.7329 -0.8620
17886THY    CP330730   0.431   0.929   6.780 -0.1498  0.6614  0.4002
17886THY    HP530731   0.376   0.953   6.688 -1.8720  1.3420 -0.7374
17886THY    HP630732   0.358   0.878   6.843 -1.0576 -2.0506 -1.8915
17886THY    HP730733   0.508   0.857   6.750 -2.0739 -2.6134 -0.5266
17886THY    CA330734   0.694   1.086   6.718  0.0726  0.7606 -0.6404
17886THY    HA330735   0.715   0.988   6.760  0.4650 -0.0813 -0.9295
17886THY    CA430736   0.767   1.153   6.617  0.3547 -0.2886  0.1840
17886THY    HA430737   0.865   1.115   6.590  0.3150  0.1367 -0.2374
17886THY    CA530738   0.727   1.270   6.560 -0.5242  0.3747  0.4237
17886THY    CM130739   0.826   1.344   6.465 -0.0579  0.3571  0.0841
17886THY    HM130740   0.920   1.374   6.514  0.5936 -0.9642  0.2825
17886THY    HM230741   0.772   1.430   6.424  0.5222 -0.6774 -0.0231
17886THY    HM330742   0.869   1.288   6.381  1.9976  0.1149  1.8909
17886THY    CA630743   0.609   1.330   6.604 -0.1335 -0.4502  0.1268
17886THY    HA630744   0.577   1.423   6.558 -0.6146 -2.5046 -0.9820
17887THY      O30745   1.180   3.085   5.400 -0.5600 -0.1761  0.3268
17887THY     HO30746   1.245   3.013   5.388  2.0425  0.3763  2.4400
17887THY    CA130747   1.132   3.088   5.529 -0.2979  1.2695  1.1751
17887THY    CA230748   1.033   3.180   5.574 -0.0065  0.4570  0.3061
17887THY    CP130749   0.976   3.263   5.463 -0.9235  0.6516  0.3063
17887THY    HP130750   1.049   3.283   5.383 -0.1420  0.9788 -1.0967
17887THY    CP230751   0.939   3.400   5.514 -0.6915  0.1974  0.1386
17887THY    HP230752   0.958   3.472   5.433  0.1750 -0.2580 -0.5710
17887THY    HP330753   1.005   3.433   5.595  0.5933 -0.3367 -1.0250
17887THY    HP430754   0.834   3.403   5.544 -1.4142 -1.6462 -2.7514
17887THY    CP330755   0.852   3.194   5.405 -0.1366  1.5175 -0.3118
17887THY    HP530756   0.816   3.245   5.315 -1.4234  1.5620 -1.0769
17887THY    HP630757   0.772   3.183   5.480 -0.2570  1.3771 -0.4069
17887THY    HP730758   0.864   3.098   5.352 -0.0789 -0.5218  0.7765
17887THY    CA330759   0.989   3.179   5.710  0.1349  0.7108  0.0915
17887THY    HA330760   0.914   3.255   5.732  1.4734  0.1124  1.6565
17887THY    CA430761   1.035   3.084   5.797 -0.1367  0.2089 -0.1169
17887THY    HA430762   1.002   3.090   5.900 -3.4671 -0.7210 -0.7759
17887THY    CA530763   1.135   2.991   5.758 -0.1502 -0.1624  0.4635
17887THY    CM130764   1.214   2.913   5.865  0.2014 -0.6877 -0.6438
17887THY    HM130765   1.149   2.827   5.887  0.5300 -2.1556 -1.2986
17887THY    HM230766   1.238   2.984   5.945 -1.5981 -1.2069  0.6187
17887THY    HM330767   1.298   2.864   5.814  0.3005 -0.8245 -0.3305
17887THY    CA630768   1.182   2.997   5.629  0.3421 -0.5446 -0.0953
17887THY    HA630769   1.263   2.929   5.608  0.6187 -0.1056  0.0947
17888THY      O30770   5.697   0.491   7.116  0.1115  0.4375 -0.4654
17888THY     HO30771   5.660   0.580   7.104 -2.5706 -1.5811 -1.7274
17888THY    CA130772   5.758   0.474   7.233 -0.3055  0.2370  0.2888
17888THY    CA230773   5.873   0.401   7.250 -0.4260 -0.3039 -0.2412
17888THY    CP130774   5.944   0.335   7.131  0.3605  1.1285 -0.4233
17888THY    HP130775   5.889   0.354   7.038  0.9836  0.8423  0.0287
17888THY    CP230776   5.972   0.184   7.154 -0.5305 -0.0030  0.6996
17888THY    HP230777   5.998   0.132   7.061  0.6260 -0.0630  1.3484
17888THY    HP330778   5.887   0.133   7.201  0.1433 -0.9941 -1.4257
17888THY    HP430779   6.060   0.177   7.219 -1.4473  1.0614 -2.8325
17888THY    CP330780   6.078   0.399   7.097  0.3808 -0.3648  0.2407
17888THY    HP530781   6.133   0.410   7.192  0.1900 -0.1445 -0.6575
17888THY    HP630782   6.057   0.499   7.058  0.0254 -0.2108  0.2273
17888THY    HP730783   6.137   0.337   7.029  1.0245  0.5033 -0.1278
17888THY    CA330784   5.924   0.396   7.379  0.3121 -0.4034  0.0153
17888THY    HA330785   6.006   0.327   7.397 -0.0058  0.1222 -0.2324
17888THY    CA430786   5.856   0.466   7.483 -0.1383  0.4871 -0.0890
17888THY    HA430787   5.895   0.449   7.583  0.5825 -0.2255 -3.2366
17888THY    CA530788   5.735   0.531   7.463  0.0433  0.3273  0.0424
17888THY    CM130789   5.664   0.587   7.587 -0.8891 -0.0909  0.4298
17888THY    HM130790   5.661   0.515   7.670  0.4507 -0.2599  0.1608
17888THY    HM230791   5.562   0.617   7.559 -0.8793 -1.6634 -0.8832
17888THY    HM330792   5.733   0.664   7.621  0.9217 -0.8411 -0.7961
17888THY    CA630793   5.690   0.541   7.330 -0.3724 -0.2197 -0.2357
17888THY    HA630794   5.596   0.595   7.317  0.0424  1.2368  0.9032
17889THY      O30795   4.748   3.337   6.003  0.4169 -0.3011 -0.1456
17889THY     HO30796   4.720   3.297   6.087 -0.3876 -0.8485 -0.7667
17889THY    CA130797   4.759   3.470   6.031  0.0954  0.2233 -0.2690
17889THY    CA230798   4.802   3.556   5.929  0.6276 -0.0066  0.1806
17889THY    CP130799   4.829   3.506   5.785  0.1331  0.5764  0.1636
17889THY    HP130800   4.759   3.425   5.760 -1.2977  2.6312  0.6773
17889THY    CP230801   4.969   3.455   5.770  0.3439 -0.6876  0.1596
17889THY    HP230802   4.985   3.419   5.668  1.9120  0.0830 -1.5010
17889THY    HP330803   4.986   3.372   5.840  0.4196  0.4204  1.0900
17889THY    HP430804   5.053   3.519   5.799 -0.0175  2.2801 -0.5575
17889THY    CP330805   4.801   3.625   5.691 -0.0721 -0.1580  0.7724
17889THY    HP530806   4.881   3.698   5.704  0.3694 -3.4048  0.9736
17889THY    HP630807   4.707   3.673   5.722 -1.2669 -1.3526 -0.6971
17889THY    HP730808   4.794   3.599   5.585 -2.2567 -0.3129  1.7576
17889THY    CA330809   4.822   3.695   5.970 -0.3426  0.5210 -0.3268
17889THY    HA330810   4.843   3.781   5.907 -0.1103  0.4883 -0.4058
17889THY    CA430811   4.806   3.735   6.105  0.1730  0.1717 -0.1304
17889THY    HA430812   4.817   3.838   6.137  0.3931 -2.5958  0.7789
17889THY    CA530813   4.765   3.641   6.199 -0.3257 -0.0122  0.0734
17889THY    CM130814   4.733   3.692   6.337  0.0232  0.1002 -0.2573
17889THY    HM130815   4.658   3.623   6.378 -0.9153 -2.2366 -0.7133
17889THY    HM230816   4.692   3.793   6.335  1.3131  0.8908  0.3129
17889THY    HM330817   4.817   3.689   6.408 -0.6626  0.9674  0.3608
17889THY    CA630818   4.739   3.506   6.163 -0.2878 -0.2544 -0.3636
17889THY    HA630819   4.705   3.435   6.237 -1.7656  0.1118  0.7016
17890THY      O30820   7.033   7.840   1.926  0.1574  0.4842  0.7622
17890THY     HO30821   7.120   7.884   1.930 -0.7235  0.8108  2.5739
17890THY    CA130822   7.022   7.773   2.044  0.9536 -0.8832 -0.0843
17890THY    CA230823   6.897   7.716   2.084  0.0454  0.1086  0.2107
17890THY    CP130824   6.774   7.722   1.996  0.2244 -0.5021 -0.0436
17890THY    HP130825   6.784   7.788   1.909 -0.1407 -0.9659 -0.5864
17890THY    CP230826   6.650   7.780   2.068 -0.4997  0.4055 -0.5160
17890THY    HP230827   6.574   7.799   1.991  0.5932 -0.6058 -0.1043
17890THY    HP330828   6.672   7.879   2.110 -2.9540  1.5447 -0.3762
17890THY    HP430829   6.615   7.717   2.150 -1.5630  0.3369 -0.0482
17890THY    CP330830   6.744   7.571   1.949 -0.9325  0.2127  0.0456
17890THY    HP530831   6.833   7.536   1.896  0.2899  1.7116  0.7505
17890THY    HP630832   6.657   7.554   1.885 -0.9718  0.7734 -2.3153
17890THY    HP730833   6.734   7.499   2.032  1.6854  1.2111  0.7173
17890THY    CA330834   6.893   7.648   2.212 -0.1249 -0.2886 -0.3853
17890THY    HA330835   6.803   7.614   2.261  0.8156  1.9445  0.1343
17890THY    CA430836   7.008   7.643   2.294  0.3963 -0.0442 -0.2335
17890THY    HA430837   7.003   7.609   2.397  0.8753  0.6753  1.7119
17890THY    CA530838   7.128   7.707   2.249 -0.6010 -0.9233  0.7512
17890THY    CM130839   7.245   7.716   2.351 -0.2429  0.5898  0.5540
17890THY    HM130840   7.219   7.702   2.457  3.2514  1.5456  0.2390
17890THY    HM230841   7.288   7.816   2.348 -2.1625  1.0383  1.4295
17890THY    HM330842   7.323   7.642   2.330 -2.2905  0.5589 -1.7162
17890THY    CA630843   7.137   7.767   2.125 -0.5090  0.6374  0.6565
17890THY    HA630844   7.228   7.809   2.084 -0.6645  0.1119  0.4823
17891THY      O30845   8.799   2.912   2.386  0.0972 -0.3769 -0.5941
17891THY     HO30846   8.798   3.009   2.396 -1.5238 -0.6819 -0.5476
17891THY    CA130847   8.908   2.878   2.308 -0.0296  0.5313 -0.7474
17891THY    CA230848   8.916   2.752   2.249 -0.8237 -0.1134  0.4703
17891THY    CP130849   8.804   2.651   2.272 -0.5898  0.6617 -0.3904
17891THY    HP130850   8.761   2.664   2.372  0.3152  1.2421 -1.6731
17891THY    CP230851   8.866   2.508   2.288 -0.3412 -0.5719  0.2840
17891THY    HP230852   8.800   2.439   2.343  0.2839 -0.7755 -0.4822
17891THY    HP330853   8.951   2.507   2.357 -2.3810  2.1296 -1.5133
17891THY    HP430854   8.900   2.466   2.193  1.2506 -1.0652  2.5255
17891THY    CP330855   8.709   2.661   2.158  1.1089 -0.0810  0.2580
17891THY    HP530856   8.676   2.763   2.134 -0.8825 -1.0189 -0.5587
17891THY    HP630857   8.622   2.597   2.175  1.9301 -1.3551 -1.2694
17891THY    HP730858   8.759   2.621   2.069  1.1158 -0.0627  0.2263
17891THY    CA330859   9.035   2.716   2.183  0.1017  0.1777 -0.3439
17891THY    HA330860   9.037   2.624   2.125  2.2708  0.5218 -0.5817
17891THY    CA430861   9.142   2.813   2.168  0.6358 -0.3432  0.5009
17891THY    HA430862   9.233   2.794   2.112 -0.0734 -1.9327  1.5548
17891THY    CA530863   9.123   2.943   2.227 -0.1549 -0.5634  0.5992
17891THY    CM130864   9.220   3.045   2.209 -0.2312 -0.4992  0.1372
17891THY    HM130865   9.191   3.119   2.134  3.3452  0.4010  2.7337
17891THY    HM230866   9.318   3.008   2.179  1.5570  0.8099  3.4096
17891THY    HM330867   9.240   3.115   2.292  0.2285 -1.2577  0.9262
17891THY    CA630868   9.016   2.966   2.306  0.1856 -0.5008  0.3085
17891THY    HA630869   9.013   3.068   2.345  0.5264 -1.3666  0.6599
17892THY      O30870   1.841   1.907   6.153 -1.1827  0.4206  0.2634
17892THY     HO30871   1.895   1.963   6.095 -1.3205  0.2801  0.2504
17892THY    CA130872   1.894   1.782   6.129 -0.4208 -0.2924 -0.4338
17892THY    CA230873   1.848   1.664   6.195  0.0433  0.2407 -0.4324
17892THY    CP130874   1.727   1.672   6.288  0.1458  0.1764  0.2732
17892THY    HP130875   1.694   1.777   6.286  1.0639 -3.0394  0.6093
17892THY    CP230876   1.755   1.614   6.431 -0.3931  0.5591 -0.3346
17892THY    HP230877   1.661   1.603   6.487 -1.4028 -1.5154 -3.3356
17892THY    HP330878   1.828   1.675   6.486 -0.8119  1.3506 -0.5353
17892THY    HP430879   1.801   1.515   6.424  1.4546 -1.4642  0.5964
17892THY    CP330880   1.603   1.599   6.225  0.6810 -0.6164 -0.1625
17892THY    HP530881   1.570   1.652   6.135 -0.2780 -0.8745 -1.1892
17892THY    HP630882   1.510   1.618   6.280 -0.3348 -2.7099  1.4258
17892THY    HP730883   1.620   1.491   6.217 -0.7332  1.7189 -0.6288
17892THY    CA330884   1.901   1.541   6.161 -0.3521 -0.4230  0.3991
17892THY    HA330885   1.857   1.446   6.192 -0.5295 -0.1473  0.5683
17892THY    CA430886   1.997   1.531   6.058  0.3625 -0.5772 -0.4388
17892THY    HA430887   2.040   1.432   6.046  3.0295  2.4478  0.2149
17892THY    CA530888   2.052   1.644   5.997 -0.1899 -0.5945  0.3158
17892THY    CM130889   2.162   1.639   5.895  0.4166 -0.0170 -0.6058
17892THY    HM130890   2.230   1.554   5.903  0.0783 -1.8166 -1.0841
17892THY    HM230891   2.200   1.740   5.876 -0.7156 -0.8146 -0.3159
17892THY    HM330892   2.113   1.619   5.799  1.1589 -0.4071 -0.5878
17892THY    CA630893   2.003   1.771   6.038  0.5519  0.4938  0.7372
17892THY    HA630894   2.036   1.863   5.991 -2.4930 -0.1053  1.6334
17893THY      O30895   6.179   2.240   7.407  0.0110 -0.3304  0.0058
17893THY     HO30896   6.144   2.154   7.434 -0.6591  1.6750  0.8517
17893THY    CA130897   6.073   2.306   7.376 -0.4426 -0.6197  0.4671
17893THY    CA230898   6.073   2.441   7.360 -0.0074 -0.1403 -0.1609
17893THY    CP130899   6.206   2.525   7.363  0.7317  0.4943 -0.3884
17893THY    HP130900   6.292   2.463   7.391  0.0453 -1.5969 -2.4563
17893THY    CP230901   6.200   2.651   7.448  0.7157  0.3527  0.2327
17893THY    HP230902   6.149   2.731   7.393 -0.3123  1.0165  0.0514
17893THY    HP330903   6.301   2.685   7.474  0.8261  0.9862 -0.5586
17893THY    HP430904   6.147   2.639   7.543 -3.0812 -1.4302  1.1498
17893THY    CP330905   6.260   2.576   7.222  0.5701  0.5892  0.0830
17893THY    HP530906   6.173   2.609   7.164 -0.8536  1.5945 -1.7294
17893THY    HP630907   6.295   2.487   7.168 -1.1173  1.0214 -0.8843
17893THY    HP730908   6.336   2.652   7.239 -1.7174  0.6288  2.5014
17893THY    CA330909   5.953   2.506   7.331  0.2048  0.2782 -0.6328
17893THY    HA330910   5.953   2.613   7.316  2.8679  1.0963 -0.4444
17893THY    CA430911   5.840   2.429   7.317 -0.1025  0.2758 -0.1821
17893THY    HA430912   5.750   2.475   7.276  0.5254 -1.5303 -0.4926
17893THY    CA530913   5.836   2.291   7.329  0.6188  0.2643 -0.7390
17893THY    CM130914   5.711   2.218   7.310  0.5859  0.3221 -0.1035
17893THY    HM130915   5.664   2.245   7.215  2.0209 -0.7051 -1.0218
17893THY    HM230916   5.633   2.255   7.378  0.0355 -0.2134 -0.2702
17893THY    HM330917   5.730   2.111   7.322 -1.0957  1.9916 -0.2607
17893THY    CA630918   5.957   2.229   7.355  0.2137 -0.0365 -0.1625
17893THY    HA630919   5.952   2.121   7.370  0.4665 -2.1156 -0.5115
17894THY      O30920   6.456   3.910   4.161 -0.0395 -0.0380  0.2044
17894THY     HO30921   6.459   3.817   4.135 -1.0482  0.1975  0.0932
17894THY    CA130922   6.459   3.968   4.037  0.1811 -0.9061 -0.2857
17894THY    CA230923   6.402   4.094   4.009  0.1464  0.0000  1.1669
17894THY    CP130924   6.333   4.176   4.120 -0.8419 -0.8469  0.7164
17894THY    HP130925   6.309   4.105   4.200  0.0981 -2.0619 -1.0407
17894THY    CP230926   6.199   4.240   4.080  0.0651 -0.1908 -0.6027
17894THY    HP230927   6.139   4.172   4.018 -0.5023 -0.4073  0.0701
17894THY    HP330928   6.217   4.329   4.018 -0.9817 -1.3890 -1.1710
17894THY    HP430929   6.150   4.276   4.171 -1.2414 -1.4746  1.0420
17894THY    CP330930   6.417   4.284   4.187 -0.2170 -0.0126 -0.0718
17894THY    HP530931   6.417   4.372   4.122  0.4205 -1.0646 -0.8242
17894THY    HP630932   6.520   4.248   4.195  0.2705 -0.9599  1.0333
17894THY    HP730933   6.380   4.322   4.282 -0.5479 -0.1291 -0.0952
17894THY    CA330934   6.416   4.154   3.884 -0.3395  0.5226 -0.5786
17894THY    HA330935   6.383   4.255   3.859  1.3145  0.8000  0.0635
17894THY    CA430936   6.493   4.086   3.785 -0.4499  0.3277 -0.0448
17894THY    HA430937   6.516   4.135   3.691 -0.5720  0.3470  0.0509
17894THY    CA530938   6.553   3.961   3.813 -0.2593 -0.0355 -0.1430
17894THY    CM130939   6.622   3.886   3.709  0.3870  0.2309  0.0196
17894THY    HM130940   6.565   3.797   3.679 -1.8940  0.5494  1.3012
17894THY    HM230941   6.721   3.865   3.749 -0.2250  1.0578 -1.4458
17894THY    HM330942   6.627   3.948   3.618 -1.2295  0.2893  0.2977
17894THY    CA630943   6.530   3.903   3.935 -0.2157 -0.8705 -0.0639
17894THY    HA630944   6.571   3.806   3.959 -0.7356 -2.5590 -0.7370
17895THY      O30945   3.606   3.460   6.472 -0.0541 -0.1420  0.0225
17895THY     HO30946   3.581   3.545   6.432 -0.0332  0.9890  0.5844
17895THY    CA130947   3.738   3.465   6.503  0.3907  0.5846 -0.6171
17895THY    CA230948   3.828   3.393   6.420 -0.9511 -0.3489 -0.2783
17895THY    CP130949   3.770   3.293   6.316  0.7609  0.1581 -0.3845
17895THY    HP130950   3.682   3.341   6.272 -0.2168  2.7342  0.3868
17895THY    CP230951   3.720   3.164   6.378  0.1789  0.4926  0.0292
17895THY    HP230952   3.796   3.110   6.436  0.7422  1.1303  1.4611
17895THY    HP330953   3.689   3.112   6.286 -1.1311  0.2630  1.1764
17895THY    HP430954   3.634   3.190   6.441 -0.0608  0.4627 -0.6684
17895THY    CP330955   3.865   3.264   6.195  0.4609 -0.4210 -0.5201
17895THY    HP530956   3.955   3.209   6.223  0.6401 -0.5317 -0.2836
17895THY    HP630957   3.898   3.365   6.168 -0.5376  2.3422  0.6450
17895THY    HP730958   3.807   3.216   6.115  0.4412 -0.1313 -0.9887
17895THY    CA330959   3.969   3.392   6.440  0.7865  0.2745  1.2312
17895THY    HA330960   4.036   3.338   6.375 -2.6903 -3.0288  0.4560
17895THY    CA430961   4.012   3.461   6.548 -0.4186  0.0313  0.4946
17895THY    HA430962   4.119   3.467   6.564 -0.2911 -0.4019 -0.4518
17895THY    CA530963   3.927   3.541   6.632  0.6779 -0.0129  0.7949
17895THY    CM130964   3.986   3.630   6.741 -0.1134  0.2280  0.3695
17895THY    HM130965   4.091   3.615   6.768  1.0608 -3.6898  0.4804
17895THY    HM230966   3.917   3.626   6.826 -0.5038 -0.0847  0.4044
17895THY    HM330967   3.994   3.731   6.700  0.1260  2.1931  1.1881
17895THY    CA630968   3.791   3.547   6.603  0.4569 -0.4267  0.5209
17895THY    HA630969   3.729   3.597   6.677  2.0829  0.9148  0.5992
17896THY      O30970   2.987   0.599   2.564 -0.6922  0.9990  0.2288
17896THY     HO30971   2.946   0.680   2.530  0.2835  1.5918  0.9872
17896THY    CA130972   3.119   0.625   2.543 -0.1504  0.0722  0.1847
17896THY    CA230973   3.217   0.523   2.533  0.7832 -0.7417  0.1771
17896THY    CP130974   3.180   0.378   2.520  0.8157 -0.5089 -0.2563
17896THY    HP130975   3.084   0.372   2.467  0.4442 -0.1748  2.0586
17896THY    CP230976   3.146   0.324   2.661  0.4056 -0.2576 -0.1296
17896THY    HP230977   3.108   0.222   2.649  1.1623 -0.9735 -0.3362
17896THY    HP330978   3.069   0.385   2.711  0.2053  0.4946 -0.9566
17896THY    HP430979   3.234   0.341   2.724  1.3846 -1.9896  1.6137
17896THY    CP330980   3.268   0.283   2.445  0.3879 -0.2264  0.4066
17896THY    HP530981   3.331   0.335   2.372  0.0969 -1.4563 -0.9020
17896THY    HP630982   3.214   0.208   2.386  1.5849  0.5770 -1.1718
17896THY    HP730983   3.337   0.235   2.516 -0.1246  0.0988  0.1529
17896THY    CA330984   3.347   0.549   2.533 -0.0607 -0.0289 -0.2119
17896THY    HA330985   3.417   0.467   2.522  0.6465 -1.0837  0.5085
17896THY    CA430986   3.395   0.682   2.528 -0.8373 -0.6010 -0.2896
17896THY    HA430987   3.502   0.697   2.526 -0.5416  1.4850 -1.6851
17896THY    CA530988   3.299   0.786   2.548 -1.2154 -0.3173 -0.6763
17896THY    CM130989   3.344   0.931   2.560 -0.5823 -0.6747  0.6378
17896THY    HM130990   3.282   0.997   2.497  0.6989  0.6162  3.2310
17896THY    HM230991   3.447   0.944   2.525 -0.9044 -2.1987 -0.5799
17896THY    HM330992   3.322   0.978   2.657  1.3018 -0.6679  1.6000
17896THY    CA630993   3.162   0.759   2.554 -0.2966 -0.3240  0.2109
17896THY    HA630994   3.091   0.831   2.595  0.3989  0.4352  0.4817
17897THY      O30995   7.616   5.319   3.231  0.2978 -0.1010  0.4455
17897THY     HO30996   7.543   5.308   3.294 -0.0239 -0.7564 -1.5812
17897THY    CA130997   7.543   5.362   3.121 -0.3143 -0.2977 -0.1171
17897THY    CA230998   7.595   5.379   2.990 -0.5852  1.0226  0.5730
17897THY    CP130999   7.739   5.340   2.942  0.0802 -0.2635 -1.1365
17897THY    HP131000   7.793   5.307   3.032  1.2299 -0.5382 -0.0895
17897THY    CP231001   7.814   5.472   2.910  0.4447  0.1245  0.4977
17897THY    HP231002   7.774   5.513   2.817 -0.4018 -0.4474 -1.5097
17897THY    HP331003   7.920   5.446   2.892  0.7244  0.5717  1.3128
17897THY    HP431004   7.804   5.542   2.993  2.5773 -0.0481  1.0784
17897THY    CP331005   7.742   5.234   2.833  0.2974  0.3208  0.2950
17897THY    HP531006   7.680   5.147   2.855  0.3991 -1.7885 -0.3891
17897THY    HP631007   7.840   5.187   2.817 -0.0140 -1.5410  0.1991
17897THY    HP731008   7.701   5.273   2.739  0.1633 -0.1116 -0.8321
17897THY    CA331009   7.508   5.421   2.892  1.0490 -0.2587  0.0304
17897THY    HA331010   7.542   5.424   2.789  1.2171 -0.1808  1.2542
17897THY    CA431011   7.375   5.476   2.929 -0.7086  0.0383 -0.7280
17897THY    HA431012   7.316   5.529   2.854  1.5401  0.8448  3.3816
17897THY    CA531013   7.333   5.475   3.056  0.0428  0.4124 -0.3335
17897THY    CM131014   7.199   5.556   3.089 -0.2635 -0.0899  1.0326
17897THY    HM131015   7.168   5.539   3.193 -0.0098 -0.3445 -1.4685
17897THY    HM231016   7.119   5.536   3.016 -1.4317  0.8789  2.0073
17897THY    HM331017   7.225   5.662   3.082  2.2857  2.6056  0.6959
17897THY    CA631018   7.419   5.416   3.152  0.2630  0.2309 -0.1983
17897THY    HA631019   7.388   5.423   3.256  2.0194  0.9534 -2.1816
17898THY      O31020   8.960   2.762   7.861  0.7458  0.1745  0.3613
17898THY     HO31021   8.894   2.810   7.807 -0.7094  1.8766  0.3541
17898THY    CA131022   9.073   2.830   7.844 -0.0759  0.3232 -0.0340
17898THY    CA231023   9.208   2.778   7.872  0.6703  0.5419 -0.7184
17898THY    CP131024   9.229   2.635   7.913  0.1829  0.4363 -0.1560
17898THY    HP131025   9.137   2.593   7.956 -0.7190 -0.4754  0.8527
17898THY    CP231026   9.321   2.626   8.033 -0.3658 -0.0361  0.2634
17898THY    HP231027   9.425   2.617   8.000 -0.4926 -1.1610  2.5257
17898THY    HP331028   9.293   2.538   8.093  1.4064  0.0643 -0.2794
17898THY    HP431029   9.295   2.718   8.086 -2.7904 -1.7301  0.6475
17898THY    CP331030   9.278   2.556   7.795  0.3395 -0.0109 -0.6498
17898THY    HP531031   9.365   2.607   7.752  0.2087 -0.2451 -0.6231
17898THY    HP631032   9.195   2.541   7.725 -0.5842  0.5426  1.4908
17898THY    HP731033   9.309   2.455   7.823  0.1609 -0.8281 -0.9413
17898THY    CA331034   9.319   2.851   7.828 -0.5864 -0.3143 -0.3373
17898THY    HA331035   9.419   2.809   7.844  0.0538 -0.8419  0.9439
17898THY    CA431036   9.299   2.975   7.775 -0.1259 -0.0461 -0.2332
17898THY    HA431037   9.384   3.039   7.752  0.5729  0.9574 -0.7569
17898THY    CA531038   9.173   3.030   7.758  0.4285 -0.3123 -0.1721
17898THY    CM131039   9.163   3.170   7.699  1.1907  0.3376  0.0711
17898THY    HM131040   9.200   3.255   7.758 -1.8006  3.3090 -0.4615
17898THY    HM231041   9.061   3.202   7.674  0.2825 -0.0047 -2.7892
17898THY    HM331042   9.210   3.167   7.601 -0.7023 -0.7892  2.9282
17898THY    CA631043   9.061   2.955   7.787  0.0605 -0.1921  0.2780
17898THY    HA631044   8.963   2.999   7.771  0.6896 -0.1263  1.7697
17899THY      O31045   1.686   5.757   4.009 -0.1754 -0.0166 -0.2868
17899THY     HO31046   1.625   5.692   4.046 -0.3495  1.0774  0.4519
17899THY    CA131047   1.811   5.706   4.008 -0.3488  0.4813 -0.4772
17899THY    CA231048   1.919   5.790   3.985  0.4653  0.2693 -0.0196
17899THY    CP131049   1.917   5.946   3.977 -0.8434  0.6343 -0.2690
17899THY    HP131050   1.810   5.971   3.975 -0.5849 -0.7189  0.8198
17899THY    CP231051   1.995   6.018   3.870 -0.3926  0.5666 -0.1504
17899THY    HP231052   1.975   6.126   3.878 -2.2010  1.6306 -0.5347
17899THY    HP331053   1.966   5.983   3.770 -2.9398  0.9586  0.6781
17899THY    HP431054   2.104   6.005   3.879 -0.6655  1.0615 -2.6367
17899THY    CP331055   1.972   6.008   4.106  0.1659 -0.3905 -0.4217
17899THY    HP531056   1.952   6.115   4.097  1.2053  2.1343  0.0723
17899THY    HP631057   2.081   6.002   4.118  0.2370 -0.4995  0.4676
17899THY    HP731058   1.933   5.960   4.197  2.9104  0.3886 -1.3990
17899THY    CA331059   2.044   5.723   3.986 -0.1240  0.0086 -0.0585
17899THY    HA331060   2.134   5.784   3.982 -1.3445 -4.9097  1.8983
17899THY    CA431061   2.055   5.584   4.009  0.1013 -0.9034 -0.4648
17899THY    HA431062   2.154   5.539   4.006 -0.9219 -0.0914 -2.9485
17899THY    CA531063   1.942   5.500   4.029  0.0177  0.4622 -0.7206
17899THY    CM131064   1.942   5.357   4.062 -0.6694 -0.0416 -0.2209
17899THY    HM131065   1.845   5.306   4.066  0.0008  1.6696 -1.4533
17899THY    HM231066   1.997   5.355   4.157  1.5392 -1.2390 -0.3166
17899THY    HM331067   1.995   5.298   3.986 -0.4565 -2.4145  2.8249
17899THY    CA631068   1.815   5.565   4.022  0.3303 -0.3325 -0.1721
17899THY    HA631069   1.726   5.503   4.028 -0.4889  2.2187  1.1193
17900THY      O31070   5.534   9.082   4.595 -0.0226  0.2433  0.3313
17900THY     HO31071   5.552   9.176   4.574 -0.2780 -2.0022 -0.0858
17900THY    CA131072   5.614   9.010   4.522 -0.7180 -0.3654  0.0905
17900THY    CA231073   5.687   8.888   4.562  0.4899  0.2437 -0.0054
17900THY    CP131074   5.688   8.839   4.711 -0.2773  0.1054 -0.4874
17900THY    HP131075   5.654   8.922   4.773  0.4594  0.9899 -0.8401
17900THY    CP231076   5.825   8.801   4.767 -0.0793  0.0161  0.0278
17900THY    HP231077   5.836   8.830   4.872  0.9348 -0.1271  0.1818
17900THY    HP331078   5.896   8.868   4.717  0.1629  0.0937 -0.1722
17900THY    HP431079   5.857   8.697   4.758  2.0130 -0.6888  0.6746
17900THY    CP331080   5.596   8.724   4.727 -0.1895 -0.1281 -0.4416
17900THY    HP531081   5.613   8.679   4.826  0.4272 -0.4614 -0.9771
17900THY    HP631082   5.614   8.637   4.663  1.0235 -1.0252  0.4313
17900THY    HP731083   5.495   8.764   4.715 -0.4846  1.2053 -0.7519
17900THY    CA331084   5.763   8.814   4.474  0.4112  0.3968  0.7402
17900THY    HA331085   5.816   8.725   4.507  0.6163 -1.7718  0.0009
17900THY    CA431086   5.784   8.869   4.346 -0.0780 -0.0437  0.3320
17900THY    HA431087   5.850   8.818   4.277  0.1108  0.5734 -0.2649
17900THY    CA531088   5.724   8.989   4.309  0.2553 -0.5428  0.2988
17900THY    CM131089   5.754   9.051   4.182 -0.9882  0.4377 -0.2360
17900THY    HM131090   5.861   9.075   4.182  0.2005 -1.4310 -4.6622
17900THY    HM231091   5.709   9.152   4.178 -2.5577 -1.0132 -0.9424
17900THY    HM331092   5.720   8.993   4.096  1.1186 -1.5057  1.2315
17900THY    CA631093   5.633   9.059   4.397  0.0383  0.3979 -0.0702
17900THY    HA631094   5.580   9.149   4.368  0.3026  0.4116  0.0897
17901THY      O31095   1.577   1.140   7.246 -0.2714 -0.1675  0.5994
17901THY     HO31096   1.588   1.233   7.271  1.6331 -0.0849  0.3958
17901THY    CA131097   1.625   1.075   7.356  0.0416  0.3742  0.1825
17901THY    CA231098   1.685   0.944   7.350  0.0123 -0.1932 -0.4371
17901THY    CP131099   1.684   0.859   7.216  0.0661 -0.6351 -0.0789
17901THY    HP131100   1.604   0.903   7.154  0.3435  0.5094  2.1986
17901THY    CP231101   1.628   0.710   7.245 -0.3605  0.7006 -0.4166
17901THY    HP231102   1.610   0.666   7.147 -0.9786  0.5732  0.1047
17901THY    HP331103   1.536   0.709   7.305 -1.1683 -0.4694  1.0176
17901THY    HP431104   1.711   0.645   7.276 -0.3252 -0.6334 -1.0234
17901THY    CP331105   1.817   0.860   7.139 -0.1720  0.1685 -0.2405
17901THY    HP531106   1.890   0.797   7.190 -0.1189  0.7222  0.2599
17901THY    HP631107   1.847   0.964   7.152 -1.9455 -0.2693  0.3712
17901THY    HP731108   1.804   0.840   7.032 -0.1544  0.4928 -2.1245
17901THY    CA331109   1.726   0.888   7.473  0.5189 -0.3277 -0.1288
17901THY    HA331110   1.757   0.784   7.469 -0.5928  1.7973 -0.5935
17901THY    CA431111   1.697   0.946   7.596 -0.2432 -0.7858  0.4594
17901THY    HA431112   1.721   0.898   7.691 -0.1469 -1.6302 -1.2543
17901THY    CA531113   1.640   1.075   7.598  0.3014 -0.4487  0.4671
17901THY    CM131114   1.622   1.151   7.723 -0.1056 -0.5473  0.4227
17901THY    HM131115   1.688   1.108   7.799 -0.0524 -0.6866  0.2574
17901THY    HM231116   1.519   1.152   7.760  0.4850  1.2040  0.0438
17901THY    HM331117   1.656   1.256   7.721  3.7547  0.4550 -0.6733
17901THY    CA631118   1.604   1.135   7.476  0.1154 -0.6270 -1.1822
17901THY    HA631119   1.572   1.238   7.489  1.5055  1.0879 -0.9266
17902THY      O31120   3.075   4.380   4.043 -0.5679  0.5065 -0.0502
17902THY     HO31121   3.038   4.295   4.071  1.5009  1.5610 -0.6691
17902THY    CA131122   2.986   4.464   4.097  0.0339  0.3673 -0.1787
17902THY    CA231123   3.020   4.591   4.119 -0.2926 -0.9275 -0.7141
17902THY    CP131124   3.157   4.647   4.076  0.7061 -0.3784  0.4533
17902THY    HP131125   3.188   4.584   3.991  2.1053  2.4188 -2.9550
17902THY    CP231126   3.254   4.630   4.187  0.1271 -0.0749  0.2755
17902THY    HP231127   3.212   4.629   4.287  1.3213  0.4500 -0.7600
17902THY    HP331128   3.331   4.709   4.191  0.3106  0.0051  0.0944
17902THY    HP431129   3.308   4.535   4.180 -0.4758  0.7928 -0.1353
17902THY    CP331130   3.155   4.791   4.028  0.2088  0.4805 -0.1891
17902THY    HP531131   3.177   4.854   4.115 -0.3122  1.0296 -0.7485
17902THY    HP631132   3.066   4.831   3.979  1.2577 -0.3400  1.2206
17902THY    HP731133   3.237   4.816   3.960  0.2226  1.3835  2.5535
17902THY    CA331134   2.919   4.679   4.166  0.0376  0.8404 -0.1978
17902THY    HA331135   2.943   4.785   4.164  0.3894  1.8033 -0.2510
17902THY    CA431136   2.803   4.629   4.213  0.8249  0.2665  0.0952
17902THY    HA431137   2.733   4.701   4.256  2.3220 -0.2487  1.9334
17902THY    CA531138   2.782   4.493   4.219 -0.8531  0.3032 -0.1626
17902THY    CM131139   2.660   4.422   4.288  0.1396  0.1526  0.2298
17902THY    HM131140   2.678   4.314   4.296 -2.3246  3.3739 -0.1207
17902THY    HM231141   2.570   4.434   4.226 -0.9710  1.9606  1.9677
17902THY    HM331142   2.628   4.462   4.385  1.0820  0.7527 -0.4276
17902THY    CA631143   2.875   4.414   4.162  0.0934  0.2342  0.4753
17902THY    HA631144   2.852   4.308   4.156 -0.8119  0.8405  0.6325
17903THY      O31145   1.927   8.199   3.344  0.3559 -0.0028  0.6900
17903THY     HO31146   1.954   8.283   3.387  0.4707  3.6516 -1.0188
17903THY    CA131147   2.018   8.102   3.367  0.6308  0.5560  0.4533
17903THY    CA231148   1.977   7.972   3.405 -0.2021 -0.1115  0.3918
17903THY    CP131149   1.833   7.947   3.433  1.4322  0.4439  0.5437
17903THY    HP131150   1.760   8.010   3.382 -0.5691  2.2979 -0.1859
17903THY    CP231151   1.791   7.977   3.576  0.1187  0.1107  0.1857
17903THY    HP231152   1.681   7.977   3.582  0.1527  1.1426  1.6009
17903THY    HP331153   1.829   8.075   3.607 -0.2824 -3.2210  1.5246
17903THY    HP431154   1.827   7.905   3.651 -2.8283  0.3319 -1.2089
17903THY    CP331155   1.788   7.811   3.383  0.3322  0.4884 -0.3714
17903THY    HP531156   1.849   7.724   3.408  0.6289 -0.6165 -0.5008
17903THY    HP631157   1.807   7.820   3.276  4.0250  1.1743  2.0559
17903THY    HP731158   1.682   7.790   3.402  0.0038  1.3759  1.7357
17903THY    CA331159   2.081   7.880   3.431  0.5213 -0.0251  0.1573
17903THY    HA331160   2.045   7.788   3.476 -0.8128 -0.5473  0.3970
17903THY    CA431161   2.220   7.916   3.421 -0.6746  0.5303  0.1939
17903THY    HA431162   2.298   7.844   3.446 -2.8453  0.7254 -2.2526
17903THY    CA531163   2.244   8.045   3.372 -0.3898  0.0200  0.5141
17903THY    CM131164   2.390   8.087   3.353 -0.0475 -0.8306 -0.2635
17903THY    HM131165   2.417   8.117   3.251  3.6940  0.1234  0.1165
17903THY    HM231166   2.462   8.005   3.358 -0.5657  0.5889 -0.6685
17903THY    HM331167   2.419   8.162   3.428 -0.9347 -0.9535  0.2175
17903THY    CA631168   2.141   8.132   3.339 -0.1149  0.0486 -0.1655
17903THY    HA631169   2.166   8.226   3.293  0.3810  0.2406 -0.2005
17904THY      O31170   8.633   1.903   4.371  0.1348 -0.1897  0.4500
17904THY     HO31171   8.578   1.944   4.440 -0.2725 -1.5631  2.3138
17904THY    CA131172   8.546   1.831   4.295  0.3349  0.5607  0.0678
17904THY    CA231173   8.599   1.740   4.204 -0.3583 -0.2542 -0.2163
17904THY    CP131174   8.748   1.719   4.178 -0.2698 -1.0208  0.3166
17904THY    HP131175   8.808   1.752   4.264  3.0822 -2.8564 -0.5821
17904THY    CP231176   8.801   1.794   4.065 -0.8199  0.1724  0.2591
17904THY    HP231177   8.747   1.761   3.975  0.3767 -0.1693 -0.8377
17904THY    HP331178   8.901   1.757   4.037 -0.1574  1.1985  1.2108
17904THY    HP431179   8.800   1.903   4.078 -2.1405 -0.2171  0.3052
17904THY    CP331180   8.779   1.565   4.167 -0.0064 -0.7592 -0.0015
17904THY    HP531181   8.769   1.539   4.061  0.3790 -0.6691 -0.5302
17904THY    HP631182   8.705   1.511   4.227 -1.2611 -2.5130 -0.3170
17904THY    HP731183   8.879   1.549   4.210  0.2327 -0.3453  2.2678
17904THY    CA331184   8.508   1.680   4.115  0.3496  0.0597  0.1835
17904THY    HA331185   8.551   1.616   4.038  0.9778 -0.6384  1.3889
17904THY    CA431186   8.375   1.703   4.122 -0.2621 -0.5080 -1.0370
17904THY    HA431187   8.301   1.662   4.055  0.7532 -2.5748  0.3520
17904THY    CA531188   8.325   1.786   4.226  0.8620 -0.2679  1.3453
17904THY    CM131189   8.180   1.810   4.242 -0.6648  0.0192  0.7557
17904THY    HM131190   8.133   1.784   4.338 -0.9172  0.9441  4.1130
17904THY    HM231191   8.114   1.785   4.158 -0.1719  0.0822 -0.8360
17904THY    HM331192   8.179   1.920   4.231  0.5912  1.3269  0.9206
17904THY    CA631193   8.409   1.854   4.317 -0.0326 -0.5646 -0.0963
17904THY    HA631194   8.364   1.920   4.390 -0.9229 -1.9765  0.9263
17905THY      O31195   4.760   3.338   1.862 -0.3243 -0.5410  0.3013
17905THY     HO31196   4.682   3.280   1.872 -0.3068  1.3262  0.5473
17905THY    CA131197   4.846   3.290   1.958  0.8848  0.1032 -0.1722
17905THY    CA231198   4.922   3.376   2.048  0.3839  0.5546  0.5089
17905THY    CP131199   4.922   3.529   2.027 -0.2029 -0.8671 -0.2784
17905THY    HP131200   4.828   3.563   1.981 -0.7796  0.5340  0.1062
17905THY    CP231201   5.035   3.572   1.934  0.1219 -0.1130 -0.5604
17905THY    HP231202   4.996   3.542   1.836 -1.1317  0.2756 -0.2359
17905THY    HP331203   5.130   3.517   1.943 -0.0377  0.1065 -0.8008
17905THY    HP431204   5.049   3.681   1.945  0.2463 -1.0627 -0.4726
17905THY    CP331205   4.929   3.607   2.157  0.0443  0.4981 -0.3051
17905THY    HP531206   5.034   3.618   2.185  0.9953 -1.9435 -2.3382
17905THY    HP631207   4.874   3.565   2.242  0.1530 -0.3848 -2.3125
17905THY    HP731208   4.883   3.707   2.152 -2.5135  1.3240 -1.3505
17905THY    CA331209   5.001   3.322   2.152  0.8310 -0.6207 -0.5650
17905THY    HA331210   5.057   3.379   2.225 -0.6220 -0.7326  1.0791
17905THY    CA431211   5.005   3.181   2.157 -0.2639  0.6862 -0.4294
17905THY    HA431212   5.076   3.129   2.220 -0.8630  0.8529 -1.0545
17905THY    CA531213   4.934   3.100   2.075  0.5158  0.2666 -0.1878
17905THY    CM131214   4.941   2.953   2.096  0.2607  0.5212  0.2435
17905THY    HM131215   4.836   2.924   2.110  0.4797 -0.3925 -1.0962
17905THY    HM231216   4.984   2.913   2.188  0.2371  0.3076 -0.2705
17905THY    HM331217   4.971   2.895   2.008  0.3794 -0.1898  1.3507
17905THY    CA631218   4.848   3.153   1.986  0.0211  0.1470 -0.2277
17905THY    HA631219   4.791   3.089   1.919 -2.7262  1.0327  1.1314
17906THY      O31220   8.676   8.721   3.483  0.2975 -0.4708  0.0481
17906THY     HO31221   8.759   8.698   3.438  2.3603  2.5008  1.0621
17906THY    CA131222   8.680   8.657   3.610  1.2265  0.5367 -0.4524
17906THY    CA231223   8.583   8.674   3.706  0.5376 -0.1121 -0.2083
17906THY    CP131224   8.451   8.754   3.682  0.3542 -0.0912  0.4443
17906THY    HP131225   8.472   8.834   3.610 -2.9466  1.3309  2.8377
17906THY    CP231226   8.409   8.826   3.824  0.4612  0.6185 -0.4041
17906THY    HP231227   8.325   8.888   3.790  0.6499  1.0605  0.0920
17906THY    HP331228   8.481   8.890   3.876  0.2504 -0.5660  0.8256
17906THY    HP431229   8.376   8.752   3.898  0.8947  1.5594  0.3254
17906THY    CP331230   8.335   8.670   3.627  0.5036 -0.0254  0.0634
17906THY    HP531231   8.360   8.639   3.525 -1.5826 -1.1582  1.8424
17906THY    HP631232   8.240   8.725   3.621 -0.1458 -0.8091 -1.1130
17906THY    HP731233   8.326   8.583   3.693  2.5204  1.1341  0.6569
17906THY    CA331234   8.575   8.577   3.812  0.0257 -0.3709 -0.9754
17906THY    HA331235   8.491   8.574   3.881 -0.7579 -1.1478  1.4193
17906THY    CA431236   8.681   8.488   3.833 -0.1728  0.2299 -0.3532
17906THY    HA431237   8.670   8.412   3.909 -3.0414 -1.2454 -1.5542
17906THY    CA531238   8.786   8.485   3.744 -0.1513  0.8293  0.0806
17906THY    CM131239   8.886   8.380   3.760 -0.1757  0.2388  0.3173
17906THY    HM131240   8.900   8.351   3.865  1.1357 -0.2255 -0.8008
17906THY    HM231241   8.975   8.407   3.703 -0.3050  0.2770  0.8318
17906THY    HM331242   8.849   8.292   3.706 -1.0001  1.1903  0.0498
17906THY    CA631243   8.781   8.562   3.624 -0.4270 -0.5259 -0.5352
17906THY    HA631244   8.861   8.557   3.550 -0.8809 -1.1159  0.5137
17907THY      O31245   5.227   0.648   5.068  0.1850 -0.6073 -0.0893
17907THY     HO31246   5.284   0.692   5.133  1.9456 -1.2180 -1.3117
17907THY    CA131247   5.178   0.750   5.004  0.5600  0.3080 -0.8196
17907THY    CA231248   5.048   0.741   4.948  0.2176 -0.3718  0.1365
17907THY    CP131249   4.975   0.606   4.950 -0.2895 -0.0519  0.2286
17907THY    HP131250   5.025   0.527   5.008 -3.1478  2.0535 -0.1715
17907THY    CP231251   4.954   0.560   4.798 -0.1380 -0.6464  0.0590
17907THY    HP231252   4.881   0.478   4.791 -3.3333 -1.4341  2.7689
17907THY    HP331253   5.046   0.513   4.762  0.2010 -0.9538  0.9508
17907THY    HP431254   4.931   0.644   4.731 -1.4466  0.3885  0.5709
17907THY    CP331255   4.834   0.617   5.017 -0.3918  0.4871 -0.7480
17907THY    HP531256   4.777   0.694   4.965  0.2534 -0.9423 -1.1909
17907THY    HP631257   4.843   0.637   5.124 -0.0488  0.0131  1.9929
17907THY    HP731258   4.778   0.525   4.997 -0.2490 -2.3875 -0.3269
17907THY    CA331259   4.989   0.862   4.903  0.5464  0.5185 -0.1811
17907THY    HA331260   4.887   0.856   4.865  0.5880  0.5979 -1.6869
17907THY    CA431261   5.052   0.985   4.916  0.9098  0.0726  0.3126
17907THY    HA431262   4.994   1.070   4.880  0.4632  0.1028  0.0231
17907THY    CA531263   5.186   0.999   4.974  0.0237  0.2415 -0.2596
17907THY    CM131264   5.250   1.133   4.996  0.3350  0.1658 -0.7895
17907THY    HM131265   5.188   1.216   5.032  1.5960  0.0204  0.2485
17907THY    HM231266   5.320   1.154   4.914 -0.4666 -0.3818 -0.2113
17907THY    HM331267   5.317   1.115   5.081  1.4739 -0.0806  1.8244
17907THY    CA631268   5.245   0.879   5.018 -0.7429 -0.5173  1.2606
17907THY    HA631269   5.338   0.880   5.074 -0.1147 -1.5015  0.1718
17908THY      O31270   4.312   4.200   3.632 -0.0101  0.6768  0.3741
17908THY     HO31271   4.295   4.180   3.726 -1.0768  0.3590 -0.2804
17908THY    CA131272   4.364   4.099   3.566 -0.2290 -0.2883  0.6405
17908THY    CA231273   4.392   4.107   3.426  0.7068 -0.8833  0.6161
17908THY    CP131274   4.348   4.227   3.342 -0.3310  0.1614 -0.1471
17908THY    HP131275   4.311   4.304   3.411 -0.2838 -0.5188  0.4951
17908THY    CP231276   4.232   4.198   3.256  0.5056  0.3810 -0.5369
17908THY    HP231277   4.243   4.108   3.195  0.1826  0.5827 -0.7167
17908THY    HP331278   4.213   4.286   3.192  0.8198  0.2083 -0.5961
17908THY    HP431279   4.152   4.173   3.327  1.3857  1.5510 -0.1017
17908THY    CP331280   4.475   4.295   3.272  0.3227 -0.3351  0.6854
17908THY    HP531281   4.539   4.218   3.229  1.1256  1.3583  0.3696
17908THY    HP631282   4.530   4.334   3.359  1.2859 -0.3975 -0.4783
17908THY    HP731283   4.455   4.381   3.206  1.0109 -1.7535 -0.1988
17908THY    CA331284   4.446   3.999   3.357  0.2907  0.1679  0.0597
17908THY    HA331285   4.455   4.005   3.249 -4.2714 -0.3910  0.4651
17908THY    CA431286   4.477   3.884   3.431 -0.3202 -0.2660 -0.1706
17908THY    HA431287   4.521   3.801   3.376  1.6015  0.3669  0.3690
17908THY    CA531288   4.450   3.877   3.567  0.2947  0.1937 -0.4216
17908THY    CM131289   4.484   3.753   3.637  0.5969 -0.7997 -0.5112
17908THY    HM131290   4.471   3.769   3.744 -2.2250 -1.5319  3.6840
17908THY    HM231291   4.587   3.738   3.601  0.3840 -1.6582  0.0065
17908THY    HM331292   4.419   3.669   3.611 -1.6308  1.9093  0.2579
17908THY    CA631293   4.385   3.979   3.637 -0.6489  0.4381  0.3677
17908THY    HA631294   4.367   3.973   3.744 -1.0715  0.3645  0.2979
17909THY      O31295   8.468   5.026   4.321  0.1060 -0.6428 -0.3781
17909THY     HO31296   8.426   4.943   4.293 -0.8795 -1.6088  0.4320
17909THY    CA131297   8.421   5.111   4.224  0.6000 -0.8743  0.0524
17909THY    CA231298   8.503   5.163   4.128 -0.7062  0.1030 -0.5137
17909THY    CP131299   8.650   5.118   4.117  0.4058  0.0597  0.5542
17909THY    HP131300   8.690   5.103   4.218 -0.1037 -0.1303 -3.1130
17909THY    CP231301   8.754   5.213   4.056  0.0156 -0.5152  0.5816
17909THY    HP231302   8.717   5.254   3.961 -2.9915 -0.2379 -1.1803
17909THY    HP331303   8.852   5.164   4.052 -0.5024 -0.5875 -0.4807
17909THY    HP431304   8.757   5.300   4.122 -3.0522  0.7821 -0.1806
17909THY    CP331305   8.655   4.971   4.070  0.2327 -0.1487  0.1316
17909THY    HP531306   8.748   4.921   4.099 -0.9186  0.1031 -1.9438
17909THY    HP631307   8.630   4.956   3.964  0.6981 -0.5705  1.9985
17909THY    HP731308   8.575   4.913   4.117  0.7059  0.2670 -0.1976
17909THY    CA331309   8.446   5.256   4.034 -0.4030 -0.6529 -0.4757
17909THY    HA331310   8.502   5.309   3.958 -2.0926  0.0564  2.5564
17909THY    CA431311   8.310   5.287   4.037  0.1021 -0.1733 -0.4497
17909THY    HA431312   8.275   5.362   3.967  1.3964  1.7959  2.1338
17909THY    CA531313   8.225   5.225   4.129  0.3943  0.2347 -0.3518
17909THY    CM131314   8.080   5.239   4.124  0.4919 -0.1127 -0.0121
17909THY    HM131315   8.039   5.326   4.071 -2.7211  0.0938 -1.2426
17909THY    HM231316   8.043   5.258   4.226  0.3574 -0.2820  0.6501
17909THY    HM331317   8.032   5.152   4.078  0.4742 -0.3154  0.1045
17909THY    CA631318   8.283   5.133   4.214 -0.4689 -0.6200  0.0585
17909THY    HA631319   8.219   5.076   4.280 -0.1350  0.1962  0.6028
17910THY      O31320   6.684   6.557   5.405 -0.3694  0.2013 -0.2649
17910THY     HO31321   6.775   6.583   5.430 -0.2179  0.6332 -1.1930
17910THY    CA131322   6.670   6.574   5.278  0.1293  0.3372 -0.0596
17910THY    CA231323   6.548   6.551   5.219 -0.4713 -0.6825  0.2293
17910THY    CP131324   6.430   6.493   5.297 -0.7044 -0.2806  0.0793
17910THY    HP131325   6.461   6.443   5.390 -0.2048  0.1541  1.1476
17910THY    CP231326   6.345   6.381   5.230  0.7844 -0.9820 -0.2648
17910THY    HP231327   6.410   6.300   5.197  2.0305  0.3745  0.1250
17910THY    HP331328   6.298   6.411   5.136 -0.9828 -0.3114 -0.8495
17910THY    HP431329   6.276   6.342   5.305  1.5127 -0.1225  0.0546
17910THY    CP331330   6.341   6.610   5.350  0.0545  0.0109 -0.1581
17910THY    HP531331   6.414   6.664   5.413  0.1174  0.8608 -1.2128
17910THY    HP631332   6.257   6.587   5.416 -0.7961 -0.5378  1.2495
17910THY    HP731333   6.313   6.664   5.259  2.8639 -1.3318 -0.7327
17910THY    CA331334   6.533   6.565   5.085 -0.6450  0.9607 -0.1181
17910THY    HA331335   6.437   6.563   5.035  0.1035 -0.5391 -1.3819
17910THY    CA431336   6.648   6.605   5.008 -0.2448 -0.3069  0.0501
17910THY    HA431337   6.635   6.622   4.902 -0.2660 -0.6438 -1.8056
17910THY    CA531338   6.780   6.616   5.069  0.2541  0.8054  0.8570
17910THY    CM131339   6.910   6.637   4.995 -0.5522  0.7523 -0.4117
17910THY    HM131340   6.970   6.719   5.034  0.0195 -0.6663 -0.1137
17910THY    HM231341   6.882   6.638   4.889  0.3407  0.5043 -0.5330
17910THY    HM331342   6.975   6.551   5.016 -1.6144  0.3420 -1.3342
17910THY    CA631343   6.784   6.603   5.207 -0.6279  0.2741 -0.1059
17910THY    HA631344   6.881   6.608   5.256 -0.7566  0.5272 -0.1163
17911THY      O31345   3.255   3.613   4.973 -0.3837  0.0952  0.4953
17911THY     HO31346   3.314   3.671   4.921  1.2167  1.1650 -0.1079
17911THY    CA131347   3.155   3.600   4.887  0.5187  0.7045  0.4439
17911THY    CA231348   3.038   3.526   4.914 -0.0594  0.6801 -0.4338
17911THY    CP131349   3.023   3.453   5.049 -0.1309 -0.1807 -0.3547
17911THY    HP131350   3.122   3.410   5.070  0.8483 -0.4840  1.6588
17911THY    CP231351   2.925   3.338   5.041  0.1089 -0.2638 -0.4515
17911THY    HP231352   2.827   3.369   5.004  1.3015 -2.5535  0.8415
17911THY    HP331353   2.905   3.304   5.143 -1.0729 -0.4942 -0.4950
17911THY    HP431354   2.963   3.271   4.963  0.7841 -1.2944  1.0638
17911THY    CP331355   2.979   3.551   5.165  0.0141 -0.7603 -0.3598
17911THY    HP531356   2.920   3.511   5.249  0.0938 -0.6198 -0.1860
17911THY    HP631357   2.899   3.609   5.117 -0.8976 -0.6074 -1.4710
17911THY    HP731358   3.064   3.609   5.202 -0.5617  1.8626 -1.0652
17911THY    CA331359   2.942   3.511   4.809 -0.1178  0.0251  0.3202
17911THY    HA331360   2.860   3.440   4.818 -0.7748  1.2400  1.1994
17911THY    CA431361   2.950   3.582   4.694 -0.4610 -0.5699 -0.0229
17911THY    HA431362   2.875   3.559   4.619  0.2811 -0.6458 -2.5161
17911THY    CA531363   3.061   3.667   4.675 -0.3280 -0.1309  0.2282
17911THY    CM131364   3.079   3.744   4.554  0.4449 -0.1442 -0.6783
17911THY    HM131365   3.004   3.726   4.476 -0.8785  1.2839 -1.6682
17911THY    HM231366   3.176   3.716   4.511 -0.9466 -3.0606 -1.4363
17911THY    HM331367   3.089   3.848   4.587 -1.9811  0.7762 -0.6839
17911THY    CA631368   3.168   3.670   4.770 -0.4625 -0.5526 -0.4096
17911THY    HA631369   3.257   3.730   4.755 -0.2055  1.2773 -0.2587
17912THY      O31370   4.506   6.264   4.003  0.3669  0.4366 -0.1428
17912THY     HO31371   4.436   6.198   4.023 -0.9155 -1.6477  0.4807
17912THY    CA131372   4.461   6.380   4.066  0.5850 -0.3429  0.5117
17912THY    CA231373   4.540   6.499   4.063  0.5040  0.6625 -0.1782
17912THY    CP131374   4.669   6.505   3.973 -0.4009  0.8210  0.9034
17912THY    HP131375   4.672   6.412   3.915 -0.9845 -1.6757  2.3527
17912THY    CP231376   4.799   6.526   4.054  0.0266 -0.4655  0.2727
17912THY    HP231377   4.823   6.444   4.122 -0.3193  3.0751  2.8517
17912THY    HP331378   4.792   6.617   4.115 -1.2820 -0.7309  0.3737
17912THY    HP431379   4.887   6.522   3.988  0.5171  0.1342  0.8317
17912THY    CP331380   4.628   6.603   3.865  0.0820 -0.1123 -0.0304
17912THY    HP531381   4.576   6.696   3.891  0.2055 -0.0397  0.0192
17912THY    HP631382   4.555   6.560   3.795 -1.1562  0.3950  1.1787
17912THY    HP731383   4.715   6.627   3.802  0.7153  0.4705 -0.7541
17912THY    CA331384   4.500   6.611   4.132  0.5210 -0.1432 -1.0936
17912THY    HA331385   4.562   6.700   4.131  0.9740  1.7977 -1.3441
17912THY    CA431386   4.380   6.606   4.203  0.5993  0.4443  0.0570
17912THY    HA431387   4.354   6.693   4.263  1.4011  1.7580 -0.5909
17912THY    CA531388   4.307   6.490   4.213 -0.1095 -1.1190  0.1268
17912THY    CM131389   4.186   6.493   4.311 -0.8006 -0.8204  0.0667
17912THY    HM131390   4.192   6.394   4.357 -0.0667 -3.7039 -1.3224
17912THY    HM231391   4.092   6.514   4.259 -0.9784 -0.4644  0.1733
17912THY    HM331392   4.190   6.576   4.383 -0.5094 -2.7991  1.8383
17912THY    CA631393   4.344   6.374   4.143  0.0557  0.2816  0.6557
17912THY    HA631394   4.289   6.280   4.146 -0.1027 -0.8890  0.6916
17913THY      O31395   4.690   8.172   5.173 -0.3561  0.3707  0.2501
17913THY     HO31396   4.642   8.254   5.152  2.2527 -0.3398  1.7135
17913THY    CA131397   4.607   8.096   5.242 -0.1606 -0.4180  0.5180
17913THY    CA231398   4.633   7.957   5.257 -0.2018  0.2512  0.2580
17913THY    CP131399   4.764   7.892   5.197  0.0915 -0.2812  0.4889
17913THY    HP131400   4.833   7.970   5.162  0.3467  0.9341  0.8274
17913THY    CP231401   4.743   7.778   5.100 -0.0755 -0.2318 -0.2947
17913THY    HP231402   4.842   7.734   5.082  1.0526  1.2571  1.4844
17913THY    HP331403   4.698   7.815   5.007 -0.1772  0.1512  0.5903
17913THY    HP431404   4.672   7.710   5.149 -0.2099  2.3258  1.5074
17913THY    CP331405   4.841   7.827   5.312  0.0574 -0.2428 -0.5314
17913THY    HP531406   4.948   7.841   5.292  0.1501  0.7560  0.2422
17913THY    HP631407   4.818   7.724   5.339  0.2857  1.9836 -0.0465
17913THY    HP731408   4.830   7.889   5.402  0.3384 -1.2538  1.0635
17913THY    CA331409   4.541   7.882   5.331 -1.1013 -0.8326  0.5607
17913THY    HA331410   4.568   7.782   5.365 -2.8451  0.2885  0.4164
17913THY    CA431411   4.423   7.936   5.382  0.5634  0.8482 -0.0972
17913THY    HA431412   4.353   7.877   5.441  1.0144  1.8481  0.3253
17913THY    CA531413   4.397   8.069   5.363 -0.0035 -0.8710 -0.8909
17913THY    CM131414   4.283   8.137   5.433  0.0880 -0.2648 -0.0239
17913THY    HM131415   4.195   8.073   5.428 -0.2483 -1.8004  0.5128
17913THY    HM231416   4.249   8.234   5.395  0.7926 -1.4522 -0.2117
17913THY    HM331417   4.299   8.153   5.540  0.7173 -0.5946  1.9006
17913THY    CA631418   4.492   8.152   5.300  0.2502 -0.2191 -0.3729
17913THY    HA631419   4.473   8.259   5.290 -1.7765 -0.3759 -0.7040
17914THY      O31420   0.564   4.889   6.127  0.5585  0.0890 -0.1289
17914THY     HO31421   0.576   4.792   6.133 -1.1973  1.1753 -0.3205
17914THY    CA131422   0.450   4.904   6.203 -0.1884  0.2529  0.4144
17914THY    CA231423   0.393   5.029   6.238 -0.7871 -0.2864 -0.0820
17914THY    CP131424   0.478   5.160   6.209 -0.2076 -0.2427  0.0627
17914THY    HP131425   0.564   5.148   6.142 -0.1080 -0.7471  2.8067
17914THY    CP231426   0.522   5.234   6.342 -0.6749  0.7260 -0.4387
17914THY    HP231427   0.560   5.332   6.314 -0.0409  0.1391 -0.8460
17914THY    HP331428   0.606   5.188   6.396 -0.7051  0.9542 -0.2310
17914THY    HP431429   0.432   5.247   6.405 -1.7543 -0.9245  0.3534
17914THY    CP331430   0.393   5.258   6.134 -0.3549 -0.5192 -0.2247
17914THY    HP531431   0.342   5.224   6.044  2.2263 -2.9534  1.8747
17914THY    HP631432   0.443   5.352   6.106 -0.9468 -0.2074  0.1940
17914THY    HP731433   0.311   5.281   6.203 -1.6686 -2.4982  1.4192
17914THY    CA331434   0.266   5.024   6.303 -0.2380 -0.1611  0.6999
17914THY    HA331435   0.211   5.111   6.336 -0.6972  1.8757 -0.2902
17914THY    CA431436   0.204   4.897   6.331  0.0681 -0.9932 -0.1663
17914THY    HA431437   0.107   4.895   6.380  0.4450 -0.0981  1.3859
17914THY    CA531438   0.260   4.777   6.291 -0.8597 -0.1913 -0.3267
17914THY    CM131439   0.183   4.651   6.315 -0.0825  0.4686  0.0237
17914THY    HM131440   0.099   4.661   6.386  0.8975  2.3311 -3.4535
17914THY    HM231441   0.248   4.570   6.350  0.9179  0.8256  0.9625
17914THY    HM331442   0.141   4.618   6.219 -0.1834  0.7497 -0.6816
17914THY    CA631443   0.383   4.783   6.221  0.2890  0.1399 -0.1320
17914THY    HA631444   0.418   4.688   6.184 -2.1489 -1.5600 -0.4476
17915THY      O31445   3.747   5.935   5.550 -0.3868 -0.0012  0.7158
17915THY     HO31446   3.812   5.992   5.506 -0.0805 -1.4859 -0.7357
17915THY    CA131447   3.806   5.886   5.664 -0.0225  0.2862 -1.6192
17915THY    CA231448   3.780   5.761   5.716  0.0370 -0.0341 -0.3446
17915THY    CP131449   3.659   5.682   5.657 -0.7527  0.2413 -0.6054
17915THY    HP131450   3.660   5.692   5.548  0.2591  0.1927 -1.1423
17915THY    CP231451   3.531   5.738   5.719 -0.1542  0.5036  0.1282
17915THY    HP231452   3.447   5.671   5.694 -1.8923 -2.8478  3.2090
17915THY    HP331453   3.508   5.830   5.664  3.4630 -2.3489 -0.4565
17915THY    HP431454   3.552   5.769   5.822  1.6382 -0.0973  1.0490
17915THY    CP331455   3.691   5.531   5.676  0.0383 -0.7221  0.5041
17915THY    HP531456   3.669   5.490   5.776 -0.9417 -1.4672 -0.8987
17915THY    HP631457   3.797   5.513   5.653  0.3388  1.8774 -1.7604
17915THY    HP731458   3.625   5.480   5.605 -0.6801  0.2952 -0.0285
17915THY    CA331459   3.840   5.725   5.839  0.0181  0.4624  0.6125
17915THY    HA331460   3.823   5.634   5.896  2.4954 -1.4861 -1.2392
17915THY    CA431461   3.939   5.806   5.896 -0.3424 -0.0579  0.0678
17915THY    HA431462   3.998   5.761   5.975  0.0367 -0.8989 -0.9542
17915THY    CA531463   3.956   5.941   5.855 -0.2078  0.4537  0.4470
17915THY    CM131464   4.048   6.037   5.928 -0.1596 -0.0649  0.1578
17915THY    HM131465   4.066   6.116   5.855  2.2018  1.3998  1.0633
17915THY    HM231466   4.134   5.987   5.973 -0.2337  2.1159  1.8267
17915THY    HM331467   4.006   6.076   6.022 -1.2576 -0.6379  0.4068
17915THY    CA631468   3.885   5.981   5.741  0.5858  0.1140 -0.1959
17915THY    HA631469   3.880   6.087   5.715 -0.1362  0.8405 -0.0440
17916THY      O31470   4.143   1.245   2.467  0.0220  0.2561  0.0992
17916THY     HO31471   4.167   1.331   2.429 -0.1801 -1.1157 -0.4323
17916THY    CA131472   4.210   1.243   2.584  0.3731 -0.0752 -0.0178
17916THY    CA231473   4.160   1.174   2.704  0.0708  0.2821 -0.1706
17916THY    CP131474   4.037   1.082   2.686 -0.3843 -0.2877  0.2794
17916THY    HP131475   4.020   1.060   2.580 -0.9106 -0.5366  1.8009
17916THY    CP231476   3.907   1.158   2.727  0.0200  0.0048 -0.1231
17916THY    HP231477   3.835   1.082   2.761 -0.5446  0.4779  0.6020
17916THY    HP331478   3.861   1.210   2.642 -1.7256 -0.1350 -1.7879
17916THY    HP431479   3.926   1.232   2.806 -1.4181 -2.9079  3.6911
17916THY    CP331480   4.055   0.947   2.758 -0.7184  0.0113  0.0144
17916THY    HP531481   4.148   0.902   2.722  0.5246  0.7671  1.8703
17916THY    HP631482   3.975   0.875   2.735  2.0667 -1.8370 -2.8036
17916THY    HP731483   4.060   0.963   2.866  0.6264  0.3457 -2.1801
17916THY    CA331484   4.213   1.194   2.828 -0.0200 -0.3429  0.8438
17916THY    HA331485   4.159   1.163   2.916 -0.3242  0.4345  3.3724
17916THY    CA431486   4.340   1.271   2.835  1.1522 -0.5671  0.3466
17916THY    HA431487   4.397   1.293   2.925  0.9386 -0.7947  1.9787
17916THY    CA531488   4.394   1.328   2.718  0.7410  0.0579 -0.5669
17916THY    CM131489   4.520   1.411   2.728 -0.0046  0.2677  0.2782
17916THY    HM131490   4.541   1.455   2.827  3.4158  0.1679 -0.8513
17916THY    HM231491   4.522   1.485   2.647  0.8874 -0.1558 -0.1943
17916THY    HM331492   4.597   1.340   2.698 -0.9738  0.3499 -0.8340
17916THY    CA631493   4.326   1.324   2.598 -0.3313 -0.3333 -0.1577
17916THY    HA631494   4.367   1.377   2.512 -0.1480  1.0675  2.1214
17917THY      O31495   4.769   6.194   4.090 -0.4234  0.1216 -0.2085
17917THY     HO31496   4.674   6.216   4.090 -0.4397 -0.2218 -0.2667
17917THY    CA131497   4.785   6.131   4.209 -0.0085 -0.0428  0.0596
17917THY    CA231498   4.909   6.100   4.270  0.1141  1.2525 -0.4017
17917THY    CP131499   5.041   6.108   4.186  0.2141 -0.0572 -0.1851
17917THY    HP131500   5.026   6.164   4.094  0.0098 -0.3321 -0.6875
17917THY    CP231501   5.077   5.965   4.134 -0.0306  0.0825  0.4963
17917THY    HP231502   5.157   5.972   4.059  0.6820  0.8591  0.8909
17917THY    HP331503   4.988   5.911   4.101 -0.6257  1.7682  0.3819
17917THY    HP431504   5.133   5.916   4.215  0.2434 -0.4419 -0.0728
17917THY    CP331505   5.145   6.186   4.261 -0.6705 -0.4357  0.4299
17917THY    HP531506   5.230   6.203   4.194  0.7707  1.3202  0.4634
17917THY    HP631507   5.177   6.123   4.345 -2.2012 -0.5548 -0.5563
17917THY    HP731508   5.115   6.284   4.299 -0.6353  2.5249 -0.5959
17917THY    CA331509   4.914   6.067   4.407  0.3153 -0.2390 -0.4594
17917THY    HA331510   5.004   6.043   4.462 -0.1471  0.5035 -0.4958
17917THY    CA431511   4.789   6.061   4.478  1.2142 -0.2850  0.2919
17917THY    HA431512   4.788   6.036   4.584  1.2638 -0.3707 -0.0839
17917THY    CA531513   4.667   6.081   4.416  0.0964 -0.0013  0.0057
17917THY    CM131514   4.536   6.049   4.483  0.9527 -0.1608 -0.4644
17917THY    HM131515   4.508   5.946   4.456 -1.0966  0.3224 -0.0783
17917THY    HM231516   4.461   6.123   4.454 -0.2546  1.4783 -0.9850
17917THY    HM331517   4.544   6.045   4.592  0.1918 -0.0433  0.8242
17917THY    CA631518   4.669   6.105   4.281 -1.0406 -0.2713  0.0348
17917THY    HA631519   4.575   6.121   4.229 -0.3846 -0.9999  1.7187
17918THY      O31520   5.434   5.141   7.413 -0.0469 -0.2974 -0.4427
17918THY     HO31521   5.339   5.120   7.407 -0.3791  2.3098 -0.0282
17918THY    CA131522   5.440   5.274   7.440 -0.0889  0.3155  0.7530
17918THY    CA231523   5.558   5.333   7.481 -0.3121  0.3336  0.8250
17918THY    CP131524   5.685   5.255   7.510  0.0676 -0.0969  0.2508
17918THY    HP131525   5.668   5.146   7.511  0.8309 -1.2720  0.0928
17918THY    CP231526   5.736   5.285   7.654 -0.7475 -0.1678 -0.9383
17918THY    HP231527   5.799   5.375   7.653 -1.7591  0.8384 -0.1954
17918THY    HP331528   5.809   5.204   7.669  1.8397 -1.9683  0.9023
17918THY    HP431529   5.660   5.293   7.732 -0.5011 -0.1143  1.5291
17918THY    CP331530   5.800   5.292   7.406  0.5461 -0.1923  0.0828
17918THY    HP531531   5.819   5.399   7.412 -0.6634  0.0065  0.3020
17918THY    HP631532   5.780   5.282   7.299  1.7021 -0.4123 -0.0931
17918THY    HP731533   5.896   5.243   7.428  0.3619  0.0336 -0.1864
17918THY    CA331534   5.562   5.470   7.508 -0.9743 -0.0079  0.3960
17918THY    HA331535   5.652   5.510   7.553 -2.1487  3.4276 -0.4666
17918THY    CA431536   5.456   5.550   7.477  1.1079 -0.3273 -0.0761
17918THY    HA431537   5.455   5.658   7.491 -0.5497 -1.0375  0.0345
17918THY    CA531538   5.334   5.492   7.445 -0.6897  0.1080 -0.6655
17918THY    CM131539   5.205   5.569   7.446 -1.4615  0.1349  0.3910
17918THY    HM131540   5.200   5.653   7.375  0.4012  1.4144  1.6594
17918THY    HM231541   5.188   5.615   7.543  0.6858 -1.0192  3.9968
17918THY    HM331542   5.117   5.508   7.422 -1.9031 -1.5099  1.6112
17918THY    CA631543   5.324   5.356   7.425 -0.1993  0.5391  0.4434
17918THY    HA631544   5.235   5.298   7.402 -0.7843 -3.8316  2.6889
17919THY      O31545   2.120   8.781   5.516  0.6440  0.2269 -0.1642
17919THY     HO31546   2.078   8.704   5.474  0.8337 -1.8935  0.8196
17919THY    CA131547   2.239   8.778   5.453 -0.2805 -0.1691  0.4760
17919THY    CA231548   2.358   8.821   5.531 -0.7442 -0.2253 -0.4017
17919THY    CP131549   2.353   8.865   5.677  0.3156  0.6520 -0.5312
17919THY    HP131550   2.258   8.915   5.699  0.6872  1.6202 -0.2217
17919THY    CP231551   2.453   8.984   5.695 -0.2978 -0.6108  0.2917
17919THY    HP231552   2.436   9.057   5.616 -1.5716 -1.6915 -1.1026
17919THY    HP331553   2.557   8.956   5.714 -0.9820 -0.5166 -2.5926
17919THY    HP431554   2.422   9.035   5.787  1.7799  1.0057 -1.1625
17919THY    CP331555   2.385   8.754   5.776 -0.2700  0.1584  0.6104
17919THY    HP531556   2.383   8.799   5.876 -2.0091  1.0407 -1.2529
17919THY    HP631557   2.484   8.713   5.754 -0.5061  2.6609 -1.6041
17919THY    HP731558   2.301   8.684   5.768 -0.6224 -0.9467  1.1363
17919THY    CA331559   2.481   8.799   5.464 -0.5073 -0.1454 -0.3604
17919THY    HA331560   2.575   8.827   5.511 -1.7635 -0.0050  4.4620
17919THY    CA431561   2.476   8.757   5.323 -0.2317 -0.6221  0.8788
17919THY    HA431562   2.570   8.762   5.268  0.1875  0.0462  0.5603
17919THY    CA531563   2.359   8.743   5.253 -0.0929 -0.1180  0.0343
17919THY    CM131564   2.352   8.722   5.105  0.5963 -0.0021  0.1279
17919THY    HM131565   2.412   8.635   5.075  1.2394  1.8551 -0.1081
17919THY    HM231566   2.396   8.802   5.045 -0.1570 -2.0884 -0.9520
17919THY    HM331567   2.247   8.714   5.074  0.5815 -0.1254  0.7301
17919THY    CA631568   2.237   8.753   5.318 -0.5624 -0.6491  0.0924
17919THY    HA631569   2.140   8.733   5.274 -0.5898 -1.2687  1.5081
17920THY      O31570   2.050   2.633   2.952  0.2348  0.6081  0.1617
17920THY     HO31571   2.044   2.593   2.863  1.7385  0.7559 -0.4425
17920THY    CA131572   2.175   2.692   2.960 -0.2367  0.1076 -0.2503
17920THY    CA231573   2.288   2.660   2.880  0.0948  0.1733 -0.9066
17920THY    CP131574   2.279   2.564   2.765  0.0200  0.2111  0.2513
17920THY    HP131575   2.178   2.521   2.759  0.6007  0.1070 -1.1580
17920THY    CP231576   2.354   2.438   2.780 -0.7735  0.0996  0.8127
17920THY    HP231577   2.316   2.389   2.871  0.9291 -0.7700 -2.3677
17920THY    HP331578   2.461   2.459   2.783 -0.5284 -3.5426  0.6233
17920THY    HP431579   2.330   2.370   2.698 -1.0711  0.5624  0.3531
17920THY    CP331580   2.320   2.639   2.640  0.0556 -0.0186 -0.3684
17920THY    HP531581   2.422   2.681   2.644 -0.3293  0.3052  0.5729
17920THY    HP631582   2.259   2.725   2.610  2.7754 -1.7309  1.1411
17920THY    HP731583   2.313   2.566   2.559 -0.8907 -1.0537  0.8333
17920THY    CA331584   2.407   2.730   2.908 -0.5084 -0.1971  0.2856
17920THY    HA331585   2.498   2.710   2.852 -0.3457  0.6427 -1.5147
17920THY    CA431586   2.411   2.831   2.998 -0.3606 -0.2364 -0.2668
17920THY    HA431587   2.495   2.900   2.994 -0.1915 -0.3130 -0.4755
17920THY    CA531588   2.293   2.865   3.068  0.5843 -0.2941  0.1742
17920THY    CM131589   2.302   2.987   3.161 -0.1968  0.1293  0.0363
17920THY    HM131590   2.205   3.038   3.155  0.7097 -0.7140  1.7720
17920THY    HM231591   2.380   3.059   3.135  0.5484 -0.6169 -1.0157
17920THY    HM331592   2.323   2.954   3.264  1.1157  0.1796  0.9298
17920THY    CA631593   2.181   2.794   3.061  0.1011 -0.0698 -0.2556
17920THY    HA631594   2.090   2.823   3.113 -0.2664 -1.1373  0.5667
17921THY      O31595   1.926   7.629   7.945  0.5221  0.8285  0.1465
17921THY     HO31596   1.893   7.538   7.958 -0.4867  1.8147  0.6280
17921THY    CA131597   1.894   7.666   7.818 -0.5239 -0.3353 -0.1300
17921THY    CA231598   1.957   7.782   7.758 -0.1291 -0.5520  0.6645
17921THY    CP131599   2.069   7.847   7.828  0.2423 -0.2172 -0.0798
17921THY    HP131600   2.117   7.777   7.897 -1.2347  0.7657 -0.1663
17921THY    CP231601   2.026   7.977   7.910  0.2350  0.0512 -0.0150
17921THY    HP231602   1.963   7.953   7.996  1.4018  0.8974 -0.1214
17921THY    HP331603   1.967   8.032   7.836 -0.1987  2.0115  2.2711
17921THY    HP431604   2.114   8.032   7.946  1.3887 -1.5576 -0.7019
17921THY    CP331605   2.192   7.878   7.737  0.3572  0.5130  0.3825
17921THY    HP531606   2.222   7.786   7.685 -0.2565 -1.5461  1.2732
17921THY    HP631607   2.274   7.916   7.798  0.8237  0.1426 -0.0136
17921THY    HP731608   2.171   7.948   7.656 -1.6948  1.9496  1.5423
17921THY    CA331609   1.902   7.821   7.632  0.1586 -0.6732  0.4826
17921THY    HA331610   1.946   7.905   7.578  2.2731  1.2238  0.7031
17921THY    CA431611   1.797   7.753   7.572  0.2594 -1.2973 -0.2851
17921THY    HA431612   1.750   7.779   7.478  0.6251 -1.1428  1.0225
17921THY    CA531613   1.754   7.632   7.632  0.5939  0.3635 -0.4000
17921THY    CM131614   1.631   7.555   7.566  0.5780  0.2179 -0.6762
17921THY    HM131615   1.589   7.611   7.482 -0.4291  0.9538 -0.3145
17921THY    HM231616   1.550   7.541   7.638  0.1478  0.5179  2.6263
17921THY    HM331617   1.680   7.459   7.547 -0.2856  2.8125 -1.7046
17921THY    CA631618   1.801   7.590   7.756 -0.0121  0.2915  0.4627
17921THY    HA631619   1.742   7.512   7.803 -0.0145  0.0122  0.2945
17922THY      O31620   3.769   0.769   7.453  0.0162  0.0647 -0.0220
17922THY     HO31621   3.845   0.771   7.391 -2.0758 -2.6785  1.8293
17922THY    CA131622   3.660   0.734   7.377 -0.2203 -0.3060 -0.3973
17922THY    CA231623   3.526   0.747   7.426 -0.4210 -0.4313 -0.4351
17922THY    CP131624   3.496   0.785   7.572 -0.4033  0.7549  0.1556
17922THY    HP131625   3.590   0.834   7.600 -0.2528  0.1073  0.2527
17922THY    CP231626   3.463   0.673   7.668 -0.3469  0.1351  0.3346
17922THY    HP231627   3.362   0.631   7.661 -0.1373 -1.1411  0.0230
17922THY    HP331628   3.500   0.699   7.768 -0.2332  0.2575 -0.2877
17922THY    HP431629   3.522   0.588   7.632 -2.0190 -0.1927 -0.7462
17922THY    CP331630   3.395   0.896   7.573  0.0319  0.3129 -0.2449
17922THY    HP531631   3.363   0.924   7.674 -0.7347 -0.3749  1.4740
17922THY    HP631632   3.305   0.845   7.538  0.2749 -1.3338  0.3908
17922THY    HP731633   3.416   0.992   7.525 -2.2309  0.4784  0.3729
17922THY    CA331634   3.419   0.724   7.332 -0.6444 -0.3853  0.7530
17922THY    HA331635   3.314   0.721   7.360 -0.5782 -0.2184 -0.2144
17922THY    CA431636   3.450   0.681   7.203 -0.1831 -0.0761  0.6162
17922THY    HA431637   3.372   0.642   7.139 -0.4980  0.0780  0.9859
17922THY    CA531638   3.581   0.667   7.162 -0.8827  0.8656 -0.2874
17922THY    CM131639   3.607   0.611   7.025  0.5335  0.0365  0.7285
17922THY    HM131640   3.683   0.532   7.029  1.2264 -2.7516  1.1528
17922THY    HM231641   3.646   0.692   6.963 -0.7588 -0.2333  1.1764
17922THY    HM331642   3.517   0.569   6.978  0.5351 -0.0840  0.8594
17922THY    CA631643   3.688   0.693   7.249 -0.3431  0.5244 -0.4583
17922THY    HA631644   3.790   0.683   7.214 -0.2302  0.8566 -0.4603
17923THY      O31645   0.381   8.736   2.576 -0.3741  0.3260  0.2046
17923THY     HO31646   0.404   8.686   2.496  0.2255  0.9494 -0.5560
17923THY    CA131647   0.501   8.760   2.638 -0.2492  0.4711 -0.0662
17923THY    CA231648   0.511   8.832   2.756  0.1346  0.1301  0.2728
17923THY    CP131649   0.387   8.909   2.812 -0.0929  0.1702 -0.3100
17923THY    HP131650   0.299   8.904   2.746 -0.7186  1.0017 -0.4948
17923THY    CP231651   0.415   9.059   2.824 -0.3160  0.6685  0.1436
17923THY    HP231652   0.321   9.106   2.856  0.9801  2.4674  1.6482
17923THY    HP331653   0.451   9.110   2.734 -0.6785  0.0608 -0.6465
17923THY    HP431654   0.484   9.078   2.906  0.0677  0.4118 -0.1223
17923THY    CP331655   0.354   8.859   2.954 -0.0251 -0.2382 -0.3289
17923THY    HP531656   0.452   8.841   3.000  0.0144  0.5366  1.6660
17923THY    HP631657   0.294   8.767   2.952 -0.4903  1.0080 -0.0685
17923THY    HP731658   0.295   8.934   3.007  0.3775  1.0050 -0.8710
17923THY    CA331659   0.637   8.846   2.813 -0.8633 -0.1668 -0.0753
17923THY    HA331660   0.646   8.895   2.909  1.0199 -0.1165 -0.4325
17923THY    CA431661   0.746   8.787   2.751 -0.0825 -0.9801  0.0123
17923THY    HA431662   0.844   8.811   2.790 -1.6905  1.5395  3.1538
17923THY    CA531663   0.731   8.721   2.637 -0.7185  0.4805  0.2654
17923THY    CM131664   0.852   8.674   2.573  0.0611 -0.1017 -0.3518
17923THY    HM131665   0.813   8.667   2.471 -1.5682  0.0346  3.9009
17923THY    HM231666   0.883   8.576   2.612 -1.3650  0.9055 -0.4382
17923THY    HM331667   0.931   8.749   2.577 -0.0635 -0.1173 -0.2183
17923THY    CA631668   0.609   8.702   2.575 -0.1292 -0.0666 -0.2078
17923THY    HA631669   0.593   8.645   2.483  2.0427  0.1961 -1.3597
17924THY      O31670   4.542   7.733   2.194  0.3242  0.5788 -0.1905
17924THY     HO31671   4.562   7.822   2.162  0.5117 -0.2451 -0.5195
17924THY    CA131672   4.615   7.653   2.113  1.1743 -0.2755  0.0262
17924THY    CA231673   4.557   7.529   2.079 -0.4476 -0.4997  0.1244
17924THY    CP131674   4.429   7.482   2.144  1.4940 -0.0345  0.3020
17924THY    HP131675   4.380   7.553   2.211 -0.5055  0.2923 -1.2694
17924THY    CP231676   4.451   7.354   2.231 -0.6784  0.3611 -0.8026
17924THY    HP231677   4.489   7.267   2.177  1.6680  1.9584 -0.8621
17924THY    HP331678   4.367   7.336   2.300  0.0206  1.6491  0.6131
17924THY    HP431679   4.531   7.385   2.300 -0.2910 -0.6776  0.6186
17924THY    CP331680   4.328   7.442   2.023  0.2672 -0.7624 -0.0572
17924THY    HP531681   4.309   7.528   1.958 -1.0323 -0.7658 -0.3159
17924THY    HP631682   4.229   7.434   2.070  0.9338  0.6662 -0.2541
17924THY    HP731683   4.355   7.355   1.962 -1.6564 -0.7491 -0.7243
17924THY    CA331684   4.619   7.447   1.982 -0.1628  0.6968  0.4695
17924THY    HA331685   4.593   7.345   1.956  1.8220  3.5687 -0.8851
17924THY    CA431686   4.742   7.498   1.925  1.2790 -0.1755  0.8790
17924THY    HA431687   4.797   7.446   1.847  0.0136 -1.7067  1.7366
17924THY    CA531688   4.791   7.627   1.962 -0.8267 -0.6218  0.6056
17924THY    CM131689   4.908   7.678   1.885 -0.0864  0.2423  0.4390
17924THY    HM131690   4.925   7.626   1.790  0.3283 -0.0550  1.0929
17924THY    HM231691   4.998   7.669   1.947 -0.0530  0.4176  1.8004
17924THY    HM331692   4.893   7.779   1.845 -1.1582 -4.5401 -1.3536
17924THY    CA631693   4.726   7.706   2.053  0.5485  0.3340 -0.0347
17924THY    HA631694   4.767   7.805   2.071 -0.6872  0.1749  0.5257
17925THY      O31695   7.234   5.763   5.405 -0.1874 -0.2327 -0.6998
17925THY     HO31696   7.295   5.831   5.370 -0.7295 -1.9307 -1.0384
17925THY    CA131697   7.293   5.661   5.472  0.5202  0.3859 -0.1651
17925THY    CA231698   7.219   5.549   5.507 -0.2660  0.4716  0.9556
17925THY    CP131699   7.072   5.543   5.482  0.2207 -0.2930  0.1194
17925THY    HP131700   7.042   5.634   5.429 -0.6139 -0.6231 -0.3305
17925THY    CP231701   6.984   5.529   5.606 -0.6857  0.3459  0.6046
17925THY    HP231702   6.878   5.521   5.577 -0.5636 -0.3985  1.4814
17925THY    HP331703   7.008   5.611   5.675  2.9601  0.9722 -0.7913
17925THY    HP431704   7.006   5.439   5.663 -1.6009  0.8283  0.6719
17925THY    CP331705   7.034   5.427   5.385  0.5469 -0.3113 -0.4308
17925THY    HP531706   7.070   5.447   5.284  2.5274  0.9351  3.2368
17925THY    HP631707   6.926   5.413   5.377  0.7602 -1.0773 -1.7313
17925THY    HP731708   7.061   5.327   5.420 -1.2980  0.1532 -0.7925
17925THY    CA331709   7.289   5.436   5.561  0.0335  0.0976  0.1757
17925THY    HA331710   7.230   5.349   5.588 -1.1724  1.3296  1.3197
17925THY    CA431711   7.424   5.445   5.578 -0.3424 -0.2778  0.8442
17925THY    HA431712   7.482   5.362   5.616 -1.6956 -0.7779 -0.3784
17925THY    CA531713   7.498   5.558   5.549  0.7093  0.3558  0.3022
17925THY    CM131714   7.643   5.550   5.561  0.0559  0.0617 -0.4292
17925THY    HM131715   7.685   5.565   5.661 -0.0040  0.2325 -1.3233
17925THY    HM231716   7.693   5.609   5.484  0.0171  0.6956  0.4454
17925THY    HM331717   7.668   5.445   5.540  1.7089 -1.1432  0.1767
17925THY    CA631718   7.437   5.669   5.496 -0.2773  0.3221  0.1946
17925THY    HA631719   7.502   5.751   5.466  0.1089  2.9747  0.9700
17926THY      O31720   3.645   3.577   7.350 -0.0494 -0.2994  0.4944
17926THY     HO31721   3.693   3.498   7.320  2.7162 -0.1532  1.9933
17926THY    CA131722   3.690   3.588   7.480 -0.2689  0.8263 -0.7669
17926THY    CA231723   3.608   3.627   7.580  0.2476 -0.3485  1.1849
17926THY    CP131724   3.463   3.673   7.557  0.4182  0.0428 -0.3381
17926THY    HP131725   3.442   3.689   7.450  1.5175  0.2521  3.7459
17926THY    CP231726   3.448   3.816   7.608  0.2867 -0.3667  0.0852
17926THY    HP231727   3.353   3.853   7.566 -0.8336  1.1974 -0.8764
17926THY    HP331728   3.539   3.869   7.580 -0.0502 -0.6758  0.5101
17926THY    HP431729   3.433   3.814   7.717 -1.9908 -0.6200  0.1376
17926THY    CP331730   3.373   3.568   7.606  0.0699 -1.1118 -0.3289
17926THY    HP531731   3.406   3.476   7.556  2.4806 -0.1391 -0.0637
17926THY    HP631732   3.270   3.583   7.569 -0.8815  1.3447 -0.3689
17926THY    HP731733   3.377   3.565   7.715 -1.2109 -0.9148  2.0997
17926THY    CA331734   3.649   3.622   7.716  0.0799 -0.0917  0.7157
17926THY    HA331735   3.575   3.648   7.792  0.4385  0.5172 -0.0092
17926THY    CA431736   3.782   3.578   7.738  0.8512 -0.2473 -0.0809
17926THY    HA431737   3.817   3.577   7.841 -2.0526  0.8283 -0.8464
17926THY    CA531738   3.868   3.538   7.633  1.2148 -0.1859  0.2200
17926THY    CM131739   4.014   3.494   7.659 -0.2683 -0.3007  0.0635
17926THY    HM131740   4.078   3.540   7.583 -0.6539 -0.9319 -0.4279
17926THY    HM231741   4.036   3.387   7.647  0.5451  0.8770  0.0831
17926THY    HM331742   4.055   3.511   7.759  0.1570 -0.2617 -1.0944
17926THY    CA631743   3.820   3.539   7.501  1.1763 -0.1367  0.0724
17926THY    HA631744   3.892   3.513   7.424 -0.6854 -1.1867 -2.2748
17927THY      O31745   7.106   7.186   4.409  0.4518 -0.0587 -0.3458
17927THY     HO31746   7.121   7.280   4.429 -3.2164 -0.7421  0.5251
17927THY    CA131747   7.223   7.132   4.362  0.3654  0.4414  0.1523
17927THY    CA231748   7.228   7.007   4.302  0.2076  0.2237 -0.3409
17927THY    CP131749   7.103   6.914   4.296  0.1799 -0.2641  0.9302
17927THY    HP131750   7.020   6.985   4.304 -0.0238 -0.0187  0.6664
17927THY    CP231751   7.104   6.798   4.403 -0.7424 -0.3591 -0.7041
17927THY    HP231752   7.185   6.726   4.385 -2.3759 -0.8513 -2.4914
17927THY    HP331753   7.014   6.735   4.405 -1.1979 -0.4594 -0.0617
17927THY    HP431754   7.124   6.838   4.503 -0.9875 -0.3431 -0.6222
17927THY    CP331755   7.086   6.856   4.152 -0.2928  0.0448 -0.1606
17927THY    HP531756   7.162   6.781   4.127  0.2788  0.2906  0.3257
17927THY    HP631757   7.088   6.936   4.076 -0.3577  0.3124  0.0992
17927THY    HP731758   6.985   6.817   4.135 -1.0729  2.2049  0.7836
17927THY    CA331759   7.349   6.954   4.260 -0.3437  0.4049 -0.6868
17927THY    HA331760   7.356   6.855   4.216 -0.3128 -1.2715  0.0314
17927THY    CA431761   7.466   7.039   4.262 -0.5407  0.7151  0.0577
17927THY    HA431762   7.557   7.007   4.213  0.3152  1.5330  1.1478
17927THY    CA531763   7.460   7.166   4.319  0.2795 -0.1505  0.2850
17927THY    CM131764   7.585   7.248   4.354 -0.4083  0.6190  0.1257
17927THY    HM131765   7.673   7.203   4.306 -0.4567  0.7148 -0.0692
17927THY    HM231766   7.605   7.237   4.461 -0.6290  0.5603 -1.0127
17927THY    HM331767   7.575   7.354   4.329  1.3877  0.5815  0.3175
17927THY    CA631768   7.340   7.207   4.377 -0.7667  0.3076  0.5287
17927THY    HA631769   7.341   7.294   4.442 -0.5150  0.8076  0.1529
17928THY      O31770   4.398   5.084   7.630  0.1046 -0.7855 -0.0447
17928THY     HO31771   4.353   5.158   7.673  0.7280  2.2583 -1.2836
17928THY    CA131772   4.321   5.035   7.530  0.0188 -0.2711  0.5792
17928THY    CA231773   4.361   4.925   7.455  0.2959  0.1488 -0.4541
17928THY    CP131774   4.490   4.860   7.494 -0.2422  0.5517 -0.5109
17928THY    HP131775   4.556   4.923   7.556  0.0630 -1.1807  0.9545
17928THY    CP231776   4.588   4.845   7.375 -0.6072 -0.2605  0.4769
17928THY    HP231777   4.602   4.933   7.311  0.4354  3.0950  2.9724
17928THY    HP331778   4.547   4.768   7.309  0.1823  0.5020 -0.6365
17928THY    HP431779   4.686   4.805   7.404  0.8146 -3.0192  1.6951
17928THY    CP331780   4.470   4.721   7.554 -0.4516  0.0828 -0.3125
17928THY    HP531781   4.426   4.647   7.487  1.3512 -2.5716  0.8779
17928THY    HP631782   4.409   4.742   7.643 -0.6046  0.3493 -1.7575
17928THY    HP731783   4.559   4.672   7.595 -2.3539  3.4909 -1.2815
17928THY    CA331784   4.275   4.871   7.356  0.1903  0.4242 -0.8999
17928THY    HA331785   4.317   4.802   7.283 -0.9474 -1.1492  0.0135
17928THY    CA431786   4.149   4.929   7.337 -0.1175  0.2001 -0.0189
17928THY    HA431787   4.086   4.901   7.253  1.1227 -1.1978  1.1656
17928THY    CA531788   4.111   5.034   7.421  0.4395 -0.0378 -0.0056
17928THY    CM131789   3.974   5.080   7.413  0.3729  0.1900 -0.3652
17928THY    HM131790   3.905   4.996   7.429  0.9058  1.0027 -0.6663
17928THY    HM231791   3.954   5.128   7.316  1.1067  1.1920  2.1120
17928THY    HM331792   3.966   5.159   7.488  3.3294 -0.0042  0.2243
17928THY    CA631793   4.199   5.093   7.516  0.3990 -0.6259 -0.0887
17928THY    HA631794   4.173   5.173   7.584  3.3453  0.3000  0.1998
17929THY      O31795   4.400   6.454   4.992 -0.4020  0.0688  0.3910
17929THY     HO31796   4.377   6.360   5.000 -0.3810  2.4510  0.5265
17929THY    CA131797   4.336   6.501   4.889 -0.3706  0.1978  0.5267
17929THY    CA231798   4.337   6.640   4.857 -0.7333 -0.2514  0.1049
17929THY    CP131799   4.413   6.741   4.940  0.5251 -0.0213 -1.0322
17929THY    HP131800   4.476   6.678   5.005  1.6456 -1.1794 -1.1646
17929THY    CP231801   4.327   6.835   5.018 -0.0903  0.0191 -0.4866
17929THY    HP231802   4.277   6.912   4.957 -1.5882  0.1778 -1.2813
17929THY    HP331803   4.396   6.889   5.083 -1.2340 -0.7211  2.0418
17929THY    HP431804   4.255   6.776   5.076  1.4189  0.8799 -1.5357
17929THY    CP331805   4.501   6.828   4.852  0.2507 -0.5196 -0.5611
17929THY    HP531806   4.538   6.906   4.919  0.4106 -1.9663  0.6491
17929THY    HP631807   4.445   6.876   4.771 -3.1239  1.3811 -0.9737
17929THY    HP731808   4.582   6.762   4.817  1.0791  1.0144 -0.3882
17929THY    CA331809   4.245   6.679   4.755  0.0017  0.1236 -0.0282
17929THY    HA331810   4.227   6.785   4.744  1.6309 -3.1721  0.0184
17929THY    CA431811   4.181   6.585   4.677 -0.4470  0.2891 -0.0036
17929THY    HA431812   4.116   6.612   4.594 -1.2604  0.3261 -1.7020
17929THY    CA531813   4.180   6.449   4.712 -0.2129 -0.0004  0.5480
17929THY    CM131814   4.090   6.356   4.641 -0.1788  0.3032  0.3233
17929THY    HM131815   4.023   6.410   4.573  0.5436 -1.3905 -0.8077
17929THY    HM231816   4.023   6.300   4.707 -1.5293 -1.6632 -0.5178
17929THY    HM331817   4.141   6.283   4.576 -0.3991 -0.3707  0.7571
17929THY    CA631818   4.267   6.410   4.816  0.1023 -0.2148  0.1952
17929THY    HA631819   4.261   6.302   4.831  2.1288  0.4711  0.1358
17930THY      O31820   4.065   2.141   2.687 -0.9445 -0.5560  0.3815
17930THY     HO31821   4.073   2.182   2.599  0.8513 -0.9854 -0.7586
17930THY    CA131822   3.938   2.094   2.682  0.3733 -0.2106  0.4309
17930THY    CA231823   3.861   2.052   2.794  0.3899 -0.7131 -0.4196
17930THY    CP131824   3.921   2.056   2.937  0.1201  0.0895  0.0392
17930THY    HP131825   4.018   2.101   2.911 -0.6751 -1.9947  0.6569
17930THY    CP231826   3.925   1.922   3.013 -0.0299  0.1941  0.2323
17930THY    HP231827   4.003   1.858   2.971 -0.9751  1.1924 -1.6678
17930THY    HP331828   3.833   1.866   2.996 -1.9501  1.5372  2.7646
17930THY    HP431829   3.935   1.932   3.122  0.9317  0.5411 -3.3563
17930THY    CP331830   3.850   2.159   3.028 -0.2497  0.3180 -0.2118
17930THY    HP531831   3.744   2.132   3.033 -1.0178 -1.0314  2.2728
17930THY    HP631832   3.885   2.255   2.988  1.3813 -1.4328 -1.4785
17930THY    HP731833   3.902   2.149   3.124  0.7359 -0.1210  0.4625
17930THY    CA331834   3.732   2.006   2.771 -0.4166 -0.1418 -0.2525
17930THY    HA331835   3.674   1.977   2.859 -0.9053 -1.7297 -5.0244
17930THY    CA431836   3.672   2.013   2.642  0.5464 -1.5685 -0.0865
17930THY    HA431837   3.569   1.981   2.624  0.4200  1.6842 -1.8956
17930THY    CA531838   3.750   2.056   2.534 -0.5463 -0.0749  0.1626
17930THY    CM131839   3.686   2.066   2.399  0.0765  0.3332 -1.0171
17930THY    HM131840   3.774   2.056   2.335 -0.2615 -0.5160  0.9015
17930THY    HM231841   3.645   2.167   2.381 -0.4967  0.6926 -1.1796
17930THY    HM331842   3.613   1.987   2.383 -0.5103  1.8963 -0.8367
17930THY    CA631843   3.884   2.091   2.552  0.5475 -0.9315 -0.6596
17930THY    HA631844   3.939   2.125   2.464 -0.5114 -1.6506 -0.7666
17931THY      O31845   3.975   1.899   3.865  0.3662  0.5073 -0.3123
17931THY     HO31846   3.894   1.848   3.879  1.3190  1.7868 -1.5927
17931THY    CA131847   3.963   2.019   3.923 -0.2413  0.6578 -1.1098
17931THY    CA231848   4.059   2.123   3.897  0.7407 -0.2189 -0.3126
17931THY    CP131849   4.181   2.093   3.804  0.1357 -0.4519 -0.3738
17931THY    HP131850   4.154   2.005   3.746  0.4889 -0.0297 -0.7700
17931THY    CP231851   4.311   2.061   3.865  0.3874 -0.3696 -0.5444
17931THY    HP231852   4.295   1.987   3.944 -0.1789 -1.8688 -2.0677
17931THY    HP331853   4.363   2.149   3.906  0.2508 -2.3894  0.5414
17931THY    HP431854   4.392   2.016   3.807  2.5321  2.3370 -0.4423
17931THY    CP331855   4.206   2.212   3.714 -0.5369 -0.8564 -0.7842
17931THY    HP531856   4.209   2.314   3.753 -1.6723 -0.9937 -0.6929
17931THY    HP631857   4.119   2.201   3.648 -0.4172 -1.0765 -0.4208
17931THY    HP731858   4.299   2.197   3.657  1.1012  1.6482 -0.7886
17931THY    CA331859   4.046   2.242   3.967  0.2212  0.1978  0.0032
17931THY    HA331860   4.121   2.319   3.958  0.1635  0.2962  0.0704
17931THY    CA431861   3.937   2.260   4.050  0.4292  0.4329  0.0420
17931THY    HA431862   3.921   2.352   4.106  1.2102  0.2610  0.2846
17931THY    CA531863   3.830   2.165   4.058 -0.9204 -0.2084  0.2173
17931THY    CM131864   3.714   2.173   4.151  0.6101 -0.0449  0.7964
17931THY    HM131865   3.673   2.073   4.170  0.2823  1.8377  1.2428
17931THY    HM231866   3.630   2.229   4.107 -1.1781  0.1798 -1.5382
17931THY    HM331867   3.730   2.228   4.245  0.4117  0.0595  0.6768
17931THY    CA631868   3.844   2.048   3.984  0.0581  0.6255 -0.1161
17931THY    HA631869   3.765   1.974   3.973 -1.1110  1.7735  0.9194
17932THY      O31870   0.082   1.830   7.624  0.5373  0.0431  0.1140
17932THY     HO31871   0.078   1.927   7.628 -0.0237  2.1416  0.0543
17932THY    CA131872   0.157   1.808   7.519 -0.2489 -0.3539  0.7150
17932THY    CA231873   0.252   1.704   7.525 -0.0726 -0.7586 -0.9511
17932THY    CP131874   0.263   1.610   7.648 -0.1466  0.7068 -0.5086
17932THY    HP131875   0.175   1.626   7.712 -0.5966 -0.5387  2.5249
17932THY    CP231876   0.385   1.635   7.743 -0.1862  0.7504 -0.0526
17932THY    HP231877   0.478   1.640   7.685 -1.5797 -1.5258  0.8495
17932THY    HP331878   0.390   1.548   7.810 -2.2024  0.2569 -0.5857
17932THY    HP431879   0.379   1.730   7.799 -1.4749 -2.1661  1.7084
17932THY    CP331880   0.268   1.462   7.601 -0.4873  0.1107  0.2317
17932THY    HP531881   0.366   1.430   7.565 -1.8310 -1.6826 -2.1560
17932THY    HP631882   0.198   1.439   7.520 -1.1272  0.8917 -0.6547
17932THY    HP731883   0.244   1.403   7.691 -0.1605 -1.0758 -1.7877
17932THY    CA331884   0.346   1.679   7.419  1.0803  0.1922 -0.7204
17932THY    HA331885   0.430   1.610   7.428  1.2477 -1.6572 -0.8053
17932THY    CA431886   0.319   1.749   7.297 -0.3130 -0.0024  0.1653
17932THY    HA431887   0.371   1.725   7.205 -1.2758 -1.1577  2.2617
17932THY    CA531888   0.213   1.846   7.292 -0.2115 -0.0844  0.6394
17932THY    CM131889   0.178   1.930   7.168  0.4764  1.0269  0.4356
17932THY    HM131890   0.075   1.899   7.147  0.1575  0.8051  1.5731
17932THY    HM231891   0.241   1.907   7.081 -1.0175 -0.2154  0.8990
17932THY    HM331892   0.196   2.038   7.176 -1.3895 -2.0506  1.0873
17932THY    CA631893   0.143   1.887   7.411  0.1776  0.3409 -0.5977
17932THY    HA631894   0.073   1.970   7.417 -0.2452 -2.6166 -0.6355
17933THY      O31895   3.399   0.969   7.113  0.1276 -0.0617  0.5055
17933THY     HO31896   3.404   0.908   7.188  0.3900 -0.7175 -0.3025
17933THY    CA131897   3.301   1.053   7.139  0.4823  0.3368 -0.5891
17933THY    CA231898   3.266   1.159   7.048  0.0200  0.5149 -0.1517
17933THY    CP131899   3.344   1.179   6.917 -0.1821  0.4726 -0.3549
17933THY    HP131900   3.397   1.092   6.877  0.8787 -2.3076  1.4452
17933THY    CP231901   3.447   1.283   6.941 -0.1064 -0.0475  0.3016
17933THY    HP231902   3.519   1.277   6.858 -0.7707 -0.7217  1.3931
17933THY    HP331903   3.508   1.271   7.032  0.9965 -0.9045 -0.8888
17933THY    HP431904   3.411   1.386   6.950  2.3932  0.1285  1.2295
17933THY    CP331905   3.266   1.222   6.795  0.0780 -0.7870  0.5488
17933THY    HP531906   3.238   1.328   6.803  3.6772 -1.2957  1.6455
17933THY    HP631907   3.177   1.158   6.786  1.1047 -2.6992 -0.7066
17933THY    HP731908   3.323   1.205   6.704 -1.5689 -1.5216 -1.4399
17933THY    CA331909   3.170   1.258   7.088 -0.5937 -0.4869  0.2502
17933THY    HA331910   3.128   1.339   7.029 -1.4767  3.4822  3.0150
17933THY    CA431911   3.110   1.232   7.210  0.2515  0.5840 -0.0956
17933THY    HA431912   3.033   1.302   7.242 -1.1980  0.2971 -1.5004
17933THY    CA531913   3.143   1.132   7.297  0.0397  0.1885  0.0228
17933THY    CM131914   3.071   1.131   7.433 -0.0867 -0.5585 -0.1842
17933THY    HM131915   3.110   1.051   7.497 -0.1767  1.5444  1.3359
17933THY    HM231916   2.961   1.121   7.434 -0.0487  2.1396 -1.3658
17933THY    HM331917   3.088   1.225   7.488 -2.4261  1.6353 -0.8925
17933THY    CA631918   3.241   1.039   7.258 -0.4588 -0.7002 -0.5422
17933THY    HA631919   3.255   0.948   7.316  1.1175 -0.4909 -0.1929
17934THY      O31920   6.935   2.376   7.254  0.6481  0.1818  0.1403
17934THY     HO31921   7.027   2.403   7.235  1.2011  1.7878 -0.4665
17934THY    CA131922   6.938   2.387   7.384  0.2417 -0.2731  0.0781
17934THY    CA231923   6.824   2.418   7.457  0.2657 -0.3314  0.2040
17934THY    CP131924   6.687   2.422   7.392  0.1481 -0.2649 -0.2518
17934THY    HP131925   6.686   2.392   7.286 -2.7992  0.1654 -2.1279
17934THY    CP231926   6.624   2.559   7.395 -0.3369 -0.2167  0.9034
17934THY    HP231927   6.695   2.637   7.365  0.4815 -2.3422 -0.5487
17934THY    HP331928   6.587   2.576   7.497 -1.0718 -0.7622  2.9029
17934THY    HP431929   6.542   2.555   7.323  0.9158 -1.8074  2.2947
17934THY    CP331930   6.595   2.300   7.440  0.3218  0.4488 -0.3328
17934THY    HP531931   6.596   2.306   7.549  0.8877  0.4094  0.4593
17934THY    HP631932   6.644   2.211   7.398 -1.4120 -1.0173 -0.6524
17934THY    HP731933   6.499   2.314   7.389  1.2133 -1.8151 -1.9503
17934THY    CA331934   6.836   2.440   7.600  0.0261  0.0699 -0.1327
17934THY    HA331935   6.749   2.452   7.663 -1.3702 -1.9822  1.2605
17934THY    CA431936   6.960   2.442   7.655 -1.0130 -0.4877  0.2535
17934THY    HA431937   6.969   2.463   7.761  1.1815 -0.2538 -1.4982
17934THY    CA531938   7.075   2.416   7.576  0.3598 -0.2189 -0.4296
17934THY    CM131939   7.204   2.428   7.632 -0.1669  0.0722 -0.5063
17934THY    HM131940   7.212   2.411   7.740 -0.4476  0.7821  3.1097
17934THY    HM231941   7.246   2.528   7.614 -1.4471 -1.6659 -0.2404
17934THY    HM331942   7.272   2.359   7.581 -0.9191  0.3770 -1.5070
17934THY    CA631943   7.062   2.388   7.443  0.2700 -0.3274 -0.1696
17934THY    HA631944   7.153   2.371   7.387  1.2176  1.7193 -2.4487
17935THY      O31945   0.810   7.444   7.725 -0.0240  0.0435 -0.0159
17935THY     HO31946   0.762   7.482   7.649  1.4104  0.7294  3.5994
17935THY    CA131947   0.935   7.452   7.678  0.0411 -0.2053  1.0906
17935THY    CA231948   1.037   7.402   7.754 -0.1290 -0.6762 -0.5461
17935THY    CP131949   1.008   7.340   7.896 -0.4443 -0.5063 -0.2569
17935THY    HP131950   0.907   7.297   7.891  0.0504  1.3376 -1.7493
17935THY    CP231951   1.017   7.457   8.003 -0.2600  0.7232 -0.3707
17935THY    HP231952   1.115   7.506   8.002 -1.1906 -3.9080  1.9010
17935THY    HP331953   0.988   7.411   8.099 -3.7698 -0.2869 -0.5690
17935THY    HP431954   0.952   7.543   7.987  1.3008  2.0182  1.1135
17935THY    CP331955   1.107   7.233   7.931 -1.0883  0.0814  0.4786
17935THY    HP531956   1.207   7.275   7.949 -0.6239 -1.4692  0.1231
17935THY    HP631957   1.117   7.147   7.863 -0.7625  0.3662  0.2879
17935THY    HP731958   1.067   7.182   8.019  1.7813  2.0429  1.3542
17935THY    CA331959   1.170   7.409   7.708  0.6928  0.1756  0.0740
17935THY    HA331960   1.256   7.369   7.762 -0.5234  1.6320 -0.6590
17935THY    CA431961   1.190   7.475   7.585 -0.3714  0.8847  0.6032
17935THY    HA431962   1.286   7.466   7.534  0.2087  2.1827 -1.0413
17935THY    CA531963   1.080   7.526   7.511 -1.0730  0.3960  0.3636
17935THY    CM131964   1.104   7.574   7.373 -0.3931  0.5559  0.3026
17935THY    HM131965   1.043   7.514   7.305 -0.1084 -1.4578  2.1989
17935THY    HM231966   1.207   7.557   7.341 -0.7996 -1.2737  1.0837
17935THY    HM331967   1.096   7.682   7.362  2.5404  0.6873  0.6108
17935THY    CA631968   0.953   7.520   7.557  0.0184 -0.1407  0.4485
17935THY    HA631969   0.867   7.552   7.500  0.1219 -1.5093 -1.5138
17936THY      O31970   6.077   7.188   3.343  0.3901  0.2016 -0.0013
17936THY     HO31971   6.122   7.102   3.332  0.1258  0.3264 -0.1578
17936THY    CA131972   5.984   7.198   3.243  1.0203  0.0362  0.0354
17936THY    CA231973   5.869   7.277   3.255  0.8163  0.1545 -0.8539
17936THY    CP131974   5.832   7.350   3.386 -0.0310 -0.4181  0.3975
17936THY    HP131975   5.905   7.321   3.463 -1.4300  1.3329  1.2538
17936THY    CP231976   5.691   7.319   3.436  0.6783  0.2175 -0.0805
17936THY    HP231977   5.680   7.210   3.439 -1.7578  1.5852  0.1453
17936THY    HP331978   5.611   7.370   3.381  2.3126 -0.8263  1.4699
17936THY    HP431979   5.686   7.355   3.539 -2.2500  0.5744 -1.2481
17936THY    CP331980   5.847   7.502   3.369 -0.0009  0.6950 -0.5729
17936THY    HP531981   5.756   7.562   3.356  0.7875  1.3806  0.8375
17936THY    HP631982   5.928   7.527   3.299  0.4033  1.4615  0.3076
17936THY    HP731983   5.883   7.527   3.469  1.5747 -0.2803  1.3817
17936THY    CA331984   5.769   7.270   3.150 -1.0309 -0.3560 -0.3430
17936THY    HA331985   5.665   7.301   3.160 -1.2478 -0.4598 -1.0021
17936THY    CA431986   5.788   7.185   3.038  0.0189 -0.1791 -1.0717
17936THY    HA431987   5.704   7.176   2.970  0.4789 -0.6846 -1.6497
17936THY    CA531988   5.908   7.113   3.021  0.2098 -0.2553 -0.3571
17936THY    CM131989   5.932   7.042   2.898  0.7192  0.7596 -0.3880
17936THY    HM131990   5.982   7.101   2.820 -0.5101 -0.5527 -1.0178
17936THY    HM231991   5.837   7.009   2.855 -0.2222  2.6062 -0.2111
17936THY    HM331992   5.990   6.950   2.909 -1.1768 -0.9722 -1.8923
17936THY    CA631993   6.004   7.115   3.126 -0.9171  0.5549 -0.0519
17936THY    HA631994   6.096   7.058   3.120 -0.1759  2.3820  0.8452
17937THY      O31995   2.001   3.085   2.969 -0.1012 -0.6242  0.1439
17937THY     HO31996   1.988   3.007   3.025  1.1102 -0.0827  0.3013
17937THY    CA131997   1.925   3.180   3.033  0.0891 -0.0505  0.0186
17937THY    CA231998   1.912   3.310   2.981  0.7722  0.4295  0.2774
17937THY    CP131999   1.969   3.350   2.840 -0.3796 -0.2945 -0.0923
17937THY    HP132000   1.986   3.256   2.785  0.8925 -2.7932  1.4932
17937THY    CP232001   2.101   3.421   2.841  0.3995 -0.0653 -0.2836
17937THY    HP232002   2.144   3.412   2.741  1.0872  0.1665  0.3248
17937THY    HP332003   2.186   3.385   2.901  2.3685 -1.3236  1.9543
17937THY    HP432004   2.095   3.529   2.862  1.3384 -0.9624 -0.0427
17937THY    CP332005   1.874   3.434   2.745 -0.4525 -0.3732  0.2898
17937THY    HP532006   1.769   3.404   2.744 -0.6780 -1.3139  1.0718
17937THY    HP632007   1.919   3.438   2.646  0.3916  0.0085  0.4677
17937THY    HP732008   1.865   3.537   2.782 -0.5911 -1.0003  0.5045
17937THY    CA332009   1.830   3.402   3.048 -0.3090  0.2016  0.0874
17937THY    HA332010   1.814   3.504   3.014 -0.8594 -1.9167 -0.6578
17937THY    CA432011   1.759   3.357   3.163  0.2445  1.1324 -0.2981
17937THY    HA432012   1.693   3.424   3.218 -0.6571  1.1719 -1.1853
17937THY    CA532013   1.770   3.228   3.215 -0.1521 -0.0817  0.2260
17937THY    CM132014   1.709   3.200   3.346  0.3663 -0.1597  0.1023
17937THY    HM132015   1.725   3.093   3.366  0.9720 -0.0569  0.2067
17937THY    HM232016   1.603   3.222   3.363  0.7873  3.2739  0.1094
17937THY    HM332017   1.774   3.251   3.419  0.4180 -0.5342  0.5767
17937THY    CA632018   1.847   3.138   3.146 -0.5974  0.5998 -0.2401
17937THY    HA632019   1.853   3.033   3.176  1.8455 -0.1991 -0.3859
17938THY      O32020   2.764   4.408   4.942  0.8711 -0.0649 -0.7311
17938THY     HO32021   2.752   4.349   4.866  1.4132 -1.4125  0.8470
17938THY    CA132022   2.825   4.516   4.890 -0.7379  0.5191 -0.2477
17938THY    CA232023   2.895   4.612   4.964  0.1079  0.4682  0.3185
17938THY    CP132024   2.913   4.598   5.115  0.2090  0.1819  0.8741
17938THY    HP132025   2.825   4.543   5.151 -1.2785 -1.0145  2.3557
17938THY    CP232026   2.920   4.730   5.200  0.3959 -0.7191  0.0165
17938THY    HP232027   2.899   4.712   5.306  1.2213 -0.4862  0.3413
17938THY    HP332028   2.843   4.798   5.162  1.0031 -1.1375  0.4882
17938THY    HP432029   3.018   4.777   5.215 -0.2018 -0.6146  1.2619
17938THY    CP332030   3.033   4.509   5.135  0.1172  0.7598  0.4405
17938THY    HP532031   3.130   4.556   5.111  0.4502  0.3798 -0.4132
17938THY    HP632032   3.030   4.415   5.080 -0.9843  1.9259 -0.2247
17938THY    HP732033   3.052   4.478   5.238 -0.1380  0.9109  0.7737
17938THY    CA332034   2.963   4.719   4.898 -0.8924  0.4111 -0.0157
17938THY    HA332035   3.020   4.790   4.957  0.7907 -1.7743  0.5747
17938THY    CA432036   2.957   4.736   4.757  0.4323  0.1032  0.1471
17938THY    HA432037   3.006   4.821   4.710  1.7405  1.2657  0.0602
17938THY    CA532038   2.891   4.639   4.684  0.1716  0.6994 -0.2311
17938THY    CM132039   2.888   4.648   4.532 -0.1584 -0.4260 -0.1679
17938THY    HM132040   2.986   4.622   4.489 -0.8830 -0.9610 -2.2641
17938THY    HM232041   2.856   4.752   4.519 -0.2577 -0.2947 -0.1818
17938THY    HM332042   2.813   4.578   4.495 -0.2453  1.1165 -0.9241
17938THY    CA632043   2.819   4.531   4.745  0.6195  0.1696  0.1738
17938THY    HA632044   2.753   4.474   4.679  2.0942 -0.2894 -1.0658
17939THY      O32045   6.520   3.833   4.415 -0.0583  0.1469 -0.1088
17939THY     HO32046   6.477   3.891   4.350  3.3388 -1.7323  0.5611
17939THY    CA132047   6.577   3.913   4.514  0.4147  0.3992 -0.0509
17939THY    CA232048   6.675   3.865   4.601 -0.2754 -0.3733  0.1065
17939THY    CP132049   6.722   3.725   4.595  0.2389 -0.3186  0.3294
17939THY    HP132050   6.708   3.685   4.493  2.4380  0.2035 -1.9854
17939THY    CP232051   6.652   3.641   4.710 -0.6203  0.0058  0.6686
17939THY    HP232052   6.721   3.615   4.792  1.0875 -1.7444 -0.6374
17939THY    HP332053   6.607   3.552   4.666 -1.0419 -0.3735  1.0680
17939THY    HP432054   6.563   3.688   4.752 -0.3448  0.7684  0.5230
17939THY    CP332055   6.878   3.704   4.613  0.3478  0.3445  0.5647
17939THY    HP532056   6.916   3.749   4.706 -0.7147  0.5231  1.1081
17939THY    HP632057   6.929   3.747   4.527  0.5322  0.5840  0.8325
17939THY    HP732058   6.903   3.598   4.629 -1.5218 -2.6377 -0.4394
17939THY    CA332059   6.722   3.955   4.700 -0.2374  0.1896  0.0063
17939THY    HA332060   6.797   3.925   4.772  0.3261 -0.8303 -1.1839
17939THY    CA432061   6.690   4.092   4.695  1.0043 -0.3167  0.3479
17939THY    HA432062   6.734   4.163   4.765 -0.4609  0.4717  0.5174
17939THY    CA532063   6.597   4.139   4.601 -0.1669  0.7059  0.8334
17939THY    CM132064   6.543   4.280   4.584 -0.2136  0.6919 -0.0536
17939THY    HM132065   6.443   4.263   4.542  0.3571 -0.3354 -1.0215
17939THY    HM232066   6.599   4.329   4.504 -1.4462 -0.5330 -0.5638
17939THY    HM332067   6.536   4.345   4.672  1.2304  0.5629  0.2961
17939THY    CA632068   6.547   4.052   4.505  0.8145 -0.2169 -0.0559
17939THY    HA632069   6.477   4.091   4.432  0.9435 -0.2890  0.0407
17940THY      O32070   7.390   1.219   6.250  0.7623 -0.2640  0.1013
17940THY     HO32071   7.315   1.175   6.294 -0.0065 -0.2972  1.3279
17940THY    CA132072   7.345   1.342   6.225 -0.1771  0.1846  0.3456
17940THY    CA232073   7.410   1.420   6.129  0.3193 -0.6946 -0.1717
17940THY    CP132074   7.521   1.361   6.040 -0.1890 -0.8547 -0.4716
17940THY    HP132075   7.561   1.266   6.077  0.9895  1.0816  0.7265
17940THY    CP232076   7.643   1.451   6.035  0.3792  0.0156 -0.0256
17940THY    HP232077   7.727   1.397   5.992 -0.8888  0.5348 -2.5486
17940THY    HP332078   7.669   1.494   6.133 -0.3871  0.7403 -1.1689
17940THY    HP432079   7.630   1.539   5.970  2.3509 -0.6985 -0.2261
17940THY    CP332080   7.456   1.344   5.899  0.4745  0.1862 -0.5675
17940THY    HP532081   7.366   1.282   5.894 -1.2804 -2.4607  1.9279
17940THY    HP632082   7.531   1.305   5.828 -0.5001  0.2321 -2.6798
17940THY    HP732083   7.421   1.441   5.862 -0.2709  0.4116 -0.7507
17940THY    CA332084   7.364   1.554   6.103  0.7206  0.1138  0.2541
17940THY    HA332085   7.401   1.621   6.027  2.2405 -0.7956 -1.5254
17940THY    CA432086   7.258   1.599   6.178 -0.0617 -0.1729 -0.6913
17940THY    HA432087   7.231   1.704   6.168  2.7460 -1.3863  0.0057
17940THY    CA532088   7.195   1.518   6.276 -0.0552  0.7258 -0.7877
17940THY    CM132089   7.090   1.576   6.367 -0.0013 -1.2868  0.1197
17940THY    HM132090   7.081   1.682   6.341  1.4840  2.7799  1.4478
17940THY    HM232091   7.120   1.564   6.472 -0.7928 -1.1183 -0.4728
17940THY    HM332092   6.993   1.527   6.354 -1.0003 -0.7058  1.8692
17940THY    CA632093   7.233   1.385   6.296 -0.0637  0.9148 -0.8288
17940THY    HA632094   7.197   1.329   6.381  0.4483  1.4720 -0.3346
17941THY      O32095   5.686   6.707   5.023 -0.4077 -0.3440  0.1630
17941THY     HO32096   5.734   6.759   4.957 -0.2669 -0.4039 -0.0428
17941THY    CA132097   5.631   6.799   5.106  0.7619 -0.5998 -0.5459
17941THY    CA232098   5.543   6.762   5.211 -0.7804 -0.1175  0.1606
17941THY    CP132099   5.514   6.616   5.236 -0.6383  1.0048 -0.0935
17941THY    HP132100   5.535   6.563   5.141 -1.5032  1.2311 -0.8766
17941THY    CP232101   5.362   6.588   5.241 -0.0153  0.3858  0.1567
17941THY    HP232102   5.343   6.506   5.311  2.3853  0.3390 -0.5049
17941THY    HP332103   5.325   6.565   5.141  1.8025 -0.9269  2.4981
17941THY    HP432104   5.303   6.671   5.282  0.0179 -0.5633  0.6604
17941THY    CP332105   5.585   6.567   5.365  0.3610 -0.4364  0.4084
17941THY    HP532106   5.561   6.461   5.381 -0.8212  3.5186  1.0990
17941THY    HP632107   5.540   6.619   5.450 -0.1722 -0.3646 -0.1621
17941THY    HP732108   5.694   6.567   5.355  0.2818 -2.7744 -2.7746
17941THY    CA332109   5.484   6.857   5.292  0.5497  0.3111 -0.1966
17941THY    HA332110   5.411   6.833   5.368 -3.5200 -2.8743  1.0583
17941THY    CA432111   5.518   6.992   5.271 -0.0535  0.2844 -0.3127
17941THY    HA432112   5.473   7.073   5.328  1.2400 -2.0061  2.1943
17941THY    CA532113   5.615   7.026   5.178  0.1819 -0.0231 -0.0936
17941THY    CM132114   5.654   7.166   5.155  0.5479 -0.2771 -0.2147
17941THY    HM132115   5.622   7.193   5.054 -0.8296 -0.4927 -2.3770
17941THY    HM232116   5.763   7.171   5.163  0.5215  0.5656 -0.7129
17941THY    HM332117   5.606   7.233   5.227 -2.1991  1.1376 -3.3815
17941THY    CA632118   5.669   6.930   5.093  0.6172 -0.1010  0.1642
17941THY    HA632119   5.744   6.963   5.022 -0.1565 -0.3174  1.5630
17942THY      O32120   0.565   3.200   3.152 -0.3491 -0.4384 -0.2438
17942THY     HO32121   0.609   3.263   3.093 -2.7866 -0.7257  1.2979
17942THY    CA132122   0.663   3.166   3.248 -0.3379  0.3299 -0.1035
17942THY    CA232123   0.634   3.113   3.375 -0.2462 -0.3476 -0.4606
17942THY    CP132124   0.488   3.086   3.419 -1.0126 -0.2387  0.6826
17942THY    HP132125   0.447   3.032   3.332 -0.9892 -0.8533  1.6298
17942THY    CP232126   0.403   3.209   3.448 -0.1482  0.0740  0.2441
17942THY    HP232127   0.308   3.189   3.498  0.3594  0.7318 -0.6037
17942THY    HP332128   0.382   3.260   3.353 -1.8202  0.7272  0.8408
17942THY    HP432129   0.455   3.288   3.505 -1.1588  0.7803  0.4127
17942THY    CP332130   0.485   2.991   3.535 -0.7590 -0.8455  0.0473
17942THY    HP532131   0.384   2.956   3.558 -0.6104 -1.4782 -0.8232
17942THY    HP632132   0.527   3.041   3.624  0.5220 -0.6813 -1.2431
17942THY    HP732133   0.549   2.902   3.541 -1.1791  1.9089 -0.1623
17942THY    CA332134   0.746   3.077   3.461  0.1304  0.7930 -0.0292
17942THY    HA332135   0.727   3.037   3.560  3.3783  2.5717  2.3333
17942THY    CA432136   0.873   3.104   3.422  0.2507 -0.0303  1.0410
17942THY    HA432137   0.955   3.077   3.488  0.3804 -0.1834  1.0548
17942THY    CA532138   0.892   3.169   3.299  0.0493  0.6273  0.2160
17942THY    CM132139   1.032   3.196   3.269 -0.2900  0.4399  0.2677
17942THY    HM132140   1.099   3.113   3.297  2.0663 -3.1375  0.7515
17942THY    HM232141   1.081   3.287   3.304 -1.0314  1.2402  0.3765
17942THY    HM332142   1.041   3.198   3.160 -3.6852  0.0227 -0.5990
17942THY    CA632143   0.791   3.194   3.212 -0.0030 -0.2844  0.5506
17942THY    HA632144   0.805   3.244   3.116 -1.2006  0.5960  2.7003
17943THY      O32145   5.496   1.014   4.204 -0.0303 -0.2666 -0.0631
17943THY     HO32146   5.478   0.918   4.199 -0.3293  0.6233 -0.0591
17943THY    CA132147   5.375   1.072   4.188 -0.7489  0.1028  0.3653
17943THY    CA232148   5.346   1.201   4.249 -0.3273  0.3747 -0.5410
17943THY    CP132149   5.455   1.274   4.326  0.0230 -0.0951 -0.4062
17943THY    HP132150   5.526   1.198   4.362 -1.9542  0.9267 -1.8550
17943THY    CP232151   5.402   1.345   4.461  0.0517 -0.0393 -0.1448
17943THY    HP232152   5.374   1.268   4.534 -1.6193  1.0219  1.3846
17943THY    HP332153   5.313   1.406   4.441  0.0162  0.2100 -0.1139
17943THY    HP432154   5.485   1.398   4.511 -1.1563  0.5233  1.2906
17943THY    CP332155   5.529   1.381   4.241  0.5752  0.6649  0.1705
17943THY    HP532156   5.592   1.447   4.303 -1.7877  0.8394  2.4580
17943THY    HP632157   5.453   1.448   4.201  1.5599  1.0582  1.5828
17943THY    HP732158   5.582   1.342   4.154  0.1340  0.8985 -0.9580
17943THY    CA332159   5.220   1.261   4.220 -0.7238  0.3332 -0.0750
17943THY    HA332160   5.188   1.358   4.254 -1.5737 -1.2616  0.2411
17943THY    CA432161   5.120   1.194   4.145  0.4517  0.1807 -0.0763
17943THY    HA432162   5.025   1.243   4.127  0.1520  1.5997 -0.0648
17943THY    CA532163   5.151   1.069   4.096 -0.6883  0.5060  0.0384
17943THY    CM132164   5.047   0.997   4.021 -0.1024  0.1280 -0.0102
17943THY    HM132165   4.958   0.973   4.081 -0.6790  0.1798  2.0742
17943THY    HM232166   5.083   0.903   3.978 -2.1250  0.3348 -0.9402
17943THY    HM332167   5.010   1.054   3.935  0.9308 -0.2444  0.1219
17943THY    CA632168   5.270   1.004   4.119 -0.0605  0.0409  0.2794
17943THY    HA632169   5.278   0.902   4.083  1.2185 -0.2250  0.4555
17944THY      O32170   9.182   3.697   6.702  0.1151  0.0799  0.1362
17944THY     HO32171   9.270   3.656   6.711 -0.4746  0.1784 -1.1444
17944THY    CA132172   9.103   3.642   6.796 -0.4951  0.5525 -0.0789
17944THY    CA232173   8.969   3.657   6.790 -0.0973  0.4587 -0.1095
17944THY    CP132174   8.900   3.727   6.668  0.1571  0.4460 -0.0729
17944THY    HP132175   8.977   3.721   6.590  1.2972  1.5455 -0.3966
17944THY    CP232176   8.852   3.863   6.695 -0.3175 -0.4488 -0.0748
17944THY    HP232177   8.786   3.877   6.781  0.6598  0.1771  0.8038
17944THY    HP332178   8.820   3.923   6.609 -1.5566  1.7982  2.7104
17944THY    HP432179   8.940   3.917   6.733  0.8568 -2.1924 -0.6649
17944THY    CP332180   8.775   3.654   6.609  0.2095  0.2638  0.5979
17944THY    HP532181   8.685   3.660   6.671  0.1499  0.0720  1.9901
17944THY    HP632182   8.799   3.549   6.589  0.3362  0.9126  0.5005
17944THY    HP732183   8.744   3.697   6.513  3.3850 -1.7607 -1.2447
17944THY    CA332184   8.895   3.602   6.898 -0.0471 -0.4394  0.3732
17944THY    HA332185   8.787   3.605   6.893  0.0220 -2.0640  1.4546
17944THY    CA432186   8.952   3.542   7.002  0.1936 -0.3694 -0.6449
17944THY    HA432187   8.888   3.506   7.082  1.2533 -0.2276 -2.3236
17944THY    CA532188   9.088   3.518   6.999 -0.1013 -0.6530  0.0829
17944THY    CM132189   9.139   3.421   7.102 -0.4173  0.0269  0.2037
17944THY    HM132190   9.195   3.344   7.047 -0.0160 -1.4410  1.4878
17944THY    HM232191   9.058   3.370   7.155 -0.3428 -1.1064 -1.1706
17944THY    HM332192   9.201   3.468   7.179 -0.4544  0.0569  0.2028
17944THY    CA632193   9.163   3.570   6.894  0.3474 -0.3871  0.6826
17944THY    HA632194   9.269   3.549   6.888  0.2998 -1.6590  0.7530
17945THY      O32195   0.513   2.145   6.773 -0.0473  0.5435  0.0913
17945THY     HO32196   0.430   2.145   6.824  0.2834  1.0895 -0.6953
17945THY    CA132197   0.608   2.116   6.863  0.3777 -0.9150  0.0141
17945THY    CA232198   0.731   2.079   6.819  0.0437 -0.1680 -0.4816
17945THY    CP132199   0.770   2.088   6.672  0.5415  0.4874  0.7457
17945THY    HP132200   0.681   2.121   6.618 -0.6773  1.4159 -0.8685
17945THY    CP232201   0.786   1.945   6.622 -0.4545  0.6979 -0.4772
17945THY    HP232202   0.871   1.895   6.670 -0.4177 -1.0096 -2.1622
17945THY    HP332203   0.788   1.956   6.513 -2.4441  0.8667  2.8185
17945THY    HP432204   0.697   1.889   6.651 -0.0999 -0.8182 -1.9052
17945THY    CP332205   0.888   2.183   6.635  0.1351  0.0376  0.3796
17945THY    HP532206   0.917   2.153   6.533 -0.1400  0.4666 -1.4515
17945THY    HP632207   0.971   2.169   6.704  1.3632 -1.8329 -2.8936
17945THY    HP732208   0.848   2.284   6.645  0.4619  2.5302  0.3011
17945THY    CA332209   0.824   2.035   6.919  0.3241 -0.7944  0.0895
17945THY    HA332210   0.921   1.994   6.890  0.2310 -0.2015 -0.5741
17945THY    CA432211   0.789   2.033   7.052  0.0858 -0.4386 -0.4062
17945THY    HA432212   0.863   1.997   7.123  0.1888 -1.0076 -1.3724
17945THY    CA532213   0.659   2.072   7.089 -0.8140 -0.9060  0.1842
17945THY    CM132214   0.613   2.055   7.233 -0.5963 -0.3120 -0.1896
17945THY    HM132215   0.665   2.102   7.317 -0.8433 -0.3252  0.1073
17945THY    HM232216   0.620   1.952   7.272  1.8165  2.1519  0.7798
17945THY    HM332217   0.509   2.088   7.240 -0.3147  2.1199  0.3577
17945THY    CA632218   0.573   2.114   6.995  0.0770 -0.0414 -0.2247
17945THY    HA632219   0.469   2.134   7.018 -0.0847 -2.2154  1.9280
17946THY      O32220   8.564   4.173   7.698 -0.4497 -0.5518  0.1102
17946THY     HO32221   8.650   4.150   7.738 -0.3851 -0.6435  0.1877
17946THY    CA132222   8.564   4.303   7.682  1.1254 -0.8783 -1.2246
17946THY    CA232223   8.465   4.369   7.604  0.2624 -0.4316  1.2160
17946THY    CP132224   8.345   4.290   7.539 -0.2293 -0.3839 -0.3149
17946THY    HP132225   8.385   4.198   7.496 -0.5794 -1.8642  0.2014
17946THY    CP232226   8.289   4.365   7.408 -0.1733  0.4631  0.9915
17946THY    HP232227   8.225   4.302   7.346  0.9895  1.7903 -1.6506
17946THY    HP332228   8.373   4.377   7.339  0.3287  0.8946  0.0529
17946THY    HP432229   8.239   4.460   7.431 -0.3963  1.5470  0.6239
17946THY    CP332230   8.238   4.258   7.638 -0.1501  0.1039 -0.0318
17946THY    HP532231   8.185   4.349   7.668  0.2480  1.9601 -0.3702
17946THY    HP632232   8.288   4.220   7.728  0.3965  0.3155  1.1418
17946THY    HP732233   8.170   4.179   7.604  0.4991 -0.9471 -0.1520
17946THY    CA332234   8.470   4.512   7.611  0.2195  0.2704 -0.0097
17946THY    HA332235   8.384   4.566   7.572  0.3294  1.2424  0.9142
17946THY    CA432236   8.578   4.586   7.669  0.3081 -0.4300  0.7473
17946THY    HA432237   8.585   4.694   7.666 -0.0273  0.1895  0.7909
17946THY    CA532238   8.676   4.514   7.746  0.1677  0.5611 -0.3707
17946THY    CM132239   8.786   4.591   7.818 -0.0019 -0.2704  0.5287
17946THY    HM132240   8.878   4.537   7.843  0.9617 -3.5365  0.4147
17946THY    HM232241   8.748   4.634   7.911  1.5449  0.9164 -0.5508
17946THY    HM332242   8.802   4.687   7.767 -0.2656  1.8362  1.7399
17946THY    CA632243   8.666   4.376   7.743  0.2761 -0.7968 -0.0821
17946THY    HA632244   8.736   4.307   7.789 -1.4801 -0.4700 -1.7300
17947THY      O32245   7.565   5.099   6.141  0.0872  0.2301  0.4249
17947THY     HO32246   7.566   5.017   6.193  1.2428  0.1814  0.3830
17947THY    CA132247   7.488   5.089   6.037 -0.5171  0.7103  0.1640
17947THY    CA232248   7.420   5.200   5.986  0.6726 -0.6969 -0.4503
17947THY    CP132249   7.438   5.348   6.026 -0.5019 -0.8846  0.3417
17947THY    HP132250   7.496   5.358   6.119 -1.8765  0.2356 -1.4238
17947THY    CP232251   7.306   5.405   6.064 -0.2495  0.1724 -0.4074
17947THY    HP232252   7.262   5.455   5.977 -2.5858  1.3104 -0.3005
17947THY    HP332253   7.317   5.480   6.144 -1.9655 -1.1095  1.3035
17947THY    HP432254   7.239   5.324   6.096  0.6567 -1.3359 -1.8098
17947THY    CP332255   7.515   5.426   5.916 -0.0508  0.5300 -0.2495
17947THY    HP532256   7.616   5.385   5.900 -0.3361  0.5301 -0.9705
17947THY    HP632257   7.520   5.534   5.935  0.2857  0.3412 -0.2318
17947THY    HP732258   7.469   5.423   5.817  0.7957  0.1358 -2.6900
17947THY    CA332259   7.322   5.178   5.886  0.9479 -0.2636  0.1160
17947THY    HA332260   7.268   5.263   5.845  0.5973  1.3395  0.6961
17947THY    CA432261   7.305   5.050   5.830 -0.1300  0.6240 -0.4180
17947THY    HA432262   7.219   5.038   5.764 -0.1460 -0.1152  2.7390
17947THY    CA532263   7.377   4.941   5.887  0.2277 -0.8154  0.0334
17947THY    CM132264   7.352   4.794   5.848 -0.1346  0.6465  0.4756
17947THY    HM132265   7.440   4.749   5.801  0.4586  0.3261  1.9103
17947THY    HM232266   7.275   4.789   5.770  1.1808 -0.6928  0.4974
17947THY    HM332267   7.324   4.732   5.935  0.6936  0.5690 -0.0251
17947THY    CA632268   7.472   4.959   5.985 -0.1582 -0.9263  0.6590
17947THY    HA632269   7.522   4.873   6.028  2.2800  0.4054  2.5954
17948THY      O32270   2.693   5.985   5.495 -0.2770  0.3835  0.1048
17948THY     HO32271   2.759   6.030   5.552  3.2961 -0.9753 -2.9414
17948THY    CA132272   2.779   5.930   5.407 -0.1091 -0.0585  0.0608
17948THY    CA232273   2.755   5.941   5.271  0.3134  0.2897 -0.1338
17948THY    CP132274   2.617   5.999   5.215 -0.0958  0.6576  0.2047
17948THY    HP132275   2.554   6.037   5.297 -2.3510 -0.5048 -0.8051
17948THY    CP232276   2.533   5.892   5.139  0.5317  0.1428  0.3515
17948THY    HP232277   2.587   5.831   5.065  0.0155 -1.8159  2.1350
17948THY    HP332278   2.440   5.925   5.090  0.0886 -2.1962 -3.7230
17948THY    HP432279   2.504   5.817   5.213  2.6723  0.3591 -0.3218
17948THY    CP332280   2.647   6.112   5.118  0.7789  0.2878 -0.5205
17948THY    HP532281   2.703   6.085   5.028 -0.8215 -0.8441 -0.2497
17948THY    HP632282   2.704   6.189   5.171 -1.3506  0.5706  0.9349
17948THY    HP732283   2.553   6.158   5.086 -0.2201  0.3560 -2.3972
17948THY    CA332284   2.859   5.898   5.190  0.8026 -0.2166  0.6758
17948THY    HA332285   2.849   5.916   5.083  1.3020 -0.3747  0.0529
17948THY    CA432286   2.988   5.862   5.238  0.1181  0.8457  0.1465
17948THY    HA432287   3.068   5.840   5.169 -0.1098  0.4158  0.6413
17948THY    CA532288   3.007   5.854   5.375 -0.0435  0.8363  0.1847
17948THY    CM132289   3.135   5.816   5.432  0.0681 -0.1442 -0.6517
17948THY    HM132290   3.190   5.909   5.444 -0.7429 -0.7399 -0.0828
17948THY    HM232291   3.186   5.745   5.366  1.4075 -0.4434  0.5670
17948THY    HM332292   3.118   5.777   5.534 -1.5109 -0.0231  0.2532
17948THY    CA632293   2.898   5.883   5.457 -0.1384  0.4440  0.3091
17948THY    HA632294   2.912   5.878   5.565 -2.7607  0.8496  0.3654
17949THY      O32295   2.718   3.303   7.466  0.1656 -0.2654 -0.0750
17949THY     HO32296   2.627   3.331   7.487  0.5877  0.1883  1.0195
17949THY    CA132297   2.742   3.217   7.568 -0.1305  0.0380 -0.2638
17949THY    CA232298   2.873   3.187   7.610  0.3482 -0.3286 -0.2840
17949THY    CP132299   2.989   3.249   7.536 -0.2245  0.2592 -0.0319
17949THY    HP132300   2.966   3.337   7.475 -1.3810 -1.5679 -1.5091
17949THY    CP232301   3.054   3.146   7.444  0.1112  0.3766 -0.1939
17949THY    HP232302   3.112   3.077   7.507 -1.9175  1.2302 -1.2048
17949THY    HP332303   3.125   3.195   7.377  1.5418  2.4215  0.6545
17949THY    HP432304   2.980   3.092   7.383 -1.4862 -0.4811  2.7457
17949THY    CP332305   3.078   3.309   7.634  0.0486 -0.1920  0.0196
17949THY    HP532306   3.022   3.371   7.706 -0.4203 -0.4338 -0.1190
17949THY    HP632307   3.154   3.374   7.590  1.3012  2.4851  0.4928
17949THY    HP732308   3.141   3.236   7.686  2.7203 -1.1865  1.4879
17949THY    CA332309   2.896   3.096   7.713 -0.1781  0.2677  0.3372
17949THY    HA332310   2.994   3.075   7.755 -1.0407  1.9766 -0.3669
17949THY    CA432311   2.781   3.045   7.778 -0.1408  0.0462 -0.5266
17949THY    HA432312   2.792   2.976   7.861  0.8171 -0.0760 -0.5261
17949THY    CA532313   2.652   3.061   7.725 -0.2040  0.0507 -0.4613
17949THY    CM132314   2.527   3.001   7.794 -0.4239  0.1036  0.1373
17949THY    HM132315   2.456   2.959   7.721 -1.3391  0.6521  0.6995
17949THY    HM232316   2.485   3.082   7.854  2.6681 -1.1811  2.9377
17949THY    HM332317   2.560   2.920   7.860 -0.5823 -0.9544 -0.8293
17949THY    CA632318   2.633   3.151   7.616  0.2213 -0.4642 -0.4403
17949THY    HA632319   2.527   3.163   7.595 -0.6520  2.7682 -1.2424
17950THY      O32320   8.531   6.932   7.414 -0.4076  0.0370 -0.2582
17950THY     HO32321   8.605   6.899   7.468  1.3616 -2.8098 -1.2542
17950THY    CA132322   8.552   7.061   7.398  0.3182 -0.6590  0.1400
17950THY    CA232323   8.460   7.157   7.357  0.2360  0.0912 -0.0948
17950THY    CP132324   8.323   7.118   7.321  0.0532  0.6274  0.1132
17950THY    HP132325   8.299   7.013   7.342  1.1954 -1.4788 -0.6239
17950THY    CP232326   8.312   7.129   7.169  0.0407 -0.5643 -0.2498
17950THY    HP232327   8.220   7.078   7.139 -1.2282 -1.9378  2.6195
17950THY    HP332328   8.393   7.080   7.113  0.1555 -0.3278 -0.3281
17950THY    HP432329   8.300   7.235   7.143  1.8284 -0.3604  0.0447
17950THY    CP332330   8.215   7.201   7.382 -0.2445 -0.6183  0.4395
17950THY    HP532331   8.229   7.170   7.486  1.0794 -1.8407 -3.6831
17950THY    HP632332   8.116   7.162   7.353 -0.1854 -1.0035  0.5654
17950THY    HP732333   8.218   7.308   7.360  1.7891 -0.5191  0.4384
17950THY    CA332334   8.506   7.296   7.354  0.6961 -0.7716  0.3132
17950THY    HA332335   8.442   7.376   7.319 -1.5875  1.7598 -0.2705
17950THY    CA432336   8.635   7.331   7.397  0.3923 -0.5342  0.1747
17950THY    HA432337   8.656   7.438   7.401  0.2765  1.9685  0.1568
17950THY    CA532338   8.726   7.235   7.433 -0.3432 -0.2958  0.5163
17950THY    CM132339   8.864   7.262   7.452  0.8992  0.1161 -0.6768
17950THY    HM132340   8.894   7.367   7.465 -1.1491  1.6652 -0.2186
17950THY    HM232341   8.925   7.243   7.363  1.4255  0.1385  0.7614
17950THY    HM332342   8.905   7.210   7.539  0.0033  0.6558 -0.5089
17950THY    CA632343   8.687   7.101   7.431  0.6022  0.2756  0.0322
17950THY    HA632344   8.752   7.026   7.476 -0.8499  2.3739 -0.0724
17951THY      O32345   3.577   5.794   7.601 -0.3727 -0.5131 -0.1492
17951THY     HO32346   3.498   5.817   7.549 -1.1800  0.6502 -0.1430
17951THY    CA132347   3.671   5.887   7.588  0.1465  0.3029  0.6738
17951THY    CA232348   3.806   5.848   7.587 -0.2651  0.0261 -0.5683
17951THY    CP132349   3.848   5.700   7.608 -0.0734 -0.1955  0.4788
17951THY    HP132350   3.766   5.636   7.644 -0.0127  1.0034  1.0518
17951THY    CP232351   3.962   5.683   7.711 -0.6000  0.1008  0.2748
17951THY    HP232352   3.950   5.596   7.776 -1.6188  0.0997  0.4067
17951THY    HP332353   3.970   5.773   7.774  1.4433  0.2511  0.0225
17951THY    HP432354   4.059   5.682   7.660  0.4936  1.9807  2.0816
17951THY    CP332355   3.896   5.644   7.472 -0.0358  1.1016  0.3983
17951THY    HP532356   3.947   5.550   7.495 -0.4060  1.6133  0.3228
17951THY    HP632357   3.965   5.715   7.424 -1.7437  0.5235  1.7501
17951THY    HP732358   3.812   5.634   7.403 -0.4951  1.5632  0.9859
17951THY    CA332359   3.908   5.941   7.562  0.0133  0.6792 -0.3158
17951THY    HA332360   4.012   5.911   7.550  0.6868  2.2381  1.2494
17951THY    CA432361   3.867   6.067   7.536 -0.7809  0.8853 -0.2402
17951THY    HA432362   3.941   6.144   7.515 -2.1335  0.7323  1.0563
17951THY    CA532363   3.731   6.107   7.539  1.0770  0.1874  0.3437
17951THY    CM132364   3.691   6.248   7.503 -0.0847 -0.3757 -0.6069
17951THY    HM132365   3.771   6.297   7.446 -0.4525 -1.9007 -1.6872
17951THY    HM232366   3.666   6.298   7.597 -2.9577  0.8082 -3.8571
17951THY    HM332367   3.610   6.260   7.429  1.3935 -1.7597  1.7398
17951THY    CA632368   3.629   6.016   7.563 -0.2368 -0.1482  0.2009
17951THY    HA632369   3.526   6.050   7.560  0.0638  2.0243  1.4644
17952THY      O32370   3.774   5.822   7.018  0.4381  0.1725 -0.1121
17952THY     HO32371   3.785   5.726   7.010 -2.2259 -2.3422 -0.3177
17952THY    CA132372   3.885   5.883   6.978  0.9703  0.1501 -0.1268
17952THY    CA232373   3.885   6.022   6.969 -1.0062  1.5466 -0.4791
17952THY    CP132374   3.768   6.101   7.036  0.1538 -0.4783  0.1111
17952THY    HP132375   3.670   6.054   7.023 -0.2833  1.2874  0.4762
17952THY    CP232376   3.757   6.242   6.975  0.1808  0.3803  0.0454
17952THY    HP232377   3.731   6.232   6.869  1.7479 -0.0697  0.4810
17952THY    HP332378   3.839   6.312   6.987 -1.0350  2.6922  1.1849
17952THY    HP432379   3.668   6.295   7.012  0.5389 -0.2852  1.1190
17952THY    CP332380   3.790   6.105   7.183  0.4854 -0.1036 -0.3499
17952THY    HP532381   3.869   6.174   7.213 -0.5050  1.1688  0.2664
17952THY    HP632382   3.829   6.008   7.217 -0.2509 -1.2553 -1.0808
17952THY    HP732383   3.700   6.127   7.241  1.4630  0.2787  3.1267
17952THY    CA332384   4.005   6.086   6.919  0.5422 -0.2518 -0.0914
17952THY    HA332385   4.020   6.193   6.922 -0.3215 -0.3209  0.0348
17952THY    CA432386   4.116   6.001   6.898 -0.8122 -0.7043 -0.3157
17952THY    HA432387   4.212   6.048   6.879  0.1812  1.3818 -1.3646
17952THY    CA532388   4.117   5.866   6.925  1.1397 -0.1663 -0.5191
17952THY    CM132389   4.242   5.784   6.925 -0.4766 -0.3820 -0.1081
17952THY    HM132390   4.242   5.674   6.924  1.0165 -1.5056 -0.1255
17952THY    HM232391   4.312   5.815   7.003 -1.4390  0.2226  0.6064
17952THY    HM332392   4.281   5.814   6.827 -0.2346 -0.7402 -1.5047
17952THY    CA632393   3.999   5.809   6.970 -0.0573  0.2862 -0.1716
17952THY    HA632394   4.003   5.700   6.973  4.7513 -1.5185 -0.2850
17953THY      O32395   7.617   8.443   4.029 -0.6040  0.1707  0.3375
17953THY     HO32396   7.643   8.372   4.091  0.2941 -3.7953 -3.2176
17953THY    CA132397   7.497   8.407   3.973 -0.1752 -0.7657  0.2510
17953THY    CA232398   7.422   8.505   3.905 -0.6995 -0.3331  0.1838
17953THY    CP132399   7.471   8.651   3.915 -0.0301 -0.1928 -0.6188
17953THY    HP132400   7.579   8.645   3.896 -0.2230 -1.1431 -1.4886
17953THY    CP232401   7.445   8.722   4.056  0.3549 -0.2023 -0.2381
17953THY    HP232402   7.495   8.657   4.129  0.1828 -1.3388 -1.7099
17953THY    HP332403   7.336   8.722   4.064  0.3338 -0.2993 -1.2354
17953THY    HP432404   7.487   8.823   4.059 -0.3915 -1.1402  0.1134
17953THY    CP332405   7.427   8.749   3.805  0.1902 -0.2678 -0.4740
17953THY    HP532406   7.320   8.765   3.821  0.6632  0.3978  2.4923
17953THY    HP632407   7.438   8.707   3.704  0.3438  0.2967 -1.8696
17953THY    HP732408   7.480   8.845   3.805  0.7439  0.5740 -0.7618
17953THY    CA332409   7.313   8.459   3.827  0.5285  0.7333 -0.1569
17953THY    HA332410   7.248   8.528   3.776  0.9904 -0.3406 -0.4842
17953THY    CA432411   7.287   8.325   3.820 -0.2663 -0.2214 -0.6371
17953THY    HA432412   7.215   8.291   3.747 -1.6158 -0.4141  2.3172
17953THY    CA532413   7.355   8.237   3.897 -0.0306  0.0327  0.3169
17953THY    CM132414   7.343   8.089   3.889 -0.3996 -0.6280  0.1167
17953THY    HM132415   7.437   8.046   3.854 -1.2832 -3.0707 -0.0110
17953THY    HM232416   7.273   8.062   3.808  0.3057 -1.4882  0.8168
17953THY    HM332417   7.312   8.045   3.984  0.9059 -1.0753 -1.8796
17953THY    CA632418   7.462   8.276   3.979 -0.6114  0.4847  0.3024
17953THY    HA632419   7.519   8.199   4.030  0.1350 -1.4880 -0.5225
17954THY      O32420   2.826   1.706   3.856  0.0165 -0.1906  0.1147
17954THY     HO32421   2.772   1.776   3.897 -1.6769 -0.0262 -1.1984
17954THY    CA132422   2.751   1.601   3.897  0.3614  0.3893 -0.0730
17954THY    CA232423   2.799   1.469   3.907 -0.4852 -0.2754 -0.1028
17954THY    CP132424   2.945   1.443   3.877 -0.4207  0.3448  0.0212
17954THY    HP132425   2.993   1.537   3.906  0.4380  1.5875 -0.7680
17954THY    CP232426   2.950   1.420   3.727  0.0560 -0.7270  0.3044
17954THY    HP232427   3.054   1.402   3.694  0.2939  0.0689  0.1689
17954THY    HP332428   2.914   1.507   3.671  2.8874 -0.6717  1.6267
17954THY    HP432429   2.893   1.329   3.704  0.9434  0.4427 -0.5926
17954THY    CP332430   3.002   1.326   3.955 -0.6031 -0.9206 -0.0387
17954THY    HP532431   2.979   1.232   3.904 -1.7611 -0.3290 -0.1061
17954THY    HP632432   2.963   1.328   4.058 -0.1021 -0.7232 -0.3228
17954THY    HP732433   3.111   1.330   3.959 -0.6715  1.0764  1.4893
17954THY    CA332434   2.709   1.366   3.937  0.9655 -0.7982 -0.0404
17954THY    HA332435   2.750   1.265   3.932  0.7948 -2.7938 -0.0582
17954THY    CA432436   2.572   1.393   3.954 -0.0845 -0.1264 -0.0748
17954THY    HA432437   2.499   1.313   3.962  0.0955 -2.8802 -0.6134
17954THY    CA532438   2.534   1.526   3.952  0.3610 -0.0093 -0.2787
17954THY    CM132439   2.383   1.545   3.971 -0.2755  0.5019  0.2876
17954THY    HM132440   2.338   1.495   4.057  0.6611  0.1773 -1.1794
17954THY    HM232441   2.335   1.497   3.885 -0.0296  0.8220 -0.5501
17954THY    HM332442   2.352   1.649   3.984  2.5827  0.2620  1.2651
17954THY    CA632443   2.622   1.633   3.933  0.4766  0.0104  0.2149
17954THY    HA632444   2.591   1.735   3.912  0.1444 -0.8777 -0.0659
17955THY      O32445   5.395   8.178   6.855 -0.3575  0.3383 -0.4445
17955THY     HO32446   5.481   8.201   6.815 -1.1112 -0.7466  0.6270
17955THY    CA132447   5.297   8.217   6.758  0.1350 -0.4187  0.0154
17955THY    CA232448   5.169   8.157   6.759  0.9239  0.4116  0.0731
17955THY    CP132449   5.131   8.063   6.877  0.8364 -0.0414  0.5040
17955THY    HP132450   5.168   8.097   6.975  0.9107 -0.4016  1.4837
17955THY    CP232451   5.172   7.922   6.846 -0.8724 -0.2333  0.2645
17955THY    HP232452   5.147   7.849   6.923 -3.6698 -1.0836  0.1892
17955THY    HP332453   5.281   7.927   6.848 -0.8698  1.4282 -0.0622
17955THY    HP432454   5.120   7.895   6.753 -0.3416 -0.4127 -0.1678
17955THY    CP332455   4.981   8.062   6.900 -0.9420 -0.2418 -0.1888
17955THY    HP532456   4.964   8.001   6.990  1.2312  1.4050  1.4525
17955THY    HP632457   4.928   8.016   6.816 -1.0448  0.8920 -2.2471
17955THY    HP732458   4.941   8.162   6.923  0.4463 -0.3761  0.4239
17955THY    CA332459   5.086   8.183   6.643  0.2355 -0.2038  0.2849
17955THY    HA332460   4.986   8.139   6.639  0.6711 -0.2830 -0.7426
17955THY    CA432461   5.137   8.269   6.542  0.2787 -0.4756  0.0879
17955THY    HA432462   5.070   8.284   6.458 -0.8386  0.3001 -0.4174
17955THY    CA532463   5.262   8.330   6.548 -0.2805 -0.2759  0.1883
17955THY    CM132464   5.308   8.423   6.440 -0.1779 -0.4952 -0.6106
17955THY    HM132465   5.392   8.483   6.477 -0.3464 -1.9017  0.5416
17955THY    HM232466   5.224   8.485   6.407 -0.0087  0.6727  0.2836
17955THY    HM332467   5.336   8.369   6.349 -0.1366  0.4216 -2.2008
17955THY    CA632468   5.337   8.306   6.664 -0.5357 -0.0501  0.4602
17955THY    HA632469   5.430   8.361   6.675 -1.0633  1.3245  1.1120
17956THY      O32470   5.049   8.296   7.652  0.7894  0.1239 -0.4295
17956THY     HO32471   4.990   8.232   7.610 -0.5262  0.1783  0.7115
17956THY    CA132472   5.157   8.317   7.571 -0.6639  1.0471 -0.0672
17956THY    CA232473   5.268   8.395   7.606  0.3310  0.0522 -0.3398
17956THY    CP132474   5.272   8.463   7.748  0.7578  0.0078 -0.4480
17956THY    HP132475   5.191   8.417   7.807 -3.9785 -0.9304  5.4325
17956THY    CP232476   5.255   8.612   7.741  0.4191  0.4303 -0.0481
17956THY    HP232477   5.152   8.623   7.705  0.2360  1.3812  1.6102
17956THY    HP332478   5.335   8.645   7.674  0.0462  0.4402  0.9107
17956THY    HP432479   5.263   8.650   7.843  1.2922  0.6290 -0.7361
17956THY    CP332480   5.406   8.439   7.832 -0.3237  0.6090  0.2385
17956THY    HP532481   5.485   8.463   7.759  1.8469  2.8493  0.3519
17956THY    HP632482   5.423   8.332   7.849  1.1722 -0.2638  0.2984
17956THY    HP732483   5.411   8.505   7.919  0.3638  0.5424  0.2848
17956THY    CA332484   5.373   8.411   7.514 -0.1147  0.5235  0.0511
17956THY    HA332485   5.461   8.469   7.540  0.3857 -0.3344 -0.2963
17956THY    CA432486   5.367   8.366   7.385  0.0399 -0.4892 -0.1085
17956THY    HA432487   5.449   8.378   7.315  0.3659 -0.3686 -1.4981
17956THY    CA532488   5.249   8.296   7.349 -0.1611  0.1751  0.7706
17956THY    CM132489   5.235   8.239   7.204 -0.1665 -0.4304  0.2079
17956THY    HM132490   5.279   8.307   7.131  1.7405 -0.2833 -0.7855
17956THY    HM232491   5.135   8.209   7.171 -0.1344 -0.5613  0.2447
17956THY    HM332492   5.287   8.143   7.193 -0.6397 -1.0116  0.0137
17956THY    CA632493   5.156   8.263   7.445 -0.1038 -0.5146  0.2871
17956THY    HA632494   5.091   8.179   7.422  0.3261 -0.0408 -0.1855
17957THY      O32495   2.539   8.799   7.194 -0.3139  0.0491  0.6446
17957THY     HO32496   2.607   8.736   7.163 -1.6030 -1.3008 -0.1613
17957THY    CA132497   2.438   8.714   7.195 -0.2290 -1.1698 -0.2866
17957THY    CA232498   2.311   8.743   7.254 -0.2677 -0.5271  0.5392
17957THY    CP132499   2.291   8.881   7.310 -0.6665  0.9279  0.0813
17957THY    HP132500   2.371   8.906   7.381  0.5083  0.0883 -1.1343
17957THY    CP232501   2.159   8.895   7.381  0.7886 -0.1371  0.4031
17957THY    HP232502   2.138   9.001   7.400 -0.5680  0.9052 -0.0250
17957THY    HP332503   2.153   8.838   7.474 -0.9770  0.2107  1.0832
17957THY    HP432504   2.083   8.862   7.310  0.4566  0.0782  0.7021
17957THY    CP332505   2.295   8.988   7.196  0.4052 -0.3738  0.4603
17957THY    HP532506   2.206   8.984   7.132  1.3974 -1.7571 -0.5476
17957THY    HP632507   2.379   8.971   7.128  1.3782  0.4647  1.7402
17957THY    HP732508   2.318   9.088   7.234  1.9714 -1.9664  0.7647
17957THY    CA332509   2.212   8.637   7.255 -0.5720  1.1217  1.2160
17957THY    HA332510   2.114   8.646   7.301 -0.1992  2.7769 -1.8708
17957THY    CA432511   2.243   8.513   7.194 -0.3386  0.0918 -0.1531
17957THY    HA432512   2.165   8.438   7.185 -0.2692  0.0558 -0.2207
17957THY    CA532513   2.371   8.496   7.143  0.3470 -0.1438  0.1006
17957THY    CM132514   2.387   8.359   7.065 -0.2582 -0.1976 -0.4886
17957THY    HM132515   2.362   8.270   7.124  0.4686  0.2466 -0.4011
17957THY    HM232516   2.492   8.345   7.037 -0.0438  0.7814 -0.9385
17957THY    HM332517   2.326   8.366   6.974 -0.0360 -0.3590 -0.6335
17957THY    CA632518   2.469   8.589   7.142  0.0307 -0.2221 -0.1712
17957THY    HA632519   2.560   8.568   7.087 -0.3802 -1.0246  0.1192
17958THY      O32520   6.392   7.065   7.414 -0.2120 -0.2765  0.6175
17958THY     HO32521   6.372   7.154   7.446  2.4501  1.6494  0.6447
17958THY    CA132522   6.320   7.041   7.301 -0.2915  0.3213 -0.7726
17958THY    CA232523   6.251   6.922   7.274  0.7220  0.1159  0.5879
17958THY    CP132524   6.256   6.808   7.377 -0.3887 -0.4321  0.2943
17958THY    HP132525   6.267   6.837   7.482  0.6801 -0.0847 -1.2476
17958THY    CP232526   6.371   6.711   7.341 -0.5107 -0.3250  1.1972
17958THY    HP232527   6.368   6.670   7.240  1.9895 -0.9435  2.3173
17958THY    HP332528   6.390   6.633   7.415  3.6491 -1.1234  1.1956
17958THY    HP432529   6.462   6.771   7.359  0.2408 -2.5222  0.8072
17958THY    CP332530   6.120   6.725   7.371 -0.6352 -0.3754  0.2687
17958THY    HP532531   6.028   6.781   7.393 -0.6224 -1.5566  0.7814
17958THY    HP632532   6.109   6.655   7.455  1.4581  1.0347  1.5135
17958THY    HP732533   6.110   6.676   7.274  0.7634 -1.4851  2.0700
17958THY    CA332534   6.207   6.903   7.140 -0.1503  0.4650  0.1050
17958THY    HA332535   6.153   6.812   7.117 -0.1782  1.1153 -0.0443
17958THY    CA432536   6.216   7.007   7.042 -0.6813  0.1233 -0.3223
17958THY    HA432537   6.184   6.991   6.940 -2.5228  0.8555 -1.6483
17958THY    CA532538   6.280   7.130   7.079 -0.5448  0.1107 -0.0828
17958THY    CM132539   6.309   7.241   6.977  0.0312  0.0819 -0.6782
17958THY    HM132540   6.404   7.230   6.924 -0.6547 -1.4547  0.4325
17958THY    HM232541   6.312   7.340   7.022  2.0168 -1.4804  0.0438
17958THY    HM332542   6.233   7.237   6.897 -0.3036  0.3564  0.0184
17958THY    CA632543   6.326   7.145   7.208 -0.1281 -0.7184  0.3131
17958THY    HA632544   6.384   7.233   7.231 -0.1632 -1.9997  0.6817
17959THY      O32545   9.551   1.965   3.201 -0.0331  0.0691 -0.1131
17959THY     HO32546   9.559   2.062   3.200  2.4232 -1.4209 -0.2234
17959THY    CA132547   9.423   1.936   3.224  0.2345 -0.1279  0.0514
17959THY    CA232548   9.371   1.804   3.209 -0.4730 -1.2245 -0.1728
17959THY    CP132549   9.466   1.687   3.186  0.2156 -0.6817  0.2670
17959THY    HP132550   9.548   1.720   3.122  0.2074 -0.8922 -0.1103
17959THY    CP232551   9.405   1.571   3.095  0.7244 -0.9089  0.0495
17959THY    HP232552   9.356   1.622   3.012 -0.3183 -0.9935 -1.0379
17959THY    HP332553   9.329   1.509   3.145 -0.1368 -2.2811 -0.0414
17959THY    HP432554   9.476   1.497   3.057 -0.1632 -0.4196 -1.0917
17959THY    CP332555   9.520   1.617   3.311 -0.6108  0.9724 -0.3197
17959THY    HP532556   9.433   1.596   3.374 -1.3873  0.4285  1.0395
17959THY    HP632557   9.589   1.687   3.359 -1.1965  0.4132  0.6673
17959THY    HP732558   9.569   1.523   3.283 -0.5139  0.0715 -0.0191
17959THY    CA332559   9.229   1.781   3.219 -0.0094 -0.6882 -0.6037
17959THY    HA332560   9.183   1.684   3.206  0.3386 -0.1240 -0.8530
17959THY    CA432561   9.148   1.893   3.238 -0.4025  0.1517 -0.0613
17959THY    HA432562   9.041   1.884   3.248 -0.3841  1.2728  0.7662
17959THY    CA532563   9.201   2.021   3.259 -0.4718 -0.4437  0.7442
17959THY    CM132564   9.115   2.139   3.266 -0.1140 -0.2925 -0.6095
17959THY    HM132565   9.005   2.137   3.263 -0.3144 -0.2220  2.9096
17959THY    HM232566   9.148   2.191   3.175  1.1708 -1.2619 -2.9739
17959THY    HM332567   9.148   2.195   3.354  0.6799  0.7546 -2.6336
17959THY    CA632568   9.342   2.042   3.257 -0.3136  0.1691 -0.7452
17959THY    HA632569   9.378   2.145   3.260 -1.1603 -0.7462 -0.4005
17960THY      O32570   5.677   2.535   5.518 -0.1425 -0.4701 -0.0764
17960THY     HO32571   5.741   2.464   5.499  1.6477  2.1736  0.6821
17960THY    CA132572   5.688   2.545   5.653  1.1163 -0.4378 -0.2440
17960THY    CA232573   5.570   2.577   5.726  1.5650 -0.4136 -0.3566
17960THY    CP132574   5.438   2.609   5.647  0.2490  0.3205 -0.4753
17960THY    HP132575   5.460   2.635   5.543 -0.0872  1.0880  3.5051
17960THY    CP232576   5.356   2.738   5.691 -0.4624 -0.5265 -0.2120
17960THY    HP232577   5.335   2.737   5.799 -1.3932 -0.6740  1.4914
17960THY    HP332578   5.259   2.742   5.642 -0.6945 -0.0101  0.6478
17960THY    HP432579   5.420   2.824   5.670 -1.9748  1.7098  1.5648
17960THY    CP332580   5.348   2.493   5.655  0.6096  0.2563  0.4080
17960THY    HP532581   5.312   2.480   5.758  2.1295  0.8333  0.5476
17960THY    HP632582   5.397   2.395   5.642  1.1311 -0.1118  0.7141
17960THY    HP732583   5.263   2.507   5.588 -0.3418  1.4863  0.6906
17960THY    CA332584   5.571   2.580   5.868 -0.1868 -0.3585  0.1931
17960THY    HA332585   5.477   2.604   5.916 -0.0455 -0.3819  0.8121
17960THY    CA432586   5.688   2.538   5.934 -0.1297 -0.5983 -0.2706
17960THY    HA432587   5.686   2.537   6.043 -0.9184 -0.6036  0.0912
17960THY    CA532588   5.805   2.505   5.860 -0.5238  0.1547  0.2938
17960THY    CM132589   5.926   2.454   5.933  1.2962  0.7258 -0.2081
17960THY    HM132590   5.905   2.449   6.040 -0.1426  0.4894  0.3162
17960THY    HM232591   6.012   2.518   5.910  1.0417  2.7570  0.9547
17960THY    HM332592   5.952   2.353   5.899 -0.8810 -0.3890 -0.4635
17960THY    CA632593   5.805   2.512   5.722 -0.4501 -0.0775  0.2125
17960THY    HA632594   5.890   2.472   5.667 -0.1465 -0.0470  0.8063
17961THY      O32595   3.087   4.109   2.701  0.3971 -0.2870  0.9161
17961THY     HO32596   3.015   4.053   2.669  0.4288  0.1036  0.6475
17961THY    CA132597   3.117   4.052   2.825 -0.3931  0.7712 -0.3331
17961THY    CA232598   3.194   4.110   2.924  0.5380 -0.0079 -0.5304
17961THY    CP132599   3.247   4.250   2.905 -0.2794 -0.4509 -0.0818
17961THY    HP132600   3.302   4.244   2.810  0.6141  0.1325 -1.8974
17961THY    CP232601   3.360   4.297   3.008  0.0779  0.4367  0.2570
17961THY    HP232602   3.441   4.223   3.012  0.6054  0.3079  0.8199
17961THY    HP332603   3.324   4.315   3.109  0.0119  0.4728 -0.0698
17961THY    HP432604   3.393   4.399   2.987 -1.2195  1.0767  0.8228
17961THY    CP332605   3.134   4.356   2.897 -0.3256  0.3157 -1.0562
17961THY    HP532606   3.101   4.385   2.998 -0.5749 -0.3177  1.0112
17961THY    HP632607   3.036   4.320   2.866 -0.2268 -0.5759 -0.5715
17961THY    HP732608   3.167   4.443   2.840 -2.7166  0.2545 -0.1183
17961THY    CA332609   3.220   4.048   3.043 -0.0976 -0.2159  0.0240
17961THY    HA332610   3.278   4.097   3.119 -0.0550 -0.7178  0.7636
17961THY    CA432611   3.170   3.918   3.061  0.6525 -1.3287  0.6315
17961THY    HA432612   3.190   3.861   3.151 -2.4325 -0.2891  1.0120
17961THY    CA532613   3.092   3.856   2.970 -0.4541  0.3320 -0.2205
17961THY    CM132614   3.056   3.715   2.985 -0.5995  0.2288  0.8635
17961THY    HM132615   2.974   3.670   2.928 -0.0660 -1.0761  1.5011
17961THY    HM232616   3.036   3.702   3.092 -2.6825 -0.3352 -1.4255
17961THY    HM332617   3.140   3.649   2.962 -0.8484  4.0303 -1.0882
17961THY    CA632618   3.052   3.923   2.853 -0.0792  0.7205 -0.1482
17961THY    HA632619   2.986   3.873   2.783  1.7127 -0.4607 -0.9697
17962THY      O32620   1.370   4.654   3.340 -0.1412 -0.4593  0.6914
17962THY     HO32621   1.457   4.666   3.297 -0.4979 -1.7234 -1.0225
17962THY    CA132622   1.291   4.667   3.230  0.1485  0.4888  0.2960
17962THY    CA232623   1.156   4.644   3.246  0.0150 -0.3840 -0.9910
17962THY    CP132624   1.092   4.605   3.380 -0.2770 -0.4440 -0.0221
17962THY    HP132625   1.162   4.571   3.458  1.7415 -1.6027  1.2716
17962THY    CP232626   0.987   4.486   3.360 -0.3943  0.3047 -0.2566
17962THY    HP232627   0.892   4.527   3.322 -0.9564  0.3665 -1.4568
17962THY    HP332628   0.971   4.430   3.452  2.5666  0.2731 -1.3096
17962THY    HP432629   1.026   4.409   3.293  1.9653  1.4184 -0.1020
17962THY    CP332630   1.026   4.728   3.444  0.3054 -0.3179 -0.0930
17962THY    HP532631   0.967   4.698   3.531  0.3198  0.0429  0.8767
17962THY    HP632632   0.949   4.770   3.377  0.0214  0.9951  1.5985
17962THY    HP732633   1.100   4.803   3.472 -0.0773  0.3741  0.0368
17962THY    CA332634   1.075   4.657   3.134 -0.3310  0.6924  0.0024
17962THY    HA332635   0.969   4.646   3.151  0.1204  3.0280 -1.4666
17962THY    CA432636   1.132   4.681   3.003 -0.5511 -0.3865  0.5558
17962THY    HA432637   1.070   4.702   2.917  0.2930 -1.9921 -2.7870
17962THY    CA532638   1.266   4.705   2.995 -1.0799  0.4632 -0.5587
17962THY    CM132639   1.327   4.752   2.867  0.3286  0.9185  0.7857
17962THY    HM132640   1.420   4.696   2.851 -0.3135 -0.9743  0.1996
17962THY    HM232641   1.362   4.856   2.878  1.9520  2.5565  0.1392
17962THY    HM332642   1.258   4.729   2.785 -0.4152  1.5757  0.6163
17962THY    CA632643   1.348   4.703   3.107  0.5802 -0.3659  0.1297
17962THY    HA632644   1.453   4.727   3.096  1.1662  1.7765 -1.1662
17963THY      O32645   6.172   3.808   4.168  0.3204 -0.0857 -0.4600
17963THY     HO32646   6.165   3.830   4.262 -2.1152 -0.3588  0.2624
17963THY    CA132647   6.071   3.871   4.103  0.1518  0.1873  0.3090
17963THY    CA232648   6.075   3.880   3.964  0.2183 -0.3783  0.6404
17963THY    CP132649   6.181   3.810   3.878 -0.7572  0.1242  0.5033
17963THY    HP132650   6.281   3.814   3.923  0.2603 -1.9872  0.7587
17963THY    CP232651   6.214   3.874   3.736 -0.2452 -0.1993  0.2794
17963THY    HP232652   6.306   3.831   3.696 -0.3973 -0.1706 -0.0787
17963THY    HP332653   6.242   3.980   3.746  1.3469 -0.9146 -0.0534
17963THY    HP432654   6.130   3.868   3.666 -0.8272  0.5884 -1.3042
17963THY    CP332655   6.129   3.666   3.842  0.0834 -0.0425 -0.1432
17963THY    HP532656   6.212   3.602   3.809  0.6063 -2.0465  1.4658
17963THY    HP632657   6.057   3.663   3.759  0.2696 -0.2282  0.4400
17963THY    HP732658   6.073   3.617   3.923 -1.0659  0.6787  2.2129
17963THY    CA332659   5.970   3.942   3.902  1.6957  0.2930  1.0587
17963THY    HA332660   5.963   3.935   3.794 -0.7273  0.4897 -2.0002
17963THY    CA432661   5.863   4.006   3.979  0.3828  0.5761 -0.1054
17963THY    HA432662   5.779   4.056   3.930 -0.1981  1.6494  0.0120
17963THY    CA532663   5.881   4.016   4.116 -0.1769 -0.1196 -0.1411
17963THY    CM132664   5.785   4.088   4.209  1.0466 -0.6190  0.8335
17963THY    HM132665   5.827   4.115   4.306  0.6422 -0.2647  0.2322
17963THY    HM232666   5.694   4.029   4.229  1.2061  2.0902  1.4035
17963THY    HM332667   5.756   4.181   4.159 -0.6968  0.8136  1.1111
17963THY    CA632668   5.975   3.936   4.180 -0.7544 -0.1913  0.4236
17963THY    HA632669   5.971   3.933   4.289 -1.7065 -0.0459  3.5444
17964THY      O32670   4.253   6.355   6.529 -0.6682  0.4071  0.5734
17964THY     HO32671   4.249   6.341   6.433 -1.2871  0.5435 -0.2016
17964THY    CA132672   4.342   6.270   6.580  0.2071  0.4936  0.7555
17964THY    CA232673   4.405   6.290   6.697  0.9919 -0.3370 -0.3988
17964THY    CP132674   4.380   6.424   6.778 -0.0743 -0.3279 -0.0369
17964THY    HP132675   4.303   6.478   6.722 -1.3799 -0.0224 -1.5392
17964THY    CP232676   4.515   6.508   6.781 -0.0578 -0.3819  0.0783
17964THY    HP232677   4.495   6.615   6.794 -2.6399 -2.7075 -0.0139
17964THY    HP332678   4.585   6.483   6.701  1.8412  2.0502 -3.3350
17964THY    HP432679   4.574   6.469   6.865  1.7309 -2.2838 -1.4977
17964THY    CP332680   4.329   6.398   6.919 -0.4492  0.1301 -0.8088
17964THY    HP532681   4.401   6.358   6.990  1.0314 -0.5549  0.5146
17964THY    HP632682   4.252   6.321   6.909  1.1055  0.0444 -2.3860
17964THY    HP732683   4.288   6.491   6.961 -1.7664  0.3548 -1.4717
17964THY    CA332684   4.494   6.195   6.747  0.2923  0.5197 -0.0438
17964THY    HA332685   4.537   6.196   6.847  1.7518 -0.0875  0.9974
17964THY    CA432686   4.529   6.085   6.665  0.3868  0.2527 -0.0632
17964THY    HA432687   4.599   6.008   6.694 -0.0252  0.2447 -0.4427
17964THY    CA532688   4.476   6.075   6.538 -0.4086  0.2394 -0.1314
17964THY    CM132689   4.515   5.961   6.439 -0.0404 -0.2618 -0.1498
17964THY    HM132690   4.455   5.870   6.446  1.6576  0.7226 -1.2365
17964THY    HM232691   4.617   5.924   6.452  0.8720 -1.6203  1.6695
17964THY    HM332692   4.515   5.994   6.334  0.2324 -0.7576 -1.6659
17964THY    CA632693   4.370   6.159   6.491  0.0216 -0.6106 -0.5202
17964THY    HA632694   4.326   6.153   6.392  1.0778 -1.3975  2.8942
17965THY      O32695   3.135   3.948   3.921  0.7019 -0.1710 -0.5784
17965THY     HO32696   3.204   3.965   3.855  2.0393  1.6142  1.3577
17965THY    CA132697   3.017   3.916   3.867  0.8323  0.2583  0.6030
17965THY    CA232698   2.919   3.852   3.941 -0.7149 -0.2586  0.7331
17965THY    CP132699   2.945   3.828   4.085  0.4016  0.2339  0.7209
17965THY    HP132700   3.017   3.904   4.118 -0.0627  1.8044  0.5249
17965THY    CP232701   2.998   3.687   4.099 -0.0038  0.0467 -0.3093
17965THY    HP232702   3.094   3.668   4.051 -0.1908 -0.5831  0.3067
17965THY    HP332703   2.919   3.615   4.076 -2.0886  0.0201  1.8643
17965THY    HP432704   3.029   3.672   4.203 -0.5845  0.2739  0.0300
17965THY    CP332705   2.821   3.837   4.167 -0.4515  0.2552  0.8456
17965THY    HP532706   2.756   3.921   4.140 -2.1257  2.5306  0.3844
17965THY    HP632707   2.847   3.857   4.272 -0.3459  0.0217  1.9986
17965THY    HP732708   2.762   3.746   4.150  0.0169 -1.6794  0.8568
17965THY    CA332709   2.808   3.810   3.871  0.8088  0.0198  0.1699
17965THY    HA332710   2.734   3.748   3.922  0.1335 -0.4182  0.6088
17965THY    CA432711   2.796   3.828   3.735 -0.1297  0.1141 -0.3116
17965THY    HA432712   2.708   3.798   3.678 -0.6322  0.7248 -0.0303
17965THY    CA532713   2.889   3.906   3.663  0.2063 -0.4750  0.0171
17965THY    CM132714   2.870   3.942   3.518 -0.2559  0.6862 -0.0038
17965THY    HM132715   2.906   4.040   3.486  0.0449 -0.0736 -0.3551
17965THY    HM232716   2.765   3.933   3.486  0.3474 -1.8589  1.1047
17965THY    HM332717   2.922   3.867   3.457 -1.8893  0.6953 -1.2066
17965THY    CA632718   3.002   3.945   3.731  0.3511  0.4030  0.2719
17965THY    HA632719   3.071   4.000   3.668 -0.7752 -0.2894  0.9252
17966THY      O32720   8.174   4.446   7.117  0.5972 -0.4132  0.3151
17966THY     HO32721   8.148   4.368   7.169 -1.3397 -1.2476  0.3613
17966THY    CA132722   8.123   4.553   7.189 -0.0394  0.1472 -0.1592
17966THY    CA232723   8.182   4.686   7.190  0.1259 -0.2281 -0.7282
17966THY    CP132724   8.305   4.720   7.108  0.1345 -0.6261  1.1385
17966THY    HP132725   8.369   4.631   7.108 -2.5819  0.2902 -0.9173
17966THY    CP232726   8.395   4.812   7.183 -0.4593 -0.1622  0.0470
17966THY    HP232727   8.492   4.803   7.132  1.1023  2.4706  0.5674
17966THY    HP332728   8.409   4.772   7.284  0.8499 -0.9529 -1.6082
17966THY    HP432729   8.373   4.919   7.188 -3.3467 -1.4855 -0.3964
17966THY    CP332730   8.270   4.781   6.969  0.3595  0.0794  0.6207
17966THY    HP532731   8.231   4.883   6.980 -0.2071 -0.8303  0.5113
17966THY    HP632732   8.208   4.708   6.917  1.0636  0.6899 -0.4309
17966THY    HP732733   8.357   4.779   6.901  0.8289  0.6832  0.2377
17966THY    CA332734   8.113   4.798   7.255 -0.5091 -0.1499  0.6584
17966THY    HA332735   8.155   4.898   7.256  0.3273 -1.5861  0.3475
17966THY    CA432736   8.014   4.762   7.346 -0.0572  0.2662 -0.2739
17966THY    HA432737   7.981   4.832   7.422 -0.3091 -0.2408  0.1626
17966THY    CA532738   7.967   4.635   7.352  0.7249  0.2085  0.0926
17966THY    CM132739   7.855   4.602   7.456  0.1949 -0.3594 -0.3776
17966THY    HM132740   7.775   4.677   7.461 -0.3402  2.9331 -0.9872
17966THY    HM232741   7.895   4.602   7.558  0.3780 -0.4303  0.1360
17966THY    HM332742   7.795   4.512   7.436 -0.0596 -2.4923  0.2119
17966THY    CA632743   8.010   4.532   7.269 -0.2567  0.6165 -0.5242
17966THY    HA632744   7.954   4.439   7.264  1.3443 -1.0730 -1.4691
17967THY      O32745   8.984   3.559   5.924  0.1328  0.5146  0.5716
17967THY     HO32746   9.066   3.531   5.969 -0.4246  2.3810  1.8091
17967THY    CA132747   9.004   3.662   5.834 -0.1758  0.5681 -0.1935
17967THY    CA232748   8.895   3.716   5.765 -0.6242  0.4383 -0.2097
17967THY    CP132749   8.757   3.654   5.773  0.0763  0.2269  0.1094
17967THY    HP132750   8.739   3.579   5.851 -1.3226 -2.0953 -2.1129
17967THY    CP232751   8.731   3.579   5.635  0.2513 -0.4222 -0.1328
17967THY    HP232752   8.631   3.535   5.633 -0.0577  0.8654  0.4404
17967THY    HP332753   8.797   3.492   5.629 -1.6020  1.3400 -1.7666
17967THY    HP432754   8.747   3.659   5.561  1.0413  0.8987  0.9749
17967THY    CP332755   8.654   3.759   5.796  0.6943 -0.1114  0.2028
17967THY    HP532756   8.554   3.714   5.796  1.0042 -0.8437 -0.5082
17967THY    HP632757   8.648   3.844   5.727 -1.7398  0.5086  0.6290
17967THY    HP732758   8.682   3.811   5.888  0.2623 -0.0052  0.2561
17967THY    CA332759   8.922   3.829   5.683 -0.8585  0.5310 -0.1008
17967THY    HA332760   8.839   3.874   5.630 -1.4120  1.0103 -0.5525
17967THY    CA432761   9.053   3.893   5.682 -0.0864 -0.2049  0.1402
17967THY    HA432762   9.080   3.976   5.617 -0.2987 -0.5730 -0.0728
17967THY    CA532763   9.151   3.839   5.764  0.4348  0.7647 -0.3331
17967THY    CM132764   9.287   3.912   5.766  0.7653 -0.8127  0.1748
17967THY    HM132765   9.338   3.895   5.862 -0.6756 -0.3466 -1.8144
17967THY    HM232766   9.267   4.019   5.753  0.9934 -0.0364  0.3191
17967THY    HM332767   9.353   3.892   5.681  1.4173 -0.2400 -0.1477
17967THY    CA632768   9.131   3.717   5.832  0.5214  0.5656 -0.3062
17967THY    HA632769   9.204   3.685   5.906 -1.1882  1.2479 -2.9775
17968THY      O32770   4.051   4.504   3.750  0.2488  0.0034 -0.0341
17968THY     HO32771   4.097   4.589   3.745  0.5433  3.8132  0.2002
17968THY    CA132772   4.019   4.456   3.622 -1.0078  0.6246 -0.1792
17968THY    CA232773   3.939   4.347   3.596 -0.0415 -0.2297 -0.1201
17968THY    CP132774   3.892   4.251   3.702 -0.2768  0.2527 -0.2165
17968THY    HP132775   3.916   4.287   3.803 -0.4884 -0.4327  2.0022
17968THY    CP232776   3.946   4.103   3.675 -0.1514 -0.0845 -0.7635
17968THY    HP232777   3.871   4.057   3.610 -0.5178 -2.0258  2.2743
17968THY    HP332778   3.963   4.044   3.766 -1.1795 -1.5309 -3.4202
17968THY    HP432779   4.038   4.104   3.615  0.6031  1.0236  0.5584
17968THY    CP332780   3.741   4.253   3.710 -0.0054 -0.7120  0.1257
17968THY    HP532781   3.708   4.357   3.714 -0.0674 -0.1383  0.0897
17968THY    HP632782   3.699   4.194   3.792  1.7044 -0.1532 -0.3588
17968THY    HP732783   3.689   4.210   3.624  0.3591 -0.6137 -0.5154
17968THY    CA332784   3.911   4.317   3.464 -0.5476  0.6656  0.0169
17968THY    HA332785   3.865   4.223   3.437  1.2990  0.6074 -0.9050
17968THY    CA432786   3.973   4.389   3.358 -0.0719 -0.3842  0.7869
17968THY    HA432787   3.965   4.353   3.256 -1.2149  0.1845 -0.6718
17968THY    CA532788   4.043   4.508   3.385  0.0291  0.3207  0.2502
17968THY    CM132789   4.095   4.596   3.277  0.2689 -0.5845  0.5818
17968THY    HM132790   4.014   4.604   3.203  1.0362 -1.4319  0.7150
17968THY    HM232791   4.186   4.551   3.236  0.0158  0.6937 -1.1769
17968THY    HM332792   4.105   4.699   3.313  0.7862  1.8460 -0.2584
17968THY    CA632793   4.067   4.535   3.518 -0.3089  0.1862 -0.3042
17968THY    HA632794   4.130   4.622   3.537  0.2498  0.5739 -0.7809
17969THY      O32795   3.921   7.356   6.381 -0.0153  0.0345  0.0409
17969THY     HO32796   3.958   7.434   6.337 -0.1304 -0.9022 -0.4245
17969THY    CA132797   3.806   7.313   6.324  0.7384  0.0161 -0.6634
17969THY    CA232798   3.730   7.206   6.386 -0.3592  0.1694 -1.0254
17969THY    CP132799   3.785   7.136   6.510 -0.6330  0.2653  0.9273
17969THY    HP132800   3.821   7.214   6.579  1.2597  0.1796  0.1765
17969THY    CP232801   3.893   7.035   6.467  0.2244  0.0346  0.0051
17969THY    HP232802   3.976   7.087   6.417 -0.3757 -0.2204  0.7427
17969THY    HP332803   3.851   6.969   6.391 -2.0041 -0.4266  1.8270
17969THY    HP432804   3.926   6.962   6.542 -0.3427  0.8102  0.5233
17969THY    CP332805   3.678   7.055   6.577 -0.0533 -0.4395  0.0826
17969THY    HP532806   3.604   7.125   6.616  0.9378 -1.2795  1.6556
17969THY    HP632807   3.719   7.000   6.663 -0.5928 -0.9000 -1.0803
17969THY    HP732808   3.622   6.982   6.516 -1.2136  0.5725  0.0985
17969THY    CA332809   3.599   7.196   6.332 -0.0257  0.5400 -0.2825
17969THY    HA332810   3.530   7.124   6.375 -2.0928  0.8464  1.7540
17969THY    CA432811   3.554   7.285   6.228 -0.0096 -0.9604  0.0984
17969THY    HA432812   3.449   7.277   6.202 -0.8321  2.0581 -0.1946
17969THY    CA532813   3.645   7.369   6.161 -0.1918 -0.3263 -0.2219
17969THY    CM132814   3.612   7.450   6.037  0.4651 -0.1686  0.4718
17969THY    HM132815   3.626   7.557   6.056 -1.3100  0.0092  0.6963
17969THY    HM232816   3.513   7.421   6.001  0.9221 -1.9160  0.9344
17969THY    HM332817   3.683   7.424   5.957  1.2325  0.4429  0.6578
17969THY    CA632818   3.772   7.376   6.211  0.4222  0.3308 -0.3054
17969THY    HA632819   3.835   7.444   6.155 -0.9922 -2.7453 -1.3051
17970THY      O32820   1.809   7.908   4.897  0.1425 -0.7730 -0.1603
17970THY     HO32821   1.770   7.978   4.841 -0.8096 -0.3387 -0.3255
17970THY    CA132822   1.870   7.985   4.999  0.5895 -0.3360 -0.1142
17970THY    CA232823   1.975   7.925   5.080 -0.4365 -0.4092  0.3219
17970THY    CP132824   1.999   7.775   5.091 -0.3524 -0.4192  0.8201
17970THY    HP132825   1.938   7.723   5.016 -0.7877  0.9908 -0.8059
17970THY    CP232826   1.942   7.726   5.224  0.7493 -0.3568  0.7577
17970THY    HP232827   1.992   7.751   5.318 -3.0573  2.9720 -2.6556
17970THY    HP332828   1.931   7.618   5.210 -1.9054  0.7416  0.8178
17970THY    HP432829   1.836   7.753   5.218  0.0067 -1.3426 -2.0235
17970THY    CP332830   2.143   7.731   5.081  0.5017  0.1017  0.3819
17970THY    HP532831   2.143   7.623   5.102  3.0053 -0.1925  0.2626
17970THY    HP632832   2.204   7.784   5.156 -0.8428  0.5533  1.3273
17970THY    HP732833   2.186   7.740   4.981  1.8857  0.6582  0.2279
17970THY    CA332834   2.051   8.015   5.160  0.1558  0.1913 -0.2913
17970THY    HA332835   2.124   7.979   5.232  0.6082  0.4740  1.0972
17970THY    CA432836   2.024   8.152   5.144  0.5888 -0.3070  0.5595
17970THY    HA432837   2.084   8.221   5.202  0.5698 -0.8544  1.0393
17970THY    CA532838   1.925   8.204   5.057 -0.2291 -0.9564 -0.2943
17970THY    CM132839   1.919   8.351   5.042 -0.0365 -0.3133 -0.8045
17970THY    HM132840   1.856   8.401   5.116 -0.0176 -0.2118 -0.9290
17970THY    HM232841   1.870   8.382   4.949  2.3773 -1.3618  0.1170
17970THY    HM332842   2.012   8.408   5.053 -0.8991 -0.9920  0.7944
17970THY    CA632843   1.834   8.123   4.990  0.6341  0.1981 -0.2293
17970THY    HA632844   1.762   8.167   4.921  0.1312  0.8347 -0.0289
17971THY      O32845   7.951   6.036   7.488  0.7512  0.5006 -0.7225
17971THY     HO32846   8.007   6.096   7.539 -3.5394  0.6754  3.8472
17971THY    CA132847   7.829   6.033   7.555 -0.3555 -0.1600 -0.0899
17971THY    CA232848   7.714   5.972   7.505 -0.4088 -0.1393  0.2043
17971THY    CP132849   7.721   5.900   7.376 -0.4404 -0.0616  0.0738
17971THY    HP132850   7.824   5.868   7.360  0.0835  1.6548  0.7754
17971THY    CP232851   7.693   5.992   7.257  0.3395 -0.0842  0.5435
17971THY    HP232852   7.584   5.996   7.242  0.4231 -0.6096  0.8566
17971THY    HP332853   7.744   5.944   7.172  1.0311  0.4203  0.3675
17971THY    HP432854   7.739   6.091   7.255  0.8238 -0.9944  0.3157
17971THY    CP332855   7.631   5.777   7.359 -0.2785  0.3699 -0.3471
17971THY    HP532856   7.645   5.731   7.261 -0.4972  0.2237 -0.1006
17971THY    HP632857   7.527   5.809   7.371 -0.0188  1.7671  0.0540
17971THY    HP732858   7.651   5.703   7.438  1.2895  1.4740  1.1807
17971THY    CA332859   7.603   5.970   7.583  0.3527 -0.3993  0.0147
17971THY    HA332860   7.509   5.923   7.556  0.1752 -0.3125  0.3126
17971THY    CA432861   7.604   6.036   7.710  0.3970 -1.0930 -0.7864
17971THY    HA432862   7.514   6.043   7.769  0.8255 -0.6429  3.0821
17971THY    CA532863   7.716   6.096   7.756  0.1257 -0.5599 -0.8191
17971THY    CM132864   7.716   6.167   7.886  0.0415 -0.2118 -0.5420
17971THY    HM132865   7.619   6.175   7.936  0.5240  0.7238 -0.3863
17971THY    HM232866   7.753   6.270   7.887 -0.3241 -0.3988 -0.4102
17971THY    HM332867   7.781   6.114   7.957 -0.0340  1.4796  1.4816
17971THY    CA632868   7.829   6.094   7.675 -0.5280 -0.7914  0.0472
17971THY    HA632869   7.915   6.152   7.708  0.7752 -0.5381 -1.9284
17972THY      O32870   7.368   3.859   4.486 -0.6824 -0.4378 -0.6437
17972THY     HO32871   7.396   3.800   4.414  1.5717  0.7215 -1.0812
17972THY    CA132872   7.457   3.840   4.592  0.4612  0.1295 -0.6159
17972THY    CA232873   7.425   3.877   4.727 -0.4878  0.1545  0.2804
17972THY    CP132874   7.298   3.958   4.759  0.1969 -0.6013 -0.6495
17972THY    HP132875   7.246   3.976   4.665 -2.0688  0.0252 -3.2153
17972THY    CP232876   7.328   4.097   4.825  0.4791  0.1683 -1.0415
17972THY    HP232877   7.420   4.135   4.780 -0.2648  0.7318  1.6262
17972THY    HP332878   7.331   4.105   4.934 -2.9297  0.4150 -1.4398
17972THY    HP432879   7.254   4.170   4.790 -0.6817  0.5951 -1.9876
17972THY    CP332880   7.205   3.885   4.849 -0.0274 -0.1477 -0.2895
17972THY    HP532881   7.249   3.851   4.943 -1.1410  0.3775 -0.3176
17972THY    HP632882   7.166   3.791   4.806 -0.8971  0.6344 -0.2965
17972THY    HP732883   7.128   3.956   4.879  0.9989  1.3693  0.2088
17972THY    CA332884   7.529   3.848   4.822 -0.2523 -0.3404 -0.4735
17972THY    HA332885   7.522   3.883   4.924  1.4072 -0.6634  0.9657
17972THY    CA432886   7.643   3.775   4.783 -0.4601 -0.4628 -0.0649
17972THY    HA432887   7.723   3.757   4.854  2.0858 -3.4564 -1.8659
17972THY    CA532888   7.660   3.736   4.654 -0.1996  0.0506 -0.0245
17972THY    CM132889   7.778   3.659   4.604 -0.1476 -0.7273 -0.6013
17972THY    HM132890   7.755   3.552   4.600  0.4272 -1.3255 -0.7083
17972THY    HM232891   7.855   3.659   4.682 -1.6979  0.8803  0.4753
17972THY    HM332892   7.813   3.695   4.507 -1.1290 -0.9435 -0.1751
17972THY    CA632893   7.571   3.776   4.551 -0.2182 -1.2145 -0.3038
17972THY    HA632894   7.590   3.756   4.446 -2.0504 -1.3750 -1.5031
17973THY      O32895   8.541   2.060   4.582  0.0345 -0.1357  0.6683
17973THY     HO32896   8.625   2.107   4.567  0.3244  1.1414  0.5895
17973THY    CA132897   8.445   2.155   4.588  0.1472  0.4020  0.3684
17973THY    CA232898   8.324   2.128   4.653 -0.1308 -0.2714 -0.5717
17973THY    CP132899   8.316   1.998   4.737  0.1803  0.6369 -0.2084
17973THY    HP132900   8.410   1.943   4.723  1.2954  1.1065  1.4992
17973THY    CP232901   8.210   1.903   4.681  0.7663  0.1374  0.4881
17973THY    HP232902   8.119   1.959   4.658  1.1311 -2.0468  0.2869
17973THY    HP332903   8.188   1.816   4.743  1.1930 -0.5481 -0.1179
17973THY    HP432904   8.246   1.857   4.588 -0.7219 -0.5580  0.6802
17973THY    CP332905   8.293   2.033   4.890 -0.2247 -0.8990  0.2812
17973THY    HP532906   8.263   1.943   4.944 -0.4817 -1.2332  0.1651
17973THY    HP632907   8.209   2.099   4.915  0.5844  1.4018  0.5403
17973THY    HP732908   8.388   2.071   4.930 -1.0789  0.4373  1.1301
17973THY    CA332909   8.220   2.230   4.653  0.4610 -0.4180 -0.6680
17973THY    HA332910   8.124   2.214   4.701 -0.5061 -1.4359  1.5989
17973THY    CA432911   8.241   2.341   4.573  0.6684  0.2213 -0.3022
17973THY    HA432912   8.162   2.415   4.565  0.8722  2.4431  0.2415
17973THY    CA532913   8.361   2.369   4.507 -0.6502  0.1283 -0.6184
17973THY    CM132914   8.384   2.502   4.432  0.4135 -0.0146  0.8449
17973THY    HM132915   8.491   2.526   4.421  1.1246  2.1701 -0.9494
17973THY    HM232916   8.341   2.588   4.485 -0.9327  2.1495 -1.0375
17973THY    HM332917   8.335   2.492   4.334  2.2881 -0.8060 -1.5511
17973THY    CA632918   8.461   2.274   4.514  0.2192 -0.2883 -0.0426
17973THY    HA632919   8.550   2.288   4.453  1.5250  1.4224 -0.4990
17974THY      O32920   4.204   3.583   3.451 -0.1983 -0.9608 -0.4869
17974THY     HO32921   4.231   3.677   3.445 -0.1096 -1.5252 -0.5422
17974THY    CA132922   4.250   3.529   3.338  0.1828 -0.1641 -0.2755
17974THY    CA232923   4.237   3.388   3.312  0.9322  0.7673 -0.1607
17974THY    CP132924   4.161   3.300   3.413  0.3914  0.2320 -0.0133
17974THY    HP132925   4.080   3.365   3.449 -0.5635 -1.3406 -0.2851
17974THY    CP232926   4.260   3.256   3.522 -0.0496 -0.6044  0.5113
17974THY    HP232927   4.323   3.341   3.550  0.1633  0.2661  0.0792
17974THY    HP332928   4.335   3.185   3.486  0.5368  0.6221  0.4822
17974THY    HP432929   4.207   3.233   3.615 -1.3956 -1.2047  1.1299
17974THY    CP332930   4.097   3.174   3.348  0.0826  0.1265 -0.8385
17974THY    HP532931   4.039   3.201   3.259 -2.2017  1.6092 -0.6873
17974THY    HP632932   4.022   3.128   3.412 -0.4774 -0.4686 -0.7746
17974THY    HP732933   4.173   3.099   3.321  0.3003 -0.3206 -0.4664
17974THY    CA332934   4.276   3.339   3.182 -0.2070 -0.0654  0.2198
17974THY    HA332935   4.276   3.231   3.172  1.2321 -2.0087  0.3594
17974THY    CA432936   4.332   3.431   3.092 -0.2874 -0.3217 -0.0567
17974THY    HA432937   4.365   3.398   2.994 -0.3277 -0.6751  0.9147
17974THY    CA532938   4.343   3.566   3.119  0.4222  0.2146 -0.8932
17974THY    CM132939   4.411   3.658   3.024  0.0527 -0.3974 -0.1328
17974THY    HM132940   4.405   3.761   3.060 -4.1864  1.2800 -0.7552
17974THY    HM232941   4.367   3.663   2.924 -0.3374 -0.3024 -1.3380
17974THY    HM332942   4.516   3.629   3.015  0.3467 -0.5323  0.9400
17974THY    CA632943   4.306   3.616   3.247 -0.7989 -0.3698 -0.5432
17974THY    HA632944   4.323   3.721   3.266 -2.0097 -1.2676 -0.1621
17975THY      O32945   8.270   6.583   7.503 -0.1495 -0.2371 -0.4806
17975THY     HO32946   8.305   6.570   7.413  3.6929  0.7047  1.6867
17975THY    CA132947   8.383   6.553   7.575  0.0227  0.4821 -0.3991
17975THY    CA232948   8.406   6.598   7.707  0.0544 -0.0107  0.1816
17975THY    CP132949   8.294   6.687   7.770 -0.8849  0.3249  0.2182
17975THY    HP132950   8.195   6.646   7.749  0.3065  2.2127 -4.2858
17975THY    CP232951   8.299   6.826   7.706  0.5820 -0.7061  0.4199
17975THY    HP232952   8.226   6.891   7.755  0.6484 -0.5976  0.4133
17975THY    HP332953   8.271   6.823   7.600 -2.5996 -0.0404  2.1763
17975THY    HP432954   8.403   6.861   7.702  1.3390 -1.7278 -1.7822
17975THY    CP332955   8.307   6.704   7.916 -0.2848 -0.1260 -0.2270
17975THY    HP532956   8.219   6.739   7.971  0.0224  0.6173 -0.5944
17975THY    HP632957   8.391   6.771   7.936 -0.1747 -0.5959 -0.2212
17975THY    HP732958   8.322   6.604   7.960  0.5248 -0.0572 -0.0770
17975THY    CA332959   8.530   6.584   7.771 -0.8594 -0.2307 -0.3427
17975THY    HA332960   8.556   6.619   7.870  1.3170 -0.7346 -0.3615
17975THY    CA432961   8.635   6.529   7.699 -0.8526 -0.6980 -0.2291
17975THY    HA432962   8.730   6.510   7.747 -0.9828 -0.1967  0.3697
17975THY    CA532963   8.615   6.471   7.571  0.8471  0.0738 -0.6378
17975THY    CM132964   8.728   6.417   7.483 -0.5694  0.0260  0.3123
17975THY    HM132965   8.687   6.357   7.401  1.9396  0.7900 -2.6973
17975THY    HM232966   8.780   6.346   7.548 -1.3143 -0.8613 -1.0896
17975THY    HM332967   8.798   6.490   7.441 -1.3464 -1.1489  0.4268
17975THY    CA632968   8.486   6.486   7.509  0.1445 -0.0198 -0.2688
17975THY    HA632969   8.476   6.459   7.405 -2.3382  0.3462 -1.0121
17976THY      O32970   5.944   3.093   8.116  0.0991 -0.0271  0.7674
17976THY     HO32971   5.910   3.010   8.153  0.8400 -0.0246  0.4529
17976THY    CA132972   5.993   3.052   7.999  0.3977 -0.0422 -0.2442
17976THY    CA232973   6.024   3.150   7.896  0.1136 -0.5437  0.6652
17976THY    CP132974   5.994   3.299   7.925  0.0124 -0.2816 -0.0341
17976THY    HP132975   5.907   3.320   7.988  0.3008  0.2216 -0.3325
17976THY    CP232976   5.976   3.388   7.814  0.1270  0.9257  0.4884
17976THY    HP232977   6.063   3.384   7.749  0.1902  1.0681 -0.5158
17976THY    HP332978   5.968   3.494   7.844 -0.7639  0.6185  0.5203
17976THY    HP432979   5.892   3.355   7.752  1.1622 -0.4450  0.3708
17976THY    CP332980   6.105   3.364   8.012 -0.3447  0.2205  1.0126
17976THY    HP532981   6.203   3.366   7.963 -0.7748 -0.7494 -0.0080
17976THY    HP632982   6.117   3.304   8.103 -1.3757 -1.0853 -1.3579
17976THY    HP732983   6.087   3.470   8.032 -0.8958  1.6224  0.6799
17976THY    CA332984   6.094   3.098   7.786 -0.3904 -0.0549 -0.4452
17976THY    HA332985   6.136   3.154   7.703  2.2346  1.8110  0.5673
17976THY    CA432986   6.095   2.960   7.759 -0.6838 -0.2494 -0.0374
17976THY    HA432987   6.127   2.921   7.663  1.1923  0.2852  0.0835
17976THY    CA532988   6.059   2.869   7.858  1.4509  0.3118  0.2464
17976THY    CM132989   6.058   2.723   7.828 -0.1873 -0.4689  0.0186
17976THY    HM132990   6.145   2.686   7.772  1.0923  2.0546 -1.0141
17976THY    HM232991   5.968   2.700   7.769 -0.2055 -0.9456  1.2206
17976THY    HM332992   6.055   2.659   7.916  0.8484 -1.0189 -0.8042
17976THY    CA632993   6.017   2.918   7.979  0.7829  0.3342  0.3030
17976THY    HA632994   5.997   2.845   8.057  1.1208  0.8041  0.7050
17977THY      O32995   7.299   1.498   2.366 -0.3851 -0.3414 -0.0314
17977THY     HO32996   7.239   1.445   2.421  1.2194 -0.0926 -1.7325
17977THY    CA132997   7.389   1.550   2.447  1.0458  0.0190 -0.0254
17977THY    CA232998   7.475   1.654   2.401  0.4168  0.1774  0.1573
17977THY    CP132999   7.454   1.717   2.264  0.8203 -0.4435 -0.6302
17977THY    HP133000   7.381   1.667   2.199  0.3617 -0.4385  0.0237
17977THY    CP233001   7.582   1.702   2.191 -0.2091  0.4996  0.1646
17977THY    HP233002   7.637   1.607   2.197  2.5811 -2.1407  1.4759
17977THY    HP333003   7.664   1.773   2.208 -0.7925  0.2389  0.9153
17977THY    HP433004   7.587   1.717   2.083  0.8298  0.4907 -0.1740
17977THY    CP333005   7.417   1.868   2.271 -0.2377 -0.3006  0.0102
17977THY    HP533006   7.418   1.904   2.167 -0.0879 -1.7833 -3.8264
17977THY    HP633007   7.485   1.937   2.323 -1.8989 -0.3113  1.7320
17977THY    HP733008   7.318   1.878   2.317 -0.4010 -0.2237 -1.6159
17977THY    CA333009   7.558   1.712   2.498 -0.2455  0.1908  0.2334
17977THY    HA333010   7.612   1.801   2.466  0.6918 -1.1019 -0.7704
17977THY    CA433011   7.561   1.653   2.624  0.1452 -0.1840 -0.7833
17977THY    HA433012   7.631   1.701   2.691 -0.2125  0.5460 -1.2616
17977THY    CA533013   7.487   1.538   2.662  0.4097 -0.2839 -0.4035
17977THY    CM133014   7.494   1.490   2.803 -0.5822  0.1853  0.3937
17977THY    HM133015   7.523   1.385   2.806 -0.9453  0.3134  0.2943
17977THY    HM233016   7.401   1.508   2.859 -0.0912  0.7296  1.3582
17977THY    HM333017   7.562   1.542   2.872 -0.3124 -0.6732  1.2218
17977THY    CA633018   7.388   1.497   2.573  0.0210 -0.9873  0.6584
17977THY    HA633019   7.317   1.423   2.609 -0.4417 -0.1188  1.4944
17978THY      O33020   9.147   5.660   7.694 -0.0355  0.0863 -0.0908
17978THY     HO33021   9.097   5.661   7.778 -0.6811 -0.2740 -0.7556
17978THY    CA133022   9.059   5.675   7.587  0.1073  0.2280  0.4853
17978THY    CA233023   9.094   5.681   7.453 -0.8765 -0.2034  0.2349
17978THY    CP133024   9.240   5.688   7.411 -0.1864  0.4322  0.2280
17978THY    HP133025   9.308   5.659   7.493  0.6040 -0.3200 -0.1015
17978THY    CP233026   9.280   5.836   7.409  0.1588  0.2573 -0.8680
17978THY    HP233027   9.389   5.847   7.402  0.1224  1.1674  0.3096
17978THY    HP333028   9.249   5.887   7.501  0.1461  0.0047 -0.4131
17978THY    HP433029   9.239   5.892   7.323  1.0156  0.2402 -0.2373
17978THY    CP333030   9.285   5.625   7.277 -0.4247 -0.1974 -0.3958
17978THY    HP533031   9.276   5.515   7.275 -0.7498  0.3856 -0.3861
17978THY    HP633032   9.385   5.659   7.247 -0.3381  1.3314  0.7982
17978THY    HP733033   9.219   5.652   7.194  0.6430 -0.7263  0.6599
17978THY    CA333034   8.992   5.690   7.358  0.2212  0.7310  0.3984
17978THY    HA333035   9.021   5.701   7.254 -3.5147 -0.4240  0.5244
17978THY    CA433036   8.864   5.703   7.396 -0.4870  0.8184 -0.4616
17978THY    HA433037   8.792   5.723   7.317 -1.7306  2.1299  0.4163
17978THY    CA533038   8.821   5.689   7.530  0.2477  0.2063 -0.1527
17978THY    CM133039   8.674   5.688   7.553  0.2957  0.0528 -0.4323
17978THY    HM133040   8.644   5.601   7.613 -1.9423  1.1164  0.9850
17978THY    HM233041   8.620   5.694   7.458 -0.5534  0.3139 -2.8955
17978THY    HM333042   8.647   5.772   7.618 -0.4925  0.0734 -0.6874
17978THY    CA633043   8.921   5.678   7.623  0.2982 -0.0223  0.3136
17978THY    HA633044   8.892   5.663   7.726  1.5858  0.2065 -0.7911
17979THY      O33045   9.208   6.606   6.047  0.3219  0.4990  0.4437
17979THY     HO33046   9.304   6.606   6.031  0.6043  1.9786 -1.5677
17979THY    CA133047   9.180   6.740   6.052  0.2043  0.1254  0.3049
17979THY    CA233048   9.043   6.779   6.047 -0.9708 -0.3037  0.6921
17979THY    CP133049   8.926   6.674   6.062 -0.2523  0.4789 -0.4947
17979THY    HP133050   8.957   6.581   6.112 -3.7818  1.3412 -1.3335
17979THY    CP233051   8.851   6.647   5.928  0.6358 -0.3026  0.2888
17979THY    HP233052   8.757   6.590   5.932  0.8003 -0.9981 -0.0319
17979THY    HP333053   8.917   6.605   5.851 -0.0226 -0.3705 -0.6422
17979THY    HP433054   8.817   6.746   5.896 -1.1676  1.2632  0.2428
17979THY    CP333055   8.821   6.723   6.155  1.0628 -0.2274  0.2047
17979THY    HP533056   8.765   6.803   6.104  2.3557 -0.7950  0.7694
17979THY    HP633057   8.859   6.760   6.250 -1.4700  0.4966  1.1515
17979THY    HP733058   8.757   6.636   6.174  1.4360 -1.2361 -0.3129
17979THY    CA333059   9.010   6.907   6.036 -0.7007  0.8792 -0.1943
17979THY    HA333060   8.909   6.948   6.031 -0.8692  0.0753 -0.6871
17979THY    CA433061   9.115   6.996   6.049 -0.5340  0.1004 -0.2381
17979THY    HA433062   9.091   7.101   6.033  1.2498  1.8872  0.5023
17979THY    CA533063   9.251   6.966   6.053 -0.0840  0.1491  0.0817
17979THY    CM133064   9.354   7.074   6.047  0.8085 -0.3530 -0.0444
17979THY    HM133065   9.335   7.150   6.124 -1.4711  0.3626 -1.2193
17979THY    HM233066   9.373   7.100   5.943  1.1219 -0.4471 -0.6365
17979THY    HM333067   9.455   7.035   6.063  0.5940 -0.8198 -0.8075
17979THY    CA633068   9.283   6.832   6.065  0.5697  0.0222 -0.1003
17979THY    HA633069   9.388   6.808   6.078  1.1181 -1.1592  1.4388
17980THY      O33070   1.226   3.272   1.818  0.1512 -0.1050 -0.6066
17980THY     HO33071   1.210   3.176   1.817 -1.7197  0.4431 -0.3237
17980THY    CA133072   1.323   3.304   1.902 -0.3798 -0.3682 -0.3696
17980THY    CA233073   1.352   3.440   1.926  0.4609 -0.3052  0.4560
17980THY    CP133074   1.263   3.542   1.855 -0.0121 -0.3339 -0.3022
17980THY    HP133075   1.180   3.488   1.809  0.9525 -2.4935 -0.0414
17980THY    CP233076   1.334   3.629   1.744 -0.9932  0.0068  0.6959
17980THY    HP233077   1.381   3.561   1.672  0.2316  2.1593 -0.8754
17980THY    HP333078   1.399   3.708   1.784 -0.7773  0.8037  0.1282
17980THY    HP433079   1.256   3.685   1.691 -1.0451  0.7071  1.3032
17980THY    CP333080   1.205   3.649   1.944 -0.7622  0.1822  0.2437
17980THY    HP533081   1.296   3.693   1.987  0.0092  0.7985 -1.8427
17980THY    HP633082   1.147   3.596   2.020 -2.8210 -0.6313  1.2003
17980THY    HP733083   1.155   3.723   1.880  0.5454  0.1797  1.1668
17980THY    CA333084   1.470   3.472   1.996  0.0577 -0.3753 -0.7222
17980THY    HA333085   1.499   3.577   1.999 -0.3952 -2.6582 -0.4823
17980THY    CA433086   1.535   3.371   2.066 -0.0016  0.3962  0.3917
17980THY    HA433087   1.609   3.404   2.139  0.6635 -0.4150  0.7190
17980THY    CA533088   1.498   3.237   2.053  0.5267 -0.5522  0.2889
17980THY    CM133089   1.557   3.128   2.141  0.8355  0.1132 -0.0443
17980THY    HM133090   1.493   3.046   2.175  2.2058 -2.1244 -2.1506
17980THY    HM233091   1.613   3.169   2.225  1.3948  1.0651 -2.5724
17980THY    HM333092   1.637   3.081   2.084 -0.2474 -0.7582 -0.8795
17980THY    CA633093   1.396   3.200   1.964 -0.6112  0.1155  0.5447
17980THY    HA633094   1.373   3.096   1.943  3.1578  0.3932 -0.4966
17981THY      O33095   5.134   3.999   4.273  0.3206 -0.2308 -0.3853
17981THY     HO33096   5.093   4.066   4.216  2.5209 -0.9191  0.4539
17981THY    CA133097   5.144   4.043   4.398  0.5361 -0.4055  0.3921
17981THY    CA233098   5.169   3.959   4.512  0.2358  0.7247  0.5322
17981THY    CP133099   5.173   3.805   4.499  0.3723 -0.1297 -0.2301
17981THY    HP133100   5.153   3.786   4.393 -1.6464  0.1714 -0.0315
17981THY    CP233101   5.068   3.733   4.571  0.2814 -0.2904  0.2241
17981THY    HP233102   4.971   3.760   4.528  0.3707 -1.1256 -0.7248
17981THY    HP333103   5.062   3.756   4.678  1.1717  0.1759 -1.4948
17981THY    HP433104   5.069   3.624   4.559 -0.8213  0.5632  0.0995
17981THY    CP333105   5.320   3.763   4.533  0.0653  0.3774  0.1948
17981THY    HP533106   5.337   3.771   4.641 -0.1975  0.5269 -1.0672
17981THY    HP633107   5.392   3.825   4.478  1.2783  1.0042 -0.6140
17981THY    HP733108   5.339   3.658   4.507  0.1051 -2.3530  0.7846
17981THY    CA333109   5.198   4.020   4.639  0.3785  1.2796 -0.0620
17981THY    HA333110   5.234   3.955   4.718 -2.8950  3.2277  0.2935
17981THY    CA433111   5.180   4.160   4.653  0.7754  0.0157  0.2689
17981THY    HA433112   5.196   4.198   4.754  1.1215  0.7215 -1.5979
17981THY    CA533113   5.152   4.235   4.540 -0.2120 -0.2452 -0.1213
17981THY    CM133114   5.131   4.381   4.566 -0.0482 -0.0034  0.5927
17981THY    HM133115   5.205   4.420   4.635  0.2815  1.0430 -1.7216
17981THY    HM233116   5.029   4.398   4.604 -0.5441 -0.4039 -1.2824
17981THY    HM333117   5.152   4.448   4.482  1.7772  0.2057  0.3134
17981THY    CA633118   5.133   4.182   4.412 -0.4150  0.2015  0.5419
17981THY    HA633119   5.104   4.246   4.330 -0.3095 -0.5207 -0.3067
17982THY      O33120   1.119   7.122   1.908  1.0091 -0.2402 -0.0048
17982THY     HO33121   1.119   7.172   1.825 -0.7922 -0.5316 -0.4122
17982THY    CA133122   1.158   7.006   1.862 -0.0459  0.1781  0.1811
17982THY    CA233123   1.211   6.912   1.954  0.8027  0.2760 -0.0903
17982THY    CP133124   1.181   6.925   2.107 -0.0690 -0.2633  0.3742
17982THY    HP133125   1.112   7.006   2.132 -0.1734  1.7574 -0.2818
17982THY    CP233126   1.305   6.927   2.190 -0.2031 -0.4104  0.4292
17982THY    HP233127   1.293   6.974   2.288  0.5167 -0.6774  1.2028
17982THY    HP333128   1.374   6.988   2.129  0.1990 -0.0068  0.3860
17982THY    HP433129   1.358   6.831   2.196  1.3964  2.4221  1.3663
17982THY    CP333130   1.108   6.799   2.147 -0.1839 -0.5773 -0.7008
17982THY    HP533131   1.178   6.723   2.183  2.0229  1.2599  1.9893
17982THY    HP633132   1.035   6.753   2.079  0.2094 -1.2433 -0.3563
17982THY    HP733133   1.061   6.827   2.242 -2.0228 -0.4626 -3.6460
17982THY    CA333134   1.248   6.786   1.898 -0.4351 -0.5569  0.2637
17982THY    HA333135   1.280   6.702   1.959 -1.5646  0.7270  0.7160
17982THY    CA433136   1.248   6.766   1.762 -0.3688  0.7174  0.2386
17982THY    HA433137   1.273   6.668   1.720 -2.3550 -0.9883  0.3664
17982THY    CA533138   1.208   6.869   1.674  0.9429 -1.4512  0.1426
17982THY    CM133139   1.191   6.844   1.524  0.6098  0.3643 -0.1921
17982THY    HM133140   1.270   6.899   1.471 -1.5188 -1.2849  1.4544
17982THY    HM233141   1.106   6.890   1.474 -0.4570  1.0765 -1.3246
17982THY    HM333142   1.200   6.738   1.498 -2.6007 -0.6024 -0.3342
17982THY    CA633143   1.149   6.981   1.723 -0.1886 -0.0017 -0.3299
17982THY    HA633144   1.101   7.049   1.653 -0.4405  2.6347  2.4091
17983THY      O33145   8.278   1.520   7.253 -0.1762  0.1785  0.3037
17983THY     HO33146   8.203   1.464   7.228  0.3269  2.0524 -1.3234
17983THY    CA133147   8.355   1.452   7.341 -0.0702  0.8362  0.0096
17983THY    CA233148   8.426   1.505   7.451  0.0907  0.1057  0.6991
17983THY    CP133149   8.425   1.660   7.467 -0.1933  0.7954 -0.1296
17983THY    HP133150   8.381   1.707   7.378  2.1960 -0.0191  0.6847
17983THY    CP233151   8.566   1.711   7.477 -0.3278 -0.5545  0.1461
17983THY    HP233152   8.623   1.680   7.389  2.1040  0.7915  0.5525
17983THY    HP333153   8.629   1.669   7.555  0.4706 -1.8013 -1.0582
17983THY    HP433154   8.561   1.820   7.481 -2.1004  0.7678  0.0595
17983THY    CP333155   8.356   1.697   7.596 -0.3992  0.0402 -0.8385
17983THY    HP533156   8.257   1.651   7.597  0.8062 -0.4775 -3.6165
17983THY    HP633157   8.343   1.805   7.613  2.6981  0.9172 -0.4929
17983THY    HP733158   8.408   1.652   7.682  1.4522 -0.3362  0.4402
17983THY    CA333159   8.500   1.421   7.535 -0.2204 -0.7210  0.7506
17983THY    HA333160   8.563   1.464   7.612  0.1585  0.2915 -1.4498
17983THY    CA433161   8.484   1.284   7.519  0.0874  0.9268  0.4020
17983THY    HA433162   8.543   1.216   7.581 -1.0490  0.3939 -1.1337
17983THY    CA533163   8.402   1.232   7.419 -0.4547  0.1520  0.1040
17983THY    CM133164   8.398   1.082   7.398  0.1835  0.2274 -0.2244
17983THY    HM133165   8.298   1.041   7.382 -0.8791  0.9723  1.9010
17983THY    HM233166   8.435   1.025   7.484 -0.6804 -0.6239 -2.1504
17983THY    HM333167   8.450   1.061   7.304  1.4969  0.8940 -0.0700
17983THY    CA633168   8.338   1.315   7.335  0.2990  0.3558  0.0683
17983THY    HA633169   8.272   1.281   7.255  0.7141  0.3588 -0.7937
17984THY      O33170   3.760   8.948   6.113  0.1274 -0.0010 -0.0451
17984THY     HO33171   3.756   8.969   6.018  0.1239 -0.0339 -0.1957
17984THY    CA133172   3.858   9.034   6.156  0.3528 -0.0365 -0.9436
17984THY    CA233173   3.871   9.066   6.285 -0.0421  0.5618  0.2250
17984THY    CP133174   3.778   9.012   6.388  1.2142  0.2792  0.7180
17984THY    HP133175   3.710   8.936   6.349  3.0779 -1.2346 -0.2401
17984THY    CP233176   3.699   9.125   6.463 -0.4219  0.6364  0.7503
17984THY    HP233177   3.621   9.087   6.530  0.2572  2.0073  1.6770
17984THY    HP333178   3.668   9.214   6.407  0.2334  1.6271  1.6315
17984THY    HP433179   3.768   9.168   6.537 -0.7268  2.0003 -0.9772
17984THY    CP333180   3.857   8.923   6.487  0.2336  0.0620 -0.0516
17984THY    HP533181   3.908   8.840   6.437  1.0192 -0.1224  0.5291
17984THY    HP633182   3.787   8.872   6.553  1.5256  1.0129 -0.6565
17984THY    HP733183   3.923   8.989   6.545 -2.1333  0.7440  1.8318
17984THY    CA333184   3.980   9.144   6.322 -0.2503 -0.3387 -0.5750
17984THY    HA333185   3.992   9.173   6.426  3.1070 -0.9823  0.8459
17984THY    CA433186   4.082   9.183   6.227 -0.3117 -0.3452  0.1606
17984THY    HA433187   4.166   9.247   6.254 -1.7317 -0.3373  2.1111
17984THY    CA533188   4.061   9.147   6.095 -0.4741  0.2681  0.2617
17984THY    CM133189   4.168   9.184   5.993 -0.0962 -0.9182 -0.4400
17984THY    HM133190   4.270   9.150   6.014 -0.2850 -2.5279 -2.1628
17984THY    HM233191   4.169   9.293   5.981 -1.7857 -1.0865 -0.4161
17984THY    HM333192   4.145   9.144   5.894 -1.2768 -0.3910 -1.1265
17984THY    CA633193   3.952   9.071   6.060 -0.0976  0.2673 -0.7848
17984THY    HA633194   3.947   9.044   5.955 -0.5320 -0.3026  1.3105
17985THY      O33195   6.996   5.263   2.356 -1.1134 -0.2832 -0.2905
17985THY     HO33196   7.005   5.229   2.266 -2.3001 -0.3698 -0.4095
17985THY    CA133197   7.051   5.391   2.368 -0.4581  0.6958 -0.5833
17985THY    CA233198   7.031   5.471   2.485  0.0210 -0.4968  0.2947
17985THY    CP133199   6.964   5.422   2.605 -0.1231 -0.9806  0.4867
17985THY    HP133200   6.977   5.313   2.608  2.7635  1.2735  0.7906
17985THY    CP233201   6.816   5.459   2.599  0.2473 -0.1820 -0.1151
17985THY    HP233202   6.812   5.569   2.599  1.5216 -2.0741 -0.0169
17985THY    HP333203   6.765   5.407   2.681  2.9206  3.1663  2.0874
17985THY    HP433204   6.779   5.428   2.501  0.0342 -0.0209 -0.3724
17985THY    CP333205   7.017   5.460   2.742 -0.3725  0.4882  0.5390
17985THY    HP533206   7.115   5.412   2.751 -1.1674  0.9446 -1.0827
17985THY    HP633207   6.947   5.432   2.822 -0.4523 -0.3834 -2.0419
17985THY    HP733208   7.033   5.568   2.755 -1.0777 -1.1205  0.8754
17985THY    CA333209   7.071   5.607   2.485  0.1907  0.7315  0.0496
17985THY    HA333210   7.050   5.665   2.575 -0.0914 -0.2101  1.4550
17985THY    CA433211   7.155   5.646   2.374  0.4917  0.3417 -0.4716
17985THY    HA433212   7.184   5.750   2.370 -2.3396  1.3580  0.4580
17985THY    CA533213   7.162   5.574   2.250  1.2910 -0.1812  0.0565
17985THY    CM133214   7.218   5.644   2.137  0.3375 -0.0481 -0.2361
17985THY    HM133215   7.312   5.693   2.164 -0.9918  1.2824  1.7329
17985THY    HM233216   7.144   5.724   2.122  0.8242  0.7151  0.3747
17985THY    HM333217   7.207   5.578   2.050 -1.0869  0.5979 -0.8862
17985THY    CA633218   7.107   5.443   2.249  0.1981 -0.1259 -0.0000
17985THY    HA633219   7.104   5.387   2.156 -1.7598 -1.4035  2.0609
17986THY      O33220   7.017   9.528   7.269  0.1984 -0.4564 -0.6363
17986THY     HO33221   7.064   9.547   7.186  0.7308  0.2477  1.3766
17986THY    CA133222   6.972   9.404   7.273 -0.0052  0.1820  0.5077
17986THY    CA233223   6.920   9.340   7.390 -0.0244 -0.5063  0.2886
17986THY    CP133224   6.915   9.407   7.529 -0.2944 -0.3979  0.1364
17986THY    HP133225   6.970   9.501   7.518 -1.6624 -1.0763  0.8942
17986THY    CP233226   6.989   9.322   7.632 -0.3421 -0.0561  0.1927
17986THY    HP233227   6.936   9.234   7.672 -0.1987  0.3894  0.3061
17986THY    HP333228   7.033   9.370   7.720  0.1237  0.7302 -1.6018
17986THY    HP433229   7.078   9.282   7.583 -0.4317  0.0578 -0.1555
17986THY    CP333230   6.768   9.446   7.579  0.0945  0.0912  0.8221
17986THY    HP533231   6.709   9.479   7.493 -0.1479 -0.1695 -0.2386
17986THY    HP633232   6.772   9.520   7.659  1.2521  1.1494 -0.3216
17986THY    HP733233   6.726   9.352   7.617 -0.3161 -0.1148  0.9194
17986THY    CA333234   6.868   9.212   7.375  0.3370 -0.6980  0.0238
17986THY    HA333235   6.828   9.160   7.461  0.3499  0.9552  2.5598
17986THY    CA433236   6.859   9.151   7.252 -0.1742 -0.2683  0.1560
17986THY    HA433237   6.805   9.058   7.257 -2.3921 -3.3905  1.0927
17986THY    CA533238   6.902   9.211   7.140  0.2641 -0.1674  0.6191
17986THY    CM133239   6.889   9.128   7.015 -0.5179 -0.0677  0.0600
17986THY    HM133240   6.962   9.178   6.950  1.0017  0.6598 -1.1215
17986THY    HM233241   6.790   9.123   6.968 -0.5595  0.1504 -1.7047
17986THY    HM333242   6.926   9.025   7.024 -0.5013 -0.4973  0.0250
17986THY    CA633243   6.957   9.338   7.145 -0.4187 -0.2480 -0.2279
17986THY    HA633244   6.994   9.391   7.058  1.4018  1.8293  2.1076
17987THY      O33245   1.924   2.055   4.183  0.0367 -0.6738  0.5112
17987THY     HO33246   1.836   2.096   4.175  0.7063 -2.0530  1.7490
17987THY    CA133247   1.932   1.976   4.295  0.3276 -0.7556 -0.6964
17987THY    CA233248   2.024   1.865   4.308  0.0602  0.3730  0.3578
17987THY    CP133249   2.123   1.831   4.198 -0.0938 -0.4189  0.7250
17987THY    HP133250   2.100   1.898   4.114 -1.6265  0.2033  1.0334
17987THY    CP233251   2.084   1.685   4.152 -0.3061 -0.1607 -0.1448
17987THY    HP233252   1.979   1.672   4.123 -0.1100 -0.3314 -1.4335
17987THY    HP333253   2.106   1.611   4.229 -2.2219 -0.7535 -1.4226
17987THY    HP433254   2.142   1.659   4.063  1.2030  0.4554  0.9931
17987THY    CP333255   2.273   1.842   4.241 -0.5774 -0.3735 -0.2533
17987THY    HP533256   2.304   1.946   4.254 -0.5386 -2.1498 -0.0133
17987THY    HP633257   2.336   1.807   4.159  1.0611  0.0778  1.4838
17987THY    HP733258   2.282   1.777   4.329  1.0064  1.7550  2.6300
17987THY    CA333259   2.018   1.794   4.431  0.0158 -0.1582  0.4886
17987THY    HA333260   2.081   1.707   4.444  1.3737  1.1315  1.6080
17987THY    CA433261   1.914   1.818   4.522 -0.5066  0.6745 -0.9546
17987THY    HA433262   1.906   1.757   4.611  0.3891  1.4420  0.0109
17987THY    CA533263   1.827   1.929   4.507 -0.3504  0.2221  0.0112
17987THY    CM133264   1.729   1.971   4.613 -0.5565 -0.0788  0.1999
17987THY    HM133265   1.626   1.962   4.575 -0.2255 -1.3056  1.2922
17987THY    HM233266   1.738   2.078   4.635 -3.1303  1.3972  0.2138
17987THY    HM333267   1.739   1.906   4.700  1.3666 -1.1154 -0.9828
17987THY    CA633268   1.840   2.008   4.393 -0.2197 -0.3114 -0.2388
17987THY    HA633269   1.776   2.096   4.386 -0.4459  0.7007 -0.3176
17988THY      O33270   6.298   0.368   3.094 -0.4196 -0.0622  0.2085
17988THY     HO33271   6.207   0.379   3.060 -0.1125 -0.5213  1.4152
17988THY    CA133272   6.329   0.478   3.164  0.4413  0.8424 -0.0610
17988THY    CA233273   6.448   0.494   3.228 -0.6519 -0.5491  0.1967
17988THY    CP133274   6.541   0.376   3.250 -0.5860 -0.0791 -0.3587
17988THY    HP133275   6.501   0.292   3.192  0.3673  0.3847 -1.1508
17988THY    CP233276   6.549   0.335   3.396  0.6271  0.5546  0.4394
17988THY    HP233277   6.446   0.312   3.426  1.3398  1.8896 -1.2177
17988THY    HP333278   6.569   0.418   3.466 -0.2051  0.9881  0.2942
17988THY    HP433279   6.614   0.247   3.401  0.9663 -1.9135  0.4911
17988THY    CP333280   6.688   0.401   3.198  0.1889  0.4728  0.3306
17988THY    HP533281   6.688   0.384   3.090 -2.2186 -0.4906  4.7058
17988THY    HP633282   6.765   0.345   3.252 -0.3483  1.4570  0.5056
17988THY    HP733283   6.727   0.503   3.213 -0.2331 -0.4672  0.6443
17988THY    CA333284   6.480   0.627   3.278 -0.0872  0.3495 -0.8573
17988THY    HA333285   6.576   0.653   3.323 -0.6638  0.7346  0.7344
17988THY    CA433286   6.379   0.732   3.270  0.2276  0.4996 -0.2236
17988THY    HA433287   6.399   0.832   3.307  0.8232  1.1863 -0.5862
17988THY    CA533288   6.255   0.711   3.209 -0.6279  0.0561  0.3260
17988THY    CM133289   6.159   0.816   3.200  0.4136  0.2888  0.8831
17988THY    HM133290   6.121   0.838   3.300 -3.7249 -0.8152 -0.1565
17988THY    HM233291   6.073   0.783   3.140  0.5991  0.2130  0.5315
17988THY    HM333292   6.197   0.912   3.163 -1.1856 -1.1146  1.0341
17988THY    CA633293   6.233   0.582   3.159  0.1250  0.2747 -0.2168
17988THY    HA633294   6.140   0.557   3.107  1.1159 -1.4959 -0.4014
17989THY      O33295   5.848   7.861   1.681 -0.1637 -0.3576  0.3274
17989THY     HO33296   5.924   7.921   1.676  0.9265 -3.1388 -1.0860
17989THY    CA133297   5.914   7.739   1.685  0.6796 -0.2779 -1.0106
17989THY    CA233298   5.844   7.623   1.721  0.1414 -0.1567  0.7761
17989THY    CP133299   5.694   7.632   1.769 -0.0779 -0.9383  0.9680
17989THY    HP133300   5.654   7.734   1.765  0.2354 -1.0876  1.0860
17989THY    CP233301   5.667   7.585   1.917  1.0371  0.1237 -0.6334
17989THY    HP233302   5.706   7.484   1.934  1.4319 -0.1241 -0.5241
17989THY    HP333303   5.558   7.584   1.931  1.0401  0.2019 -1.7507
17989THY    HP433304   5.721   7.645   1.990  1.4720 -0.8437  0.1870
17989THY    CP333305   5.614   7.542   1.675 -0.7695  0.5321 -0.0383
17989THY    HP533306   5.661   7.444   1.664  0.9703  2.7075  0.4653
17989THY    HP633307   5.634   7.595   1.580 -1.7157  0.2719 -0.1329
17989THY    HP733308   5.505   7.543   1.682 -0.7237  1.5156 -0.6920
17989THY    CA333309   5.914   7.499   1.723 -0.6563 -0.0135 -0.0102
17989THY    HA333310   5.870   7.404   1.750 -0.8375 -0.0271  0.0699
17989THY    CA433311   6.047   7.495   1.693 -0.4084  0.3334  1.5299
17989THY    HA433312   6.104   7.403   1.703  1.3220 -2.5852  2.1278
17989THY    CA533313   6.116   7.608   1.659  0.2165  0.4672 -0.0237
17989THY    CM133314   6.258   7.604   1.617 -1.0432  0.0042  0.6275
17989THY    HM133315   6.334   7.658   1.675  0.1290 -0.0529 -0.9094
17989THY    HM233316   6.265   7.644   1.515 -0.1961 -0.2493 -0.1514
17989THY    HM333317   6.299   7.503   1.620  2.5332 -0.5568  1.9112
17989THY    CA633318   6.042   7.731   1.651  0.1536  0.0143 -0.2618
17989THY    HA633319   6.097   7.823   1.634  0.9926  2.7689 -0.1570
17990THY      O33320   0.993   6.966   6.734 -0.1724  0.2376 -0.3137
17990THY     HO33321   0.976   6.973   6.829  0.1538  0.2577  0.3067
17990THY    CA133322   0.923   7.063   6.679 -0.0914 -0.2032 -0.6058
17990THY    CA233323   0.918   7.087   6.541  0.5735 -0.4619 -0.5213
17990THY    CP133324   1.005   6.998   6.448  0.6289  0.3299  0.0754
17990THY    HP133325   1.069   6.934   6.510  2.0842 -2.0606 -0.8947
17990THY    CP233326   1.102   7.079   6.362  0.8929  0.0367  0.0544
17990THY    HP233327   1.172   7.007   6.318 -1.4285 -1.0272 -1.6973
17990THY    HP333328   1.164   7.140   6.428  0.8813 -1.3319  1.6418
17990THY    HP433329   1.057   7.135   6.279  1.4498  0.8364  1.7308
17990THY    CP333330   0.922   6.906   6.362  0.2342  0.0049  0.0097
17990THY    HP533331   0.847   6.856   6.425  1.4002  0.7529 -0.8333
17990THY    HP633332   0.981   6.820   6.329  1.1784  0.9407  0.2765
17990THY    HP733333   0.864   6.953   6.282 -1.4747  0.8707 -0.5253
17990THY    CA333334   0.821   7.174   6.493  0.3822 -0.7002  0.0088
17990THY    HA333335   0.813   7.188   6.385 -0.6393 -0.7160 -0.5642
17990THY    CA433336   0.752   7.262   6.577  0.0657 -0.0859  0.8066
17990THY    HA433337   0.694   7.342   6.532  3.0267 -2.6875  1.7018
17990THY    CA533338   0.777   7.252   6.710 -0.1117  0.0705 -0.4825
17990THY    CM133339   0.716   7.345   6.810  0.1366  0.9851 -0.5616
17990THY    HM133340   0.722   7.447   6.770  1.7529  0.6028 -0.7656
17990THY    HM233341   0.760   7.341   6.910  3.4567 -0.3169 -0.4290
17990THY    HM333342   0.609   7.322   6.814 -0.1151 -0.2184  0.3440
17990THY    CA633343   0.868   7.154   6.766  0.9720 -0.4277  0.1971
17990THY    HA633344   0.873   7.148   6.875  0.6266 -0.2519  2.3679
17991THY      O33345   4.616   0.419   4.492 -0.8160 -0.3415  0.0230
17991THY     HO33346   4.568   0.504   4.492 -0.9483 -0.4424 -0.0496
17991THY    CA133347   4.597   0.347   4.605 -0.2033  0.2395  0.1953
17991THY    CA233348   4.671   0.234   4.640 -0.5642  0.3813  0.3296
17991THY    CP133349   4.779   0.181   4.544 -0.1900 -0.2001  0.1110
17991THY    HP133350   4.826   0.268   4.498 -1.7346 -1.9041  0.1053
17991THY    CP233351   4.721   0.086   4.441  0.1335 -0.2283  0.2332
17991THY    HP233352   4.793   0.024   4.387  1.5376  1.1698  0.5930
17991THY    HP333353   4.667   0.152   4.372  0.7118 -0.9308 -0.0025
17991THY    HP433354   4.649   0.018   4.488  0.7420  0.0146 -0.2555
17991THY    CP333355   4.892   0.108   4.611  0.1710 -0.5105 -0.4202
17991THY    HP533356   4.933   0.153   4.702  2.1199 -1.5290 -0.0440
17991THY    HP633357   4.981   0.102   4.547  1.7651  1.6495 -1.4112
17991THY    HP733358   4.862   0.005   4.634 -1.3777 -2.1902 -0.3899
17991THY    CA333359   4.649   0.185   4.773 -0.7156 -0.1830 -0.5920
17991THY    HA333360   4.718   0.110   4.813 -1.6254  0.0481 -1.3205
17991THY    CA433361   4.546   0.242   4.855 -0.1811  0.5064 -0.7946
17991THY    HA433362   4.532   0.208   4.957 -0.1985  0.2269 -1.6718
17991THY    CA533363   4.460   0.336   4.800 -0.9553  0.5611  0.3527
17991THY    CM133364   4.335   0.380   4.874 -0.0003  0.7091  0.7047
17991THY    HM133365   4.363   0.445   4.957 -1.7003  0.1488  2.2555
17991THY    HM233366   4.278   0.295   4.914 -0.0870 -1.4998 -0.3495
17991THY    HM333367   4.271   0.445   4.813  0.1936 -1.7649 -1.2457
17991THY    CA633368   4.492   0.399   4.681  0.2816  0.6822  0.4126
17991THY    HA633369   4.444   0.494   4.658  0.2235 -0.1729  0.1779
17992THY      O33370   7.781   6.222   2.223  0.6079 -0.5075 -0.0715
17992THY     HO33371   7.768   6.311   2.260  1.9108  1.6586 -0.7062
17992THY    CA133372   7.708   6.150   2.309  0.5749 -0.4144 -0.3582
17992THY    CA233373   7.717   6.009   2.318 -0.0004  0.3251  0.4710
17992THY    CP133374   7.808   5.930   2.222 -0.8927 -0.0114  0.1990
17992THY    HP133375   7.886   5.995   2.181 -0.4393  2.1989  1.1215
17992THY    CP233376   7.718   5.884   2.103  0.2461  0.4503 -0.6690
17992THY    HP233377   7.690   5.972   2.044 -0.0966  0.3131 -0.8705
17992THY    HP333378   7.626   5.847   2.150  0.3935  2.2360  1.0552
17992THY    HP433379   7.772   5.822   2.030 -0.7032 -1.7660  1.0075
17992THY    CP333380   7.876   5.812   2.290  0.3054 -0.1256 -0.3261
17992THY    HP533381   7.933   5.750   2.220 -1.1438  0.3606 -2.2959
17992THY    HP633382   7.812   5.731   2.326 -1.4493  0.1791  1.1278
17992THY    HP733383   7.954   5.845   2.360 -1.0510  3.3164 -3.6808
17992THY    CA333384   7.641   5.941   2.419 -0.2683  0.1819  0.3688
17992THY    HA333385   7.660   5.835   2.430 -1.2001 -0.4018  0.1333
17992THY    CA433386   7.567   6.010   2.508 -0.1769 -0.5252  0.3841
17992THY    HA433387   7.514   5.958   2.587  1.6578  2.0555  2.2140
17992THY    CA533388   7.554   6.144   2.487  0.0976 -0.5917  0.4429
17992THY    CM133389   7.463   6.214   2.582 -0.8507  0.4043 -0.1861
17992THY    HM133390   7.426   6.306   2.535  1.3722  0.2858  0.7163
17992THY    HM233391   7.516   6.226   2.677  0.5358 -0.3647 -0.0249
17992THY    HM333392   7.375   6.158   2.614 -2.1687  0.4432  1.8070
17992THY    CA633393   7.623   6.216   2.398 -0.4095  0.2500  0.3235
17992THY    HA633394   7.621   6.324   2.405  0.5938  0.4636  0.3412
17993THY      O33395   0.649   5.801   4.675 -0.2276 -0.1461 -0.6666
17993THY     HO33396   0.717   5.834   4.736 -1.8491 -0.4159  3.7850
17993THY    CA133397   0.538   5.787   4.748 -0.2063 -0.4382 -0.2166
17993THY    CA233398   0.427   5.692   4.720 -0.0261  0.2151  0.2597
17993THY    CP133399   0.436   5.608   4.587  0.1048 -0.2014 -0.3423
17993THY    HP133400   0.523   5.636   4.528 -1.3234 -1.6721  1.2464
17993THY    CP233401   0.314   5.622   4.500  0.4753 -0.3967  0.1190
17993THY    HP233402   0.298   5.728   4.478  1.2873 -0.1827  0.2906
17993THY    HP333403   0.217   5.589   4.539  1.1403  2.1772  1.0112
17993THY    HP433404   0.321   5.578   4.399  1.2081 -0.4203  0.2718
17993THY    CP333405   0.460   5.460   4.613 -0.2167 -0.6261 -0.0159
17993THY    HP533406   0.550   5.442   4.672  0.0453 -1.1264 -0.3748
17993THY    HP633407   0.477   5.407   4.518  1.5006 -0.1046 -0.4747
17993THY    HP733408   0.372   5.420   4.663 -0.2135 -0.2928  0.3919
17993THY    CA333409   0.324   5.672   4.814 -0.8178  0.1073  0.1050
17993THY    HA333410   0.251   5.594   4.796  0.1841 -1.3169 -0.5693
17993THY    CA433411   0.336   5.732   4.934 -0.1886  0.1842  1.1093
17993THY    HA433412   0.257   5.710   5.005  0.5205  1.3587  2.1597
17993THY    CA533413   0.423   5.829   4.967 -0.4555  0.5628  0.1965
17993THY    CM133414   0.438   5.879   5.106  0.6574 -0.9680 -0.4341
17993THY    HM133415   0.343   5.868   5.160  0.4173 -0.7848  1.9947
17993THY    HM233416   0.451   5.986   5.091 -0.3435  0.9948  0.0225
17993THY    HM333417   0.517   5.830   5.165 -0.6831  0.7555 -0.6392
17993THY    CA633418   0.534   5.852   4.877  0.0625  0.0774  0.2795
17993THY    HA633419   0.616   5.918   4.904  1.0354 -1.4839 -0.2245
17994THY      O33420   7.741   6.314   1.971 -0.6754 -0.0951  0.3600
17994THY     HO33421   7.767   6.252   2.042 -1.9763  0.5949  0.5545
17994THY    CA133422   7.781   6.245   1.861 -0.5790 -0.2630  0.5412
17994THY    CA233423   7.724   6.272   1.733  0.5501  0.2911  0.1880
17994THY    CP133424   7.613   6.382   1.730  0.6904  0.0142 -0.4855
17994THY    HP133425   7.561   6.365   1.825 -1.3128 -1.1077 -0.9293
17994THY    CP233426   7.503   6.371   1.625 -0.1107 -0.4083  0.9706
17994THY    HP233427   7.466   6.267   1.624 -0.3296  1.2760  1.0025
17994THY    HP333428   7.535   6.388   1.522 -1.6390 -1.5177 -2.1000
17994THY    HP433429   7.417   6.435   1.648 -0.8741 -0.6990  0.0809
17994THY    CP333430   7.666   6.525   1.730  0.3268 -0.3251 -0.2077
17994THY    HP533431   7.748   6.545   1.799 -0.3851  0.9598 -1.5205
17994THY    HP633432   7.580   6.583   1.766 -0.9856 -1.5800 -1.2957
17994THY    HP733433   7.684   6.566   1.630  0.5782 -0.1009  0.2348
17994THY    CA333434   7.771   6.190   1.624  0.2173  0.6910  0.5002
17994THY    HA333435   7.725   6.201   1.526  2.4003 -0.4132  0.2460
17994THY    CA433436   7.882   6.110   1.643 -0.4804 -0.2825 -0.2125
17994THY    HA433437   7.924   6.061   1.555 -0.6198 -0.6066  0.2482
17994THY    CA533438   7.939   6.094   1.772 -0.6253  0.1386  0.4633
17994THY    CM133439   8.072   6.012   1.774 -0.5200  0.2208  0.4326
17994THY    HM133440   8.139   6.046   1.855 -1.4380  1.5772 -0.8361
17994THY    HM233441   8.129   6.013   1.681  1.3607  1.3140  1.1426
17994THY    HM333442   8.037   5.910   1.794  1.7671 -3.2908 -1.2314
17994THY    CA633443   7.889   6.160   1.883 -0.5405 -0.0751 -0.5420
17994THY    HA633444   7.935   6.158   1.981  1.3678 -0.8764  0.8315
17995THY      O33445   4.518   8.977   5.906 -0.1317  0.1416 -0.0693
17995THY     HO33446   4.491   9.052   5.850 -1.3635  0.0247 -0.5867
17995THY    CA133447   4.645   8.937   5.885 -0.5765  0.4700 -0.3493
17995THY    CA233448   4.707   8.824   5.928  0.3839  0.4866  0.0804
17995THY    CP133449   4.616   8.710   5.972 -0.8647 -0.1574 -0.4805
17995THY    HP133450   4.513   8.743   5.954 -1.2191  1.1500 -0.8137
17995THY    CP233451   4.620   8.678   6.122 -0.1603  0.2302  0.2319
17995THY    HP233452   4.680   8.590   6.149 -2.8425 -0.4134 -1.9439
17995THY    HP333453   4.518   8.665   6.159 -0.0290  0.7762  0.7259
17995THY    HP433454   4.650   8.768   6.177 -1.4905  0.1886  0.7164
17995THY    CP333455   4.638   8.579   5.901  0.8199  0.1984  0.2652
17995THY    HP533456   4.553   8.513   5.919  0.2336 -2.0781  0.3330
17995THY    HP633457   4.731   8.526   5.926  2.0697 -0.7394  1.9353
17995THY    HP733458   4.644   8.601   5.794  2.2586  0.1761 -0.1199
17995THY    CA333459   4.849   8.810   5.908  0.2590  0.4425  0.3079
17995THY    HA333460   4.892   8.714   5.936  0.3104  1.3860  0.5926
17995THY    CA433461   4.934   8.903   5.839  0.5000  0.6830 -0.0952
17995THY    HA433462   5.041   8.892   5.831  0.4041  0.4774 -0.9270
17995THY    CA533463   4.861   9.020   5.796 -0.3094  0.0825  0.3056
17995THY    CM133464   4.937   9.134   5.731  0.2214  0.5290 -0.0881
17995THY    HM133465   4.880   9.142   5.638  2.5872 -1.0463 -0.7233
17995THY    HM233466   5.040   9.105   5.706  0.3177  0.2260  0.5131
17995THY    HM333467   4.935   9.233   5.778  1.0211 -1.2905  0.8373
17995THY    CA633468   4.731   9.038   5.825  0.4298 -0.2556 -0.0701
17995THY    HA633469   4.685   9.135   5.811  0.9560 -1.1043  0.0560
17996THY      O33470   4.817   5.010   6.233 -0.1240 -0.0054  0.3991
17996THY     HO33471   4.763   4.940   6.192  2.4722 -0.4012 -1.5504
17996THY    CA133472   4.899   4.925   6.298  0.4011  0.9948 -0.1411
17996THY    CA233473   4.990   4.968   6.396 -0.0968  0.0751 -0.1063
17996THY    CP133474   5.006   5.120   6.422  0.3461 -0.4026  0.2137
17996THY    HP133475   4.984   5.174   6.329 -0.1407 -3.0190 -4.0089
17996THY    CP233476   5.143   5.167   6.459  0.3683 -0.2025 -0.6098
17996THY    HP233477   5.147   5.276   6.469 -1.1602  0.2829 -0.5788
17996THY    HP333478   5.220   5.139   6.386  1.6519  0.7648  0.2927
17996THY    HP433479   5.187   5.130   6.553  1.0379  0.7948  2.4157
17996THY    CP333480   4.902   5.162   6.524  0.0373 -0.1500  0.5472
17996THY    HP533481   4.801   5.132   6.496  0.8011 -0.7089 -1.7678
17996THY    HP633482   4.902   5.270   6.537 -0.3976  0.9945  0.4307
17996THY    HP733483   4.917   5.115   6.622  2.3077 -0.6015  0.1900
17996THY    CA333484   5.073   4.869   6.451 -0.2276 -0.1063 -0.8845
17996THY    HA333485   5.155   4.898   6.517  0.1102  0.5002 -3.0051
17996THY    CA433486   5.060   4.736   6.402  0.3283  0.1159 -0.3712
17996THY    HA433487   5.131   4.664   6.442  0.5178  0.5934  0.0712
17996THY    CA533488   4.966   4.698   6.303 -0.6122 -0.1864 -0.5111
17996THY    CM133489   4.969   4.550   6.254 -1.0010  0.0943  0.3873
17996THY    HM133490   4.878   4.497   6.284 -0.7171 -0.2239 -0.2857
17996THY    HM233491   5.058   4.492   6.279 -0.5615 -1.5649  0.2901
17996THY    HM333492   4.973   4.547   6.144  3.2991  0.1087  0.5950
17996THY    CA633493   4.884   4.795   6.247 -0.3368 -0.2278  0.7158
17996THY    HA633494   4.816   4.775   6.165  0.6465 -1.3156  1.7349
17997THY      O33495   7.751   7.720   3.461 -0.0717 -0.2204  0.0524
17997THY     HO33496   7.817   7.656   3.432  0.7838 -0.2335  0.9149
17997THY    CA133497   7.631   7.666   3.443  0.8887 -0.0161  0.5334
17997THY    CA233498   7.503   7.735   3.472  0.2050  0.4562 -0.4372
17997THY    CP133499   7.503   7.879   3.504  0.0533  0.9032 -0.2173
17997THY    HP133500   7.604   7.908   3.535  1.0546 -1.5451 -0.8426
17997THY    CP233501   7.416   7.918   3.621  0.5016 -0.1781  0.2093
17997THY    HP233502   7.445   8.022   3.639  0.6978 -0.1368  0.1483
17997THY    HP333503   7.434   7.849   3.704 -0.5517 -0.4558 -0.4269
17997THY    HP433504   7.311   7.914   3.589  0.8790 -1.4659 -0.1143
17997THY    CP333505   7.463   7.966   3.383 -0.3130  0.3786  0.1992
17997THY    HP533506   7.459   8.073   3.407  0.8236 -0.7802  0.5318
17997THY    HP633507   7.369   7.930   3.341 -0.3141 -0.2410  0.9007
17997THY    HP733508   7.542   7.959   3.307 -0.8761 -0.1587 -0.3072
17997THY    CA333509   7.383   7.661   3.464 -0.4934 -0.1129  0.1395
17997THY    HA333510   7.289   7.712   3.483 -1.0411 -0.2271 -0.8202
17997THY    CA433511   7.393   7.534   3.414  0.7863 -0.1297 -0.1805
17997THY    HA433512   7.300   7.479   3.414 -1.3379 -2.7157  3.0513
17997THY    CA533513   7.511   7.472   3.372  0.7531  0.2669  0.5673
17997THY    CM133514   7.508   7.320   3.350  0.4566  0.0243  0.0411
17997THY    HM133515   7.598   7.268   3.385  0.4305 -0.5218 -0.3817
17997THY    HM233516   7.497   7.299   3.243  1.0420  0.2920 -1.7926
17997THY    HM333517   7.416   7.269   3.381  1.4044  0.2232 -1.6211
17997THY    CA633518   7.637   7.534   3.404 -0.6923  0.3773  0.1054
17997THY    HA633519   7.730   7.481   3.385 -1.4471 -1.1543 -0.7694
17998THY      O33520   3.835   4.125   7.115  0.4008 -0.0177  0.1906
17998THY     HO33521   3.803   4.154   7.203 -0.7158 -0.6111  0.8527
17998THY    CA133522   3.788   4.223   7.034 -1.6670  0.4408  0.2767
17998THY    CA233523   3.730   4.193   6.906 -0.0700  0.0422  0.0850
17998THY    CP133524   3.714   4.049   6.862 -0.2823 -0.3759  0.5971
17998THY    HP133525   3.718   3.981   6.948 -1.4067 -1.8164 -1.4031
17998THY    CP233526   3.827   4.000   6.771 -0.2178 -0.5786  0.1187
17998THY    HP233527   3.804   4.029   6.668 -1.4841 -0.2384  0.4246
17998THY    HP333528   3.843   3.893   6.783  2.3903 -0.1784  0.4743
17998THY    HP433529   3.924   4.038   6.806 -1.0824  1.8255  0.2683
17998THY    CP333530   3.575   4.014   6.795 -0.1619  0.5009  0.1288
17998THY    HP533531   3.567   4.075   6.704 -1.2383 -0.3787 -1.2661
17998THY    HP633532   3.484   4.019   6.856 -0.0487  0.7538 -0.8032
17998THY    HP733533   3.572   3.910   6.761 -5.8826  1.4774 -0.3536
17998THY    CA333534   3.682   4.299   6.819  0.7525  0.1557  0.2335
17998THY    HA333535   3.634   4.277   6.724  0.2369 -0.0179  1.9742
17998THY    CA433536   3.698   4.430   6.875 -0.6809  0.4032  0.0938
17998THY    HA433537   3.660   4.520   6.827 -0.2050  0.3502  0.2721
17998THY    CA533538   3.740   4.456   7.004 -0.5719 -0.2857 -0.3828
17998THY    CM133539   3.745   4.594   7.057  0.7008  0.4353 -0.6798
17998THY    HM133540   3.702   4.674   6.995 -0.7813  1.9705 -0.2181
17998THY    HM233541   3.848   4.615   7.088  0.1750  1.5938  0.2922
17998THY    HM333542   3.693   4.589   7.153  0.8746  0.8040  2.8134
17998THY    CA633543   3.796   4.352   7.080  0.3121 -0.1185  0.1452
17998THY    HA633544   3.834   4.363   7.182  0.7732 -0.0695 -1.5208
17999THY      O33545   0.888   6.887   7.218  0.3220 -0.1312 -0.1062
17999THY     HO33546   0.818   6.821   7.231 -0.3820  0.9581  0.8283
17999THY    CA133547   0.895   6.961   7.333  0.5931 -0.1027  0.9402
17999THY    CA233548   0.919   7.098   7.343 -0.3705 -0.0455  0.1091
17999THY    CP133549   0.933   7.182   7.213  0.0323  0.4137 -0.2819
17999THY    HP133550   0.895   7.118   7.132  0.2061  1.0366 -1.1882
17999THY    CP233551   1.089   7.205   7.189  0.1529  0.2814  0.3456
17999THY    HP233552   1.141   7.272   7.258  1.5726  0.4230 -0.8535
17999THY    HP333553   1.110   7.230   7.085 -0.7160 -0.6391 -2.4008
17999THY    HP433554   1.139   7.108   7.186 -0.7501 -1.1606 -0.1061
17999THY    CP333555   0.862   7.315   7.202  0.1585  0.3113  0.6424
17999THY    HP533556   0.896   7.380   7.121 -3.9184 -3.1023 -1.0463
17999THY    HP633557   0.872   7.374   7.294  2.1411  0.6660 -0.1431
17999THY    HP733558   0.755   7.302   7.183  0.4381 -1.0649  0.2476
17999THY    CA333559   0.919   7.157   7.472  0.4982 -0.6969 -0.1465
17999THY    HA333560   0.935   7.264   7.482 -2.5424 -0.1374  0.3526
17999THY    CA433561   0.909   7.082   7.588  0.2437 -0.6327 -0.2272
17999THY    HA433562   0.883   7.119   7.686 -2.1958 -0.6456 -1.6521
17999THY    CA533563   0.905   6.942   7.569 -0.0058 -0.9978 -0.0578
17999THY    CM133564   0.918   6.840   7.680  0.6750  0.3785  0.7616
17999THY    HM133565   0.820   6.819   7.723  0.0943 -1.7332 -1.3090
17999THY    HM233566   0.979   6.883   7.760 -0.8440  1.4667  0.9520
17999THY    HM333567   0.969   6.746   7.655  0.4354 -0.1155  0.7567
17999THY    CA633568   0.891   6.881   7.448 -0.5552  0.5679  0.7928
17999THY    HA633569   0.873   6.775   7.433 -1.8364  0.1877  1.0492
18000THY      O33570   8.692   6.160   6.914  0.0149  0.5377 -0.1526
18000THY     HO33571   8.734   6.166   6.826  0.0358  0.5882  0.5401
18000THY    CA133572   8.562   6.131   6.886 -0.2836 -0.2497 -0.1796
18000THY    CA233573   8.473   6.115   6.996 -0.2429 -0.3741  0.0660
18000THY    CP133574   8.531   6.116   7.144  0.3322  0.1363  0.4326
18000THY    HP133575   8.626   6.170   7.155  2.1556  1.4373 -2.7422
18000THY    CP233576   8.554   5.975   7.190  0.5011  0.4631  0.3851
18000THY    HP233577   8.607   5.964   7.285  0.2632  0.7436  1.5153
18000THY    HP333578   8.606   5.934   7.103  0.6699  1.2875 -1.2165
18000THY    HP433579   8.458   5.926   7.207  0.4362 -2.0164 -0.4748
18000THY    CP333580   8.432   6.190   7.237 -0.4646 -0.6535  0.3859
18000THY    HP533581   8.475   6.201   7.337 -0.8782 -0.4317  0.0245
18000THY    HP633582   8.340   6.135   7.258  0.0207  2.0079  0.4511
18000THY    HP733583   8.409   6.289   7.197 -1.6424  1.2649  0.9442
18000THY    CA333584   8.339   6.097   6.970 -0.0239  0.4534 -0.3921
18000THY    HA333585   8.278   6.074   7.057 -1.3151 -0.6949 -1.5131
18000THY    CA433586   8.289   6.112   6.838 -0.7354  0.1191  0.2103
18000THY    HA433587   8.187   6.086   6.813 -0.9832 -0.4412  1.6509
18000THY    CA533588   8.374   6.125   6.732 -0.2881  0.7265 -0.1019
18000THY    CM133589   8.327   6.123   6.590  0.4551  0.1116 -0.6109
18000THY    HM133590   8.379   6.199   6.530  2.0923  2.5723  0.3498
18000THY    HM233591   8.220   6.149   6.588  0.1902  1.6057 -1.4892
18000THY    HM333592   8.342   6.029   6.537  0.6829  1.0241 -1.0985
18000THY    CA633593   8.517   6.137   6.757  0.8559 -0.8680  0.3172
18000THY    HA633594   8.584   6.160   6.675  0.5181 -0.4282  3.2538
18001THY      O33595   8.173   8.577   4.895 -0.3050  0.6643 -0.1578
18001THY     HO33596   8.090   8.544   4.856 -0.0142 -0.8032  0.7203
18001THY    CA133597   8.143   8.692   4.957 -0.1102  0.4379  0.5284
18001THY    CA233598   8.240   8.783   5.012  0.3895  0.0539  0.5599
18001THY    CP133599   8.394   8.754   4.990 -0.4495 -0.1330  0.0672
18001THY    HP133600   8.414   8.676   4.915  3.0819  2.1056 -1.4125
18001THY    CP233601   8.472   8.704   5.109 -0.5666  0.3356  0.2905
18001THY    HP233602   8.571   8.662   5.087 -0.6294 -0.2061  0.4311
18001THY    HP333603   8.422   8.620   5.160 -0.4912 -1.9594 -1.2277
18001THY    HP433604   8.495   8.775   5.189 -0.4947 -0.4646  1.1675
18001THY    CP333605   8.462   8.881   4.942  0.7227  0.3047  0.4169
18001THY    HP533606   8.463   8.957   5.020 -1.4434  0.6705  0.1508
18001THY    HP633607   8.412   8.918   4.852  0.8030  0.6846  1.4592
18001THY    HP733608   8.562   8.858   4.905 -0.3524 -1.6257 -1.6225
18001THY    CA333609   8.190   8.897   5.085 -0.1380 -0.2412  0.1470
18001THY    HA333610   8.262   8.967   5.125  1.7433 -0.6933 -1.4239
18001THY    CA433611   8.052   8.918   5.099  0.7368 -0.8533  0.0637
18001THY    HA433612   8.020   9.010   5.147  0.7639 -0.3774 -0.1734
18001THY    CA533613   7.958   8.831   5.046 -0.2561  0.4255  0.3374
18001THY    CM133614   7.815   8.872   5.043  0.6824 -0.7173 -0.0167
18001THY    HM133615   7.789   8.947   5.119  1.1429 -1.1129  0.5488
18001THY    HM233616   7.747   8.787   5.053 -0.3200 -2.0882  0.5948
18001THY    HM333617   7.797   8.916   4.945  1.7803 -1.4439 -1.1119
18001THY    CA633618   8.007   8.720   4.974 -0.1200  0.0289  0.0685
18001THY    HA633619   7.936   8.651   4.932  0.6714 -1.1246 -0.0706
18002THY      O33620   8.057   5.522   6.405 -0.0132 -0.1115 -0.1598
18002THY     HO33621   8.069   5.598   6.464 -1.0565 -1.3230  1.0029
18002THY    CA133622   7.954   5.451   6.452  0.2911  0.2263 -0.8690
18002THY    CA233623   7.882   5.366   6.374 -0.5023 -0.5698 -0.0483
18002THY    CP133624   7.920   5.346   6.225 -0.1358 -0.0968 -0.2738
18002THY    HP133625   7.995   5.421   6.197  1.0547  2.2843 -0.4572
18002THY    CP233626   7.808   5.371   6.131  0.1097 -0.4978 -0.0511
18002THY    HP233627   7.722   5.312   6.164 -1.3640 -2.0883  1.1278
18002THY    HP333628   7.829   5.349   6.026 -1.3730 -0.9585  0.6106
18002THY    HP433629   7.783   5.476   6.147 -1.5445 -0.5698 -0.4042
18002THY    CP333630   7.976   5.208   6.205  0.5804 -0.6419 -0.6139
18002THY    HP533631   8.071   5.205   6.261  0.2670  0.2013  2.3055
18002THY    HP633632   7.973   5.180   6.099 -3.5452 -0.5536 -1.0395
18002THY    HP733633   7.910   5.139   6.259  0.2191 -1.5834 -1.0251
18002THY    CA333634   7.774   5.295   6.441  0.1009  0.3468 -1.1483
18002THY    HA333635   7.711   5.220   6.393 -2.2788  2.1591 -0.4246
18002THY    CA433636   7.745   5.327   6.582 -0.4275  0.4981 -0.0249
18002THY    HA433637   7.676   5.265   6.639 -0.0307 -0.0190 -0.9657
18002THY    CA533638   7.813   5.426   6.650 -0.3185 -0.3287  0.0691
18002THY    CM133639   7.790   5.440   6.794  0.0130 -0.0070  0.3938
18002THY    HM133640   7.694   5.477   6.833  0.2476 -0.1532  1.1866
18002THY    HM233641   7.865   5.510   6.833 -1.6697 -1.1239  2.9764
18002THY    HM333642   7.808   5.343   6.841 -2.0175 -1.9389 -1.0171
18002THY    CA633643   7.924   5.481   6.584  0.3591 -0.8420  0.9741
18002THY    HA633644   7.998   5.532   6.644  0.6140  0.8922 -1.2625
18003THY      O33645   3.900   6.086   5.396 -0.1909 -0.1122 -0.0937
18003THY     HO33646   3.995   6.069   5.382  0.3430 -1.1507  3.0461
18003THY    CA133647   3.884   6.196   5.315  0.0637 -0.2380  0.3999
18003THY    CA233648   3.759   6.229   5.262 -0.4272 -0.0898  0.0391
18003THY    CP133649   3.646   6.133   5.289 -0.1403  0.2594 -0.0757
18003THY    HP133650   3.669   6.040   5.342 -2.3191  0.1321 -0.7489
18003THY    CP233651   3.580   6.085   5.162 -0.4937 -0.6148 -0.3863
18003THY    HP233652   3.651   6.070   5.080  1.0771  0.8838 -1.4265
18003THY    HP333653   3.497   6.143   5.120 -0.1506 -1.2024 -0.3072
18003THY    HP433654   3.543   5.984   5.179  0.6890  1.4911 -0.5102
18003THY    CP333655   3.540   6.204   5.374  0.0612 -0.0526 -0.4710
18003THY    HP533656   3.587   6.241   5.466 -0.5160 -0.2407  0.7828
18003THY    HP633657   3.470   6.136   5.422 -0.6481 -0.5691 -0.1145
18003THY    HP733658   3.487   6.290   5.331  1.0571  0.5318  0.4590
18003THY    CA333659   3.740   6.339   5.166 -0.4107 -1.0943  0.5824
18003THY    HA333660   3.642   6.355   5.124 -0.6561 -0.3865  0.9856
18003THY    CA433661   3.854   6.410   5.138 -0.2675 -0.2425  0.6208
18003THY    HA433662   3.855   6.488   5.063 -0.5458 -0.9822 -0.0718
18003THY    CA533663   3.980   6.378   5.202  0.2495  0.1859  0.3168
18003THY    CM133664   4.105   6.449   5.163  0.2531 -0.2266  0.8072
18003THY    HM133665   4.090   6.523   5.084  1.4310  0.4049  1.7644
18003THY    HM233666   4.177   6.380   5.119  0.7516 -0.5706  1.5287
18003THY    HM333667   4.155   6.502   5.246  1.4985 -0.2806 -0.2456
18003THY    CA633668   3.997   6.262   5.282 -0.0115 -0.0706 -0.4850
18003THY    HA633669   4.095   6.245   5.325  0.6229 -0.2654  2.1731
18004THY      O33670   5.776   2.034   3.926  0.0658  0.0226 -0.0203
18004THY     HO33671   5.775   2.124   3.890 -5.0407 -0.0661  0.1716
18004THY    CA133672   5.695   2.044   4.039  0.4339  0.1155 -0.4084
18004THY    CA233673   5.600   1.947   4.073 -0.1171  0.1055  0.2839
18004THY    CP133674   5.579   1.825   3.989  0.0934 -0.9057  0.3038
18004THY    HP133675   5.645   1.830   3.902  1.2900 -0.0404  0.1838
18004THY    CP233676   5.434   1.821   3.945 -0.0481 -0.2541  0.4779
18004THY    HP233677   5.414   1.740   3.874 -1.2731  0.0505  0.4970
18004THY    HP333678   5.417   1.912   3.885 -3.6137  1.9009  1.4510
18004THY    HP433679   5.365   1.843   4.027 -0.2978 -0.5265  0.7183
18004THY    CP333680   5.621   1.703   4.076  0.2115 -0.3946 -0.0214
18004THY    HP533681   5.626   1.617   4.009 -1.3357 -2.9281  1.7188
18004THY    HP633682   5.560   1.687   4.166 -0.3061 -0.4372  1.5252
18004THY    HP733683   5.725   1.722   4.103  0.5425 -2.3943  1.2969
18004THY    CA333684   5.528   1.967   4.192  0.1320 -0.0232 -0.3618
18004THY    HA333685   5.461   1.887   4.222  1.5222 -0.8590 -1.8816
18004THY    CA433686   5.547   2.086   4.274  0.1375  0.0215 -0.2900
18004THY    HA433687   5.498   2.097   4.370  3.8260  2.1424 -0.6639
18004THY    CA533688   5.645   2.183   4.242  0.2463 -0.3118  0.4693
18004THY    CM133689   5.669   2.303   4.330  0.5191 -0.4692  0.5293
18004THY    HM133690   5.740   2.360   4.269  0.7198 -0.7659 -0.0317
18004THY    HM233691   5.704   2.281   4.431  2.6276 -1.3706 -0.5861
18004THY    HM333692   5.579   2.365   4.332  0.8582 -0.4434  1.0253
18004THY    CA633693   5.718   2.164   4.119  0.4395 -0.0169 -0.1941
18004THY    HA633694   5.786   2.242   4.088 -1.9310 -2.3231  1.1291
18005THY      O33695   2.627   7.610   4.606  0.0062 -0.5426 -0.5022
18005THY     HO33696   2.625   7.582   4.700  1.8026  0.5371  2.4666
18005THY    CA133697   2.586   7.735   4.621  0.9096  0.2164  0.4170
18005THY    CA233698   2.536   7.804   4.510  0.1252  0.2231  0.4272
18005THY    CP133699   2.529   7.741   4.372  0.2881 -0.6793  0.0182
18005THY    HP133700   2.507   7.634   4.383 -0.8353 -1.1395  0.1958
18005THY    CP233701   2.669   7.745   4.297 -0.0329  1.0365 -0.6631
18005THY    HP233702   2.759   7.717   4.353  3.0152 -2.2682  1.6488
18005THY    HP333703   2.703   7.838   4.250  1.4018  1.0297 -1.1640
18005THY    HP433704   2.674   7.663   4.225  1.3933  1.9621 -1.4279
18005THY    CP333705   2.421   7.813   4.290 -0.4141  0.5073  0.9472
18005THY    HP533706   2.390   7.751   4.205 -0.6710  0.3755  1.2477
18005THY    HP633707   2.454   7.911   4.254  0.5451  1.1172  0.8603
18005THY    HP733708   2.328   7.819   4.348  0.9030  2.5501  2.7905
18005THY    CA333709   2.479   7.926   4.541  0.3783  0.1133 -0.1950
18005THY    HA333710   2.426   7.983   4.466 -1.0223 -0.4398 -2.1207
18005THY    CA433711   2.488   7.979   4.672  0.2341  0.7153  0.5763
18005THY    HA433712   2.457   8.082   4.685 -0.2975  0.1733  0.4933
18005THY    CA533713   2.546   7.909   4.774  0.1040  0.1253  0.0724
18005THY    CM133714   2.552   7.968   4.914 -0.3202 -0.3071  0.1699
18005THY    HM133715   2.490   7.908   4.981  1.3192 -0.4707 -1.7926
18005THY    HM233716   2.512   8.070   4.916  1.9115 -0.1752  1.1037
18005THY    HM333717   2.650   7.960   4.964 -0.8769  0.9645  0.8917
18005THY    CA633718   2.581   7.783   4.753  0.0468 -0.1112 -0.2132
18005THY    HA633719   2.635   7.733   4.833  1.2691  0.9824  2.6527
18006THY      O33720   2.774   0.731   5.866  0.1381 -0.0885  0.4069
18006THY     HO33721   2.845   0.714   5.930  0.3889 -0.4412  0.0783
18006THY    CA133722   2.684   0.626   5.869 -0.2099 -0.6842 -0.3114
18006THY    CA233723   2.662   0.549   5.748  0.3601  0.0013  0.3728
18006THY    CP133724   2.733   0.585   5.617 -0.4916  0.8715 -1.3181
18006THY    HP133725   2.813   0.655   5.646 -1.3603  2.8798 -1.1001
18006THY    CP233726   2.637   0.678   5.525  0.1105  0.1986 -0.0258
18006THY    HP233727   2.608   0.762   5.589  2.2142 -0.3088  1.1549
18006THY    HP333728   2.554   0.613   5.494  0.6960  1.2452 -1.3255
18006THY    HP433729   2.681   0.721   5.434 -0.3171 -0.2131 -0.4422
18006THY    CP333730   2.788   0.464   5.549 -0.3080 -0.3583  0.0740
18006THY    HP533731   2.827   0.476   5.448 -2.6230 -1.6373 -2.1901
18006THY    HP633732   2.710   0.395   5.515  1.5083 -0.5985 -1.9820
18006THY    HP733733   2.859   0.413   5.615 -0.2987  0.6909  1.3824
18006THY    CA333734   2.569   0.442   5.752  0.1432  0.3851  0.0640
18006THY    HA333735   2.537   0.383   5.667 -0.0409  0.7997 -0.4514
18006THY    CA433736   2.513   0.405   5.876 -0.6044 -0.5095  0.0414
18006THY    HA433737   2.443   0.323   5.886 -1.1477  1.0504  0.6504
18006THY    CA533738   2.563   0.467   5.994 -1.2864 -0.1147  0.5498
18006THY    CM133739   2.518   0.417   6.131 -0.3785 -0.6765 -0.0940
18006THY    HM133740   2.461   0.497   6.179  0.1298  2.6737 -1.5955
18006THY    HM233741   2.593   0.394   6.207  0.7642 -1.0120  2.2351
18006THY    HM333742   2.457   0.327   6.119 -2.6640  1.0799  1.1418
18006THY    CA633743   2.640   0.584   5.987 -0.5381 -0.5222 -0.7827
18006THY    HA633744   2.662   0.636   6.079 -2.4947 -1.6343  2.2300
18007THY      O33745   5.650   6.377   4.722  0.2214 -0.7226 -0.4118
18007THY     HO33746   5.662   6.393   4.817  2.1715 -1.4799  4.0727
18007THY    CA133747   5.519   6.332   4.711 -0.4147  0.5842  0.1073
18007THY    CA233748   5.473   6.254   4.603 -0.0133 -0.6052  0.0497
18007THY    CP133749   5.562   6.217   4.492 -0.1010  0.0540 -0.0951
18007THY    HP133750   5.639   6.295   4.487 -0.5215 -1.1673  0.2746
18007THY    CP233751   5.494   6.184   4.352  0.4264 -0.2452  0.7111
18007THY    HP233752   5.577   6.155   4.286  0.2690 -0.1081 -0.0521
18007THY    HP333753   5.441   6.273   4.314 -0.8743 -1.5261 -0.5654
18007THY    HP433754   5.418   6.107   4.362  0.1757  0.3108  1.0279
18007THY    CP333755   5.638   6.087   4.532 -0.4800 -0.1267 -0.1921
18007THY    HP533756   5.670   6.099   4.636  1.8526 -0.6708 -1.1331
18007THY    HP633757   5.724   6.067   4.467 -1.3149 -1.3551  0.1045
18007THY    HP733758   5.571   6.002   4.521  0.7708 -2.2808 -0.9759
18007THY    CA333759   5.337   6.206   4.614 -0.1135  0.2651 -0.2372
18007THY    HA333760   5.294   6.130   4.550  1.7931  2.3627 -3.2747
18007THY    CA433761   5.258   6.225   4.731 -0.7247  0.2633 -0.0392
18007THY    HA433762   5.165   6.172   4.748 -0.7838 -1.4775 -0.5324
18007THY    CA533763   5.304   6.317   4.829  0.1622  0.6322 -0.2973
18007THY    CM133764   5.214   6.373   4.935  0.1538  0.4116 -0.0505
18007THY    HM133765   5.108   6.349   4.921  0.0944 -0.4607  0.6904
18007THY    HM233766   5.220   6.482   4.941  0.2723 -1.2977  0.0588
18007THY    HM333767   5.250   6.341   5.034  2.4886 -0.9717 -2.0547
18007THY    CA633768   5.434   6.369   4.812 -0.1873 -0.6482 -0.3993
18007THY    HA633769   5.480   6.437   4.883 -1.1111 -1.2240  0.8567
18008THY      O33770   7.019   2.029   1.613  0.2844 -0.5626 -0.0332
18008THY     HO33771   6.947   2.014   1.549  1.0856 -0.8788 -3.3688
18008THY    CA133772   7.008   1.951   1.724  0.0813 -0.4594 -0.0001
18008THY    CA233773   7.058   1.989   1.855 -0.2969 -0.5876 -0.8724
18008THY    CP133774   7.127   2.128   1.871 -0.5391  0.9159  0.4785
18008THY    HP133775   7.136   2.175   1.772 -1.8821  0.4002 -0.3187
18008THY    CP233776   7.272   2.111   1.913 -0.4022 -0.4532  0.3915
18008THY    HP233777   7.289   2.045   1.999  1.6416 -1.9769 -1.2281
18008THY    HP333778   7.328   2.204   1.920 -0.4247  1.4035  0.3039
18008THY    HP433779   7.333   2.053   1.843  3.0197  1.1125  1.8525
18008THY    CP333780   7.041   2.217   1.955  0.0992  0.1723 -0.8616
18008THY    HP533781   7.007   2.166   2.046  0.7646  0.1483 -1.3672
18008THY    HP633782   6.949   2.237   1.900 -0.3722  1.4982  0.9631
18008THY    HP733783   7.077   2.316   1.986 -2.2306 -2.1181  0.8248
18008THY    CA333784   7.050   1.892   1.962  0.1493 -0.4140  0.3371
18008THY    HA333785   7.106   1.904   2.054  0.6039  0.0858 -3.8903
18008THY    CA433786   6.990   1.765   1.940 -0.3124 -0.1637  0.8735
18008THY    HA433787   6.976   1.689   2.016 -0.9303 -0.9674  0.1601
18008THY    CA533788   6.941   1.732   1.809  0.3255  0.2543  0.3834
18008THY    CM133789   6.877   1.593   1.793  0.1539  0.1520 -0.8038
18008THY    HM133790   6.928   1.506   1.834  1.1810 -1.7028 -1.1380
18008THY    HM233791   6.856   1.571   1.687  0.3666 -0.4597  1.5794
18008THY    HM333792   6.783   1.605   1.848  0.6848  0.5744  2.1446
18008THY    CA633793   6.945   1.828   1.709  0.3391 -0.4090 -0.9200
18008THY    HA633794   6.886   1.800   1.623 -0.7421 -0.2334  0.6473
18009THY      O33795   1.123   1.026   6.440  0.2295 -0.5033 -0.3524
18009THY     HO33796   1.188   1.096   6.458 -0.0109 -2.2880  0.3704
18009THY    CA133797   1.186   0.906   6.453 -0.0431 -0.4608 -0.3168
18009THY    CA233798   1.119   0.782   6.470 -0.1328  0.4708  1.0389
18009THY    CP133799   0.971   0.774   6.482  0.0641  0.1891  0.1022
18009THY    HP133800   0.909   0.862   6.458 -0.8132  2.1946  0.0957
18009THY    CP233801   0.918   0.718   6.619 -0.2366 -0.0210 -0.2560
18009THY    HP233802   0.946   0.612   6.622  0.4667  0.3642 -0.0630
18009THY    HP333803   0.812   0.741   6.634 -0.4433  3.1722 -2.6385
18009THY    HP433804   0.970   0.768   6.701  0.9898 -1.8579  1.6340
18009THY    CP333805   0.918   0.665   6.388 -0.4061 -0.5610 -0.1537
18009THY    HP533806   0.813   0.677   6.360 -0.7289  0.4849 -0.4343
18009THY    HP633807   0.936   0.560   6.414 -0.3431 -1.5890 -0.4059
18009THY    HP733808   0.958   0.691   6.289  1.1105 -0.4432 -1.8528
18009THY    CA333809   1.200   0.664   6.466 -0.0001  0.3947 -0.1561
18009THY    HA333810   1.157   0.565   6.482 -0.3553  1.0590  0.0987
18009THY    CA433811   1.334   0.675   6.442  0.0437  0.8602  0.4841
18009THY    HA433812   1.390   0.582   6.449  1.8465 -0.3419  1.4267
18009THY    CA533813   1.396   0.799   6.428 -0.0959 -0.2169  0.2259
18009THY    CM133814   1.543   0.816   6.409 -0.2436 -0.5228  0.0624
18009THY    HM133815   1.594   0.834   6.504 -1.1182 -0.1459  0.6087
18009THY    HM233816   1.567   0.888   6.330  1.4767  1.1886  1.4747
18009THY    HM333817   1.586   0.727   6.361  3.1001  0.9417  0.7387
18009THY    CA633818   1.321   0.915   6.434  0.5523  0.2307 -0.3341
18009THY    HA633819   1.363   1.015   6.430 -0.1783  0.0012 -0.0330
18010THY      O33820   8.060   3.146   2.457 -0.4943  0.2355  0.2897
18010THY     HO33821   8.028   3.165   2.367  0.4008 -0.4385 -1.2230
18010THY    CA133822   7.959   3.072   2.509  0.1440  0.4411 -0.2923
18010THY    CA233823   7.978   2.957   2.584 -0.6535  0.4823 -0.2351
18010THY    CP133824   8.116   2.903   2.607 -0.8015  0.5298 -0.4542
18010THY    HP133825   8.189   2.937   2.532 -0.3308  1.2237  0.0947
18010THY    CP233826   8.123   2.751   2.587 -0.1639  0.3741  0.0530
18010THY    HP233827   8.067   2.689   2.659 -1.8638 -0.3104  0.7382
18010THY    HP333828   8.226   2.713   2.582 -0.2521  2.3525 -0.5539
18010THY    HP433829   8.064   2.731   2.497  0.1026  0.1781  0.1327
18010THY    CP333830   8.160   2.929   2.751  0.7087 -0.1364 -0.2638
18010THY    HP533831   8.148   3.036   2.772  2.0967 -3.1419  0.5867
18010THY    HP633832   8.262   2.898   2.777 -0.0002  1.3233 -1.5338
18010THY    HP733833   8.100   2.874   2.824  1.2170  1.2386  0.9332
18010THY    CA333834   7.863   2.898   2.634  0.0405 -0.1009  0.4789
18010THY    HA333835   7.870   2.818   2.708  0.7702  1.8125  2.2342
18010THY    CA433836   7.737   2.939   2.602  0.1827  0.2491 -0.3751
18010THY    HA433837   7.653   2.890   2.650  0.7263  0.0129 -1.6054
18010THY    CA533838   7.722   3.048   2.513 -0.4742  0.1389  0.3097
18010THY    CM133839   7.581   3.095   2.472 -0.2109 -0.0145  0.3586
18010THY    HM133840   7.512   3.017   2.507  0.4846  0.3280 -0.1139
18010THY    HM233841   7.561   3.097   2.364  0.2307 -0.0962  1.8171
18010THY    HM333842   7.555   3.195   2.508 -1.3088 -3.4234  1.4415
18010THY    CA633843   7.833   3.116   2.468  0.1113  0.3703 -0.4703
18010THY    HA633844   7.822   3.199   2.398  0.0436  0.1042 -0.7026
18011THY      O33845   4.623   8.910   2.967  0.1304 -0.4109 -0.2661
18011THY     HO33846   4.617   8.955   3.053 -0.5124 -0.3011 -0.5381
18011THY    CA133847   4.742   8.947   2.916  0.0530  0.2275 -0.3769
18011THY    CA233848   4.753   8.983   2.779  0.3098 -0.4519  0.4675
18011THY    CP133849   4.634   8.967   2.685 -0.1032 -0.1616  0.0374
18011THY    HP133850   4.537   8.960   2.736 -0.1183  0.0710  1.5581
18011THY    CP233851   4.657   8.857   2.582 -0.2345 -0.4646  0.5095
18011THY    HP233852   4.610   8.764   2.617  0.3657  2.6486  1.2478
18011THY    HP333853   4.764   8.841   2.566 -0.1169 -0.5050  1.3174
18011THY    HP433854   4.602   8.881   2.490 -0.8144 -0.1544  0.4099
18011THY    CP333855   4.621   9.101   2.617  0.0515 -0.1307 -0.7102
18011THY    HP533856   4.520   9.103   2.574  0.4504 -1.0510  0.0212
18011THY    HP633857   4.697   9.123   2.542 -0.5743  0.2027  3.5374
18011THY    HP733858   4.622   9.181   2.692 -0.7807 -1.3049  0.4517
18011THY    CA333859   4.880   9.020   2.729  0.3498 -0.1728 -0.3542
18011THY    HA333860   4.892   9.041   2.623  0.1849 -0.4952 -1.7589
18011THY    CA433861   4.990   9.022   2.816  0.1436 -0.0173 -0.6836
18011THY    HA433862   5.081   9.063   2.774 -0.5248  0.2195  1.1351
18011THY    CA533863   4.975   8.976   2.948  0.2499 -0.5659  0.6862
18011THY    CM133864   5.099   8.968   3.036 -0.3612 -0.3329  0.6736
18011THY    HM133865   5.103   9.064   3.087  1.2493 -0.2319  0.5753
18011THY    HM233866   5.186   8.963   2.970 -0.1820 -0.2300  2.1213
18011THY    HM333867   5.088   8.888   3.111 -1.1982 -0.5211  0.5952
18011THY    CA633868   4.852   8.938   3.002 -0.0289  0.7278 -0.6698
18011THY    HA633869   4.845   8.902   3.105 -0.6173  0.2077 -2.1391
18012THY      O33870   2.886   2.299   2.360  0.0098 -0.3225 -0.8166
18012THY     HO33871   2.952   2.365   2.390 -0.7953  0.8467 -0.5173
18012THY    CA133872   2.807   2.372   2.284  0.6876  0.2143 -0.5092
18012THY    CA233873   2.788   2.349   2.145  0.0038  0.4675  0.0373
18012THY    CP133874   2.850   2.227   2.079 -0.2012 -0.6201  0.4182
18012THY    HP133875   2.893   2.158   2.153 -1.7546  0.3900  0.4822
18012THY    CP233876   2.929   2.262   1.958 -0.0674 -0.4229  0.0588
18012THY    HP233877   2.866   2.318   1.888 -0.3648 -0.5057 -0.3762
18012THY    HP333878   2.963   2.165   1.920  0.7868  1.9289 -0.6286
18012THY    HP433879   3.018   2.320   1.982 -0.6197  2.7747 -0.2132
18012THY    CP333880   2.736   2.135   2.031 -0.8653  0.2793 -0.2475
18012THY    HP533881   2.658   2.103   2.102 -2.4623 -0.6581  1.4009
18012THY    HP633882   2.773   2.038   1.994 -0.5412  0.3613 -0.1551
18012THY    HP733883   2.670   2.179   1.955 -0.7084 -1.3809 -2.6649
18012THY    CA333884   2.705   2.438   2.080  0.7034  0.3574  0.0767
18012THY    HA333885   2.693   2.418   1.974  1.2236  0.1539  0.7687
18012THY    CA433886   2.647   2.546   2.147 -0.6411  0.0799  0.3464
18012THY    HA433887   2.575   2.606   2.092 -1.0882  0.8633  0.5553
18012THY    CA533888   2.661   2.556   2.279 -0.2921 -0.5600 -0.2493
18012THY    CM133889   2.601   2.675   2.347 -0.1407  0.2344 -0.0212
18012THY    HM133890   2.492   2.688   2.343  0.1469 -1.9709  2.4396
18012THY    HM233891   2.642   2.768   2.306 -0.6677  1.8446  0.9452
18012THY    HM333892   2.610   2.676   2.456 -0.7054  0.2816  0.5665
18012THY    CA633893   2.744   2.468   2.352 -0.0947  0.7496 -0.1423
18012THY    HA633894   2.766   2.485   2.457 -0.0447  1.2212 -2.7534
18013THY      O33895   3.153   1.914   6.585 -0.4725  0.2362 -0.0122
18013THY     HO33896   3.087   1.955   6.526 -0.9229 -0.0622 -1.1479
18013THY    CA133897   3.104   1.932   6.710 -0.4023  0.0031  0.1026
18013THY    CA233898   3.172   1.876   6.822  0.1197 -0.3170 -0.1797
18013THY    CP133899   3.297   1.786   6.805  0.0340  0.9399 -0.4122
18013THY    HP133900   3.342   1.797   6.706 -2.6300 -0.4110 -0.9472
18013THY    CP233901   3.266   1.637   6.812 -0.3192 -0.2755  0.2535
18013THY    HP233902   3.199   1.597   6.736  0.1340 -0.8116  0.5041
18013THY    HP333903   3.223   1.598   6.905 -1.0073 -0.6761  0.0403
18013THY    HP433904   3.363   1.589   6.796  1.6239  2.0920  2.9970
18013THY    CP333905   3.410   1.816   6.910  0.2371 -0.4572  0.6121
18013THY    HP533906   3.389   1.766   7.005  1.5953  0.1079  1.0618
18013THY    HP633907   3.411   1.924   6.928 -0.7058 -3.7527  1.2843
18013THY    HP733908   3.503   1.775   6.870  0.5521 -0.2744  1.1386
18013THY    CA333909   3.124   1.907   6.948  0.6768  0.0459  0.1581
18013THY    HA333910   3.162   1.856   7.036  0.3599  0.5766  0.8222
18013THY    CA433911   3.015   2.000   6.963 -0.8237 -0.3601  0.5803
18013THY    HA433912   2.994   2.024   7.067  3.8775  0.9254  0.0811
18013THY    CA533913   2.955   2.052   6.849  0.0327  0.2632  0.4377
18013THY    CM133914   2.841   2.139   6.872  1.0295  0.0760 -0.0810
18013THY    HM133915   2.829   2.182   6.972  0.9655  0.6254 -1.3369
18013THY    HM233916   2.750   2.085   6.845  0.9937 -0.6459  0.3192
18013THY    HM333917   2.844   2.226   6.805  2.0481  1.0037  0.6355
18013THY    CA633918   2.993   2.017   6.718  0.5325  0.1168  0.2943
18013THY    HA633919   2.949   2.066   6.632  1.5425 -0.2275  0.6196
18014THY      O33920   3.205   4.227   2.489 -0.0564  0.1665 -0.4751
18014THY     HO33921   3.162   4.227   2.576  1.2271  0.8300  0.0702
18014THY    CA133922   3.199   4.359   2.446 -0.3120 -0.5319 -0.2637
18014THY    CA233923   3.258   4.408   2.325  0.4399 -0.0620  0.4672
18014THY    CP133924   3.319   4.305   2.228 -0.0913  0.1799  0.4226
18014THY    HP133925   3.337   4.208   2.275  1.5874 -1.0179  0.1144
18014THY    CP233926   3.460   4.361   2.183 -0.3730 -0.1729 -0.1308
18014THY    HP233927   3.521   4.382   2.272 -0.3268 -0.7684  2.5622
18014THY    HP333928   3.451   4.456   2.130  0.8251 -1.1243 -0.5195
18014THY    HP433929   3.511   4.284   2.123  0.3117  1.9910 -1.4795
18014THY    CP333930   3.228   4.291   2.094 -0.5817 -0.3590 -0.0081
18014THY    HP533931   3.245   4.389   2.048  0.0679 -0.4489 -0.1604
18014THY    HP633932   3.122   4.274   2.116 -0.8605 -1.9732 -0.4958
18014THY    HP733933   3.270   4.213   2.030  1.4192  1.9857 -0.9951
18014THY    CA333934   3.232   4.540   2.283 -0.1108 -0.2934 -0.0701
18014THY    HA333935   3.265   4.566   2.183 -1.5888 -0.5319  1.0210
18014THY    CA433936   3.140   4.617   2.353  0.5799  0.7664 -0.1435
18014THY    HA433937   3.110   4.715   2.317  1.3401  0.0058 -0.1719
18014THY    CA533938   3.083   4.567   2.469  0.2813  0.0685  0.6056
18014THY    CM133939   2.987   4.655   2.539 -0.4480 -0.4271  0.1060
18014THY    HM133940   2.938   4.617   2.630 -2.0046 -1.2077  0.1227
18014THY    HM233941   2.897   4.671   2.477 -0.7446  0.2124  1.0104
18014THY    HM333942   3.034   4.751   2.559 -1.0149 -0.6398  0.4348
18014THY    CA633943   3.112   4.439   2.519 -0.1454  0.1007  0.1416
18014THY    HA633944   3.065   4.402   2.610  0.1027 -0.5330 -1.8464
18015THY      O33945   0.959   8.343   4.594 -0.3439 -0.2055  0.0575
18015THY     HO33946   0.975   8.309   4.504  2.0537 -0.2244  1.0740
18015THY    CA133947   0.914   8.470   4.577  0.1295  0.2811 -0.0440
18015THY    CA233948   0.794   8.514   4.639  0.0506 -0.2891  0.2338
18015THY    CP133949   0.721   8.410   4.728 -0.2244 -0.0064 -0.7526
18015THY    HP133950   0.764   8.309   4.734 -1.4989  0.0052 -1.3227
18015THY    CP233951   0.572   8.383   4.676  0.6334 -0.0969 -0.6331
18015THY    HP233952   0.511   8.336   4.754 -1.3854 -2.2113 -1.7746
18015THY    HP333953   0.591   8.316   4.590 -1.3029  0.5935 -2.1511
18015THY    HP433954   0.523   8.471   4.632 -0.2828  1.7937 -0.1670
18015THY    CP333955   0.711   8.472   4.863  1.0575  0.6481 -0.7277
18015THY    HP533956   0.665   8.572   4.860  1.2864  2.1669 -0.5578
18015THY    HP633957   0.808   8.473   4.915  2.5613 -1.9136 -1.7943
18015THY    HP733958   0.649   8.402   4.920 -1.0665 -0.5876  0.0585
18015THY    CA333959   0.750   8.645   4.623  0.0763 -0.7252  0.1368
18015THY    HA333960   0.656   8.680   4.664 -0.2800 -2.7074  1.7534
18015THY    CA433961   0.828   8.723   4.531 -0.4584 -0.4527 -0.2115
18015THY    HA433962   0.805   8.825   4.501  1.8255 -1.6267  0.0366
18015THY    CA533963   0.940   8.685   4.460 -0.1084 -0.0697  0.6786
18015THY    CM133964   1.010   8.762   4.348 -0.2671 -0.2292  0.2451
18015THY    HM133965   0.971   8.865   4.345 -1.4461 -0.0735 -0.1737
18015THY    HM233966   0.991   8.723   4.248  1.4569  0.0141 -1.3271
18015THY    HM333967   1.118   8.747   4.357 -0.5215 -0.2139 -1.9096
18015THY    CA633968   0.987   8.554   4.484 -0.1114 -0.3168  0.1438
18015THY    HA633969   1.068   8.516   4.423  0.0784  0.7551 -1.2781
18016THY      O33970   7.793   7.098   1.753  0.0826 -0.0596 -0.4130
18016THY     HO33971   7.755   7.122   1.668  0.7576 -0.2605 -0.0387
18016THY    CA133972   7.699   7.110   1.845 -0.0213  0.9403  0.0578
18016THY    CA233973   7.724   7.086   1.981 -0.3672  0.2037  0.1914
18016THY    CP133974   7.866   7.080   2.044  0.1330 -0.9804 -0.5255
18016THY    HP133975   7.940   7.056   1.968  1.8387  0.7252 -0.8628
18016THY    CP233976   7.880   6.967   2.145  0.1660  0.2565  0.1530
18016THY    HP233977   7.841   6.875   2.101 -0.6007 -0.2452  0.7018
18016THY    HP333978   7.831   6.982   2.242  2.2239  1.3768 -0.0743
18016THY    HP433979   7.986   6.946   2.162 -0.0091  0.3418 -0.6593
18016THY    CP333980   7.910   7.211   2.109  0.3400  0.5496  0.0887
18016THY    HP533981   7.844   7.235   2.194  1.7085  2.2013 -1.6748
18016THY    HP633982   7.905   7.292   2.035 -2.8631  0.3657 -0.1229
18016THY    HP733983   8.013   7.209   2.146  0.0217  1.5441  0.9761
18016THY    CA333984   7.616   7.105   2.070 -0.2544  0.1476  0.3868
18016THY    HA333985   7.633   7.112   2.177 -1.9478  0.5237 -0.7561
18016THY    CA433986   7.485   7.124   2.018 -0.0440 -0.1503 -0.0128
18016THY    HA433987   7.401   7.134   2.087  0.8358  0.9153  0.2854
18016THY    CA533988   7.467   7.127   1.883  0.4351 -0.7922 -0.0647
18016THY    CM133989   7.323   7.125   1.830  0.1531  0.0490 -0.6847
18016THY    HM133990   7.265   7.040   1.866 -0.0321 -0.6581 -0.8586
18016THY    HM233991   7.324   7.141   1.722 -2.3354  0.0970  0.2257
18016THY    HM333992   7.277   7.216   1.870 -1.8855  0.3681 -1.7951
18016THY    CA633993   7.569   7.116   1.796  0.6999  0.1510 -0.4743
18016THY    HA633994   7.553   7.107   1.689 -0.9959  0.4877 -2.0532
18017THY      O33995   0.526   5.907   2.270 -0.6088  0.6999 -1.0090
18017THY     HO33996   0.599   5.959   2.232 -3.1181 -1.6872  1.0871
18017THY    CA133997   0.430   5.991   2.230  0.4157 -0.5140  0.5084
18017THY    CA233998   0.296   5.949   2.198  0.1134 -0.1998 -0.7831
18017THY    CP133999   0.260   5.806   2.220  0.1859  0.0218  0.1939
18017THY    HP134000   0.338   5.740   2.179 -0.0360  0.1342 -0.1428
18017THY    CP234001   0.136   5.762   2.143 -0.1519  0.0074  0.9008
18017THY    HP234002   0.052   5.820   2.184 -1.3805 -2.2386  0.8438
18017THY    HP334003   0.112   5.656   2.145  2.4038 -1.3090  0.2213
18017THY    HP434004   0.149   5.796   2.040 -1.4403 -0.3431  0.4134
18017THY    CP334005   0.235   5.783   2.373 -0.3839 -0.3069  0.0639
18017THY    HP534006   0.201   5.682   2.398  1.5243  0.8266 -0.3605
18017THY    HP634007   0.177   5.867   2.414  0.8633  1.4385  0.1255
18017THY    HP734008   0.326   5.802   2.431  0.8783 -1.3232 -2.4736
18017THY    CA334009   0.211   6.038   2.136 -0.8109 -0.3562  0.9240
18017THY    HA334010   0.110   6.004   2.114 -0.3941 -0.0005 -0.5994
18017THY    CA434011   0.249   6.172   2.107 -0.8570 -0.3658 -0.1601
18017THY    HA434012   0.180   6.242   2.062 -0.0850 -0.9905  0.2157
18017THY    CA534013   0.378   6.211   2.151  0.2125  0.5475 -0.0189
18017THY    CM134014   0.418   6.352   2.141  0.6762 -0.0172 -0.4035
18017THY    HM134015   0.469   6.382   2.050 -0.1323  0.1442  1.6019
18017THY    HM234016   0.482   6.374   2.227  0.6921 -0.3090  0.7499
18017THY    HM334017   0.327   6.413   2.155  1.6736 -0.7917  1.3111
18017THY    CA634018   0.472   6.123   2.213  0.2359 -0.3301 -0.1036
18017THY    HA634019   0.565   6.157   2.258 -0.6147  2.7761 -1.5010
18018THY      O34020   7.329   8.784   5.993  0.1964 -0.2249 -0.0041
18018THY     HO34021   7.392   8.843   5.946 -0.4775 -0.1244  0.8087
18018THY    CA134022   7.215   8.782   5.918  0.6340  0.4141 -0.4450
18018THY    CA234023   7.088   8.847   5.947 -0.1299  0.3672  0.3653
18018THY    CP134024   7.073   8.923   6.077 -0.1831  0.2865  0.0861
18018THY    HP134025   7.164   8.933   6.136  0.9069 -1.2807 -0.3286
18018THY    CP234026   6.967   8.851   6.167 -0.4121  0.0284 -0.2538
18018THY    HP234027   7.005   8.753   6.195  0.4407  1.4893  0.4607
18018THY    HP334028   6.874   8.839   6.111 -0.5351  0.5310 -1.8564
18018THY    HP434029   6.942   8.908   6.257 -0.0326 -0.1817  0.2521
18018THY    CP334030   7.025   9.075   6.059 -0.2090  0.0018 -0.2827
18018THY    HP534031   6.917   9.071   6.039 -0.1495 -0.2224 -3.6120
18018THY    HP634032   7.081   9.128   5.982 -2.2342  0.0111  2.0419
18018THY    HP734033   7.036   9.130   6.153 -1.2772  0.8943 -1.4863
18018THY    CA334034   6.982   8.833   5.867  0.4284 -0.5647  0.5204
18018THY    HA334035   6.886   8.877   5.895 -1.3147  1.6804 -4.0357
18018THY    CA434036   6.994   8.757   5.752 -0.7672  0.1914  0.6342
18018THY    HA434037   6.909   8.751   5.685 -1.4691  1.2107 -2.5633
18018THY    CA534038   7.113   8.689   5.721 -0.2949  0.2455  0.4325
18018THY    CM134039   7.116   8.613   5.590  0.3552  0.1935  0.0496
18018THY    HM134040   7.014   8.600   5.554  1.5667 -2.9164 -2.2680
18018THY    HM234041   7.166   8.516   5.597 -0.4562  0.8800 -0.3249
18018THY    HM334042   7.167   8.683   5.522  1.4513  1.1696  0.2290
18018THY    CA634043   7.225   8.695   5.811 -0.8678  0.4701  0.3983
18018THY    HA634044   7.315   8.641   5.783 -1.2591 -1.4559  0.6658
18019THY      O34045   3.708   6.607   4.537  0.1057 -0.1311 -0.4116
18019THY     HO34046   3.689   6.642   4.448 -1.5251  0.8588  1.4800
18019THY    CA134047   3.590   6.556   4.577  0.1340  0.2029  1.1737
18019THY    CA234048   3.581   6.434   4.648 -0.2885 -0.5692 -0.4961
18019THY    CP134049   3.709   6.351   4.683  0.2089 -0.0275  0.1088
18019THY    HP134050   3.791   6.424   4.681 -0.6401 -2.0238  1.0721
18019THY    CP234051   3.747   6.251   4.573 -0.3259  0.1691  0.5011
18019THY    HP234052   3.838   6.196   4.601  0.3851 -0.0434  1.5373
18019THY    HP334053   3.758   6.303   4.477 -1.7055  0.5445  1.5275
18019THY    HP434054   3.664   6.183   4.551 -1.0286 -0.6110  1.5927
18019THY    CP334055   3.692   6.287   4.824 -0.5201 -0.3089 -0.2610
18019THY    HP534056   3.624   6.351   4.881 -0.7653 -0.4042 -0.4369
18019THY    HP634057   3.786   6.295   4.879 -1.5247  1.3464  0.7475
18019THY    HP734058   3.647   6.187   4.827 -0.0880  4.6394 -0.5836
18019THY    CA334059   3.447   6.385   4.674  0.4645  0.4611 -0.3982
18019THY    HA334060   3.437   6.302   4.744 -0.2570  1.7191  0.7037
18019THY    CA434061   3.335   6.459   4.629  0.4073  0.2696 -1.1124
18019THY    HA434062   3.231   6.428   4.637 -0.2203 -2.4917  0.0051
18019THY    CA534063   3.345   6.592   4.577  0.0688  0.2164 -0.1205
18019THY    CM134064   3.224   6.671   4.537 -0.2311 -0.1304  0.2043
18019THY    HM134065   3.245   6.778   4.526  1.7505 -1.2635 -0.2486
18019THY    HM234066   3.151   6.653   4.617 -1.1464 -1.3947 -2.0874
18019THY    HM334067   3.171   6.631   4.450 -0.1022  0.6617 -1.8145
18019THY    CA634068   3.475   6.633   4.554  0.5765  0.9023  0.0807
18019THY    HA634069   3.490   6.726   4.499 -0.4829 -0.6095 -0.6003
18020THY      O34070   6.071   8.871   5.036 -0.0862 -0.0391  0.6197
18020THY     HO34071   6.011   8.796   5.049 -0.5134 -0.6616  0.8421
18020THY    CA134072   6.157   8.839   4.939 -0.8630  0.4061  0.0548
18020THY    CA234073   6.267   8.923   4.893 -0.6580  0.3283  0.5361
18020THY    CP134074   6.266   9.067   4.949  0.1084  0.1236  0.4157
18020THY    HP134075   6.179   9.084   5.014  1.3410  1.7102  0.9094
18020THY    CP234076   6.274   9.177   4.845  0.0234 -1.1716  0.5146
18020THY    HP234077   6.176   9.196   4.799 -0.9377  1.4149  2.4940
18020THY    HP334078   6.357   9.158   4.775  0.1059 -1.0249  0.3400
18020THY    HP434079   6.298   9.268   4.901 -1.9751 -0.2303  0.5085
18020THY    CP334080   6.380   9.075   5.045  0.4966 -0.4257 -0.5459
18020THY    HP534081   6.373   9.002   5.127 -3.2458 -0.0609  0.0090
18020THY    HP634082   6.378   9.172   5.096  0.1377 -1.4971  0.0221
18020THY    HP734083   6.480   9.071   5.001  1.8040  2.3009 -0.4498
18020THY    CA334084   6.352   8.882   4.791 -0.1808  0.3758  1.0805
18020THY    HA334085   6.430   8.946   4.753  0.0049  0.0665  0.6696
18020THY    CA434086   6.343   8.749   4.747 -0.0629 -0.2254  0.7544
18020THY    HA434087   6.421   8.713   4.680 -0.9869 -0.6968 -0.4233
18020THY    CA534088   6.243   8.663   4.785 -0.4549 -0.1462 -0.2239
18020THY    CM134089   6.233   8.526   4.717  0.5416 -0.0189 -0.5246
18020THY    HM134090   6.132   8.495   4.689  0.0801  0.4472  0.5312
18020THY    HM234091   6.284   8.449   4.776  0.4553 -0.8380 -1.2239
18020THY    HM334092   6.289   8.525   4.622  0.6677  0.0555 -0.5436
18020THY    CA634093   6.154   8.709   4.880 -0.2906  0.1747  0.6561
18020THY    HA634094   6.062   8.654   4.897 -1.6948 -1.8702  2.2341
18021THY      O34095   2.487   1.470   6.934  0.2219 -0.7236 -0.0525
18021THY     HO34096   2.522   1.380   6.933 -0.9037 -1.6010 -0.5152
18021THY    CA134097   2.389   1.450   6.844  0.2091  0.6303 -0.1137
18021THY    CA234098   2.277   1.533   6.842  0.1383 -0.7178 -1.6967
18021THY    CP134099   2.263   1.659   6.934 -0.3562  0.2933  0.2795
18021THY    HP134100   2.357   1.678   6.987  1.2173 -1.6421 -1.6607
18021THY    CP234101   2.140   1.638   7.033 -0.0311 -0.0009  0.6322
18021THY    HP234102   2.160   1.556   7.103 -0.2766 -1.3748 -0.6445
18021THY    HP334103   2.043   1.618   6.987  0.6279 -0.9336 -0.5337
18021THY    HP434104   2.119   1.732   7.087  1.1166 -0.8177  1.3935
18021THY    CP334105   2.244   1.788   6.849 -0.1742 -0.3876 -0.5015
18021THY    HP534106   2.164   1.790   6.775 -3.0302  2.5128  0.2589
18021THY    HP634107   2.342   1.812   6.806 -0.8740 -1.5755  0.2688
18021THY    HP734108   2.212   1.869   6.915 -0.2109 -0.6567 -0.2985
18021THY    CA334109   2.176   1.508   6.749 -0.0904  0.0801  0.4227
18021THY    HA334110   2.087   1.571   6.747 -0.1576 -1.3027  0.3191
18021THY    CA434111   2.195   1.409   6.648  0.5877  0.1476  0.8493
18021THY    HA434112   2.114   1.384   6.581 -0.1209  1.2869  0.0203
18021THY    CA534113   2.301   1.319   6.659 -0.3219  0.4580  0.3620
18021THY    CM134114   2.307   1.192   6.568  0.2106 -0.2010 -0.0789
18021THY    HM134115   2.403   1.138   6.572 -0.3569 -0.4156 -1.1220
18021THY    HM234116   2.295   1.220   6.463 -1.5272 -0.5303 -1.8268
18021THY    HM334117   2.225   1.121   6.585 -0.4346 -0.4687  0.5918
18021THY    CA634118   2.400   1.342   6.757  0.1849  0.1448  0.2182
18021THY    HA634119   2.490   1.281   6.753  0.6855  0.8181  0.8856
18022THY      O34120   6.359   3.193   7.052 -0.3216 -0.1942 -0.5778
18022THY     HO34121   6.333   3.262   6.988  1.4861 -0.0171  0.3132
18022THY    CA134122   6.445   3.252   7.128  0.3231 -0.7100 -0.6682
18022THY    CA234123   6.525   3.180   7.211 -0.0798  0.0678  0.1772
18022THY    CP134124   6.490   3.023   7.235  0.2503 -0.5516  0.4916
18022THY    HP134125   6.430   2.976   7.157  3.0827 -2.2647 -0.5290
18022THY    CP234126   6.398   3.009   7.359 -0.1101  0.7773 -0.1092
18022THY    HP234127   6.456   3.027   7.450  1.5025 -0.1567 -0.4123
18022THY    HP334128   6.358   2.907   7.355 -1.1602 -0.7714  0.3245
18022THY    HP434129   6.315   3.081   7.361 -1.3904 -1.6906 -1.3943
18022THY    CP334130   6.615   2.941   7.253 -0.1367  0.1884  0.7989
18022THY    HP534131   6.637   2.947   7.360 -0.8426  0.2798  2.1147
18022THY    HP634132   6.699   2.976   7.191 -0.8198 -1.2631 -0.0444
18022THY    HP734133   6.592   2.838   7.225 -0.8116 -0.7133  1.1805
18022THY    CA334134   6.626   3.245   7.286  0.7323 -0.4680 -0.5418
18022THY    HA334135   6.686   3.191   7.359 -0.1236  1.1993  0.6889
18022THY    CA434136   6.642   3.382   7.278  0.1320  0.2339 -0.1504
18022THY    HA434137   6.725   3.429   7.330  1.8987 -2.2006 -0.3849
18022THY    CA534138   6.569   3.456   7.181 -0.6417  0.2808  0.0993
18022THY    CM134139   6.613   3.592   7.161 -0.1774 -0.5604 -0.1809
18022THY    HM134140   6.630   3.601   7.053  0.8836 -0.7733 -3.4437
18022THY    HM234141   6.706   3.624   7.208  0.1421 -1.1215 -0.2849
18022THY    HM334142   6.528   3.655   7.190  0.4887 -1.4828  1.1847
18022THY    CA634143   6.471   3.390   7.107  0.4121 -0.2387 -0.9577
18022THY    HA634144   6.420   3.431   7.020 -0.1375 -0.8140 -2.7622
18023THY      O34145   1.374   4.387   6.293 -0.0776 -0.5408  0.1636
18023THY     HO34146   1.398   4.315   6.232 -1.6827 -1.8661  0.6663
18023THY    CA134147   1.477   4.416   6.374  1.0744  0.4008 -0.1525
18023THY    CA234148   1.479   4.526   6.461 -0.3177  0.2818  0.1875
18023THY    CP134149   1.368   4.628   6.469  0.7990 -0.2806  0.2813
18023THY    HP134150   1.295   4.611   6.388 -1.3700  1.7011 -0.3345
18023THY    CP234151   1.406   4.777   6.457 -0.9386 -0.0073  0.0335
18023THY    HP234152   1.478   4.793   6.376  0.9956  1.7495  0.6321
18023THY    HP334153   1.454   4.814   6.548 -0.5616 -0.2146  0.0627
18023THY    HP434154   1.315   4.837   6.445 -0.4455 -0.1105  0.7682
18023THY    CP334155   1.283   4.606   6.595 -0.2448  0.4721 -0.3658
18023THY    HP534156   1.264   4.501   6.618 -1.4496  0.2089 -0.2216
18023THY    HP634157   1.187   4.658   6.603 -0.0380 -0.4222  0.1723
18023THY    HP734158   1.343   4.648   6.676 -0.3514  0.5608 -0.3843
18023THY    CA334159   1.592   4.535   6.553 -0.2786  0.2875 -0.3572
18023THY    HA334160   1.611   4.617   6.622  2.5202 -1.7287  0.8952
18023THY    CA434161   1.687   4.434   6.553 -0.4034 -0.1865 -0.0449
18023THY    HA434162   1.770   4.446   6.623  0.4899 -0.8204 -2.1671
18023THY    CA534163   1.683   4.330   6.467  0.8062  0.2870 -0.5698
18023THY    CM134164   1.790   4.220   6.470  0.0577  0.3579  0.1368
18023THY    HM134165   1.746   4.120   6.469  1.8005  0.5271 -0.6569
18023THY    HM234166   1.844   4.221   6.565 -0.0808  0.4670 -1.1330
18023THY    HM334167   1.865   4.222   6.390 -0.1227  0.1873  1.7865
18023THY    CA634168   1.579   4.321   6.379 -0.6108 -0.3100  0.2458
18023THY    HA634169   1.585   4.233   6.316  0.5674  0.2885 -0.1169
18024THY      O34170   8.663   8.476   6.985  0.4815 -0.0434 -0.1771
18024THY     HO34171   8.755   8.502   6.970  0.0911 -0.1319  1.2157
18024THY    CA134172   8.579   8.579   6.962  0.0441 -0.2297  1.1358
18024THY    CA234173   8.447   8.552   6.921  0.1413  0.3052 -0.4497
18024THY    CP134174   8.392   8.403   6.912 -0.7219 -0.1869  1.1945
18024THY    HP134175   8.424   8.340   6.996 -2.8164 -1.1348 -1.3204
18024THY    CP234176   8.435   8.327   6.787 -0.0075  0.3010 -0.2765
18024THY    HP234177   8.379   8.235   6.768 -0.0262 -1.2794  0.0274
18024THY    HP334178   8.543   8.314   6.794 -0.3125  1.0219 -3.0175
18024THY    HP434179   8.420   8.385   6.695 -0.8419  1.2582  1.0798
18024THY    CP334180   8.237   8.396   6.914  0.0413  0.0800 -0.1747
18024THY    HP534181   8.211   8.290   6.918  0.5410  0.3668 -0.2919
18024THY    HP634182   8.191   8.441   6.826 -1.0433  1.7972  2.3607
18024THY    HP734183   8.203   8.448   7.005 -1.6301 -0.2286 -0.6895
18024THY    CA334184   8.361   8.669   6.900 -0.1119 -0.3583 -0.6287
18024THY    HA334185   8.254   8.660   6.882 -0.7399  2.2871  0.6220
18024THY    CA434186   8.412   8.794   6.913 -0.3942  0.0740  0.4170
18024THY    HA434187   8.337   8.871   6.898 -0.2105 -0.6728  0.4601
18024THY    CA534188   8.544   8.817   6.950  0.9828  0.2615 -0.1882
18024THY    CM134189   8.592   8.964   6.959 -0.1203 -0.4612  0.2855
18024THY    HM134190   8.584   9.012   6.861  0.8013 -1.6550 -1.8260
18024THY    HM234191   8.700   8.962   6.980 -0.3275  0.5787 -0.4115
18024THY    HM334192   8.548   9.032   7.032  2.7515  0.1842  1.5981
18024THY    CA634193   8.626   8.705   6.973 -0.1005 -0.0800  0.6616
18024THY    HA634194   8.731   8.715   6.999 -0.0477 -0.3974  0.9262
18025THY      O34195   9.230   3.987   6.632  0.0158 -0.4488 -0.2976
18025THY     HO34196   9.213   3.902   6.674 -0.0866 -0.1586 -0.1341
18025THY    CA134197   9.173   4.070   6.716  0.9260  0.0526 -0.5321
18025THY    CA234198   9.084   4.169   6.671  0.4478  0.0873 -0.1952
18025THY    CP134199   9.040   4.175   6.526  0.2863 -0.1134  1.3902
18025THY    HP134200   9.046   4.072   6.490  1.1115  0.7081  1.1377
18025THY    CP234201   9.143   4.258   6.454 -0.0973  0.1106 -0.8732
18025THY    HP234202   9.127   4.256   6.345  0.5049 -0.0585  1.0508
18025THY    HP334203   9.244   4.221   6.475  0.6816 -0.8459  0.5944
18025THY    HP434204   9.141   4.357   6.502 -2.3766 -2.3555  0.4235
18025THY    CP334205   8.903   4.232   6.496  0.0202  0.4069  0.2720
18025THY    HP534206   8.913   4.338   6.522 -1.0941  1.5263  0.1366
18025THY    HP634207   8.833   4.196   6.573  1.4630  0.5760 -2.3911
18025THY    HP734208   8.873   4.204   6.394 -0.0703 -0.2307  2.5245
18025THY    CA334209   9.035   4.263   6.765  0.1279  0.5049  0.4582
18025THY    HA334210   8.963   4.339   6.736  0.9221  0.2677  1.1383
18025THY    CA434211   9.066   4.241   6.903 -0.2574  0.3182 -0.1837
18025THY    HA434212   9.017   4.304   6.977 -2.0079 -0.8926 -0.0585
18025THY    CA534213   9.162   4.141   6.943  0.7757  0.1033 -0.6236
18025THY    CM134214   9.211   4.141   7.084  0.0330  0.9120 -0.3891
18025THY    HM134215   9.134   4.175   7.154  1.8727  1.5470  2.8681
18025THY    HM234216   9.289   4.217   7.090 -0.2391 -0.3106  0.0151
18025THY    HM334217   9.245   4.038   7.101 -0.4288 -0.0875 -0.7193
18025THY    CA634218   9.202   4.045   6.852  0.5070 -0.5738 -0.0362
18025THY    HA634219   9.265   3.962   6.882 -0.3873  2.3511  0.2138
18026THY      O34220   8.646   9.268   5.027 -0.4134  0.9617  0.2962
18026THY     HO34221   8.690   9.252   5.112  0.1886  0.8123  1.0986
18026THY    CA134222   8.737   9.268   4.933  0.4509 -0.3983  0.3306
18026THY    CA234223   8.717   9.221   4.804 -0.1809  0.0492 -0.0348
18026THY    CP134224   8.576   9.168   4.767  0.2922  0.0062 -0.3899
18026THY    HP134225   8.526   9.130   4.856  1.0586  0.6482  0.0809
18026THY    CP234226   8.579   9.048   4.671  0.2249 -0.0040 -0.0564
18026THY    HP234227   8.655   8.974   4.697 -1.5557 -1.5030 -2.5263
18026THY    HP334228   8.589   9.073   4.565  4.9577  0.3871  0.5360
18026THY    HP434229   8.485   8.992   4.677  0.7140  0.5266 -0.8339
18026THY    CP334230   8.477   9.275   4.716 -0.5379  0.3613  0.1825
18026THY    HP534231   8.462   9.332   4.809  0.1154  0.3711  0.3517
18026THY    HP634232   8.379   9.236   4.688 -1.1591  1.4071  0.9307
18026THY    HP734233   8.529   9.335   4.640  0.9537  1.4553  0.3480
18026THY    CA334234   8.827   9.240   4.712 -0.3743  0.4247 -0.0657
18026THY    HA334235   8.825   9.216   4.606 -1.2313 -0.1213  2.2463
18026THY    CA434236   8.946   9.300   4.752  0.3551 -0.3533 -0.0054
18026THY    HA434237   9.030   9.316   4.686  2.0290  1.4730 -0.8715
18026THY    CA534238   8.964   9.336   4.885  0.2451 -0.2637  0.0643
18026THY    CM134239   9.097   9.378   4.936  0.8271 -0.0346  0.0283
18026THY    HM134240   9.145   9.452   4.871  0.4093 -1.6105 -1.0053
18026THY    HM234241   9.158   9.288   4.953 -1.4180  0.9649 -1.3869
18026THY    HM334242   9.082   9.417   5.036 -1.1755  0.7424 -2.4305
18026THY    CA634243   8.853   9.322   4.974 -0.3258  0.6418 -1.6215
18026THY    HA634244   8.867   9.334   5.081  0.4643  0.4128 -0.3783
18027THY      O34245   8.356   1.017   3.288  0.3192 -0.1085  0.0652
18027THY     HO34246   8.300   0.940   3.307  1.0979  0.5417 -0.3591
18027THY    CA134247   8.369   1.086   3.408 -0.6626  0.3136 -0.0952
18027THY    CA234248   8.473   1.175   3.428  0.5065  0.8036 -0.3565
18027THY    CP134249   8.596   1.164   3.340 -0.6595  0.1088  0.2114
18027THY    HP134250   8.585   1.084   3.265 -0.4160 -0.6187  0.8408
18027THY    CP234251   8.701   1.097   3.426  0.2002  0.2857 -0.3567
18027THY    HP234252   8.719   1.165   3.510 -1.7947  0.1977  0.3531
18027THY    HP334253   8.783   1.103   3.354 -0.8385 -0.8119  1.4879
18027THY    HP434254   8.675   0.995   3.458 -2.0389 -0.6864 -0.1479
18027THY    CP334255   8.636   1.291   3.260 -0.5858 -0.7459  0.0811
18027THY    HP534256   8.725   1.274   3.199  1.5133  1.6599  1.7129
18027THY    HP634257   8.653   1.376   3.328  0.9448 -0.4797 -0.4084
18027THY    HP734258   8.550   1.318   3.197 -1.3076  0.5270  0.8685
18027THY    CA334259   8.456   1.278   3.531  0.0699  1.0462  0.5055
18027THY    HA334260   8.539   1.341   3.561  1.6374  0.8887 -1.3763
18027THY    CA434261   8.333   1.284   3.593 -0.5827 -0.5870 -0.2030
18027THY    HA434262   8.322   1.359   3.671  2.9367  0.1690 -0.2865
18027THY    CA534263   8.238   1.188   3.577 -0.2429 -0.6047  0.3239
18027THY    CM134264   8.118   1.197   3.675 -0.6328  0.0960  0.3321
18027THY    HM134265   8.073   1.101   3.700 -0.2158  2.1331  0.6185
18027THY    HM234266   8.049   1.263   3.620 -0.6319 -0.0551  0.2085
18027THY    HM334267   8.143   1.235   3.774 -0.9882  0.1520  0.4275
18027THY    CA634268   8.252   1.091   3.483  0.6808 -0.3351 -0.7409
18027THY    HA634269   8.172   1.024   3.454 -0.5907  2.4259 -0.5362
18028THY      O34270   7.684   7.908   7.543  0.0966  0.0787  0.3679
18028THY     HO34271   7.751   7.889   7.475 -0.3790 -0.4608  0.5854
18028THY    CA134272   7.636   8.030   7.520  0.1318  0.2158  0.1834
18028THY    CA234273   7.544   8.090   7.611 -0.8231  0.4520 -0.2895
18028THY    CP134274   7.489   8.015   7.733  0.0181  0.4738 -0.2541
18028THY    HP134275   7.570   7.952   7.772 -0.0052  0.7677 -0.1049
18028THY    CP234276   7.372   7.925   7.688 -0.2213 -0.3139 -0.1038
18028THY    HP234277   7.333   7.868   7.773 -0.1042  0.9523  1.6259
18028THY    HP334278   7.401   7.857   7.607  0.0115  0.2190 -0.6516
18028THY    HP434279   7.287   7.989   7.662  1.7323 -1.8451  2.0615
18028THY    CP334280   7.452   8.101   7.843 -0.4982  0.3050  0.5300
18028THY    HP534281   7.515   8.191   7.853  0.8168 -2.0158 -0.0311
18028THY    HP634282   7.456   8.045   7.936  1.4721  1.8207  2.9712
18028THY    HP734283   7.351   8.141   7.831 -0.4072 -0.3609  0.5751
18028THY    CA334284   7.486   8.211   7.576  0.0396  0.8424 -0.5259
18028THY    HA334285   7.409   8.254   7.639 -0.5412  0.1783 -0.5830
18028THY    CA434286   7.534   8.287   7.458 -0.0202 -0.6386  0.3719
18028THY    HA434287   7.496   8.387   7.443  0.9335  1.6829  1.1662
18028THY    CA534288   7.618   8.215   7.368  0.1158  0.3500  0.6363
18028THY    CM134289   7.640   8.277   7.238  0.6724 -0.1013 -0.1716
18028THY    HM134290   7.637   8.386   7.241  0.3948  5.0215 -0.0555
18028THY    HM234291   7.573   8.237   7.161  1.5290  0.0669 -2.0783
18028THY    HM334292   7.735   8.241   7.198 -0.1626 -0.4861 -2.1114
18028THY    CA634293   7.664   8.088   7.401 -0.5351 -0.5623 -1.1760
18028THY    HA634294   7.713   8.034   7.322 -1.3794 -1.9543  0.0132
18029THY      O34295   6.467   5.774   5.051  0.8334  0.0369  0.3270
18029THY     HO34296   6.401   5.813   4.990 -0.5764  0.4356 -1.3259
18029THY    CA134297   6.401   5.668   5.104 -0.3285 -0.3434  0.3473
18029THY    CA234298   6.465   5.585   5.203  0.8751 -0.2290  0.0239
18029THY    CP134299   6.593   5.638   5.271 -0.5527 -0.1122 -0.3236
18029THY    HP134300   6.605   5.745   5.253 -2.1626  1.4317  0.1569
18029THY    CP234301   6.714   5.560   5.216  0.5240  0.3338 -0.8305
18029THY    HP234302   6.714   5.563   5.106  1.7726  0.3247 -0.3077
18029THY    HP334303   6.713   5.452   5.233  0.0955 -3.2476 -1.5193
18029THY    HP434304   6.805   5.615   5.242 -0.3902 -1.0733  1.4998
18029THY    CP334305   6.599   5.622   5.420  0.0351  0.0191  0.6709
18029THY    HP534306   6.524   5.688   5.464  0.8844  0.0851  1.6229
18029THY    HP634307   6.695   5.648   5.467 -0.5680  2.6135 -1.3512
18029THY    HP734308   6.593   5.521   5.463  0.7283  1.7063  1.3113
18029THY    CA334309   6.399   5.461   5.239 -0.5802  0.3469 -0.6939
18029THY    HA334310   6.440   5.388   5.309 -2.7414 -0.9084 -3.2996
18029THY    CA434311   6.299   5.418   5.152  0.1187 -0.0024  0.0589
18029THY    HA434312   6.259   5.317   5.159 -1.7586 -2.7222  0.5174
18029THY    CA534313   6.237   5.498   5.054  0.2634 -0.6042  0.0457
18029THY    CM134314   6.128   5.442   4.968 -0.3288 -0.4702 -0.0791
18029THY    HM134315   6.127   5.332   4.976 -1.2314 -0.5188 -0.0830
18029THY    HM234316   6.148   5.461   4.862  1.4618 -0.4192 -1.4687
18029THY    HM334317   6.027   5.480   4.989  0.1337 -1.7938  2.0203
18029THY    CA634318   6.285   5.627   5.033 -0.9786  0.3182  0.8292
18029THY    HA634319   6.238   5.682   4.952 -3.6442 -0.9188 -2.9152
18030THY      O34320   8.125   7.751   2.545 -0.0124  0.1182  0.0198
18030THY     HO34321   8.084   7.812   2.481 -0.3620  1.6941  1.4866
18030THY    CA134322   8.165   7.634   2.495 -0.1039  0.2538 -0.1903
18030THY    CA234323   8.189   7.524   2.588  0.0442 -0.1908 -0.3322
18030THY    CP134324   8.173   7.553   2.742 -0.2629 -0.1362 -0.6721
18030THY    HP134325   8.190   7.660   2.757  0.6281 -2.0713 -0.4893
18030THY    CP234326   8.280   7.485   2.825  0.0435  0.2654  0.7235
18030THY    HP234327   8.383   7.510   2.795 -0.5741 -2.4862  0.2471
18030THY    HP334328   8.260   7.379   2.809 -1.9185 -0.9647  1.2289
18030THY    HP434329   8.264   7.506   2.932 -1.4159 -0.4039  3.5279
18030THY    CP334330   8.032   7.529   2.786 -0.0034  0.8146  0.1442
18030THY    HP534331   7.952   7.575   2.727 -0.5033  0.3415 -1.2541
18030THY    HP634332   8.014   7.583   2.880 -2.5570  0.5000 -0.0272
18030THY    HP734333   7.996   7.425   2.792  0.0219 -3.1543 -0.2563
18030THY    CA334334   8.217   7.394   2.542 -0.6800 -0.1470  0.1245
18030THY    HA334335   8.225   7.313   2.614  0.6714 -0.7477 -0.3029
18030THY    CA434336   8.242   7.376   2.407  0.4519 -0.3734 -0.5059
18030THY    HA434337   8.272   7.279   2.367  1.4315  0.0269 -0.3816
18030THY    CA534338   8.225   7.483   2.318 -0.7239 -0.4549  0.0864
18030THY    CM134339   8.238   7.448   2.176  0.6852  0.5237 -0.5978
18030THY    HM134340   8.335   7.403   2.153  0.9247 -1.3821  0.7721
18030THY    HM234341   8.228   7.543   2.122  0.3946 -0.2110 -1.0322
18030THY    HM334342   8.162   7.376   2.142 -0.9096  1.3708  0.6208
18030THY    CA634343   8.188   7.614   2.359 -0.6052 -0.0808 -0.1112
18030THY    HA634344   8.175   7.688   2.281 -0.3904 -1.0303 -1.0392
18031THY      O34345   2.543   2.884   5.874 -0.1113 -0.2626  0.5415
18031THY     HO34346   2.623   2.839   5.841  0.1142  0.3879  0.4499
18031THY    CA134347   2.487   2.947   5.771 -0.5278  0.2015 -0.2945
18031THY    CA234348   2.352   2.981   5.774 -0.2919  0.4564 -0.2598
18031THY    CP134349   2.264   2.961   5.906 -0.2450 -0.1325 -0.1174
18031THY    HP134350   2.314   2.882   5.962 -0.4823 -0.3925 -0.4539
18031THY    CP234351   2.116   2.921   5.889  0.0803 -0.0805 -0.3121
18031THY    HP234352   2.099   2.884   5.788 -0.2397 -0.8804  1.9191
18031THY    HP334353   2.046   3.000   5.917  0.4318 -1.1649  0.3934
18031THY    HP434354   2.095   2.843   5.964  0.5488 -0.4889 -0.8381
18031THY    CP334355   2.266   3.086   5.986  0.3159 -0.3248 -0.3161
18031THY    HP534356   2.225   3.067   6.086 -0.1399 -0.1362  1.4740
18031THY    HP634357   2.224   3.177   5.942  1.0174  0.5891  0.4698
18031THY    HP734358   2.371   3.114   6.003  0.4309 -1.6190  0.1056
18031THY    CA334359   2.295   3.064   5.674 -0.4735  0.1062 -0.9690
18031THY    HA334360   2.193   3.100   5.681 -0.7712 -3.0586 -0.9791
18031THY    CA434361   2.381   3.119   5.570 -0.6079 -0.1581  0.4862
18031THY    HA434362   2.339   3.186   5.496 -2.2447  1.0307  0.8570
18031THY    CA534363   2.512   3.075   5.560  0.1208  0.7762 -0.1827
18031THY    CM134364   2.585   3.123   5.440 -0.0084  0.2338  0.2491
18031THY    HM134365   2.546   3.085   5.344  0.3834 -0.6958  2.0411
18031THY    HM234366   2.685   3.079   5.447  0.1982  3.5769  0.9752
18031THY    HM334367   2.593   3.232   5.429 -1.0412 -0.4843  0.2719
18031THY    CA634368   2.566   2.998   5.662  0.0448 -0.6738  0.4764
18031THY    HA634369   2.670   2.968   5.649 -0.4092  0.8572 -2.0768
18032THY      O34370   8.677   7.129   4.122 -0.3940  0.1209 -0.5372
18032THY     HO34371   8.673   7.033   4.139 -0.9486  0.3914 -0.4692
18032THY    CA134372   8.559   7.157   4.054 -0.1694 -0.0101 -0.6886
18032THY    CA234373   8.534   7.295   4.027 -0.8726  0.7834 -0.6902
18032THY    CP134374   8.621   7.418   4.082  1.1084 -0.4187 -0.0801
18032THY    HP134375   8.708   7.376   4.135 -1.0090  1.9311 -1.7512
18032THY    CP234376   8.534   7.490   4.197 -0.6304 -0.2770  0.0134
18032THY    HP234377   8.491   7.416   4.265  2.6949  0.7543 -1.1580
18032THY    HP334378   8.448   7.545   4.157 -0.8937  0.9644  0.5406
18032THY    HP434379   8.594   7.567   4.249  0.9870 -1.6469 -0.2480
18032THY    CP334380   8.651   7.522   3.967 -0.1981  0.3774  0.1967
18032THY    HP534381   8.673   7.623   4.003  0.3024  3.3161 -0.8639
18032THY    HP634382   8.559   7.547   3.912 -1.0352  1.1236 -1.1463
18032THY    HP734383   8.739   7.489   3.909 -0.4663  1.1659 -2.0588
18032THY    CA334384   8.409   7.325   3.963  0.5533 -0.0962 -0.0687
18032THY    HA334385   8.377   7.427   3.949 -2.2327  2.6295 -0.4218
18032THY    CA434386   8.327   7.215   3.936 -0.1030  0.0623  0.6160
18032THY    HA434387   8.225   7.233   3.902  0.1246  0.4879  3.0802
18032THY    CA534388   8.359   7.085   3.958  0.5619 -0.4546  0.8172
18032THY    CM134389   8.263   6.969   3.931  0.3011  0.1327 -0.7465
18032THY    HM134390   8.297   6.919   3.839  4.5889  1.8129 -1.4455
18032THY    HM234391   8.162   7.007   3.915  0.3043  1.5979 -0.0781
18032THY    HM334392   8.275   6.895   4.011  1.6376  0.3994 -0.2718
18032THY    CA634393   8.477   7.050   4.023 -0.0509  0.2990  0.2454
18032THY    HA634394   8.511   6.947   4.033 -1.4689  0.0390 -0.2625
18033THY      O34395   2.140   1.092   2.930  0.0937 -0.6150 -0.0236
18033THY     HO34396   2.129   1.182   2.895  1.1755 -1.0290 -0.0270
18033THY    CA134397   2.268   1.068   2.961 -0.4923 -0.2623  0.8637
18033THY    CA234398   2.312   0.946   2.996  0.5247 -0.1167 -0.1368
18033THY    CP134399   2.205   0.840   3.005  0.1047 -0.1155  0.1369
18033THY    HP134400   2.135   0.853   2.923 -0.5937  0.3650 -0.5593
18033THY    CP234401   2.131   0.857   3.135  0.5807  0.5439  0.2204
18033THY    HP234402   2.053   0.782   3.151 -0.6510 -2.4117  0.7174
18033THY    HP334403   2.080   0.954   3.127  4.9420 -1.8670  2.6445
18033THY    HP434404   2.208   0.863   3.213  1.5873 -0.3062 -1.2263
18033THY    CP334405   2.249   0.698   2.992 -0.5237 -0.3114  0.1474
18033THY    HP534406   2.328   0.682   2.918  0.3713  0.8851 -1.1508
18033THY    HP634407   2.169   0.625   2.970  0.5229  0.3003 -1.2248
18033THY    HP734408   2.293   0.675   3.089  1.7875 -0.9766  1.4841
18033THY    CA334409   2.448   0.927   3.030 -0.0555  0.5094 -0.0493
18033THY    HA334410   2.478   0.828   3.062 -1.9357 -0.1357 -0.8659
18033THY    CA434411   2.544   1.027   3.009 -1.0449 -0.1331 -0.1546
18033THY    HA434412   2.650   1.020   3.032 -0.1331 -2.5935  3.0654
18033THY    CA534413   2.496   1.152   2.964  0.4085 -0.3914 -0.3729
18033THY    CM134414   2.593   1.258   2.936  0.4991  0.1526  0.5409
18033THY    HM134415   2.545   1.350   2.969 -0.5192  1.0363 -0.2815
18033THY    HM234416   2.620   1.264   2.830 -2.4064 -0.6372  0.7056
18033THY    HM334417   2.685   1.248   2.996  0.9578 -0.5413  0.5208
18033THY    CA634418   2.361   1.174   2.942 -0.1353 -0.0999  0.2784
18033THY    HA634419   2.329   1.272   2.906 -1.4038  1.6336  0.5448
18034THY      O34420   1.917   0.687   5.025 -1.0718 -0.6520  0.1357
18034THY     HO34421   1.962   0.609   5.062  0.4292  1.0228  1.6942
18034THY    CA134422   1.937   0.771   5.120  0.5269  0.1686  0.3865
18034THY    CA234423   2.016   0.890   5.114  0.0299  0.3716 -0.7211
18034THY    CP134424   2.046   0.957   4.980  0.4721 -0.4136 -0.1612
18034THY    HP134425   2.008   0.898   4.896 -0.4085  0.5969 -1.0700
18034THY    CP234426   2.188   0.970   4.950  0.0555 -0.3369  0.2066
18034THY    HP234427   2.198   1.012   4.849  0.3898  0.4576  2.1911
18034THY    HP334428   2.239   0.874   4.937 -0.4675 -0.1487 -0.0973
18034THY    HP434429   2.237   1.036   5.023  1.1722  0.6035 -1.5837
18034THY    CP334430   1.973   1.092   4.972  0.2620  0.0119  0.1099
18034THY    HP534431   1.980   1.132   4.870 -2.4656 -0.2131  0.2204
18034THY    HP634432   2.013   1.163   5.045  0.3309 -0.2865  0.3794
18034THY    HP734433   1.866   1.076   4.990 -0.0797 -1.7446  0.2373
18034THY    CA334434   2.036   0.951   5.236 -0.1702 -0.4625 -0.8060
18034THY    HA334435   2.095   1.042   5.239 -0.4567 -0.0940 -0.6257
18034THY    CA434436   1.996   0.900   5.356 -0.2962 -0.1259 -0.2530
18034THY    HA434437   2.020   0.950   5.449  0.7691 -0.4873 -0.0834
18034THY    CA534438   1.912   0.787   5.352 -0.7882  0.5901  0.5781
18034THY    CM134439   1.860   0.734   5.480 -0.5841  0.0838  0.4097
18034THY    HM134440   1.771   0.784   5.521 -0.2849  0.1230  0.9249
18034THY    HM234441   1.937   0.746   5.557 -0.7096  0.3587 -0.4926
18034THY    HM334442   1.818   0.633   5.477 -0.9992  0.9258  0.5463
18034THY    CA634443   1.890   0.721   5.237  0.2307 -0.0521 -0.0192
18034THY    HA634444   1.820   0.638   5.234  0.7018 -2.3547 -0.3978
18035THY      O34445   7.546   3.383   3.134  0.4111  0.4967 -0.7509
18035THY     HO34446   7.548   3.377   3.037 -1.7374  0.2823  0.7338
18035THY    CA134447   7.558   3.251   3.167 -0.1274 -0.4360  0.3002
18035THY    CA234448   7.633   3.208   3.282 -0.1794 -0.2428 -0.0424
18035THY    CP134449   7.686   3.308   3.390  0.0170  0.5120 -0.0304
18035THY    HP134450   7.713   3.400   3.338  1.8921  1.6019  0.0764
18035THY    CP234451   7.816   3.258   3.452  0.1996 -0.4249 -0.2755
18035THY    HP234452   7.858   3.320   3.532  0.0981 -0.5482 -0.0484
18035THY    HP334453   7.901   3.247   3.383  0.9717  0.5799 -0.7935
18035THY    HP434454   7.782   3.170   3.508 -0.1924 -1.2794 -0.6778
18035THY    CP334455   7.575   3.332   3.493 -0.2093 -0.0717 -0.3944
18035THY    HP534456   7.518   3.246   3.530  0.2627  2.0245  0.1395
18035THY    HP634457   7.493   3.390   3.448  1.2958 -0.4351  1.5848
18035THY    HP734458   7.624   3.394   3.569 -1.0456  0.0802  0.1029
18035THY    CA334459   7.646   3.071   3.305 -0.5473 -0.3512  0.7085
18035THY    HA334460   7.704   3.029   3.386  1.4527 -1.1939  1.7158
18035THY    CA434461   7.584   2.979   3.223  0.6009  0.2342  0.1240
18035THY    HA434462   7.599   2.872   3.232 -1.6352  0.1575 -0.2391
18035THY    CA534463   7.511   3.023   3.116  0.8567 -0.0119 -0.0672
18035THY    CM134464   7.452   2.919   3.028 -0.1318  0.2262 -0.1850
18035THY    HM134465   7.356   2.879   3.062 -2.1869 -2.3553  2.1782
18035THY    HM234466   7.518   2.833   3.008 -2.0309  0.1431 -1.6775
18035THY    HM334467   7.419   2.967   2.935 -0.5172  0.9514  1.0039
18035THY    CA634468   7.499   3.157   3.085 -0.1183 -0.8581  0.2593
18035THY    HA634469   7.437   3.174   2.998 -0.1604 -1.1086 -1.0839
18036THY      O34470   1.695   5.641   2.603 -0.1370 -0.2816  0.3629
18036THY     HO34471   1.614   5.672   2.559 -0.4407 -1.0150 -1.3285
18036THY    CA134472   1.695   5.694   2.730  0.7686 -0.1483  0.2555
18036THY    CA234473   1.808   5.707   2.811  0.2099 -0.0061  0.1246
18036THY    CP134474   1.940   5.636   2.767 -0.4799  0.0247 -0.1396
18036THY    HP134475   1.899   5.548   2.716 -1.1082 -2.1065  1.3128
18036THY    CP234476   2.034   5.592   2.878  0.4467 -0.3598 -0.2185
18036THY    HP234477   2.123   5.542   2.838  1.7933 -0.7988  2.3663
18036THY    HP334478   1.978   5.531   2.950  2.2202  1.8401  0.6034
18036THY    HP434479   2.069   5.674   2.941 -0.3400 -2.2349  1.6542
18036THY    CP334480   2.024   5.718   2.672  0.5968 -0.0998 -0.4719
18036THY    HP534481   2.108   5.654   2.642 -1.1257 -4.3127 -1.1201
18036THY    HP634482   2.053   5.807   2.728  2.1865  0.5781 -1.3646
18036THY    HP734483   1.973   5.748   2.580 -1.2625  1.3695  1.0904
18036THY    CA334484   1.807   5.765   2.937  0.4809 -0.0330 -1.0945
18036THY    HA334485   1.893   5.784   3.001  0.2191 -0.7895  4.5385
18036THY    CA434486   1.689   5.828   2.983 -0.1130  0.5828 -0.8243
18036THY    HA434487   1.680   5.879   3.078 -1.3975  0.8596 -1.5231
18036THY    CA534488   1.576   5.823   2.894  0.6574  0.7672 -0.2043
18036THY    CM134489   1.447   5.883   2.943 -0.5892  0.4330  0.0209
18036THY    HM134490   1.444   5.888   3.053  1.8301  0.5064  1.8191
18036THY    HM234491   1.358   5.831   2.905 -0.6397 -0.5845  0.8276
18036THY    HM334492   1.449   5.988   2.911 -3.5765 -0.8615 -0.2198
18036THY    CA634493   1.579   5.754   2.773  0.3240 -0.1855  0.5822
18036THY    HA634494   1.488   5.733   2.717  0.8722 -0.6022 -0.7855
18037THY      O34495   1.412   1.645   6.555  0.2098 -0.5464  0.0552
18037THY     HO34496   1.497   1.643   6.602 -0.1219  0.0590  0.0308
18037THY    CA134497   1.372   1.769   6.587 -0.1847  0.5552 -0.4893
18037THY    CA234498   1.272   1.840   6.533  0.2307  0.3829  0.1948
18037THY    CP134499   1.203   1.785   6.402 -0.0775  0.5061 -0.4689
18037THY    HP134500   1.221   1.677   6.410 -1.0797  0.8478 -0.6244
18037THY    CP234501   1.260   1.860   6.276 -0.1277  0.1129  0.0972
18037THY    HP234502   1.369   1.855   6.272 -0.1611  0.5613 -1.2237
18037THY    HP334503   1.231   1.963   6.250  1.3883 -2.1882 -0.0069
18037THY    HP434504   1.222   1.798   6.194 -0.3980  0.7732 -0.6280
18037THY    CP334505   1.048   1.801   6.398 -0.8672 -0.3039 -0.2539
18037THY    HP534506   1.006   1.777   6.299 -2.0651 -0.9780  3.8431
18037THY    HP634507   1.013   1.903   6.416 -1.4310 -0.2523 -0.4481
18037THY    HP734508   1.014   1.725   6.470 -1.6898 -0.5177 -0.0972
18037THY    CA334509   1.238   1.963   6.575  0.1928  0.2052 -0.6367
18037THY    HA334510   1.154   2.018   6.532 -2.2938  1.1476 -3.3922
18037THY    CA434511   1.309   2.023   6.679 -0.0634  0.0733 -0.3779
18037THY    HA434512   1.293   2.126   6.708 -0.0606 -1.3710  0.0530
18037THY    CA534513   1.410   1.952   6.743  0.6121 -0.4617  0.7218
18037THY    CM134514   1.470   1.997   6.864  0.1458 -0.4672  0.0446
18037THY    HM134515   1.569   1.955   6.883  1.5420 -1.4360  2.6119
18037THY    HM234516   1.416   1.978   6.957  1.1858  0.4257  1.2724
18037THY    HM334517   1.491   2.105   6.860  0.0115 -2.9970  0.0431
18037THY    CA634518   1.435   1.825   6.694 -0.4036  0.0482  0.6735
18037THY    HA634519   1.507   1.772   6.755  0.1930 -0.4757  0.8756
18038THY      O34520   4.786   1.159   6.588  0.2171  0.3826 -0.1830
18038THY     HO34521   4.769   1.170   6.493 -3.3296  0.7284 -1.5637
18038THY    CA134522   4.925   1.173   6.596 -0.2055  0.1412  0.0048
18038THY    CA234523   5.001   1.133   6.696  0.0185  0.1679  0.2569
18038THY    CP134524   4.939   1.043   6.808  0.2414 -0.3695 -0.3990
18038THY    HP134525   4.837   1.016   6.777  0.1160 -0.3356  0.0325
18038THY    CP234526   4.931   1.119   6.935  0.1262 -0.0610  0.2463
18038THY    HP234527   5.030   1.154   6.969  0.3840  0.4687 -0.9263
18038THY    HP334528   4.895   1.064   7.023  0.1553 -0.6225 -0.7041
18038THY    HP434529   4.858   1.200   6.928  0.3331 -2.8142  0.2976
18038THY    CP334530   5.006   0.909   6.811 -0.6121 -0.3796  0.0398
18038THY    HP534531   4.977   0.844   6.728  0.5869 -1.0606  0.3262
18038THY    HP634532   4.979   0.851   6.900  1.7208  0.6405  0.3796
18038THY    HP734533   5.116   0.917   6.810 -0.3991  2.1232 -1.5480
18038THY    CA334534   5.130   1.183   6.714 -0.3650  0.3347 -0.2703
18038THY    HA334535   5.183   1.155   6.804 -0.2586  0.0387 -1.0460
18038THY    CA434536   5.191   1.248   6.608 -0.4386 -0.0764 -0.6715
18038THY    HA434537   5.297   1.268   6.618 -0.1018 -1.5935 -1.5477
18038THY    CA534538   5.118   1.280   6.496  0.3111 -0.1629  0.6817
18038THY    CM134539   5.183   1.346   6.377  0.4035  0.3332  0.3366
18038THY    HM134540   5.292   1.354   6.374  0.4235  1.9186  1.0251
18038THY    HM234541   5.141   1.446   6.359  0.3909 -0.6255  0.1647
18038THY    HM334542   5.160   1.292   6.284 -0.6595  1.1286 -0.6262
18038THY    CA634543   4.985   1.241   6.488 -0.0383 -0.6262 -0.3494
18038THY    HA634544   4.926   1.278   6.404  2.6186 -2.7467 -0.5469
18039THY      O34545   0.369   4.906   2.965  0.5174  0.3615 -0.0517
18039THY     HO34546   0.334   4.860   2.887 -0.7264  1.4256 -0.9496
18039THY    CA134547   0.498   4.930   2.935 -0.0724  0.4451  0.7808
18039THY    CA234548   0.586   5.004   3.025  0.0347 -0.0934 -0.1923
18039THY    CP134549   0.526   5.074   3.147 -0.7652 -0.3342  0.8699
18039THY    HP134550   0.430   5.030   3.176  0.5493  1.8019 -0.8103
18039THY    CP234551   0.499   5.226   3.101 -0.4365 -0.3854  0.8017
18039THY    HP234552   0.423   5.236   3.023  0.1361 -1.1966 -0.8063
18039THY    HP334553   0.594   5.262   3.061  0.9615  0.8064 -1.3289
18039THY    HP434554   0.466   5.295   3.180  0.8969 -0.5597  1.6737
18039THY    CP334555   0.612   5.079   3.274  0.2706  0.2006 -0.2487
18039THY    HP534556   0.707   5.133   3.266 -1.0750 -0.8592  2.1444
18039THY    HP634557   0.624   4.973   3.300 -1.9007 -0.7050 -0.7830
18039THY    HP734558   0.556   5.131   3.353 -0.3780 -1.3371  1.4830
18039THY    CA334559   0.726   5.023   2.994  0.0747 -0.0439  0.4560
18039THY    HA334560   0.791   5.068   3.068 -0.3971  1.4868 -1.2557
18039THY    CA434561   0.772   4.953   2.881  0.3682  0.4232  0.0734
18039THY    HA434562   0.875   4.963   2.849  0.6459  0.4588 -2.0729
18039THY    CA534563   0.687   4.883   2.795 -0.5229 -0.0857 -0.0001
18039THY    CM134564   0.733   4.817   2.661  0.1115 -0.0303 -0.7226
18039THY    HM134565   0.824   4.757   2.673  0.2747 -0.6425 -0.6047
18039THY    HM234566   0.759   4.905   2.600  0.7166  0.4650 -0.5494
18039THY    HM334567   0.651   4.764   2.612 -2.7918  1.3382  2.1220
18039THY    CA634568   0.551   4.864   2.830 -0.3802 -0.6842  0.5245
18039THY    HA634569   0.495   4.783   2.785  0.6130  2.6459 -2.2404
18040THY      O34570   3.524   2.436   5.600 -0.2575 -0.3438 -0.2123
18040THY     HO34571   3.552   2.363   5.543 -0.9117  1.0587 -1.6063
18040THY    CA134572   3.548   2.551   5.535  0.5749  0.0998  0.1979
18040THY    CA234573   3.509   2.674   5.593 -0.1708  0.7222 -0.1587
18040THY    CP134574   3.441   2.673   5.729  0.6349 -0.7257 -0.4938
18040THY    HP134575   3.462   2.576   5.775 -2.1371 -0.7477 -1.2011
18040THY    CP234576   3.291   2.704   5.732 -0.7656 -0.2226  0.4057
18040THY    HP234577   3.252   2.694   5.835 -0.1340  0.0227  0.4087
18040THY    HP334578   3.230   2.630   5.679 -1.3257  2.8812 -1.5702
18040THY    HP434579   3.281   2.805   5.693  1.5542  1.2702  1.3041
18040THY    CP334580   3.512   2.778   5.821 -0.3108  0.0105  0.0830
18040THY    HP534581   3.621   2.762   5.814 -0.1645  2.0004 -0.0202
18040THY    HP634582   3.492   2.765   5.928 -0.4863  0.1519  1.3992
18040THY    HP734583   3.498   2.884   5.800 -0.2716  0.4752  0.1782
18040THY    CA334584   3.522   2.789   5.517  0.4106  0.1723 -0.1896
18040THY    HA334585   3.489   2.886   5.553 -1.0503 -2.0171  0.1934
18040THY    CA434586   3.574   2.780   5.387 -0.1752  0.3411 -0.2309
18040THY    HA434587   3.589   2.872   5.331  0.1721 -0.2143 -0.6223
18040THY    CA534588   3.624   2.658   5.332 -0.4553  0.5285 -0.0434
18040THY    CM134589   3.681   2.654   5.199  0.2013 -0.3411  0.1953
18040THY    HM134590   3.778   2.603   5.195 -0.2022 -3.5405 -0.5474
18040THY    HM234591   3.695   2.754   5.156 -1.9765 -0.3906  0.5311
18040THY    HM334592   3.617   2.598   5.130  1.0524 -2.4136  1.6468
18040THY    CA634593   3.602   2.543   5.405  0.1243 -1.3357 -0.0377
18040THY    HA634594   3.616   2.446   5.358 -0.9753 -1.4932 -0.1317
18041THY      O34595   5.673   0.622   6.480  0.1840 -0.0558 -0.5675
18041THY     HO34596   5.691   0.702   6.428 -0.6293 -0.7898 -0.8393
18041THY    CA134597   5.546   0.648   6.519 -0.3552 -0.2572  0.3075
18041THY    CA234598   5.477   0.552   6.599 -0.3775  0.1610  0.2007
18041THY    CP134599   5.546   0.417   6.633  0.2706  1.1845 -0.0036
18041THY    HP134600   5.594   0.387   6.539 -1.2045  0.6976 -0.9422
18041THY    CP234601   5.447   0.308   6.666 -0.4252 -0.0043 -0.3267
18041THY    HP234602   5.362   0.301   6.598 -0.0833 -0.3836 -0.9272
18041THY    HP334603   5.401   0.319   6.765  0.9061  0.6184 -0.1928
18041THY    HP434604   5.498   0.211   6.671  0.3411  0.5396  0.0903
18041THY    CP334605   5.649   0.440   6.746 -1.0170 -0.6437  0.0413
18041THY    HP534606   5.604   0.476   6.839  1.8264  0.7240  0.3439
18041THY    HP634607   5.734   0.506   6.724  0.1492 -0.4573 -1.3444
18041THY    HP734608   5.703   0.350   6.777  0.0295  0.0707  0.8908
18041THY    CA334609   5.346   0.575   6.639  0.0119  0.0553 -0.4068
18041THY    HA334610   5.285   0.507   6.697  1.0707  1.6070 -0.0826
18041THY    CA434611   5.292   0.702   6.615  0.3528 -0.1904 -0.4442
18041THY    HA434612   5.198   0.729   6.662  1.4957  0.8705  2.0334
18041THY    CA534613   5.357   0.786   6.528  0.2575 -0.2325 -0.3579
18041THY    CM134614   5.287   0.906   6.482  0.9096  0.5431  0.1436
18041THY    HM134615   5.302   0.920   6.375  0.7277  0.7396  2.1086
18041THY    HM234616   5.326   0.990   6.542 -1.7592  0.3792  1.6114
18041THY    HM334617   5.181   0.900   6.509  0.7869  0.3429  1.1510
18041THY    CA634618   5.487   0.760   6.480 -0.3359 -0.0977 -0.2099
18041THY    HA634619   5.536   0.840   6.425  0.2398  0.9212  0.1577
18042THY      O34620   4.819   2.388   3.998  0.1874  0.1145 -0.4280
18042THY     HO34621   4.804   2.443   4.077 -1.8267  1.0615 -2.2230
18042THY    CA134622   4.770   2.264   4.023 -0.0077  0.0632 -0.0515
18042THY    CA234623   4.734   2.165   3.929 -0.4147 -0.1755 -0.4224
18042THY    CP134624   4.738   2.209   3.783 -0.4907  0.0408  0.0289
18042THY    HP134625   4.821   2.274   3.755 -0.5648  0.3313  0.2496
18042THY    CP234626   4.616   2.302   3.749 -0.5237 -0.0135 -0.2697
18042THY    HP234627   4.626   2.397   3.803  0.3184 -0.6844  0.0419
18042THY    HP334628   4.528   2.262   3.799 -0.4753  0.6251  0.3873
18042THY    HP434629   4.599   2.332   3.645  1.3011 -0.1604  0.3910
18042THY    CP334630   4.748   2.095   3.678 -0.4655 -0.4654 -0.7101
18042THY    HP534631   4.759   2.144   3.581  1.5857 -1.9211 -3.7335
18042THY    HP634632   4.657   2.034   3.684  0.0887  0.9866 -1.4256
18042THY    HP734633   4.836   2.035   3.704 -0.4546  0.5586 -0.2584
18042THY    CA334634   4.700   2.036   3.970  0.1916 -0.4221  0.0223
18042THY    HA334635   4.674   1.963   3.894  2.2360 -1.0894 -0.0690
18042THY    CA434636   4.687   2.003   4.106  0.6017  0.3348  0.2139
18042THY    HA434637   4.648   1.904   4.129  1.8790 -1.5921 -0.7986
18042THY    CA534638   4.721   2.094   4.203 -0.9938  0.0705 -0.0234
18042THY    CM134639   4.699   2.062   4.342 -0.1403  0.1071  0.1553
18042THY    HM134640   4.670   1.958   4.360  2.6846  0.6308 -0.6269
18042THY    HM234641   4.619   2.132   4.370 -1.6479 -1.9679 -0.6385
18042THY    HM334642   4.790   2.078   4.400  1.1356 -1.5506 -0.7588
18042THY    CA634643   4.773   2.222   4.161  0.1557 -0.4807 -0.3458
18042THY    HA634644   4.802   2.296   4.235  0.1935 -2.5921  1.8774
18043THY      O34645   3.970   1.302   6.394 -0.1297  0.4895  0.0521
18043THY     HO34646   4.062   1.332   6.394 -0.5569 -0.2569  1.4323
18043THY    CA134647   3.960   1.203   6.492  0.0033 -0.3936 -0.2526
18043THY    CA234648   3.841   1.121   6.495  0.1295 -0.6847  0.3044
18043THY    CP134649   3.739   1.134   6.380 -0.1691 -0.1194  0.3224
18043THY    HP134650   3.768   1.217   6.315 -2.4475  1.0214  2.1149
18043THY    CP234651   3.593   1.164   6.427  0.0572 -0.3017 -0.1983
18043THY    HP234652   3.555   1.089   6.499 -3.2447 -2.4206 -0.7783
18043THY    HP334653   3.526   1.181   6.342  1.4040 -0.7975  3.2684
18043THY    HP434654   3.592   1.261   6.477  1.4135 -2.5693  1.0587
18043THY    CP334655   3.743   1.008   6.295  0.4091 -0.0346 -0.3081
18043THY    HP534656   3.711   1.022   6.191 -0.0765  0.2073  0.4569
18043THY    HP634657   3.680   0.926   6.331 -0.6482 -0.7878  0.1491
18043THY    HP734658   3.842   0.961   6.287  1.4673  1.6265  1.4858
18043THY    CA334659   3.824   1.033   6.603 -0.8137  0.0737 -0.1953
18043THY    HA334660   3.741   0.964   6.618  0.5366  0.2120 -1.8662
18043THY    CA434661   3.923   1.031   6.702 -0.5567 -0.6688  0.7878
18043THY    HA434662   3.908   0.969   6.789  1.4583  0.2117  1.4567
18043THY    CA534663   4.038   1.110   6.693 -0.1484 -0.1109 -0.6621
18043THY    CM134664   4.144   1.107   6.803 -0.4795  0.2012  0.0659
18043THY    HM134665   4.106   1.027   6.868 -0.2599 -0.0979 -0.2859
18043THY    HM234666   4.150   1.203   6.855  0.4659  0.1643  0.0384
18043THY    HM334667   4.241   1.067   6.769 -1.0941  0.4557 -1.7063
18043THY    CA634668   4.057   1.202   6.589 -0.7237  0.3626 -0.3986
18043THY    HA634669   4.146   1.264   6.584 -0.1303  1.0277 -1.1825
18044THY      O34670   7.768   8.355   3.814 -0.2256  0.4119  0.0858
18044THY     HO34671   7.726   8.427   3.864 -1.0893 -2.6964  1.9315
18044THY    CA134672   7.842   8.414   3.723  0.3236 -0.3197  0.7824
18044THY    CA234673   7.942   8.344   3.659  0.5523 -0.1498 -0.0316
18044THY    CP134674   7.966   8.203   3.692 -0.6830  0.2223 -0.2120
18044THY    HP134675   7.954   8.197   3.801 -1.7310  0.0759 -1.4394
18044THY    CP234676   8.113   8.153   3.650  0.5265 -0.2135  0.4813
18044THY    HP234677   8.194   8.215   3.691  0.0082 -0.7984  1.5798
18044THY    HP334678   8.128   8.125   3.545  0.2137  0.0888 -0.8732
18044THY    HP434679   8.135   8.055   3.695 -0.7411 -0.7442 -0.0706
18044THY    CP334680   7.868   8.114   3.617  0.3834 -0.2435 -0.4387
18044THY    HP534681   7.896   8.012   3.644 -1.7058 -1.0205 -1.2851
18044THY    HP634682   7.875   8.123   3.508 -1.1131 -0.3386 -0.0670
18044THY    HP734683   7.761   8.132   3.632  0.8645  1.7430  1.1809
18044THY    CA334684   8.018   8.408   3.561  0.0042  0.4326 -0.6243
18044THY    HA334685   8.102   8.357   3.515 -0.3813  0.3675 -1.2149
18044THY    CA434686   7.982   8.547   3.527 -0.3932  0.9926  0.6781
18044THY    HA434687   8.053   8.600   3.464 -1.1178  0.5695  1.1597
18044THY    CA534688   7.880   8.612   3.597 -0.3805  0.7301  0.5765
18044THY    CM134689   7.858   8.757   3.568  0.1582  0.3381 -0.0889
18044THY    HM134690   7.864   8.804   3.667 -0.1991 -0.1140  0.9520
18044THY    HM234691   7.760   8.777   3.524 -0.2599  0.7092 -1.2728
18044THY    HM334692   7.940   8.793   3.505 -0.5264  1.0889  3.0879
18044THY    CA634693   7.803   8.548   3.690  0.1028  0.1559  0.3872
18044THY    HA634694   7.721   8.596   3.744 -0.0023 -0.0584  0.4473
18045THY      O34695   1.819   6.746   7.591  0.5764 -0.0711 -0.0554
18045THY     HO34696   1.723   6.737   7.573  0.7843 -1.3534  0.1093
18045THY    CA134697   1.877   6.762   7.476  0.3041  0.2482  0.0612
18045THY    CA234698   2.012   6.741   7.459  0.0230  0.3127  0.5545
18045THY    CP134699   2.106   6.693   7.570 -0.6869 -0.1456  0.4750
18045THY    HP134700   2.065   6.735   7.662  0.6797 -0.0588  1.6989
18045THY    CP234701   2.244   6.748   7.550 -0.3605  0.2147 -0.0285
18045THY    HP234702   2.234   6.853   7.518  0.1407  0.4977  0.1109
18045THY    HP334703   2.298   6.688   7.476 -0.4466  1.8426 -2.2333
18045THY    HP434704   2.296   6.755   7.646 -0.7667  0.3250  2.2929
18045THY    CP334705   2.112   6.540   7.587 -0.3762 -0.2292  0.5637
18045THY    HP534706   2.188   6.525   7.664 -0.7524  0.4105  1.8430
18045THY    HP634707   2.149   6.493   7.495  0.8229  0.2208  0.6005
18045THY    HP734708   2.012   6.500   7.608  0.6261 -0.1113 -2.0667
18045THY    CA334709   2.064   6.779   7.330  0.1227  0.2546 -0.5954
18045THY    HA334710   2.168   6.771   7.303  0.1591 -0.3434  1.4517
18045THY    CA434711   1.977   6.827   7.231  0.0275  0.5462  0.0752
18045THY    HA434712   2.020   6.864   7.139 -1.0729  0.3162  0.8133
18045THY    CA534713   1.840   6.827   7.246 -0.0855 -0.7836  0.1118
18045THY    CM134714   1.760   6.887   7.134  0.3511 -0.2811 -0.5173
18045THY    HM134715   1.825   6.940   7.063  0.3111  0.5826  0.7378
18045THY    HM234716   1.676   6.952   7.161 -2.5001 -1.5452 -3.3775
18045THY    HM334717   1.701   6.807   7.089 -0.4882 -0.1702  0.0252
18045THY    CA634718   1.784   6.796   7.373 -0.6833 -0.2739 -0.2830
18045THY    HA634719   1.682   6.823   7.396 -1.4686 -1.5420 -1.9589
18046THY      O34720   7.239   3.524   6.855 -0.1253 -0.3731 -0.3461
18046THY     HO34721   7.227   3.589   6.784 -1.3763  0.2328  0.1200
18046THY    CA134722   7.291   3.416   6.804 -0.3436  0.4366  0.6059
18046THY    CA234723   7.357   3.319   6.883  0.7732  0.3745  0.2100
18046THY    CP134724   7.371   3.347   7.031  0.2721 -0.3116  0.0249
18046THY    HP134725   7.292   3.417   7.059 -1.1604 -1.8540 -0.8787
18046THY    CP234726   7.508   3.399   7.080 -0.7209  0.2586  0.2746
18046THY    HP234727   7.507   3.503   7.047 -0.4834  2.4906  1.0366
18046THY    HP334728   7.590   3.342   7.035  0.3218  2.3837  0.0215
18046THY    HP434729   7.523   3.406   7.188 -0.2850  0.1285  1.5261
18046THY    CP334730   7.332   3.218   7.109 -0.5739 -0.1229  0.5065
18046THY    HP534731   7.225   3.196   7.104 -0.7398 -1.9601  1.5148
18046THY    HP634732   7.357   3.213   7.215 -1.0204  0.3311  4.4888
18046THY    HP734733   7.397   3.138   7.073 -0.9560  0.5313 -0.1030
18046THY    CA334734   7.408   3.210   6.818 -0.4186  0.6953  0.2779
18046THY    HA334735   7.471   3.136   6.868 -0.1664  1.1961  0.8182
18046THY    CA434736   7.396   3.188   6.680 -0.4084 -0.3245  0.3222
18046THY    HA434737   7.432   3.094   6.639 -1.1209  0.2393 -0.1981
18046THY    CA534738   7.312   3.269   6.610 -0.6268 -0.1880 -0.1029
18046THY    CM134739   7.272   3.247   6.469 -0.3996 -0.3104  0.4611
18046THY    HM134740   7.215   3.156   6.448 -0.1037  0.3287  0.1240
18046THY    HM234741   7.363   3.237   6.408  1.6254  2.5349  0.2227
18046THY    HM334742   7.212   3.331   6.432 -1.4897 -0.3118 -0.2982
18046THY    CA634743   7.271   3.384   6.665  0.0452 -0.7740 -0.2635
18046THY    HA634744   7.208   3.456   6.615  1.5095  0.3960  1.9638
18047THY      O34745   6.885   6.356   3.272  0.4389 -0.4019 -0.1048
18047THY     HO34746   6.859   6.275   3.225 -1.3330  0.8429 -0.3270
18047THY    CA134747   6.776   6.437   3.262  0.9451  0.3584 -0.0653
18047THY    CA234748   6.790   6.568   3.221 -0.5422  0.1649 -0.1672
18047THY    CP134749   6.929   6.621   3.192  0.2550  0.3872 -0.6426
18047THY    HP134750   7.015   6.559   3.220  2.3959 -1.8799  1.1090
18047THY    CP234751   6.954   6.758   3.263 -0.0466  0.0673  0.2263
18047THY    HP234752   7.060   6.784   3.266  0.0687  1.7751 -0.2983
18047THY    HP334753   6.919   6.747   3.367 -1.5668 -0.3047  1.2110
18047THY    HP434754   6.893   6.830   3.208 -2.8820 -0.6595 -2.5062
18047THY    CP334755   6.951   6.628   3.040 -0.3869 -0.3199 -0.8654
18047THY    HP534756   6.885   6.703   2.995 -0.2534  0.7671 -0.0709
18047THY    HP634757   6.937   6.529   2.995  0.0240 -0.5427 -0.8256
18047THY    HP734758   7.051   6.666   3.018  0.0215  1.2819 -0.9468
18047THY    CA334759   6.680   6.644   3.197  0.3225 -0.4844  0.1664
18047THY    HA334760   6.700   6.743   3.156  1.6722 -0.5079 -0.1061
18047THY    CA434761   6.554   6.598   3.229  0.1097  0.9518  0.1716
18047THY    HA434762   6.475   6.667   3.198  1.1063 -3.3893 -0.3081
18047THY    CA534763   6.536   6.466   3.273 -0.0268 -0.0933  0.1942
18047THY    CM134764   6.400   6.412   3.305 -0.0437  0.3110  0.0234
18047THY    HM134765   6.345   6.491   3.356  1.1423 -1.4637  2.0871
18047THY    HM234766   6.398   6.315   3.357  1.1563 -1.3805 -0.9648
18047THY    HM334767   6.351   6.388   3.211 -0.1203  0.6695 -1.3074
18047THY    CA634768   6.648   6.392   3.293 -0.0320  0.0881 -0.0826
18047THY    HA634769   6.635   6.292   3.334  0.7107 -1.2731 -0.7606
18048THY      O34770   3.407   3.108   4.457  0.4073 -0.1161  0.8528
18048THY     HO34771   3.466   3.032   4.439 -3.3099 -2.5339 -1.7895
18048THY    CA134772   3.286   3.060   4.431  0.3932 -0.1941  0.0091
18048THY    CA234773   3.167   3.116   4.481 -0.4800  0.6523 -0.8215
18048THY    CP134774   3.174   3.236   4.580 -0.2451  0.6632  0.7462
18048THY    HP134775   3.262   3.225   4.645  0.1946 -0.1456 -0.6954
18048THY    CP234776   3.049   3.234   4.675 -0.0650  0.4148  0.4998
18048THY    HP234777   3.045   3.130   4.709 -0.5960 -0.4619  0.2244
18048THY    HP334778   2.951   3.260   4.633  0.1616 -0.3745  0.1040
18048THY    HP434779   3.083   3.296   4.759  4.5171 -0.1637 -0.8492
18048THY    CP334780   3.188   3.374   4.500 -0.0658  0.0224 -0.1906
18048THY    HP534781   3.195   3.451   4.578 -1.0965 -0.1308  0.0755
18048THY    HP634782   3.099   3.399   4.442 -0.6834  0.6932 -0.7466
18048THY    HP734783   3.277   3.362   4.438  0.4170  0.4145  1.2591
18048THY    CA334784   3.044   3.064   4.437  0.2674 -0.3587  0.1644
18048THY    HA334785   2.955   3.119   4.468  0.6739  0.1724  0.5311
18048THY    CA434786   3.040   2.949   4.351  0.1931 -0.5030 -0.0445
18048THY    HA434787   2.944   2.910   4.315 -1.7449  2.6352  1.4609
18048THY    CA534788   3.156   2.890   4.305  0.2687 -0.5260  0.4602
18048THY    CM134789   3.147   2.773   4.208  0.2787  0.4583 -0.6055
18048THY    HM134790   3.065   2.708   4.243 -1.6117  1.1389  1.9818
18048THY    HM234791   3.244   2.722   4.205  0.0598 -0.6896 -0.9932
18048THY    HM334792   3.131   2.805   4.105 -1.0768  1.1260  1.0128
18048THY    CA634793   3.280   2.950   4.339 -0.3729  0.0464  0.1396
18048THY    HA634794   3.370   2.916   4.291 -0.1382 -0.1191  0.9672
18049THY      O34795   0.900   6.123   4.752 -0.4253  0.5229  0.3984
18049THY     HO34796   0.907   6.124   4.655  0.0797  0.5649  0.7286
18049THY    CA134797   0.836   6.241   4.780 -0.1261 -0.0087  1.0323
18049THY    CA234798   0.778   6.266   4.911 -0.0444 -0.3572 -0.0772
18049THY    CP134799   0.808   6.179   5.034 -0.0713  0.3666  0.5664
18049THY    HP134800   0.847   6.082   5.000  2.2305  0.6041  1.3378
18049THY    CP234801   0.690   6.153   5.127  0.0944 -0.4246  0.3848
18049THY    HP234802   0.671   6.242   5.188  1.6870 -0.0776  0.5211
18049THY    HP334803   0.709   6.069   5.194  0.8761  0.2630  1.0849
18049THY    HP434804   0.606   6.127   5.062  1.3528 -1.0903 -2.3348
18049THY    CP334805   0.926   6.244   5.104  0.2164 -0.0667 -0.2917
18049THY    HP534806   1.003   6.259   5.028 -2.8604 -3.6267 -0.8802
18049THY    HP634807   0.951   6.176   5.186  0.3768  1.1151  1.1432
18049THY    HP734808   0.895   6.344   5.135  0.6830  0.2333 -0.2393
18049THY    CA334809   0.720   6.390   4.935 -0.4336 -0.0676  0.3663
18049THY    HA334810   0.663   6.428   5.019 -1.5086 -1.6019  2.4244
18049THY    CA434811   0.720   6.476   4.827 -0.2003 -0.0554  0.3099
18049THY    HA434812   0.677   6.574   4.842  0.0708 -1.9182  0.7452
18049THY    CA534813   0.765   6.444   4.703 -0.2898  0.0886 -0.2826
18049THY    CM134814   0.766   6.549   4.594 -0.0603 -0.7037 -0.3141
18049THY    HM134815   0.668   6.559   4.545 -0.0494 -0.3143  2.7336
18049THY    HM234816   0.834   6.539   4.509  0.3190 -0.3427 -0.8365
18049THY    HM334817   0.772   6.649   4.640  0.9644 -0.5970 -0.4220
18049THY    CA634818   0.824   6.327   4.679 -0.4309  0.1886  1.0233
18049THY    HA634819   0.866   6.302   4.581  2.2252  1.3105  0.7877
18050THY      O34820   1.354   2.844   1.483  0.2327  0.2258  0.1393
18050THY     HO34821   1.271   2.823   1.439  0.8221 -1.0131  0.3245
18050THY    CA134822   1.309   2.851   1.608 -0.3174 -0.1854 -0.2831
18050THY    CA234823   1.388   2.813   1.717  0.8896  0.7170 -1.2650
18050THY    CP134824   1.524   2.753   1.689  0.1491  0.2686  0.0068
18050THY    HP134825   1.553   2.743   1.584 -1.8016 -0.5963  2.4123
18050THY    CP234826   1.519   2.606   1.734 -0.1228 -0.1742  0.2358
18050THY    HP234827   1.619   2.561   1.728 -0.5081 -1.6920 -0.4636
18050THY    HP334828   1.444   2.553   1.675 -1.5093  1.3666  0.3934
18050THY    HP434829   1.499   2.605   1.842  1.7049  0.2002 -1.3070
18050THY    CP334830   1.645   2.829   1.767  0.0411  0.0237  0.1433
18050THY    HP534831   1.739   2.773   1.755 -0.9079  1.3352 -1.8196
18050THY    HP634832   1.614   2.833   1.872 -3.9184 -0.8688 -2.3350
18050THY    HP734833   1.639   2.932   1.730 -1.3943 -0.0987  0.0254
18050THY    CA334834   1.333   2.827   1.845 -0.2915 -0.7475  0.7572
18050THY    HA334835   1.384   2.791   1.934 -1.3496 -0.9943 -1.5414
18050THY    CA434836   1.207   2.889   1.861  0.5337 -1.1394 -0.6508
18050THY    HA434837   1.159   2.889   1.958  0.8109 -0.9979 -1.0593
18050THY    CA534838   1.137   2.931   1.750 -0.4639  0.4130 -0.0617
18050THY    CM134839   0.998   2.992   1.766 -0.3415 -0.6073  0.2553
18050THY    HM134840   0.924   2.917   1.737 -0.4516  0.1935  0.0527
18050THY    HM234841   0.981   3.074   1.694  1.8982 -0.3255  1.0392
18050THY    HM334842   0.977   3.021   1.869  2.1461  0.0648 -0.0739
18050THY    CA634843   1.185   2.912   1.625 -0.1356  0.2128  0.4669
18050THY    HA634844   1.126   2.939   1.538  2.7683 -1.2182  2.8612
18051THY      O34845   7.872   4.608   4.849 -0.2904 -0.0288  0.2234
18051THY     HO34846   7.906   4.517   4.860  2.7321  2.8261  1.5076
18051THY    CA134847   7.776   4.600   4.760 -0.1643 -0.0369 -0.3863
18051THY    CA234848   7.702   4.715   4.731 -0.6014  0.2466 -0.2243
18051THY    CP134849   7.737   4.853   4.808 -0.1143  0.0187 -0.8687
18051THY    HP134850   7.839   4.856   4.848 -0.1932  0.1632  0.7085
18051THY    CP234851   7.657   4.871   4.930  0.1957 -0.5427  0.1373
18051THY    HP234852   7.696   4.952   4.994  1.0565 -0.3917 -0.3927
18051THY    HP334853   7.631   4.779   4.984 -0.0239 -2.7447 -1.1542
18051THY    HP434854   7.555   4.894   4.896  0.8064 -1.6703  1.3489
18051THY    CP334855   7.724   4.973   4.721  0.0281  0.4176 -0.2522
18051THY    HP534856   7.792   4.961   4.636  0.5990  1.0684 -2.1109
18051THY    HP634857   7.764   5.058   4.777 -0.4567 -0.3655  0.5012
18051THY    HP734858   7.621   4.998   4.694  0.0759 -0.1339 -0.6278
18051THY    CA334859   7.589   4.705   4.648  1.6273  0.0256  0.3193
18051THY    HA334860   7.530   4.795   4.634 -0.1168  1.7859 -0.4584
18051THY    CA434861   7.565   4.587   4.574 -0.1271 -0.5753  0.5021
18051THY    HA434862   7.482   4.584   4.504 -0.1581 -0.5065 -0.4415
18051THY    CA534863   7.636   4.469   4.606  0.1328 -0.4544  0.1632
18051THY    CM134864   7.609   4.342   4.528 -0.5055 -0.5678 -0.4242
18051THY    HM134865   7.515   4.295   4.561  0.4306  0.1508 -1.8697
18051THY    HM234866   7.692   4.274   4.550  0.6925 -0.0964  1.1251
18051THY    HM334867   7.614   4.347   4.419 -1.0693 -0.6424 -1.3237
18051THY    CA634868   7.746   4.472   4.694 -0.2939 -0.9197 -0.4449
18051THY    HA634869   7.814   4.387   4.690  0.8027 -1.0412  0.4030
18052THY      O34870   1.389   4.003   6.362  0.7912 -0.3307 -0.1280
18052THY     HO34871   1.343   4.047   6.435 -1.3886 -0.6128 -1.7477
18052THY    CA134872   1.493   3.952   6.429 -0.2343 -0.5853  0.8635
18052THY    CA234873   1.591   3.876   6.366 -0.0797  0.2444 -0.1861
18052THY    CP134874   1.599   3.867   6.214  0.1359  0.1497  1.1548
18052THY    HP134875   1.505   3.900   6.167  0.0198 -1.0970 -0.7778
18052THY    CP234876   1.627   3.716   6.168  0.7425  0.4612 -0.1062
18052THY    HP234877   1.733   3.693   6.152  0.1033 -1.1069 -2.3171
18052THY    HP334878   1.593   3.696   6.065  1.8503  0.0971 -0.1524
18052THY    HP434879   1.576   3.652   6.241 -1.0500  1.3215  2.1675
18052THY    CP334880   1.709   3.956   6.146 -1.1511 -0.5220  0.2039
18052THY    HP534881   1.694   3.949   6.038 -1.2882 -0.5347  0.6702
18052THY    HP634882   1.811   3.929   6.176 -1.9900  1.6112 -0.8563
18052THY    HP734883   1.695   4.059   6.181 -0.2188  3.1082 -0.7635
18052THY    CA334884   1.693   3.812   6.441 -0.6714  0.1419  0.1004
18052THY    HA334885   1.773   3.755   6.394 -1.8231  0.3796 -1.8078
18052THY    CA434886   1.698   3.826   6.577  0.5754 -0.1287  0.2355
18052THY    HA434887   1.776   3.780   6.637 -0.6803  0.6329 -0.9996
18052THY    CA534888   1.605   3.917   6.639  0.2644 -0.7830  0.4762
18052THY    CM134889   1.618   3.955   6.785  0.5465  0.0963  0.7882
18052THY    HM134890   1.599   3.860   6.835  1.0635 -2.0885 -0.5214
18052THY    HM234891   1.544   4.033   6.807  0.1450 -0.7632  0.6574
18052THY    HM334892   1.716   3.996   6.812  0.4017  0.5152  0.8712
18052THY    CA634893   1.504   3.974   6.564 -0.6502 -0.1170 -0.1213
18052THY    HA634894   1.428   4.036   6.612 -0.1502 -0.0042  0.4084
18053THY      O34895   3.001   0.692   5.982 -0.5091  0.0802  0.2100
18053THY     HO34896   3.042   0.644   5.907 -1.1021  0.5904 -1.1428
18053THY    CA134897   3.100   0.777   6.031  0.0707  0.7088 -0.5783
18053THY    CA234898   3.073   0.841   6.157 -0.3554 -0.1458 -0.9841
18053THY    CP134899   2.942   0.824   6.237  0.6194  0.0274 -0.0033
18053THY    HP134900   2.870   0.762   6.182  2.1995 -1.3814 -0.6644
18053THY    CP234901   2.877   0.961   6.279 -0.5625  0.2573  0.2673
18053THY    HP234902   2.860   1.023   6.190 -0.8687  0.2633  0.1920
18053THY    HP334903   2.950   1.007   6.347  1.2289 -2.0217  1.0365
18053THY    HP434904   2.789   0.962   6.343 -1.0158 -0.3613  0.8927
18053THY    CP334905   2.952   0.747   6.370 -0.3429 -0.4344  0.2506
18053THY    HP534906   2.979   0.818   6.450 -0.2196  0.3916 -0.7129
18053THY    HP634907   3.022   0.663   6.362  0.6516 -0.1761  1.0174
18053THY    HP734908   2.853   0.707   6.392 -0.4725 -0.8287  0.3548
18053THY    CA334909   3.174   0.923   6.205  0.1844  0.3356 -0.1017
18053THY    HA334910   3.166   0.954   6.309 -1.1393 -0.4091  2.2526
18053THY    CA434911   3.287   0.954   6.124  0.2626  0.8868 -0.5450
18053THY    HA434912   3.373   1.009   6.162  1.8631  0.1447 -2.4217
18053THY    CA534913   3.300   0.909   5.990 -0.0237  0.3361  0.6682
18053THY    CM134914   3.414   0.926   5.902 -0.4778  0.0700 -0.3658
18053THY    HM134915   3.458   0.833   5.863  0.9528  0.6896  0.0168
18053THY    HM234916   3.496   0.977   5.955 -2.9811  3.3354  0.6501
18053THY    HM334917   3.393   1.001   5.826 -0.4865  0.1380 -0.2990
18053THY    CA634918   3.205   0.815   5.946  0.6565  0.7598  0.2658
18053THY    HA634919   3.209   0.777   5.844 -1.4189  1.3180 -1.7248
18054THY      O34920   6.156   7.374   4.889  0.3625 -0.4963  0.4749
18054THY     HO34921   6.084   7.422   4.846 -1.9605  2.2568 -0.2684
18054THY    CA134922   6.257   7.458   4.887 -0.9432 -0.1816 -0.0616
18054THY    CA234923   6.376   7.435   4.961 -0.0986 -0.5676 -0.0638
18054THY    CP134924   6.409   7.297   5.019 -0.7507  0.3593 -0.0340
18054THY    HP134925   6.329   7.225   4.996  1.9807  1.4015 -3.7224
18054THY    CP234926   6.439   7.292   5.164 -0.0663  0.4739  0.1342
18054THY    HP234927   6.530   7.339   5.204 -0.4312 -0.1435  1.4057
18054THY    HP334928   6.433   7.186   5.190  0.6724  2.4506  0.5251
18054THY    HP434929   6.353   7.347   5.206  0.6045  1.0681  0.7519
18054THY    CP334930   6.535   7.238   4.958 -0.7968  0.1615 -0.0972
18054THY    HP534931   6.539   7.274   4.855  2.1132  0.2648  0.0999
18054THY    HP634932   6.530   7.129   4.964 -0.6281  0.3864 -0.0931
18054THY    HP734933   6.623   7.277   5.009 -1.0899 -0.1230  0.9797
18054THY    CA334934   6.476   7.531   4.958  0.6854 -0.0920  0.9684
18054THY    HA334935   6.574   7.515   5.001 -0.1338  1.0991 -1.3761
18054THY    CA434936   6.466   7.656   4.895 -0.6362 -0.1535  0.9487
18054THY    HA434937   6.545   7.730   4.895 -0.3058  0.7497  0.6121
18054THY    CA534938   6.350   7.678   4.819 -0.0635 -0.4164 -0.3052
18054THY    CM134939   6.335   7.800   4.731 -0.7787  0.1217 -0.1521
18054THY    HM134940   6.232   7.820   4.698  0.0726 -1.1217  2.7729
18054THY    HM234941   6.397   7.787   4.641 -0.3209 -0.1250  2.9559
18054THY    HM334942   6.370   7.897   4.768 -0.1367 -2.7841  0.8335
18054THY    CA634943   6.251   7.579   4.813  0.1627  0.0570 -0.1415
18054THY    HA634944   6.167   7.599   4.746  1.4045 -1.4245  0.3236
18055THY      O34945   6.850   2.743   5.328 -0.3755  0.2272 -0.4339
18055THY     HO34946   6.898   2.759   5.411  0.2056  0.0901 -1.3671
18055THY    CA134947   6.905   2.629   5.272 -0.6214 -0.1985 -0.2314
18055THY    CA234948   6.881   2.585   5.138  0.1618  0.3699 -0.5875
18055THY    CP134949   6.800   2.670   5.027  0.5395  0.0072 -0.0311
18055THY    HP134950   6.780   2.770   5.067  1.4901 -0.2963  0.2852
18055THY    CP234951   6.663   2.623   5.023 -0.2999 -0.4107  0.1584
18055THY    HP234952   6.665   2.519   4.988 -0.9872 -0.4818  0.1643
18055THY    HP334953   6.602   2.683   4.955 -0.5581 -1.2198 -0.9835
18055THY    HP434954   6.629   2.633   5.127  0.1946 -0.2029 -0.2452
18055THY    CP334955   6.864   2.696   4.893 -0.5291  0.2647 -0.3660
18055THY    HP534956   6.954   2.757   4.907  0.1223 -3.2180 -0.3236
18055THY    HP634957   6.799   2.762   4.835 -0.4773  2.5513  1.8455
18055THY    HP734958   6.895   2.607   4.836 -0.1078 -0.7189  0.4030
18055THY    CA334959   6.928   2.461   5.094 -0.4078 -0.1264  0.2256
18055THY    HA334960   6.912   2.426   4.993  2.5101 -0.4057 -0.5561
18055THY    CA434961   6.991   2.380   5.186  0.6520 -0.3060 -0.5155
18055THY    HA434962   7.042   2.290   5.154 -1.4598 -0.1479 -1.8364
18055THY    CA534963   7.017   2.421   5.318  0.1756 -0.3884  0.6476
18055THY    CM134964   7.079   2.342   5.429 -0.6481  0.2284  0.6091
18055THY    HM134965   7.004   2.346   5.509 -0.3079  0.5092  1.8080
18055THY    HM234966   7.167   2.385   5.479 -1.4192  1.0224  1.3095
18055THY    HM334967   7.093   2.240   5.392 -0.6834  1.7805  0.0080
18055THY    CA634968   6.967   2.542   5.359 -0.6436 -0.7518 -0.0263
18055THY    HA634969   6.985   2.573   5.462  0.1452 -1.3763  1.7030
18056THY      O34970   6.835   8.832   2.374 -0.0617 -0.1173 -0.2905
18056THY     HO34971   6.859   8.921   2.342 -0.6359 -1.6249 -0.6489
18056THY    CA134972   6.762   8.790   2.276  0.0221  0.3159  0.1366
18056THY    CA234973   6.774   8.655   2.240  0.7781  0.1864  0.2035
18056THY    CP134974   6.857   8.548   2.308  0.4112  0.4031  0.2966
18056THY    HP134975   6.904   8.589   2.398  1.9194  0.4138 -1.3000
18056THY    CP234976   6.977   8.507   2.219 -0.1599  0.2319  0.4316
18056THY    HP234977   6.948   8.469   2.121  1.0019  0.6170 -1.6500
18056THY    HP334978   7.039   8.432   2.271 -0.4636 -0.3242 -0.2155
18056THY    HP434979   7.031   8.598   2.192  0.2582 -1.9128 -0.3983
18056THY    CP334980   6.792   8.419   2.350  0.4327 -0.9673  0.4647
18056THY    HP534981   6.694   8.443   2.391 -0.3787 -2.9827  0.7686
18056THY    HP634982   6.848   8.375   2.434 -2.2139 -0.4917 -2.3135
18056THY    HP734983   6.778   8.341   2.274  0.1084 -0.5168  0.0737
18056THY    CA334984   6.708   8.613   2.126  0.3969 -0.8089  0.3427
18056THY    HA334985   6.703   8.507   2.102 -1.0852 -0.2954  0.2680
18056THY    CA434986   6.640   8.703   2.055  0.5535 -0.4579  0.0728
18056THY    HA434987   6.584   8.664   1.970  1.1875 -0.8930  0.0954
18056THY    CA534988   6.618   8.835   2.090  0.1698 -0.4693 -0.2659
18056THY    CM134989   6.514   8.915   2.026 -0.5525 -0.2446  0.9674
18056THY    HM134990   6.543   8.918   1.920 -1.5319 -0.6262 -1.1999
18056THY    HM234991   6.507   9.018   2.063 -0.0097  0.9737  0.5887
18056THY    HM334992   6.419   8.866   2.049 -0.2093  1.5386  1.0697
18056THY    CA634993   6.689   8.877   2.203  0.3612  0.7812  0.8925
18056THY    HA634994   6.679   8.979   2.239 -0.0447  2.4586  0.2960
18057THY      O34995   9.200   7.294   1.835 -0.5362  0.2601  0.1630
18057THY     HO34996   9.274   7.346   1.872 -0.5128  0.7595 -0.2174
18057THY    CA134997   9.240   7.170   1.858 -0.2254 -0.4473  0.2652
18057THY    CA234998   9.183   7.069   1.782 -0.2077  0.1189 -0.1435
18057THY    CP134999   9.082   7.098   1.664 -0.8003 -0.0525 -0.7034
18057THY    HP135000   9.086   7.205   1.642  3.0163  1.5627 -0.3330
18057THY    CP235001   8.936   7.074   1.710 -0.5919  0.7059  0.2731
18057THY    HP235002   8.907   7.147   1.787  0.2925  0.8273  0.5150
18057THY    HP335003   8.924   6.978   1.760 -0.6989  1.4261  0.6488
18057THY    HP435004   8.869   7.075   1.624 -0.5891  0.7003  1.4029
18057THY    CP335005   9.119   7.018   1.528  0.1535  0.0252 -0.8192
18057THY    HP535006   9.049   7.053   1.452  0.1480  0.5750  0.4231
18057THY    HP635007   9.105   6.909   1.534 -0.6317  1.6050 -0.6545
18057THY    HP735008   9.218   7.053   1.497  0.2893  0.8527 -0.4501
18057THY    CA335009   9.239   6.939   1.800  0.0071  0.3172  0.3508
18057THY    HA335010   9.217   6.851   1.741  3.1632  0.3866 -0.6180
18057THY    CA435011   9.337   6.913   1.897 -0.4995  0.1192  0.1218
18057THY    HA435012   9.370   6.810   1.904  1.1969  1.1990  0.6948
18057THY    CA535013   9.391   7.018   1.973 -0.7762 -0.4308  0.1829
18057THY    CM135014   9.519   7.004   2.057  0.1075 -0.3224  0.1645
18057THY    HM135015   9.527   7.054   2.154  0.6000  0.6716 -1.7378
18057THY    HM235016   9.604   7.046   2.002 -0.8465  0.3881  3.2262
18057THY    HM335017   9.550   6.899   2.070 -2.1245 -2.8509 -0.9372
18057THY    CA635018   9.339   7.154   1.955 -0.4521 -0.8930  1.3294
18057THY    HA635019   9.384   7.236   2.010 -2.1742  0.5488  1.3539
18058THY      O35020   7.412   5.706   4.598  0.4225 -0.5380 -0.0617
18058THY     HO35021   7.406   5.694   4.695 -1.7998 -0.7516 -1.2174
18058THY    CA135022   7.543   5.707   4.562 -0.6026  0.0720 -0.9414
18058THY    CA235023   7.578   5.691   4.431 -0.6537  0.7582 -0.0458
18058THY    CP135024   7.471   5.680   4.320 -0.6488  0.0355  0.7762
18058THY    HP135025   7.369   5.678   4.362 -0.3791  1.0504 -3.8437
18058THY    CP235026   7.492   5.553   4.237  0.3639  1.0007 -0.7431
18058THY    HP235027   7.484   5.454   4.284 -4.2421 -0.7472 -1.4522
18058THY    HP335028   7.585   5.552   4.180  0.4491  0.8561  2.8119
18058THY    HP435029   7.423   5.542   4.153 -0.1828  1.4134 -0.5070
18058THY    CP335030   7.483   5.802   4.236  0.4384  0.2357 -0.1048
18058THY    HP535031   7.581   5.803   4.186  0.7786  0.7558 -2.3411
18058THY    HP635032   7.454   5.889   4.296 -0.6900  0.2696 -0.4851
18058THY    HP735033   7.402   5.793   4.163  0.2701  0.5274 -1.0656
18058THY    CA335034   7.718   5.671   4.403 -0.5795 -0.0309  0.0097
18058THY    HA335035   7.751   5.671   4.299  2.6743  0.8094  3.0111
18058THY    CA435036   7.812   5.671   4.506 -0.2306 -0.7113  0.2141
18058THY    HA435037   7.918   5.665   4.484 -0.2396 -0.9168  0.7561
18058THY    CA535038   7.771   5.695   4.639 -0.8175  0.2372  0.0824
18058THY    CM135039   7.872   5.704   4.749 -0.3226  0.1535  0.5808
18058THY    HM135040   7.831   5.777   4.820 -2.5178 -0.4197 -0.0233
18058THY    HM235041   7.968   5.730   4.702  0.0546 -0.5323 -1.8575
18058THY    HM335042   7.877   5.604   4.794  3.6320 -1.9794 -0.3873
18058THY    CA635043   7.633   5.703   4.664 -0.5616  0.9228 -0.0037
18058THY    HA635044   7.603   5.735   4.763 -1.0400  0.3731  1.3045
18059THY      O35045   3.064   6.601   6.827  0.3101 -0.0327  0.3440
18059THY     HO35046   3.102   6.645   6.749  0.7334 -0.9074 -1.4868
18059THY    CA135047   2.999   6.494   6.778 -0.0102  0.5659 -0.0439
18059THY    CA235048   2.877   6.453   6.817  0.4326 -0.5219  0.5390
18059THY    CP135049   2.799   6.531   6.929  0.3321 -0.2222 -0.8731
18059THY    HP135050   2.858   6.603   6.986 -1.8303  1.2728 -0.1989
18059THY    CP235051   2.767   6.434   7.037 -0.9406  0.3653  0.8042
18059THY    HP235052   2.682   6.367   7.018  1.5125 -1.1968 -2.0907
18059THY    HP335053   2.755   6.486   7.134 -0.3781  0.4365  0.8076
18059THY    HP435054   2.857   6.376   7.060 -1.3585 -0.3875 -0.1751
18059THY    CP335055   2.679   6.615   6.862  0.0672 -0.5896 -0.3232
18059THY    HP535056   2.710   6.644   6.761 -0.2230 -0.6957 -0.3762
18059THY    HP635057   2.641   6.700   6.919  2.5300  0.8244 -0.0830
18059THY    HP735058   2.587   6.556   6.862  0.9162  1.6414 -1.7875
18059THY    CA335059   2.823   6.328   6.769 -0.0746 -0.3971  0.0454
18059THY    HA335060   2.724   6.299   6.803 -1.0898 -4.5242 -2.1252
18059THY    CA435061   2.882   6.255   6.669  0.1601 -0.0581  0.5931
18059THY    HA435062   2.825   6.176   6.621 -0.6681 -1.4280  1.9571
18059THY    CA535063   3.004   6.308   6.625  0.4312 -0.1706  0.8382
18059THY    CM135064   3.064   6.243   6.510 -0.8769  0.5912 -0.7566
18059THY    HM135065   3.051   6.135   6.524 -0.7708 -0.1586 -0.8708
18059THY    HM235066   3.172   6.257   6.498 -0.9462 -2.1589 -1.9852
18059THY    HM335067   3.006   6.282   6.425 -0.6888  0.7238 -0.1698
18059THY    CA635068   3.063   6.424   6.679 -0.1848  0.0737 -0.0221
18059THY    HA635069   3.148   6.473   6.634 -1.5942  1.0970  3.7014
18060THY      O35070   2.892   2.649   6.074 -0.2740 -1.1283  0.7214
18060THY     HO35071   2.841   2.707   6.133  1.2605  0.4926  0.5005
18060THY    CA135072   2.814   2.543   6.027 -0.3940  0.3749 -0.3033
18060THY    CA235073   2.870   2.420   5.982 -0.3004  0.3559 -0.6214
18060THY    CP135074   3.016   2.401   5.995 -0.9361 -0.1349  0.3950
18060THY    HP135075   3.052   2.440   6.091  0.0277 -0.6948  0.9204
18060THY    CP235076   3.093   2.488   5.890  0.0359  0.1077 -0.9766
18060THY    HP235077   3.041   2.471   5.795  0.8056  0.0686 -3.4645
18060THY    HP335078   3.198   2.458   5.887  0.4874  2.2164  0.2101
18060THY    HP435079   3.088   2.594   5.918  1.4766 -1.5381 -0.4299
18060THY    CP335080   3.066   2.250   5.981 -0.1330  0.0167  0.0001
18060THY    HP535081   3.021   2.176   6.048  0.6412 -0.2485 -0.7278
18060THY    HP635082   3.171   2.241   6.011  0.1887 -0.7934  0.8774
18060THY    HP735083   3.048   2.217   5.878  1.0578  0.5096 -2.4185
18060THY    CA335084   2.786   2.323   5.921 -0.3591 -0.3437  0.0645
18060THY    HA335085   2.823   2.231   5.877 -0.9650 -0.3939 -0.1594
18060THY    CA435086   2.651   2.342   5.920  0.3587 -0.1965 -0.3559
18060THY    HA435087   2.579   2.269   5.884 -2.2890  2.2699  0.8770
18060THY    CA535088   2.597   2.461   5.963 -0.0107  0.0319 -0.8822
18060THY    CM135089   2.451   2.485   5.962 -0.2640  0.2130  0.1336
18060THY    HM135090   2.403   2.466   6.059 -0.6807 -0.2850 -1.5041
18060THY    HM235091   2.395   2.426   5.889 -0.6227  2.0068 -1.8546
18060THY    HM335092   2.440   2.582   5.913  0.7985 -1.8570 -0.7254
18060THY    CA635093   2.680   2.570   6.016  0.6419 -0.2530 -0.5258
18060THY    HA635094   2.642   2.668   6.040 -1.3419 -1.8502 -0.8300
18061THY      O35095   8.065   7.797   3.538  0.1287 -0.1880  0.5534
18061THY     HO35096   7.985   7.846   3.513 -1.2191 -0.6921 -1.7533
18061THY    CA135097   8.137   7.773   3.425 -0.4136  0.4765 -0.3717
18061THY    CA235098   8.216   7.657   3.416  1.3072 -0.2902  0.4233
18061THY    CP135099   8.227   7.560   3.529 -0.0383 -0.2518  0.5114
18061THY    HP135100   8.190   7.608   3.620 -1.5954 -0.2104 -0.6632
18061THY    CP235101   8.375   7.525   3.551  0.0975  0.4732  0.1944
18061THY    HP235102   8.428   7.621   3.556 -0.3471 -1.2341  0.5585
18061THY    HP335103   8.418   7.470   3.467 -2.2763 -1.1753  0.6862
18061THY    HP435104   8.391   7.471   3.645 -0.2993 -0.1908 -1.1167
18061THY    CP335105   8.150   7.429   3.507  0.3877 -0.8654  0.2637
18061THY    HP535106   8.048   7.455   3.479  0.9168 -3.4870 -0.1963
18061THY    HP635107   8.141   7.356   3.588  0.7107  0.2999  1.4743
18061THY    HP735108   8.178   7.371   3.418 -1.1931 -0.3036 -1.4609
18061THY    CA335109   8.281   7.628   3.288 -0.2109 -0.5406  0.4584
18061THY    HA335110   8.348   7.543   3.282  1.9047  2.8711  1.6490
18061THY    CA435111   8.254   7.714   3.177 -0.1642 -0.4649 -0.3516
18061THY    HA435112   8.299   7.686   3.082 -0.2546 -0.4180 -0.6584
18061THY    CA535113   8.181   7.831   3.198 -0.1431 -0.0621  0.2380
18061THY    CM135114   8.156   7.925   3.079  0.4438  0.8075 -0.2166
18061THY    HM135115   8.093   7.871   3.007  0.2973  0.7233  0.0660
18061THY    HM235116   8.247   7.962   3.030 -0.0159  0.2588  0.2136
18061THY    HM335117   8.104   8.014   3.114 -0.3990  2.5208 -1.3423
18061THY    CA635118   8.123   7.862   3.322  0.6443 -0.0678 -0.3574
18061THY    HA635119   8.064   7.951   3.341 -2.0691 -0.4028 -1.9690
18062THY      O35120   8.256   8.408   5.903 -0.4677  0.4359  0.4681
18062THY     HO35121   8.221   8.394   5.813  1.4040 -0.6608  2.1326
18062THY    CA135122   8.205   8.528   5.942  0.5245  0.1979  0.3105
18062THY    CA235123   8.277   8.601   6.040 -0.1737  0.4406 -0.7703
18062THY    CP135124   8.415   8.574   6.093  0.4106 -0.3290  0.5211
18062THY    HP135125   8.435   8.474   6.054 -2.4209 -1.0329  0.1675
18062THY    CP235126   8.424   8.553   6.247  0.6053 -0.0257 -0.7164
18062THY    HP235127   8.341   8.497   6.289  1.4523  2.1517 -0.4305
18062THY    HP335128   8.416   8.655   6.286  0.6707 -1.4073 -0.1604
18062THY    HP435129   8.516   8.505   6.282  1.8885  0.7478  2.0745
18062THY    CP335130   8.526   8.677   6.057  0.4364  0.1390  0.2601
18062THY    HP535131   8.622   8.641   6.096 -0.6156  2.5953 -0.1092
18062THY    HP635132   8.510   8.778   6.097 -2.3666 -3.8193  1.6341
18062THY    HP735133   8.548   8.676   5.950  0.7022  0.0979  3.2428
18062THY    CA335134   8.218   8.719   6.089 -1.1508  0.1216 -0.1196
18062THY    HA335135   8.260   8.778   6.169  1.4040 -1.2980  0.1282
18062THY    CA435136   8.093   8.754   6.043  0.1080 -0.1970  0.2227
18062THY    HA435137   8.048   8.843   6.087  0.7758  0.9285  0.0315
18062THY    CA535138   8.023   8.680   5.957  0.4135  0.3113 -0.4760
18062THY    CM135139   7.883   8.717   5.907  0.5231  0.0553 -0.1226
18062THY    HM135140   7.847   8.813   5.947  1.3245 -1.4110  0.8231
18062THY    HM235141   7.823   8.632   5.942  0.1514  0.1914  0.1917
18062THY    HM335142   7.874   8.715   5.798 -0.7437  0.1463 -2.3752
18062THY    CA635143   8.078   8.566   5.905 -0.5209 -0.0743 -0.7547
18062THY    HA635144   8.030   8.497   5.836  0.9131 -0.1581 -1.7205
18063THY      O35145   8.851   6.217   6.665  0.0592 -0.0815 -0.1550
18063THY     HO35146   8.900   6.134   6.680  0.3567  0.3548  0.0945
18063THY    CA135147   8.920   6.293   6.580  0.4167 -0.1533 -0.3090
18063THY    CA235148   8.862   6.409   6.522  0.2596 -0.2065  0.1434
18063THY    CP135149   8.716   6.444   6.560  0.2350  0.2500 -0.0866
18063THY    HP135150   8.671   6.367   6.625 -3.0334  0.4892  1.8261
18063THY    CP235151   8.619   6.462   6.435 -0.6079  0.0312  0.8849
18063THY    HP235152   8.616   6.367   6.380 -0.9164  1.2219  0.1956
18063THY    HP335153   8.647   6.538   6.361 -0.2322 -1.8246 -0.9779
18063THY    HP435154   8.515   6.470   6.469 -0.0383  1.5962  2.1255
18063THY    CP335155   8.710   6.579   6.647  1.0709 -0.0259 -0.4812
18063THY    HP535156   8.697   6.671   6.588  0.1696  3.5321  1.8814
18063THY    HP635157   8.799   6.585   6.710  0.4392  1.1747 -2.6169
18063THY    HP735158   8.622   6.570   6.712  1.6043  1.0089  1.2712
18063THY    CA335159   8.927   6.486   6.430  0.4001 -0.2266  0.0720
18063THY    HA335160   8.883   6.582   6.402  0.6803  0.6422  0.4614
18063THY    CA435161   9.054   6.439   6.387  0.2756  0.3200 -0.4320
18063THY    HA435162   9.110   6.501   6.319 -0.0864 -0.5142 -1.0007
18063THY    CA535163   9.105   6.323   6.437 -0.4377  0.8206 -0.3297
18063THY    CM135164   9.245   6.285   6.401 -0.3722  0.3947  0.6927
18063THY    HM135165   9.279   6.333   6.308  0.1928  0.1577 -0.1323
18063THY    HM235166   9.253   6.177   6.385 -0.2837  1.2131  0.5739
18063THY    HM335167   9.323   6.310   6.474 -0.7491  0.7414  0.8689
18063THY    CA635168   9.042   6.248   6.536  0.0541 -0.3133 -0.0306
18063THY    HA635169   9.086   6.168   6.594 -1.8692 -0.8568 -1.5486
18064THY      O35170   6.620   3.461   7.658  0.0090 -0.0594  0.0068
18064THY     HO35171   6.695   3.479   7.718 -0.8886  1.1807 -0.1979
18064THY    CA135172   6.511   3.494   7.730 -0.0114 -0.3881 -0.0324
18064THY    CA235173   6.388   3.533   7.665 -0.1486  0.2705 -0.3382
18064THY    CP135174   6.364   3.524   7.517  1.0349 -0.4615 -0.5133
18064THY    HP135175   6.443   3.472   7.463  0.3956 -0.4282 -1.5365
18064THY    CP235176   6.348   3.664   7.453 -0.4281 -0.3641 -0.2677
18064THY    HP235177   6.296   3.729   7.523  0.8016  0.3261  0.0090
18064THY    HP335178   6.306   3.653   7.352 -1.4169 -0.0579  0.5598
18064THY    HP435179   6.446   3.711   7.436  0.6727  0.9705 -1.9235
18064THY    CP335180   6.250   3.427   7.488 -0.4300 -0.4339  0.9053
18064THY    HP535181   6.266   3.342   7.555  1.7517 -1.2158  0.6250
18064THY    HP635182   6.254   3.382   7.388 -0.6645  0.2883 -0.7843
18064THY    HP735183   6.155   3.477   7.507  0.0033  1.6770  1.0102
18064THY    CA335184   6.284   3.576   7.756  0.0371  0.1677  0.6219
18064THY    HA335185   6.183   3.582   7.717 -0.5191  1.7373  2.3398
18064THY    CA435186   6.306   3.595   7.886  0.0102 -0.3313 -0.5696
18064THY    HA435187   6.228   3.629   7.954  0.8382 -1.0697  3.1962
18064THY    CA535188   6.417   3.548   7.943 -0.1325  0.4892 -0.0190
18064THY    CM135189   6.449   3.561   8.089  0.2837 -0.0714  0.3613
18064THY    HM135190   6.442   3.459   8.127 -0.6012  1.3837  0.9386
18064THY    HM235191   6.373   3.629   8.130 -1.2581 -1.9899 -0.0961
18064THY    HM335192   6.550   3.600   8.103 -0.1790  1.2816  1.1489
18064THY    CA635193   6.528   3.513   7.870  0.2196 -0.8025 -0.3277
18064THY    HA635194   6.627   3.501   7.914  0.9057 -1.0964  3.1556
18065THY      O35195   9.129   5.841   4.088 -0.8227 -0.4854  0.1092
18065THY     HO35196   9.209   5.893   4.110 -0.0693 -1.4908 -0.5897
18065THY    CA135197   9.103   5.884   3.965 -0.9183 -0.5362 -0.4824
18065THY    CA235198   9.051   5.789   3.862 -0.4799  0.0358 -0.6376
18065THY    CP135199   9.022   5.645   3.893 -0.4883 -0.2181 -0.3703
18065THY    HP135200   9.034   5.614   3.998 -1.5767 -0.5328 -1.9978
18065THY    CP235201   9.106   5.558   3.809 -0.0758  0.2380 -0.3764
18065THY    HP235202   9.087   5.595   3.708 -1.2609  0.2289 -0.9857
18065THY    HP335203   9.075   5.454   3.820 -0.1606 -0.6527 -0.4550
18065THY    HP435204   9.210   5.578   3.837 -0.2087 -1.0109  2.6629
18065THY    CP335205   8.872   5.612   3.868  0.1941 -0.4192 -0.2521
18065THY    HP535206   8.808   5.693   3.904  3.6082 -1.1562  3.0908
18065THY    HP635207   8.837   5.518   3.914  0.4620 -0.5347 -0.4112
18065THY    HP735208   8.850   5.597   3.762 -1.0736 -0.2710  0.4549
18065THY    CA335209   9.033   5.843   3.731  0.0820  0.3621  0.4096
18065THY    HA335210   8.981   5.784   3.656  0.3598  0.6794 -0.2346
18065THY    CA435211   9.058   5.987   3.704 -0.1332  0.3287 -0.0260
18065THY    HA435212   9.037   6.028   3.606  2.8571 -0.9013 -1.1743
18065THY    CA535213   9.098   6.067   3.808 -0.3713  0.0767  0.2125
18065THY    CM135214   9.109   6.215   3.780  0.5687  1.0076  0.6997
18065THY    HM135215   9.198   6.241   3.721 -0.4971 -0.1203  1.9031
18065THY    HM235216   9.110   6.273   3.873  1.1180  0.9959  0.7160
18065THY    HM335217   9.017   6.254   3.735  0.3990 -0.1413 -0.9145
18065THY    CA635218   9.122   6.015   3.939  0.0958  0.1889  0.4216
18065THY    HA635219   9.144   6.086   4.019 -0.9894 -1.3480  2.6048
18066THY      O35220   9.065   6.767   2.015  0.0289  0.2485 -0.0130
18066THY     HO35221   9.143   6.809   1.976 -1.8198 -3.0842  0.7354
18066THY    CA135222   9.081   6.759   2.150 -0.8298  0.4138 -0.3101
18066THY    CA235223   8.987   6.697   2.229  0.1966  0.1902 -0.3308
18066THY    CP135224   8.852   6.652   2.163 -0.4581  0.4315  0.0724
18066THY    HP135225   8.891   6.590   2.081 -0.1436  1.5460 -1.2415
18066THY    CP235226   8.757   6.763   2.120  0.0250 -0.0746  0.5550
18066THY    HP235227   8.723   6.834   2.196  0.7228 -0.7637  1.6580
18066THY    HP335228   8.672   6.711   2.076 -0.8315  0.6816  1.2798
18066THY    HP435229   8.801   6.824   2.041  0.2453  1.1326  2.0233
18066THY    CP335230   8.773   6.560   2.254 -0.1005 -0.0388 -0.5251
18066THY    HP535231   8.832   6.485   2.309  0.5627  0.0250  0.0248
18066THY    HP635232   8.693   6.505   2.204  0.6359 -0.4108 -1.2758
18066THY    HP735233   8.725   6.624   2.329  3.2111 -0.3330  2.6327
18066THY    CA335234   9.010   6.689   2.367 -0.1887 -0.2720  0.3033
18066THY    HA335235   8.928   6.655   2.430 -1.2959 -1.5656  0.4448
18066THY    CA435236   9.125   6.750   2.427  0.2407  0.1880  0.3428
18066THY    HA435237   9.135   6.745   2.535  0.0259  0.2128  0.4462
18066THY    CA535238   9.215   6.811   2.350  0.3510  0.4143 -0.2347
18066THY    CM135239   9.336   6.879   2.406  0.4663 -0.2472  0.7373
18066THY    HM135240   9.298   6.914   2.503  1.1871  0.5753 -0.6680
18066THY    HM235241   9.376   6.961   2.345 -0.7694 -1.4820  0.4484
18066THY    HM335242   9.411   6.801   2.427 -1.4825 -0.6950 -1.3699
18066THY    CA635243   9.204   6.801   2.212 -0.6371  0.2268 -0.5406
18066THY    HA635244   9.284   6.843   2.153  0.9057  2.6013  0.0137
18067THY      O35245   5.289   1.933   5.977  0.1172 -0.0827 -0.0203
18067THY     HO35246   5.266   1.843   5.950 -2.0217  2.3231 -0.2969
18067THY    CA135247   5.419   1.947   5.984 -0.2703  0.2358 -0.2429
18067THY    CA235248   5.487   2.052   6.052 -0.3859  0.4192 -0.2309
18067THY    CP135249   5.427   2.180   6.109 -0.1794  0.0508 -0.2658
18067THY    HP135250   5.320   2.176   6.090 -0.5745  1.9961 -0.0758
18067THY    CP235251   5.474   2.300   6.025  0.9601 -0.1359 -0.4649
18067THY    HP235252   5.580   2.315   6.048  1.3672 -0.1361 -2.9425
18067THY    HP335253   5.422   2.393   6.052  1.2562 -1.3913  0.0938
18067THY    HP435254   5.446   2.279   5.921  3.3657 -1.0834  0.5802
18067THY    CP335255   5.455   2.208   6.259 -0.3046 -0.1675 -0.1533
18067THY    HP535256   5.430   2.310   6.287  2.2773 -3.0889  1.4585
18067THY    HP635257   5.562   2.195   6.277 -0.6014  0.2722 -2.7031
18067THY    HP735258   5.392   2.136   6.313 -0.1676 -0.1875 -0.2874
18067THY    CA335259   5.631   2.036   6.045  0.1762  0.7874 -0.0401
18067THY    HA335260   5.693   2.118   6.080  1.0004  2.0835 -1.1642
18067THY    CA435261   5.692   1.919   5.995 -0.0167  0.3929  0.3019
18067THY    HA435262   5.801   1.924   5.988  0.1930 -1.0127 -3.1201
18067THY    CA535263   5.621   1.822   5.930  0.2449  0.2415 -0.1639
18067THY    CM135264   5.704   1.711   5.859  0.2646  0.0050 -0.0901
18067THY    HM135265   5.748   1.627   5.913  0.7005 -1.5566 -0.9200
18067THY    HM235266   5.786   1.760   5.806 -0.7616 -2.3629 -0.7576
18067THY    HM335267   5.642   1.662   5.782  0.3429 -0.2159  0.1537
18067THY    CA635268   5.485   1.832   5.929 -0.1839  0.3437  0.4535
18067THY    HA635269   5.430   1.761   5.868 -0.9478  0.1780  1.1665
18068THY      O35270   3.723   1.737   5.579 -0.7947 -0.3597  0.3120
18068THY     HO35271   3.793   1.780   5.631 -0.1589  0.0290 -1.1493
18068THY    CA135272   3.622   1.723   5.664  0.0005 -0.4360  0.1393
18068THY    CA235273   3.511   1.645   5.637  0.2882  0.3874 -0.3077
18068THY    CP135274   3.489   1.559   5.505  0.4896 -0.0538 -0.6456
18068THY    HP135275   3.585   1.569   5.453  0.7831  0.7590  1.1088
18068THY    CP235276   3.382   1.619   5.408 -0.4964  0.0757  0.3872
18068THY    HP235277   3.282   1.621   5.454 -0.5505  0.0089 -0.3516
18068THY    HP335278   3.370   1.551   5.323  0.2173 -1.5372  2.1948
18068THY    HP435279   3.417   1.717   5.375 -2.3687  1.5462  1.6259
18068THY    CP335280   3.458   1.415   5.523 -0.3471  0.3675 -0.3485
18068THY    HP535281   3.523   1.378   5.604 -1.2552  1.4124  0.2920
18068THY    HP635282   3.481   1.350   5.438 -0.7331  1.3780 -1.8600
18068THY    HP735283   3.354   1.407   5.555 -1.0624 -1.6530  0.3481
18068THY    CA335284   3.415   1.626   5.738  0.2261 -0.1276 -0.0828
18068THY    HA335285   3.330   1.562   5.719  0.3467 -1.2463  0.0756
18068THY    CA435286   3.416   1.694   5.855  0.6309 -0.5864  0.1174
18068THY    HA435287   3.336   1.686   5.929  2.3797  1.2122 -3.0202
18068THY    CA535288   3.530   1.769   5.882 -0.1514  0.0008  0.3161
18068THY    CM135289   3.540   1.831   6.015 -0.7280 -0.6598 -0.8766
18068THY    HM135290   3.467   1.911   6.029  0.3631 -1.3037  0.2630
18068THY    HM235291   3.641   1.873   6.010 -0.9225 -1.9663 -0.5170
18068THY    HM335292   3.541   1.752   6.091 -2.0692 -0.8245 -1.0653
18068THY    CA635293   3.633   1.788   5.789 -0.0371  0.5044  0.5096
18068THY    HA635294   3.722   1.849   5.796  0.9147 -3.7520 -0.0210
18069THY      O35295   7.796   8.118   4.892 -0.6310  0.1058  0.6774
18069THY     HO35296   7.706   8.148   4.912 -2.2481  0.8201 -3.8261
18069THY    CA135297   7.877   8.197   4.970 -0.5050 -0.2881  0.4135
18069THY    CA235298   8.014   8.174   4.995 -0.3294 -0.2686 -0.0910
18069THY    CP135299   8.084   8.052   4.920 -0.2874 -0.1909 -0.7194
18069THY    HP135300   8.016   7.967   4.907 -1.0712 -0.4318 -0.0689
18069THY    CP235301   8.200   7.994   5.016  0.1030  0.7479  0.2500
18069THY    HP235302   8.172   7.982   5.121 -0.9900  0.6357  1.5761
18069THY    HP335303   8.285   8.062   5.030 -0.4442  1.5848  0.7784
18069THY    HP435304   8.237   7.897   4.980  0.2655 -2.2481  1.3259
18069THY    CP335305   8.147   8.094   4.784  0.4937  0.5837 -0.0720
18069THY    HP535306   8.080   8.151   4.720  0.0741  2.7916  2.0969
18069THY    HP635307   8.183   8.007   4.728 -0.4265 -1.7438  0.9704
18069THY    HP735308   8.236   8.153   4.809  1.6800 -0.7234 -1.2487
18069THY    CA335309   8.088   8.280   5.055 -0.6530  0.1246 -0.0232
18069THY    HA335310   8.195   8.275   5.074 -0.5878  1.5162  3.6881
18069THY    CA435311   8.026   8.387   5.114  0.4931  0.3246  0.5212
18069THY    HA435312   8.086   8.456   5.173  0.6519  1.0447 -0.2085
18069THY    CA535313   7.888   8.399   5.093  0.0702 -0.1360  0.2489
18069THY    CM135314   7.811   8.521   5.144 -0.0404  0.0021 -0.6682
18069THY    HM135315   7.870   8.611   5.163 -0.3511  0.5659 -0.5760
18069THY    HM235316   7.763   8.507   5.242 -1.6654 -0.6392  0.2884
18069THY    HM335317   7.733   8.544   5.072 -0.7201  0.3582 -1.7933
18069THY    CA635318   7.814   8.310   5.018  0.5651 -0.3131  0.3061
18069THY    HA635319   7.706   8.319   5.009  0.1601  2.0451 -1.3716
18070THY      O35320   3.420   7.490   3.492  0.3143 -0.0333 -0.1413
18070THY     HO35321   3.515   7.497   3.475  0.0368 -1.0856  1.5042
18070THY    CA135322   3.349   7.561   3.394 -0.3926  0.2438  0.2693
18070THY    CA235323   3.213   7.572   3.414  0.3378  0.0033  0.4245
18070THY    CP135324   3.138   7.517   3.529  0.2090  0.0001 -0.4938
18070THY    HP135325   3.205   7.461   3.595 -2.8135  1.7901 -2.1947
18070THY    CP235326   3.030   7.420   3.478  0.8132 -0.6400 -0.0192
18070THY    HP235327   3.081   7.345   3.416 -1.8637 -0.2996 -2.2695
18070THY    HP335328   2.961   7.467   3.407 -0.5739  1.7927  1.8092
18070THY    HP435329   2.982   7.362   3.557  0.3367 -1.9411 -1.4666
18070THY    CP335330   3.071   7.622   3.616  0.6261  0.5332  0.0835
18070THY    HP535331   3.060   7.575   3.714 -0.1741 -0.3035 -1.5637
18070THY    HP635332   2.979   7.660   3.571 -0.9450  1.7260 -2.1284
18070THY    HP735333   3.153   7.694   3.631 -0.0079  0.8757  0.7403
18070THY    CA335334   3.146   7.644   3.310 -0.2495 -0.4522  0.5897
18070THY    HA335335   3.039   7.659   3.322 -0.3892 -1.7415  0.6866
18070THY    CA435336   3.208   7.675   3.186  0.2857 -0.1064 -0.4796
18070THY    HA435337   3.156   7.727   3.106 -1.9778  1.6505  0.1179
18070THY    CA535338   3.340   7.642   3.171 -0.7016  0.0204  0.3267
18070THY    CM135339   3.421   7.663   3.044  0.0200 -0.5208  0.1139
18070THY    HM135340   3.444   7.574   2.984 -2.1047  1.6297 -2.0204
18070THY    HM235341   3.511   7.718   3.075 -0.5290  0.9502  0.2317
18070THY    HM335342   3.371   7.735   2.978 -0.5266 -2.4037 -1.8826
18070THY    CA635343   3.415   7.592   3.277 -0.2512 -0.4171 -0.1184
18070THY    HA635344   3.522   7.580   3.266 -0.1412 -0.7883  1.0925
18071THY      O35345   9.013   0.264   4.588  0.5488 -0.3097  0.4474
18071THY     HO35346   8.957   0.186   4.599 -0.2705  1.2055  1.2026
18071THY    CA135347   9.083   0.264   4.701  0.0014 -0.2186 -0.5182
18071THY    CA235348   9.221   0.308   4.696  0.2341  0.1189  0.4062
18071THY    CP135349   9.279   0.362   4.561  0.4251 -0.1055  0.7724
18071THY    HP135350   9.220   0.328   4.475  0.1650  0.6057 -0.6658
18071THY    CP235351   9.433   0.324   4.536  0.4511  0.6183  0.0061
18071THY    HP235352   9.493   0.390   4.600 -0.6035  1.0751  0.5582
18071THY    HP335353   9.470   0.329   4.434 -0.0235  0.3833 -1.0265
18071THY    HP435354   9.452   0.224   4.575  1.5101 -0.8977 -0.4126
18071THY    CP335355   9.257   0.508   4.554 -0.3585 -0.0674 -0.1827
18071THY    HP535356   9.295   0.551   4.647  0.5176 -0.6469  0.3272
18071THY    HP635357   9.150   0.528   4.543 -0.0358 -3.3758  0.2853
18071THY    HP735358   9.317   0.550   4.472  0.7855  1.3502  1.1099
18071THY    CA335359   9.291   0.320   4.820 -0.9405 -0.2308 -0.1824
18071THY    HA335360   9.397   0.341   4.823 -0.2495  1.4010 -3.3239
18071THY    CA435361   9.227   0.278   4.939  0.5293 -0.4005 -0.6729
18071THY    HA435362   9.273   0.279   5.037 -2.8177  1.3439  0.2281
18071THY    CA535363   9.091   0.243   4.941 -0.6315 -0.2639 -0.7431
18071THY    CM135364   9.026   0.199   5.063  0.8440  0.3830 -0.2322
18071THY    HM135365   8.918   0.209   5.043  0.8614 -0.1882 -1.1007
18071THY    HM235366   9.047   0.277   5.138 -0.5844  0.0400  0.5186
18071THY    HM335367   9.039   0.094   5.090 -0.8954 -1.4633 -0.9821
18071THY    CA635368   9.024   0.236   4.821  0.3260 -0.6430  1.3295
18071THY    HA635369   8.919   0.206   4.817 -0.3057  2.1271  2.8361
18072THY      O35370   6.769   7.815   6.908  0.1795 -0.1490 -0.3518
18072THY     HO35371   6.789   7.768   6.990  1.8609 -0.4640 -0.2526
18072THY    CA135372   6.838   7.749   6.806  0.1576 -0.0225  0.1999
18072THY    CA235373   6.828   7.777   6.673 -0.7721 -0.5776 -0.3107
18072THY    CP135374   6.745   7.908   6.629 -0.4961  0.5044 -0.3565
18072THY    HP135375   6.730   7.979   6.711 -0.9115 -1.3122  1.7798
18072THY    CP235376   6.615   7.872   6.556 -0.2514 -0.2193 -0.2379
18072THY    HP235377   6.621   7.794   6.478 -0.2807 -0.4315 -0.0308
18072THY    HP335378   6.576   7.961   6.506 -1.2269  0.3723 -0.3223
18072THY    HP435379   6.541   7.846   6.632  1.4753  0.6154 -3.1902
18072THY    CP335380   6.844   7.980   6.529  0.4167 -0.6952  0.5163
18072THY    HP535381   6.813   8.085   6.526 -1.3549 -0.7773  0.0153
18072THY    HP635382   6.838   7.936   6.429  0.6153 -0.3609 -0.2765
18072THY    HP735383   6.947   7.978   6.568  0.0742  0.2053 -1.0507
18072THY    CA335384   6.900   7.701   6.580  0.1642  0.2217  0.1129
18072THY    HA335385   6.889   7.722   6.474 -1.8596  0.1200 -1.2579
18072THY    CA435386   6.981   7.595   6.623 -0.4195 -0.4507  0.0850
18072THY    HA435387   7.019   7.524   6.550 -0.3466  0.0222 -0.3709
18072THY    CA535388   6.995   7.572   6.761  0.7692  1.5350  0.7277
18072THY    CM135389   7.091   7.467   6.817  0.3294  0.0538 -0.8376
18072THY    HM135390   7.088   7.466   6.926  1.2523  0.1324  0.8116
18072THY    HM235391   7.196   7.476   6.787  0.3388 -1.0672 -3.7288
18072THY    HM335392   7.069   7.366   6.781 -0.3309 -1.0754 -0.3189
18072THY    CA635393   6.923   7.651   6.851  0.4506  0.3427  0.0249
18072THY    HA635394   6.932   7.652   6.959 -1.3671  0.5393  1.4171
18073THY      O35395   6.356   8.695   4.401 -0.2770 -0.2984  0.4164
18073THY     HO35396   6.428   8.642   4.439  1.3796 -3.0618  0.5032
18073THY    CA135397   6.403   8.819   4.437 -0.3498  0.0005  0.5240
18073THY    CA235398   6.320   8.925   4.440  0.1924  0.7213 -1.2920
18073THY    CP135399   6.169   8.910   4.410 -0.3325 -0.3864  0.2167
18073THY    HP135400   6.127   8.809   4.398 -3.8947  1.9629  1.2739
18073THY    CP235401   6.140   8.972   4.274  0.2734  0.6838 -0.2163
18073THY    HP235402   6.165   9.079   4.275  1.5630  0.3939 -0.4872
18073THY    HP335403   6.036   8.959   4.245 -0.2101  2.4708 -0.6044
18073THY    HP435404   6.202   8.938   4.190 -1.5551 -0.7911 -0.0001
18073THY    CP335405   6.094   8.968   4.527 -1.0756 -0.1058  0.2568
18073THY    HP535406   6.120   8.918   4.620  0.4188 -0.0426  1.0855
18073THY    HP635407   5.985   8.963   4.517 -1.2769  0.2234  2.6365
18073THY    HP735408   6.122   9.074   4.527 -0.1246 -2.4739  0.0892
18073THY    CA335409   6.370   9.057   4.469 -0.1291  1.0209  0.9446
18073THY    HA335410   6.301   9.141   4.465 -2.3220 -0.1718 -0.8150
18073THY    CA435411   6.511   9.073   4.501  0.1539 -0.3662 -0.2925
18073THY    HA435412   6.550   9.173   4.512  0.3553  0.1865 -0.4265
18073THY    CA535413   6.589   8.954   4.503  0.3018  0.1012 -0.7403
18073THY    CM135414   6.739   8.970   4.527 -0.0501 -0.5150  0.2570
18073THY    HM135415   6.786   9.025   4.445  0.6960 -0.0978  0.2440
18073THY    HM235416   6.792   8.875   4.540 -0.3498  1.2817  0.3097
18073THY    HM335417   6.766   9.023   4.619 -2.2163  0.5647 -0.3683
18073THY    CA635418   6.538   8.829   4.469  0.1179 -0.1220 -0.2806
18073THY    HA635419   6.606   8.745   4.476 -0.6052 -2.7048 -1.1869
18074THY      O35420   2.110   3.286   3.607 -0.0125 -0.1757  0.2109
18074THY     HO35421   2.154   3.372   3.596 -1.0583  1.1698  0.9687
18074THY    CA135422   2.205   3.189   3.592 -0.4021 -0.0628  0.3882
18074THY    CA235423   2.183   3.051   3.565  0.0132  0.2054 -0.7113
18074THY    CP135424   2.042   3.003   3.537  0.1261 -0.0987  0.3316
18074THY    HP135425   1.974   3.084   3.565  0.8174 -1.1446  1.3045
18074THY    CP235426   2.002   2.894   3.643 -0.2924  0.1901  0.0660
18074THY    HP235427   2.064   2.805   3.652 -0.9449 -0.4495 -0.4716
18074THY    HP335428   1.893   2.878   3.647 -0.3800 -1.4308  0.0976
18074THY    HP435429   2.033   2.927   3.742 -2.2320  0.7842  0.2286
18074THY    CP335430   2.020   2.971   3.390  0.4168 -0.0957 -0.1222
18074THY    HP535431   2.027   3.061   3.328 -3.1656 -3.0055 -1.6281
18074THY    HP635432   1.916   2.938   3.393  0.7981 -0.1149 -1.3451
18074THY    HP735433   2.088   2.896   3.350 -0.3250 -1.8769  0.1170
18074THY    CA335434   2.289   2.963   3.553 -0.3048  0.0604  0.5974
18074THY    HA335435   2.265   2.861   3.524 -0.1621 -1.6939  1.0318
18074THY    CA435436   2.421   3.002   3.584 -0.2978  0.1697  0.0645
18074THY    HA435437   2.497   2.927   3.567 -2.2351 -0.7730 -1.7900
18074THY    CA535438   2.444   3.136   3.622  0.7687  0.2248  0.5353
18074THY    CM135439   2.581   3.177   3.654  0.0250  0.2597  0.4420
18074THY    HM135440   2.597   3.285   3.662 -0.9049  0.8034  0.5433
18074THY    HM235441   2.648   3.122   3.587 -2.2497  0.2811 -2.6322
18074THY    HM335442   2.615   3.122   3.742 -0.5114 -0.3627 -0.9274
18074THY    CA635443   2.337   3.227   3.628 -0.2338  0.8232 -0.6258
18074THY    HA635444   2.358   3.325   3.670  0.5469 -0.1474 -0.3646
18075THY      O35445   5.608   2.172   4.957 -0.0995  0.4266 -0.4892
18075THY     HO35446   5.676   2.223   5.005  0.2577  0.3332 -0.8685
18075THY    CA135447   5.496   2.171   5.021  0.3236  0.3338 -0.0988
18075THY    CA235448   5.370   2.143   4.961  0.7323 -0.2653  0.1854
18075THY    CP135449   5.366   2.091   4.825 -0.2193 -0.6782  0.2333
18075THY    HP135450   5.447   2.135   4.765  0.5412  1.1108  1.3887
18075THY    CP235451   5.235   2.131   4.742  0.6024 -0.8537 -0.1081
18075THY    HP235452   5.201   2.233   4.759  0.6322 -2.0027  0.1022
18075THY    HP335453   5.150   2.070   4.773 -0.7194 -0.9901  1.6047
18075THY    HP435454   5.254   2.122   4.634 -0.8959 -1.3195  1.7496
18075THY    CP335455   5.383   1.944   4.809  0.9127 -1.0234 -0.0146
18075THY    HP535456   5.289   1.897   4.841 -0.6220 -3.0024  1.5462
18075THY    HP635457   5.480   1.907   4.846 -0.3800  0.4409 -2.1284
18075THY    HP735458   5.372   1.921   4.703 -4.2012 -0.6378 -0.3544
18075THY    CA335459   5.253   2.162   5.035 -1.3192 -0.2743  0.0060
18075THY    HA335460   5.151   2.135   5.013 -2.3071  2.6792  0.8791
18075THY    CA435461   5.260   2.197   5.166  0.6872 -0.8107 -0.8260
18075THY    HA435462   5.164   2.209   5.214  1.5602  0.3353  3.3751
18075THY    CA535463   5.385   2.228   5.224 -0.5698  0.6849  0.5008
18075THY    CM135464   5.393   2.256   5.368  1.0182 -0.3838  0.4534
18075THY    HM135465   5.302   2.311   5.397  0.4848 -0.5334 -0.3351
18075THY    HM235466   5.476   2.321   5.399 -0.6550  2.0107  1.6221
18075THY    HM335467   5.399   2.166   5.430 -0.0447 -0.0314  0.6047
18075THY    CA635468   5.501   2.205   5.155  0.1498  0.2587  0.6340
18075THY    HA635469   5.598   2.208   5.204  0.3687  0.0183 -1.2057
18076THY      O35470   7.285   2.497   3.986 -0.1017  0.1786 -0.1658
18076THY     HO35471   7.233   2.544   4.054 -0.2548 -0.6650  0.9315
18076THY    CA135472   7.298   2.380   4.052  0.1126 -0.0642  0.6693
18076THY    CA235473   7.271   2.260   3.983 -0.2036  0.2077  0.0285
18076THY    CP135474   7.218   2.267   3.842 -0.5892  0.8002  0.2946
18076THY    HP135475   7.250   2.361   3.795 -3.1847 -2.3251 -0.1974
18076THY    CP235476   7.065   2.275   3.851 -0.0229 -0.4921 -1.1390
18076THY    HP235477   7.027   2.373   3.878 -2.3263  3.0953 -2.8301
18076THY    HP335478   7.033   2.209   3.932  0.8540 -0.6600 -1.8081
18076THY    HP435479   7.018   2.243   3.757 -0.0379 -1.0977  0.5542
18076THY    CP335480   7.278   2.156   3.757  0.3099  0.0674 -0.3871
18076THY    HP535481   7.378   2.137   3.795  0.8520 -0.8482  0.5542
18076THY    HP635482   7.279   2.183   3.650  0.4573  0.5709  1.7670
18076THY    HP735483   7.226   2.061   3.777  0.3852 -0.5498 -0.5671
18076THY    CA335484   7.294   2.136   4.051 -0.0556  0.8081 -0.2412
18076THY    HA335485   7.278   2.040   4.002  1.6927  1.4632 -0.9051
18076THY    CA435486   7.335   2.141   4.185  0.6206  0.0750 -0.4839
18076THY    HA435487   7.345   2.048   4.242 -1.4657 -1.3431 -1.6534
18076THY    CA535488   7.344   2.263   4.257  0.3225  0.1075  0.8131
18076THY    CM135489   7.381   2.267   4.402  0.4696 -0.1996  0.1396
18076THY    HM135490   7.425   2.172   4.435 -1.9526 -0.4350 -1.1560
18076THY    HM235491   7.292   2.289   4.463 -0.7394 -1.8833  0.0607
18076THY    HM335492   7.456   2.343   4.425  0.7334  1.7421 -0.6324
18076THY    CA635493   7.328   2.379   4.184  0.0360  0.6150  0.4562
18076THY    HA635494   7.336   2.477   4.230  1.0158 -0.6798  1.0075
18077THY      O35495   4.331   2.694   6.218 -0.6307 -0.4462  0.7713
18077THY     HO35496   4.307   2.789   6.212 -2.1186 -1.5616  0.3629
18077THY    CA135497   4.220   2.620   6.198 -0.0745 -0.0884 -1.4915
18077THY    CA235498   4.217   2.479   6.198 -0.4005  0.1604  0.5479
18077THY    CP135499   4.352   2.402   6.222 -0.4450 -0.3735 -0.3358
18077THY    HP135500   4.441   2.459   6.191 -0.5476 -0.9148 -0.4621
18077THY    CP235501   4.362   2.276   6.134 -0.0472  0.2146 -0.8023
18077THY    HP235502   4.284   2.204   6.163 -1.7458 -1.8158  0.1127
18077THY    HP335503   4.466   2.246   6.151  1.8337 -0.9973  4.0125
18077THY    HP435504   4.357   2.316   6.032  2.7782  0.9418  1.8331
18077THY    CP335505   4.378   2.351   6.366 -0.5883  0.5827 -0.2873
18077THY    HP535506   4.302   2.277   6.393 -0.6825  0.3031 -0.2936
18077THY    HP635507   4.361   2.445   6.420 -2.3583 -0.2844 -0.0620
18077THY    HP735508   4.480   2.312   6.370 -0.6752 -0.9138 -0.7276
18077THY    CA335509   4.096   2.410   6.205  0.9671 -0.0533 -0.6647
18077THY    HA335510   4.090   2.302   6.216  0.6584 -0.0523 -0.6498
18077THY    CA435511   3.973   2.487   6.210  0.7993  0.1830 -0.4560
18077THY    HA435512   3.876   2.439   6.210 -0.0254  0.2855  1.1557
18077THY    CA535513   3.975   2.627   6.197  0.0854  0.3373 -0.1553
18077THY    CM135514   3.853   2.710   6.173  0.7562 -0.6247  0.8317
18077THY    HM135515   3.840   2.736   6.067 -1.4417 -0.9472 -1.1657
18077THY    HM235516   3.852   2.797   6.240  1.2858  2.6337 -1.4911
18077THY    HM335517   3.769   2.642   6.195  0.9884  1.3052  1.1277
18077THY    CA635518   4.100   2.692   6.192 -0.4084 -0.2695  0.0782
18077THY    HA635519   4.104   2.800   6.180  1.7815 -1.1957 -0.0540
18078THY      O35520   1.194   6.965   4.516  0.1069  0.3069  0.2466
18078THY     HO35521   1.174   7.043   4.570 -1.2122  0.5128 -0.1967
18078THY    CA135522   1.171   6.856   4.591  0.1354  0.4497  0.5908
18078THY    CA235523   1.136   6.731   4.525 -0.6437 -0.3286  0.0269
18078THY    CP135524   1.145   6.713   4.372 -0.1064 -0.1940 -0.1037
18078THY    HP135525   1.239   6.760   4.340  0.1575 -0.5791 -0.8896
18078THY    CP235526   1.032   6.791   4.283 -0.5122  0.6345  0.9108
18078THY    HP235527   0.999   6.890   4.315 -0.2361  2.7599  0.3689
18078THY    HP335528   0.941   6.730   4.289  0.3624 -0.1186 -0.5445
18078THY    HP435529   1.055   6.805   4.177 -2.8644  0.1117  1.2365
18078THY    CP335530   1.177   6.572   4.320 -0.2187 -1.1138 -0.1981
18078THY    HP535531   1.263   6.533   4.375 -2.1178  1.2806 -1.2608
18078THY    HP635532   1.183   6.577   4.210  0.1790 -1.1875 -1.6810
18078THY    HP735533   1.091   6.505   4.334 -0.2029 -1.3375 -0.2661
18078THY    CA335534   1.083   6.629   4.610  0.4690 -0.5856  0.2652
18078THY    HA335535   1.038   6.539   4.569 -0.6721  1.9558 -0.4262
18078THY    CA435536   1.083   6.643   4.754 -0.5735 -0.0056 -0.0255
18078THY    HA435537   1.045   6.564   4.818 -2.4668  0.0716  0.9118
18078THY    CA535538   1.112   6.769   4.808 -0.1451  0.5187 -0.0906
18078THY    CM135539   1.101   6.779   4.960 -0.0832 -0.4948 -0.8203
18078THY    HM135540   1.138   6.684   5.001 -1.4417  0.6919 -0.8632
18078THY    HM235541   1.000   6.784   5.002  0.1125  0.0226 -1.1101
18078THY    HM335542   1.151   6.866   5.004 -3.1718 -0.7013  1.2202
18078THY    CA635543   1.155   6.873   4.725  0.6837 -0.4866 -0.3569
18078THY    HA635544   1.170   6.971   4.768  1.5809  0.5980 -0.9441
18079THY      O35545   3.050   6.021   2.066 -0.4659  0.5688  0.1778
18079THY     HO35546   3.051   6.094   2.131 -0.7093 -1.0041  1.6537
18079THY    CA135547   3.160   5.944   2.083  0.2243  0.2759  0.0842
18079THY    CA235548   3.168   5.816   2.033 -0.2145  0.4903  0.2471
18079THY    CP135549   3.059   5.767   1.938  0.0440  0.7207 -0.2891
18079THY    HP135550   2.997   5.850   1.901  3.4480 -1.6929  1.3952
18079THY    CP235551   2.971   5.670   2.020 -0.0453 -0.0533  0.4692
18079THY    HP235552   3.020   5.576   2.049 -1.6017 -0.1192 -0.3934
18079THY    HP335553   2.882   5.643   1.962  0.1372 -0.7634  1.3431
18079THY    HP435554   2.928   5.718   2.108  0.4054 -0.2163  1.1763
18079THY    CP335555   3.112   5.694   1.813  0.0782 -0.3525 -0.2856
18079THY    HP535556   3.163   5.600   1.838  2.1886  0.2369  0.9634
18079THY    HP635557   3.192   5.747   1.761  1.2078  0.6613 -0.9436
18079THY    HP735558   3.039   5.682   1.732 -0.1377  0.0045 -1.5297
18079THY    CA335559   3.268   5.732   2.083  0.1896 -0.5344  0.2981
18079THY    HA335560   3.269   5.625   2.066 -0.2927 -0.0658  0.2138
18079THY    CA435561   3.371   5.787   2.165 -0.6114  1.1010 -0.1410
18079THY    HA435562   3.447   5.716   2.196  0.1486 -1.4155 -0.5250
18079THY    CA535563   3.365   5.912   2.209 -0.7165  0.1042  0.7931
18079THY    CM135564   3.462   5.951   2.310  0.5986 -0.1313  0.1536
18079THY    HM135565   3.401   5.976   2.397  0.2427  0.0097 -1.1123
18079THY    HM235566   3.510   6.043   2.275 -2.0322 -2.8937  0.6480
18079THY    HM335567   3.534   5.876   2.344  3.2515 -0.8402  2.2138
18079THY    CA635568   3.261   5.993   2.172  0.2456  0.3461 -0.8564
18079THY    HA635569   3.266   6.094   2.213 -0.6914 -0.4813 -0.4596
18080THY      O35570   3.813   6.078   3.244 -0.4796  0.1945  0.5730
18080THY     HO35571   3.870   6.143   3.200 -0.2595 -1.6066 -0.7437
18080THY    CA135572   3.692   6.082   3.181  0.5618 -0.4153  0.2019
18080THY    CA235573   3.640   5.965   3.125 -0.6562  0.4573  0.3288
18080THY    CP135574   3.722   5.827   3.135 -0.1093 -0.1814 -0.4916
18080THY    HP135575   3.817   5.840   3.188  0.8929 -1.6175 -1.6326
18080THY    CP235576   3.762   5.781   2.990  0.3855 -0.0013 -0.2209
18080THY    HP235577   3.675   5.781   2.923  0.4752 -0.1193 -0.7711
18080THY    HP335578   3.813   5.684   2.993 -0.3101 -1.7962 -0.6878
18080THY    HP435579   3.823   5.863   2.950  2.2750  0.7309 -1.2123
18080THY    CP335580   3.636   5.717   3.203  0.0067  0.8143  0.5865
18080THY    HP535581   3.544   5.683   3.155  0.1150 -0.0274  1.4377
18080THY    HP635582   3.628   5.737   3.311  0.0270  0.5736  2.0235
18080THY    HP735583   3.685   5.619   3.201  0.1030  2.9680  0.5447
18080THY    CA335584   3.513   5.966   3.072 -0.1749 -0.0758  0.5937
18080THY    HA335585   3.468   5.875   3.034  1.4658  0.3535 -0.4452
18080THY    CA435586   3.448   6.094   3.063  0.3687  0.2913  0.3082
18080THY    HA435587   3.349   6.101   3.019 -0.3787  1.8575  0.0622
18080THY    CA535588   3.509   6.210   3.112  0.2029  0.1931  0.5808
18080THY    CM135589   3.448   6.342   3.095 -0.6351  0.3394 -0.1428
18080THY    HM135590   3.387   6.367   3.182  1.1938  1.0428  2.2173
18080THY    HM235591   3.386   6.330   3.005 -2.1944  1.2719  0.5294
18080THY    HM335592   3.526   6.415   3.071 -0.2677  2.6738  0.3035
18080THY    CA635593   3.628   6.206   3.173 -0.0577  0.2360  0.1671
18080THY    HA635594   3.670   6.294   3.221  1.4896 -0.7489  0.0117
18081THY      O35595   7.902   1.223   3.291  0.0152 -0.4006  0.5031
18081THY     HO35596   7.990   1.246   3.256 -0.2066 -0.7752  0.7937
18081THY    CA135597   7.839   1.340   3.279  0.2234  0.6510 -0.2506
18081THY    CA235598   7.694   1.350   3.268 -0.2110 -0.3446 -1.2609
18081THY    CP135599   7.608   1.218   3.248 -0.0776 -0.5969 -0.3606
18081THY    HP135600   7.654   1.128   3.290 -1.1415  3.3643  0.7685
18081THY    CP235601   7.575   1.211   3.100  0.6685 -0.1567  0.4748
18081THY    HP235602   7.558   1.312   3.062  0.1414 -0.1420  0.3967
18081THY    HP335603   7.487   1.149   3.078  1.0030 -1.6692  0.4951
18081THY    HP435604   7.660   1.174   3.041  1.4348  0.9336  0.4430
18081THY    CP335605   7.476   1.216   3.330 -0.0138 -0.3355  0.6901
18081THY    HP535606   7.418   1.123   3.319  0.8988  0.9179 -0.0550
18081THY    HP635607   7.413   1.297   3.290 -0.0619  1.3423  1.5203
18081THY    HP735608   7.514   1.211   3.433  2.0990 -1.1092 -0.8363
18081THY    CA335609   7.633   1.481   3.258 -0.2000  0.0390 -0.2414
18081THY    HA335610   7.525   1.490   3.250 -0.0047 -1.0084  2.0008
18081THY    CA435611   7.724   1.590   3.245  0.3154  0.6493 -0.1990
18081THY    HA435612   7.670   1.684   3.250  1.6177  0.3165  0.5936
18081THY    CA535613   7.860   1.583   3.250 -0.1454 -0.0307 -0.4032
18081THY    CM135614   7.950   1.713   3.245  0.2861 -0.0282  0.4125
18081THY    HM135615   7.938   1.773   3.155  0.4886 -0.1718  0.2410
18081THY    HM235616   8.056   1.682   3.250 -0.5560  2.3514 -2.6522
18081THY    HM335617   7.933   1.772   3.336 -1.9623  1.1787 -1.8889
18081THY    CA635618   7.916   1.458   3.261  0.6801 -0.6312 -0.0734
18081THY    HA635619   8.024   1.452   3.265  0.8167 -1.2918  1.5141
18082THY      O35620   5.921   7.273   2.581 -0.2294 -0.4680 -0.8462
18082THY     HO35621   5.926   7.363   2.618  0.3727 -2.5959  0.0701
18082THY    CA135622   5.796   7.222   2.608  0.6507 -0.1285  1.0857
18082THY    CA235623   5.755   7.091   2.571  0.4862  0.2326 -0.0681
18082THY    CP135624   5.849   7.009   2.480 -0.3116  0.1030 -0.5923
18082THY    HP135625   5.948   7.055   2.473 -0.8464 -3.1770  0.3524
18082THY    CP235626   5.789   7.006   2.339 -0.1356  0.2840 -0.1803
18082THY    HP235627   5.684   6.974   2.343 -0.3698  0.3274  0.5742
18082THY    HP335628   5.853   6.943   2.277 -1.2395 -1.8730  0.7465
18082THY    HP435629   5.798   7.108   2.302  1.7061  0.1137 -0.3764
18082THY    CP335630   5.859   6.867   2.528 -0.2868 -0.0880 -0.8549
18082THY    HP535631   5.760   6.820   2.524 -0.1839  0.0247 -1.0838
18082THY    HP635632   5.890   6.857   2.632  0.8242 -0.5072 -2.0462
18082THY    HP735633   5.925   6.799   2.472 -0.1143 -0.2223 -0.5814
18082THY    CA335634   5.629   7.042   2.617 -0.3731 -0.0424 -0.2643
18082THY    HA335635   5.594   6.945   2.582  1.4004 -1.8470 -0.3268
18082THY    CA435636   5.546   7.130   2.690 -0.2484 -0.7294 -0.4261
18082THY    HA435637   5.447   7.095   2.718  0.1280  0.8233 -0.3317
18082THY    CA535638   5.587   7.256   2.730 -0.4364  0.4278  0.7614
18082THY    CM135639   5.493   7.341   2.799  0.2157  0.4416  1.0621
18082THY    HM135640   5.456   7.289   2.888 -1.7223 -0.5314  0.6632
18082THY    HM235641   5.418   7.367   2.724  0.1210  0.6292  1.3435
18082THY    HM335642   5.544   7.431   2.835  2.7739  0.0977 -0.1606
18082THY    CA635643   5.716   7.297   2.689 -0.2270 -0.1812 -0.4618
18082THY    HA635644   5.752   7.398   2.707 -2.8899  0.6444  0.4191
18083THY      O35645   1.970   5.930   3.256 -0.1599  0.3569  0.6975
18083THY     HO35646   2.009   6.014   3.224 -0.9099  0.2994  1.0347
18083THY    CA135647   1.843   5.955   3.289  0.8009 -0.5726  0.3618
18083THY    CA235648   1.762   5.857   3.348  0.7187  0.6531  0.1611
18083THY    CP135649   1.818   5.725   3.391  0.6401  0.7679  0.3166
18083THY    HP135650   1.927   5.719   3.380  0.6505  1.3337 -0.8267
18083THY    CP235651   1.753   5.610   3.305  0.2535  0.1019 -0.2468
18083THY    HP235652   1.741   5.645   3.202 -1.1703  1.0542  2.4145
18083THY    HP335653   1.650   5.590   3.337  0.7438  0.6083 -2.1204
18083THY    HP435654   1.817   5.525   3.328 -0.0835  1.3995 -0.1822
18083THY    CP335655   1.790   5.709   3.537  0.2961 -0.0087 -0.5097
18083THY    HP535656   1.683   5.703   3.563  0.5130  1.3847  0.9301
18083THY    HP635657   1.840   5.785   3.598  2.9141 -2.2016 -0.3369
18083THY    HP735658   1.829   5.612   3.572 -0.6326 -0.3425 -1.0126
18083THY    CA335659   1.628   5.886   3.367  0.3121  0.1831 -0.3413
18083THY    HA335660   1.563   5.810   3.409  1.1950 -1.2573 -1.9547
18083THY    CA435661   1.572   6.012   3.337 -0.7828 -0.9931  0.1642
18083THY    HA435662   1.468   6.034   3.362 -1.2098 -1.7278 -0.8975
18083THY    CA535663   1.649   6.104   3.282 -0.3834 -0.4597 -0.3589
18083THY    CM135664   1.599   6.237   3.244  0.9657 -0.0410 -0.3688
18083THY    HM135665   1.565   6.300   3.327 -0.9510 -1.0782  0.0486
18083THY    HM235666   1.516   6.228   3.173  0.4356  0.4344  0.5704
18083THY    HM335667   1.683   6.291   3.199 -0.1485 -1.0843  0.5629
18083THY    CA635668   1.784   6.076   3.249  0.0446 -0.1146  0.0143
18083THY    HA635669   1.845   6.157   3.209 -1.3367 -2.7698 -0.1383
18084THY      O35670   4.571   3.373   4.309 -0.1709  0.2001  0.1894
18084THY     HO35671   4.638   3.363   4.240 -0.1157  0.1111  1.1426
18084THY    CA135672   4.458   3.417   4.247  0.3421 -0.3783  0.5649
18084THY    CA235673   4.353   3.470   4.320  0.6261  0.1104 -0.8991
18084THY    CP135674   4.361   3.490   4.477  0.2298  0.0600  0.2446
18084THY    HP135675   4.461   3.465   4.514  0.2920 -0.8188 -0.8932
18084THY    CP235676   4.260   3.396   4.557 -0.2962 -0.2913  0.2115
18084THY    HP235677   4.159   3.433   4.535 -0.7296 -2.0275 -1.8466
18084THY    HP335678   4.285   3.391   4.663  1.9393 -0.8297 -1.3464
18084THY    HP435679   4.249   3.294   4.519 -2.5063 -0.9208  0.6297
18084THY    CP335680   4.333   3.633   4.517  0.2471  0.1978  0.4502
18084THY    HP535681   4.371   3.649   4.618  0.3296  0.4905 -1.4224
18084THY    HP635682   4.225   3.653   4.509  0.1328 -3.2980 -0.8670
18084THY    HP735683   4.393   3.701   4.455 -0.6470 -1.3280 -0.0860
18084THY    CA335684   4.249   3.528   4.243  0.1884  0.1214  0.2617
18084THY    HA335685   4.174   3.583   4.298 -0.9438 -2.3677  1.3599
18084THY    CA435686   4.244   3.498   4.106 -0.8416 -0.5369 -0.2287
18084THY    HA435687   4.173   3.543   4.038  0.3501 -0.8760  1.2053
18084THY    CA535688   4.342   3.430   4.044 -0.1064  0.5519  0.3301
18084THY    CM135689   4.344   3.422   3.894 -0.1293 -0.4076  0.0317
18084THY    HM135690   4.402   3.335   3.860  1.0015 -0.3641  0.7532
18084THY    HM235691   4.394   3.507   3.847 -1.0834 -3.9980 -1.2159
18084THY    HM335692   4.241   3.406   3.859 -0.2093  1.0591 -3.8235
18084THY    CA635693   4.452   3.383   4.115  0.1915 -0.0188 -0.3253
18084THY    HA635694   4.533   3.338   4.058 -2.1193 -1.4977 -2.9295
18085THY      O35695   7.247   6.094   5.602 -1.1813 -0.5245 -0.4100
18085THY     HO35696   7.221   6.181   5.567  1.3476  0.7606  0.9681
18085THY    CA135697   7.253   6.118   5.737  0.9290  0.4010 -0.3137
18085THY    CA235698   7.253   6.011   5.825 -0.4290 -0.3845  0.0418
18085THY    CP135699   7.297   5.878   5.773 -0.3875  0.5034 -0.1102
18085THY    HP135700   7.283   5.868   5.665  0.1942  0.1476  2.1670
18085THY    CP235701   7.230   5.755   5.827 -0.3242 -0.4033  0.2164
18085THY    HP235702   7.124   5.757   5.797 -0.5561  0.3486 -0.1979
18085THY    HP335703   7.231   5.735   5.935  1.0218 -0.9584 -3.4943
18085THY    HP435704   7.279   5.667   5.784 -0.1662 -0.1129  0.1595
18085THY    CP335705   7.457   5.868   5.783  0.0359  0.5168 -0.3899
18085THY    HP535706   7.498   5.794   5.713  0.6971  0.3633  0.1111
18085THY    HP635707   7.484   5.847   5.887 -1.8127  1.8603  3.0175
18085THY    HP735708   7.504   5.963   5.756 -0.4714 -0.9809 -0.5386
18085THY    CA335709   7.249   6.038   5.965 -0.3453 -0.3470  0.3197
18085THY    HA335710   7.249   5.955   6.035  0.0856  1.5159  1.8273
18085THY    CA435711   7.235   6.170   6.013 -0.7382  0.2764  0.2443
18085THY    HA435712   7.238   6.186   6.121 -1.1028  0.1714  1.0767
18085THY    CA535713   7.226   6.274   5.923 -0.1861 -0.5271 -0.1267
18085THY    CM135714   7.190   6.411   5.974  0.8519 -0.1305  0.1343
18085THY    HM135715   7.081   6.421   5.975  0.9613 -0.6937  1.5514
18085THY    HM235716   7.234   6.478   5.899  1.6266 -1.3810 -1.6771
18085THY    HM335717   7.236   6.442   6.068  1.3679 -0.5719  0.7425
18085THY    CA635718   7.245   6.250   5.784  0.5555  0.7286 -0.2592
18085THY    HA635719   7.247   6.326   5.707  1.5852 -1.2568 -2.1898
18086THY      O35720   8.099   0.897   6.170  0.1021 -0.4286  0.7720
18086THY     HO35721   8.178   0.902   6.113  1.0740  0.2583 -3.2963
18086THY    CA135722   8.135   0.956   6.283  0.3081  0.1349  0.5456
18086THY    CA235723   8.102   0.902   6.411  1.0426 -0.1831 -0.2231
18086THY    CP135724   8.035   0.768   6.419 -0.4512  0.6025 -0.3801
18086THY    HP135725   8.046   0.724   6.320 -0.0249 -1.0856  3.1463
18086THY    CP235726   7.884   0.764   6.433  0.0561  0.1019  0.0377
18086THY    HP235727   7.835   0.675   6.393  0.2824 -0.4940  0.1780
18086THY    HP335728   7.833   0.850   6.390 -1.5554  1.4979 -0.1610
18086THY    HP435729   7.846   0.783   6.535 -2.3017 -0.7337  0.1552
18086THY    CP335730   8.105   0.667   6.514 -0.2045 -0.5729  0.4297
18086THY    HP535731   8.098   0.563   6.482 -4.0090 -2.4421  1.1055
18086THY    HP635732   8.064   0.664   6.615  1.6083  0.2012  0.0817
18086THY    HP735733   8.214   0.675   6.521 -0.3730  1.5760  1.4560
18086THY    CA335734   8.135   0.976   6.530 -0.1053  0.0255 -0.7289
18086THY    HA335735   8.098   0.944   6.627  1.6849  0.6525 -0.9852
18086THY    CA435736   8.225   1.087   6.511  0.2046 -0.1776  0.1902
18086THY    HA435737   8.258   1.150   6.593 -1.6678 -0.7147  1.9873
18086THY    CA535738   8.252   1.140   6.384 -0.4827 -0.2017  0.4097
18086THY    CM135739   8.340   1.265   6.365 -0.4255  1.0177 -0.2746
18086THY    HM135740   8.266   1.332   6.319 -1.1919  0.7710 -1.2616
18086THY    HM235741   8.424   1.255   6.296  0.4832  2.1322 -0.5622
18086THY    HM335742   8.370   1.307   6.462  0.0827  0.5324  0.4900
18086THY    CA635743   8.214   1.065   6.276  0.3438  1.0851 -0.5558
18086THY    HA635744   8.249   1.101   6.179  0.2801  0.8963 -0.9977
18087THY      O35745   8.029   2.377   7.245 -0.1782 -0.2315  0.1770
18087THY     HO35746   8.099   2.405   7.183  2.1588  2.5993  1.0983
18087THY    CA135747   8.082   2.281   7.323 -0.4451 -0.1185  0.1296
18087THY    CA235748   8.018   2.230   7.440 -0.4612  0.7564 -0.9863
18087THY    CP135749   7.883   2.288   7.479  0.3282 -0.3636  0.0667
18087THY    HP135750   7.859   2.374   7.416  1.0234 -1.0397 -0.2288
18087THY    CP235751   7.889   2.355   7.622  0.1817 -0.1339 -0.1759
18087THY    HP235752   7.949   2.293   7.689  0.0661  1.2095  1.1160
18087THY    HP335753   7.789   2.366   7.666  0.9944  1.4893  1.1139
18087THY    HP435754   7.941   2.452   7.617 -0.7570 -1.4042  0.2994
18087THY    CP335755   7.761   2.182   7.469 -0.1770 -0.2646 -1.0974
18087THY    HP535756   7.661   2.222   7.489 -0.0516 -0.6393 -0.5948
18087THY    HP635757   7.776   2.109   7.550 -0.8985 -0.2117 -1.1923
18087THY    HP735758   7.749   2.145   7.366 -1.9824 -0.3020 -0.5194
18087THY    CA335759   8.090   2.127   7.518 -0.2856 -0.1239  0.1668
18087THY    HA335760   8.032   2.080   7.597  0.3072 -0.2606 -0.8070
18087THY    CA435761   8.220   2.086   7.487 -0.2320  0.2883  0.6460
18087THY    HA435762   8.271   2.013   7.549  1.4194 -0.0139  1.4903
18087THY    CA535763   8.283   2.151   7.382  0.5522  0.4627 -0.4755
18087THY    CM135764   8.428   2.121   7.340 -0.4719  0.2954 -0.5160
18087THY    HM135765   8.458   2.200   7.271 -2.8552 -0.1905  0.0609
18087THY    HM235766   8.435   2.030   7.280 -0.8528 -1.5497  0.6111
18087THY    HM335767   8.498   2.111   7.423 -0.6305  0.4212 -0.5978
18087THY    CA635768   8.215   2.245   7.295 -0.2160 -0.1261 -0.3326
18087THY    HA635769   8.271   2.296   7.217 -0.1977 -0.3536 -0.6958
18088THY      O35770   4.960   7.106   4.547  0.2951  0.1191  0.1934
18088THY     HO35771   4.875   7.153   4.551 -0.1913  2.0063 -0.7816
18088THY    CA135772   5.012   7.155   4.428  0.7053 -0.7790  0.2075
18088THY    CA235773   5.144   7.139   4.399 -0.7758 -0.1911  0.0505
18088THY    CP135774   5.245   7.067   4.484 -0.0593 -0.2466  0.0726
18088THY    HP135775   5.197   7.021   4.571 -3.6174 -1.1728  1.7014
18088THY    CP235776   5.355   7.179   4.512  0.0003  0.4727  0.9717
18088THY    HP235777   5.309   7.278   4.515 -2.0812  0.7794  0.0594
18088THY    HP335778   5.442   7.183   4.446  0.4107  1.0858  4.2252
18088THY    HP435779   5.397   7.148   4.609 -1.3890  0.4035 -1.4121
18088THY    CP335780   5.294   6.946   4.397 -0.2551 -0.2686 -0.3213
18088THY    HP535781   5.374   6.905   4.459 -0.0974 -1.1046 -1.3245
18088THY    HP635782   5.330   6.974   4.297 -0.5485 -0.2443  0.1616
18088THY    HP735783   5.206   6.881   4.397 -1.6381 -0.4902  1.4460
18088THY    CA335784   5.202   7.202   4.282  0.2402  0.1423  0.3556
18088THY    HA335785   5.307   7.201   4.252  0.3528  0.2238 -2.9780
18088THY    CA435786   5.114   7.269   4.191  0.0972 -0.4926 -0.8120
18088THY    HA435787   5.148   7.321   4.102 -2.7469 -0.0771  2.1457
18088THY    CA535788   4.976   7.283   4.224  0.0098 -0.8193 -0.1614
18088THY    CM135789   4.887   7.369   4.144 -0.2861 -0.7553  0.4169
18088THY    HM135790   4.781   7.359   4.172 -0.3208 -1.1007 -0.2287
18088THY    HM235791   4.910   7.348   4.039 -0.0308 -0.6578  0.2044
18088THY    HM335792   4.916   7.473   4.162 -3.2747  1.0895  1.0625
18088THY    CA635793   4.925   7.220   4.338 -0.0399  0.4349 -0.1320
18088THY    HA635794   4.819   7.224   4.361  0.3908  2.4962  1.6651
18089THY      O35795   1.893   8.418   2.396 -0.1800  0.5019 -0.6676
18089THY     HO35796   1.975   8.458   2.363 -0.4979 -0.1791 -0.5656
18089THY    CA135797   1.800   8.438   2.314  0.7218  0.1921 -0.1520
18089THY    CA235798   1.667   8.460   2.357 -0.2901 -0.2219 -0.1731
18089THY    CP135799   1.631   8.424   2.497  0.5097 -1.0423  0.0026
18089THY    HP135800   1.701   8.349   2.536 -0.5361  0.6411 -0.1524
18089THY    CP235801   1.506   8.342   2.503  0.6173 -0.2564  0.2143
18089THY    HP235802   1.423   8.413   2.502  2.0110  0.6466  1.9354
18089THY    HP335803   1.502   8.295   2.602  2.1579  0.0908  0.7835
18089THY    HP435804   1.487   8.269   2.423 -0.3546  0.2496 -0.1127
18089THY    CP335805   1.616   8.548   2.581  0.4006  0.4222 -0.5684
18089THY    HP535806   1.700   8.617   2.569 -0.9586 -0.4344  1.0182
18089THY    HP635807   1.590   8.529   2.686 -1.6063 -0.0701 -0.7988
18089THY    HP735808   1.532   8.607   2.543  0.5459 -0.6380 -1.0314
18089THY    CA335809   1.572   8.512   2.264  0.9619 -0.0294  0.5205
18089THY    HA335810   1.470   8.533   2.294  1.0724  2.2080 -1.6516
18089THY    CA435811   1.605   8.527   2.131 -1.2964  0.6639  0.1503
18089THY    HA435812   1.528   8.558   2.061 -3.2172  1.5647 -2.2705
18089THY    CA535813   1.737   8.504   2.086  0.2237  0.0560  1.1209
18089THY    CM135814   1.787   8.531   1.939  0.0309 -0.1557  0.4527
18089THY    HM135815   1.710   8.487   1.875  2.3569 -2.3805 -0.6040
18089THY    HM235816   1.884   8.488   1.915 -0.2330 -1.9954  0.7962
18089THY    HM335817   1.786   8.639   1.922 -1.8799 -1.2808  0.2992
18089THY    CA635818   1.833   8.461   2.183 -0.9686  0.4892  0.3521
18089THY    HA635819   1.932   8.435   2.145 -1.2438  0.2860 -0.4323
18090THY      O35820   3.242   4.062   6.954 -0.0765  0.2837  0.5208
18090THY     HO35821   3.210   4.094   6.868  1.2874  0.0319  1.2996
18090THY    CA135822   3.291   4.170   7.005  0.6537 -0.0534  0.0572
18090THY    CA235823   3.299   4.180   7.152  0.5892 -0.0542 -0.1296
18090THY    CP135824   3.270   4.063   7.239  0.7064  0.1050  0.0759
18090THY    HP135825   3.208   3.990   7.186 -0.0213  0.3513  0.5034
18090THY    CP235826   3.196   4.092   7.372  0.4508  0.9222  0.2199
18090THY    HP235827   3.239   4.179   7.424  0.7076 -2.0514  1.9950
18090THY    HP335828   3.200   4.014   7.449 -0.9287 -0.4314 -1.2602
18090THY    HP435829   3.092   4.120   7.351  1.4335  0.4010  4.0851
18090THY    CP335830   3.397   3.984   7.273 -0.0326 -0.0307 -0.1510
18090THY    HP535831   3.447   4.024   7.362 -1.6026  1.8661 -2.1599
18090THY    HP635832   3.456   3.994   7.181 -0.7194 -0.3922  0.7249
18090THY    HP735833   3.361   3.882   7.289 -0.8099 -2.1073 -0.2529
18090THY    CA335834   3.328   4.313   7.209  0.5219  0.1897  0.0900
18090THY    HA335835   3.321   4.329   7.317 -1.4815  0.5336 -2.4709
18090THY    CA435836   3.340   4.425   7.125 -0.0808  0.0235  0.6350
18090THY    HA435837   3.358   4.525   7.165  1.7476  1.0573 -0.0737
18090THY    CA535838   3.338   4.411   6.982 -0.1285 -1.0149 -0.6439
18090THY    CM135839   3.344   4.540   6.900  0.3865  0.3130 -0.1481
18090THY    HM135840   3.446   4.578   6.903  0.5951  2.1574 -0.7493
18090THY    HM235841   3.291   4.617   6.956  1.9934  1.2863  0.2903
18090THY    HM335842   3.296   4.521   6.803 -1.4763  0.9766  0.8964
18090THY    CA635843   3.307   4.289   6.926  0.2622 -0.5919  0.8599
18090THY    HA635844   3.293   4.286   6.818  2.6089 -1.1203  3.5094
18091THY      O35845   7.870   2.497   5.774 -0.7712  0.0435  0.0242
18091THY     HO35846   7.800   2.564   5.772  1.7168  2.4692  2.9337
18091THY    CA135847   7.826   2.388   5.706  0.1580 -0.6465 -0.6374
18091THY    CA235848   7.923   2.293   5.671 -0.0157 -0.2595  0.0298
18091THY    CP135849   8.066   2.303   5.720 -0.6167 -0.0446 -0.3692
18091THY    HP135850   8.074   2.351   5.817 -2.0106 -0.2629  0.3345
18091THY    CP235851   8.145   2.365   5.601 -0.3920  0.5325  0.0898
18091THY    HP235852   8.098   2.457   5.563 -1.9704  1.7552 -0.1586
18091THY    HP335853   8.142   2.287   5.524  1.0283  1.3147 -0.7585
18091THY    HP435854   8.249   2.388   5.627  0.0547 -0.4048 -0.8099
18091THY    CP335855   8.129   2.163   5.740  1.1579 -0.5745 -0.5078
18091THY    HP535856   8.057   2.110   5.803 -0.0026 -1.0813  0.4095
18091THY    HP635857   8.217   2.172   5.805  1.3810 -1.0101  0.6778
18091THY    HP735858   8.149   2.108   5.647  0.3279 -2.2759  1.8803
18091THY    CA335859   7.876   2.183   5.597  0.5749  0.0396  1.3838
18091THY    HA335860   7.944   2.109   5.557  0.6004  0.4675  1.1690
18091THY    CA435861   7.739   2.185   5.556 -0.0725  0.0431  0.4687
18091THY    HA435862   7.718   2.096   5.496 -0.1696  0.1826  0.3964
18091THY    CA535863   7.651   2.279   5.593  1.0512 -0.0308 -0.2856
18091THY    CM135864   7.502   2.268   5.549  0.8751 -0.8931  0.2185
18091THY    HM135865   7.476   2.167   5.517  1.1264 -0.2670 -0.0516
18091THY    HM235866   7.490   2.346   5.473  0.1207  0.7839  1.8278
18091THY    HM335867   7.445   2.302   5.636 -1.5997 -2.5125  0.4403
18091THY    CA635868   7.694   2.383   5.678 -0.0813 -0.3531  0.1113
18091THY    HA635869   7.617   2.456   5.701 -1.7425  0.5570 -1.8496
18092THY      O35870   5.858   8.270   1.818 -0.1604  0.2698  0.3886
18092THY     HO35871   5.794   8.230   1.757  1.6295 -1.0042 -0.6554
18092THY    CA135872   5.803   8.373   1.886  0.9256  0.2430  0.4536
18092THY    CA235873   5.895   8.472   1.934 -0.1253  0.1867 -0.5636
18092THY    CP135874   6.041   8.486   1.883 -0.5356 -0.4226 -0.2294
18092THY    HP135875   6.042   8.478   1.774 -0.4837 -0.5045  0.7833
18092THY    CP235876   6.132   8.384   1.942  0.1310  0.6974  0.0575
18092THY    HP235877   6.086   8.285   1.952 -0.8953  1.3021  0.5697
18092THY    HP335878   6.155   8.406   2.047 -0.8933  0.7442  0.9959
18092THY    HP435879   6.222   8.382   1.880 -1.4260 -1.7093  0.5712
18092THY    CP335880   6.104   8.624   1.909  0.1716  0.2576 -0.6013
18092THY    HP535881   6.206   8.631   1.871 -0.2900 -0.8692  0.2487
18092THY    HP635882   6.116   8.639   2.017 -1.6500  0.5423 -0.8641
18092THY    HP735883   6.038   8.702   1.870 -0.3382 -0.4492 -1.3677
18092THY    CA335884   5.839   8.568   2.028 -0.1590  0.1007  0.5304
18092THY    HA335885   5.891   8.653   2.071 -4.5181 -0.5216  3.8954
18092THY    CA435886   5.710   8.549   2.075 -0.2840  0.7381 -0.6252
18092THY    HA435887   5.680   8.618   2.152  2.2200  0.0344  1.4002
18092THY    CA535888   5.621   8.463   2.006 -0.0034  0.1807  0.0617
18092THY    CM135889   5.481   8.462   2.038  0.4292 -0.8397  0.0198
18092THY    HM135890   5.416   8.519   1.972 -1.5297  3.7933  3.8123
18092THY    HM235891   5.475   8.515   2.134  0.4122 -2.2145  2.6389
18092THY    HM335892   5.440   8.362   2.059 -1.5644 -0.4993  0.8788
18092THY    CA635893   5.665   8.371   1.920 -0.1149  0.4102  0.2207
18092THY    HA635894   5.599   8.295   1.880 -0.1167 -0.8345  0.8530
18093THY      O35895   6.866   1.315   4.116  0.3820  0.7541  0.6860
18093THY     HO35896   6.885   1.259   4.039 -0.8099  1.0229 -0.1249
18093THY    CA135897   6.760   1.260   4.163 -0.2119 -0.3371  0.5843
18093THY    CA235898   6.690   1.308   4.275 -0.1468  0.2421 -0.0762
18093THY    CP135899   6.733   1.441   4.340  0.7296 -0.1743  0.2737
18093THY    HP135900   6.793   1.499   4.269 -0.4921 -1.6205 -0.1618
18093THY    CP235901   6.812   1.416   4.471  0.1945  0.2462  0.1590
18093THY    HP235902   6.828   1.514   4.516  0.1608 -0.7431  0.6291
18093THY    HP335903   6.909   1.368   4.451 -0.2427  0.6458 -0.9310
18093THY    HP435904   6.748   1.357   4.537 -0.5550 -1.5176 -1.0866
18093THY    CP335905   6.611   1.532   4.359 -0.0173  1.1064  0.2765
18093THY    HP535906   6.536   1.511   4.282  2.5897 -0.8826 -2.5450
18093THY    HP635907   6.647   1.634   4.376  2.3696  3.1877 -0.7992
18093THY    HP735908   6.570   1.493   4.453 -2.1459 -0.3059 -1.0641
18093THY    CA335909   6.581   1.240   4.329  0.5635  0.0655  0.0817
18093THY    HA335910   6.514   1.283   4.402  0.5873  1.0673 -1.4968
18093THY    CA435911   6.546   1.119   4.267  0.3050  0.1329  0.6217
18093THY    HA435912   6.455   1.071   4.301  0.3324 -1.3735 -0.5850
18093THY    CA535913   6.617   1.065   4.153 -0.7709 -0.2756 -0.5110
18093THY    CM135914   6.581   0.936   4.102  0.5147 -0.0208 -0.5615
18093THY    HM135915   6.603   0.848   4.165  1.1554 -1.9432 -1.8352
18093THY    HM235916   6.629   0.921   4.005  0.9396  0.2718 -1.1593
18093THY    HM335917   6.472   0.934   4.089  0.5204 -0.0932 -0.3972
18093THY    CA635918   6.719   1.146   4.099 -0.4524 -1.1518  0.3550
18093THY    HA635919   6.776   1.101   4.018  0.7857 -0.2793  0.3240
18094THY      O35920   3.697   1.899   5.353  0.0937 -0.5221 -0.4972
18094THY     HO35921   3.685   1.848   5.434  0.2035 -1.8075 -2.7119
18094THY    CA135922   3.597   1.993   5.346  0.0734 -0.8418 -0.2148
18094THY    CA235923   3.596   2.105   5.259  0.0333  0.0078 -0.3327
18094THY    CP135924   3.701   2.128   5.154  0.1021 -0.0767  0.0399
18094THY    HP135925   3.789   2.067   5.182 -0.3661  0.2112 -0.5170
18094THY    CP235926   3.759   2.274   5.146  0.4639  0.3091 -0.0408
18094THY    HP235927   3.696   2.343   5.087 -0.0874 -0.8377 -1.4735
18094THY    HP335928   3.847   2.261   5.082 -0.1998 -0.5921 -0.1753
18094THY    HP435929   3.787   2.322   5.240 -0.8633  0.4339  0.5551
18094THY    CP335930   3.644   2.068   5.020  0.1445 -0.7885 -0.0681
18094THY    HP535931   3.556   2.127   4.993  1.6601 -1.4248  2.0260
18094THY    HP635932   3.625   1.960   5.021  3.5202 -2.3495 -0.8073
18094THY    HP735933   3.724   2.089   4.948  2.5177  1.1437 -1.8782
18094THY    CA335934   3.495   2.206   5.269  0.2412 -0.5090  0.2836
18094THY    HA335935   3.488   2.275   5.186 -1.0100 -0.6251  0.0461
18094THY    CA435936   3.403   2.202   5.377  0.0527  0.2096 -0.5021
18094THY    HA435937   3.340   2.288   5.397  0.4065  0.2629 -0.2537
18094THY    CA535938   3.402   2.093   5.467 -0.3062  1.0386  0.0729
18094THY    CM135939   3.309   2.094   5.581 -0.3242 -0.5354  0.3722
18094THY    HM135940   3.291   1.998   5.632  2.3013  2.8624  1.5022
18094THY    HM235941   3.213   2.137   5.550 -0.1392  1.7467  2.6519
18094THY    HM335942   3.343   2.175   5.646 -0.9788 -1.0572  1.0853
18094THY    CA635943   3.500   1.990   5.449  0.2304 -0.1237  0.4677
18094THY    HA635944   3.503   1.914   5.526 -1.6380 -0.5670 -0.1121
18095THY      O35945   3.825   1.552   7.472  0.3011 -0.0609  0.1975
18095THY     HO35946   3.918   1.545   7.502  0.1451  0.2594 -0.7280
18095THY    CA135947   3.830   1.495   7.354  0.4154  0.5601  0.7278
18095THY    CA235948   3.726   1.508   7.263  0.9799 -0.2917  0.5713
18095THY    CP135949   3.597   1.582   7.294 -0.0300  0.1332 -0.3981
18095THY    HP135950   3.605   1.607   7.401 -0.7273 -0.3399  2.1745
18095THY    CP235951   3.473   1.497   7.268  0.6219  0.6109  0.7328
18095THY    HP235952   3.445   1.497   7.162  0.3184  0.6814 -0.2803
18095THY    HP335953   3.384   1.526   7.326 -0.9095 -0.7641 -0.9865
18095THY    HP435954   3.489   1.390   7.283 -3.1545 -1.2927 -0.2501
18095THY    CP335955   3.577   1.718   7.235 -0.1532 -0.2193  0.2726
18095THY    HP535956   3.655   1.788   7.267 -1.4360  0.2547  1.5377
18095THY    HP635957   3.480   1.760   7.263  0.8928  1.8321  1.5114
18095THY    HP735958   3.574   1.721   7.126  3.4899 -0.4510 -0.3103
18095THY    CA335959   3.732   1.442   7.135  0.2233 -0.2196  0.2620
18095THY    HA335960   3.648   1.439   7.066 -0.9237  1.1749 -0.4182
18095THY    CA435961   3.853   1.378   7.106  0.1351  0.0451  0.6551
18095THY    HA435962   3.864   1.322   7.013  0.4917  0.7245 -0.4411
18095THY    CA535963   3.962   1.374   7.196 -0.2106  0.0991  0.1861
18095THY    CM135964   4.087   1.292   7.162 -0.0150 -0.0253  0.4804
18095THY    HM135965   4.111   1.210   7.232  0.3281 -0.4289  0.2284
18095THY    HM235966   4.175   1.352   7.137  1.8649  0.5711 -1.8319
18095THY    HM335967   4.060   1.233   7.074 -1.4985  1.2541 -0.8379
18095THY    CA635968   3.950   1.428   7.319  0.0121 -0.0420 -0.2004
18095THY    HA635969   4.033   1.439   7.389  0.1141 -0.2091  0.0984
18096THY      O35970   3.139   6.758   7.035  0.2308  0.1196  0.7240
18096THY     HO35971   3.104   6.681   6.988 -4.0834  3.1974  0.4547
18096THY    CA135972   3.247   6.714   7.102 -0.1149  0.5478  0.6629
18096THY    CA235973   3.340   6.796   7.168  0.2672 -0.3056 -0.5882
18096THY    CP135974   3.327   6.947   7.185  0.2801  0.4946  0.0054
18096THY    HP135975   3.232   6.988   7.147  1.6619 -2.4354  0.7291
18096THY    CP235976   3.447   7.021   7.115 -0.1764  0.3334  0.3516
18096THY    HP235977   3.475   6.973   7.021  0.0584 -0.7187  2.4274
18096THY    HP335978   3.538   7.023   7.177 -0.7254  1.2177 -0.8064
18096THY    HP435979   3.413   7.122   7.089 -1.2579 -0.4686 -0.2047
18096THY    CP335980   3.328   6.977   7.336 -0.2626 -1.1918 -0.1124
18096THY    HP535981   3.320   7.085   7.356 -0.5075  1.0328 -0.5100
18096THY    HP635982   3.412   6.937   7.393 -3.4440  2.5553 -2.1481
18096THY    HP735983   3.243   6.936   7.392  1.0069  0.0498 -1.1355
18096THY    CA335984   3.455   6.731   7.218 -0.5332 -0.3224 -0.2830
18096THY    HA335985   3.535   6.782   7.272 -1.3485 -0.7578  1.5470
18096THY    CA435986   3.461   6.599   7.221  0.7621 -0.1688  0.1117
18096THY    HA435987   3.549   6.552   7.265  0.4679 -0.7316 -1.0034
18096THY    CA535988   3.367   6.517   7.166  0.1392  0.2631  0.3162
18096THY    CM135989   3.397   6.368   7.151  0.2716  0.1401  0.7185
18096THY    HM135990   3.501   6.339   7.171 -0.4069  1.4465 -0.9790
18096THY    HM235991   3.375   6.335   7.049  0.7903  0.1458  0.3571
18096THY    HM335992   3.340   6.299   7.214  0.2903 -2.0518 -1.4453
18096THY    CA635993   3.258   6.573   7.099  0.5945  0.1428  0.2515
18096THY    HA635994   3.178   6.514   7.054 -0.0189  2.1568 -0.5615
18097THY      O35995   2.539   1.464   4.295  0.0810  0.2755 -0.2050
18097THY     HO35996   2.481   1.542   4.292  1.0951 -2.5857  0.5894
18097THY    CA135997   2.473   1.370   4.369  0.3356 -0.1849  0.4163
18097THY    CA235998   2.535   1.249   4.416  0.2261 -0.8196  0.1337
18097THY    CP135999   2.678   1.191   4.367  0.2802 -0.2769 -0.1551
18097THY    HP136000   2.752   1.270   4.349  0.6887 -0.7495 -0.6381
18097THY    CP236001   2.657   1.126   4.231 -0.0500 -0.2314 -0.2321
18097THY    HP236002   2.629   1.208   4.163 -0.3961  2.1417  1.7590
18097THY    HP336003   2.573   1.056   4.232  0.2766 -0.4550 -0.6251
18097THY    HP436004   2.746   1.077   4.191 -0.8349  0.1525 -2.0518
18097THY    CP336005   2.738   1.080   4.450  0.0261 -0.2153  0.5469
18097THY    HP536006   2.774   1.113   4.549 -1.9455  0.6792  0.1544
18097THY    HP636007   2.832   1.043   4.407  2.1494  4.6043 -0.4748
18097THY    HP736008   2.676   0.990   4.462 -0.1227 -0.9875  0.5447
18097THY    CA336009   2.460   1.172   4.507 -0.0935  0.0446  0.5204
18097THY    HA336010   2.503   1.078   4.542 -2.1535  2.8165  0.4850
18097THY    CA436011   2.332   1.199   4.545 -0.7918 -0.3719  0.3701
18097THY    HA436012   2.281   1.129   4.609 -1.8153  0.6497  1.9971
18097THY    CA536013   2.269   1.308   4.487 -0.0549  0.3141 -0.3895
18097THY    CM136014   2.128   1.334   4.524 -0.6670 -0.7596 -0.4812
18097THY    HM136015   2.105   1.305   4.627  0.5250 -0.7714 -1.5312
18097THY    HM236016   2.065   1.267   4.463 -0.0213 -2.2228  0.2042
18097THY    HM336017   2.100   1.440   4.521  4.6430 -0.5960  1.1960
18097THY    CA636018   2.341   1.396   4.398  0.1751  0.0297 -0.1517
18097THY    HA636019   2.290   1.475   4.344 -0.0310 -0.0527 -0.3398
18098THY      O36020   6.143   5.971   7.729 -0.2435 -0.5400  0.1734
18098THY     HO36021   6.172   5.900   7.668  2.1980  1.0447 -0.3151
18098THY    CA136022   6.166   6.082   7.651 -0.1023  0.7567  0.6690
18098THY    CA236023   6.118   6.211   7.687  0.2196 -0.8324 -0.4908
18098THY    CP136024   6.046   6.221   7.827  0.6887 -0.8209 -0.3775
18098THY    HP136025   6.028   6.128   7.882 -2.0983  1.7053  1.4570
18098THY    CP236026   5.901   6.265   7.816 -0.4356  0.1256 -0.6054
18098THY    HP236027   5.852   6.206   7.737  2.5174 -1.9461 -0.5072
18098THY    HP336028   5.896   6.372   7.792  0.9131  1.5254 -0.2018
18098THY    HP436029   5.848   6.249   7.911  0.2796  0.9512  1.5128
18098THY    CP336030   6.124   6.312   7.928 -0.2991  0.7138  0.4569
18098THY    HP536031   6.202   6.257   7.981 -0.2300 -0.7325 -0.9071
18098THY    HP636032   6.057   6.348   8.007 -0.8593  0.0471  0.9083
18098THY    HP736033   6.187   6.390   7.885  0.8760  0.1855 -0.7520
18098THY    CA336034   6.132   6.317   7.602  0.3230 -0.7980 -0.6732
18098THY    HA336035   6.076   6.408   7.622  0.1918  2.0133 -1.2776
18098THY    CA436036   6.206   6.298   7.485 -0.3107 -0.0464  0.0551
18098THY    HA436037   6.216   6.374   7.408  0.0852 -2.2979 -2.1358
18098THY    CA536038   6.251   6.171   7.444 -0.2653 -0.7005 -0.1701
18098THY    CM136039   6.305   6.144   7.305  0.0325  0.2274  0.3145
18098THY    HM136040   6.315   6.234   7.243 -0.7694  0.5506  0.6372
18098THY    HM236041   6.233   6.076   7.257  1.6324 -1.5254 -0.2141
18098THY    HM336042   6.402   6.094   7.308 -0.1924 -0.2683 -0.1617
18098THY    CA636043   6.228   6.063   7.528  0.1081 -0.2797  0.4832
18098THY    HA636044   6.243   5.963   7.488  0.5004 -3.7396  1.7620
18099THY      O36045   1.382   0.431   2.131 -0.4891  0.0786 -0.3738
18099THY     HO36046   1.436   0.351   2.117  1.7939  0.8782  0.9255
18099THY    CA136047   1.481   0.528   2.141  0.5157  0.4310  0.7151
18099THY    CA236048   1.453   0.651   2.207 -0.7242  0.3253  0.6514
18099THY    CP136049   1.317   0.675   2.264  0.4039  0.6396 -0.4483
18099THY    HP136050   1.235   0.626   2.210  0.2026 -0.3956  0.9327
18099THY    CP236051   1.280   0.826   2.269 -0.3535 -0.4397  0.1325
18099THY    HP236052   1.311   0.884   2.181  1.8300  1.2304  1.6741
18099THY    HP336053   1.324   0.889   2.347  1.1067 -1.2435  0.1690
18099THY    HP436054   1.171   0.828   2.278 -0.4591 -1.0566 -1.4001
18099THY    CP336055   1.301   0.620   2.405  0.1882 -0.8361 -0.2830
18099THY    HP536056   1.238   0.531   2.409 -1.9292 -1.2763  1.1062
18099THY    HP636057   1.235   0.687   2.462 -0.1781 -2.8898  1.2194
18099THY    HP736058   1.398   0.598   2.450 -0.8161  0.5026 -2.2089
18099THY    CA336059   1.570   0.743   2.213  0.2222  0.7281 -0.1876
18099THY    HA336060   1.558   0.839   2.262 -1.2630  0.5591 -0.2638
18099THY    CA436061   1.692   0.711   2.150  0.2708  0.3211  0.2168
18099THY    HA436062   1.773   0.782   2.135  1.2022 -1.8030 -1.1831
18099THY    CA536063   1.712   0.585   2.097 -0.5258 -0.4392  0.3885
18099THY    CM136064   1.847   0.558   2.029  0.2942 -0.2142 -0.2759
18099THY    HM136065   1.872   0.660   1.998  1.8353 -0.4629 -0.7050
18099THY    HM236066   1.833   0.498   1.938  1.0293 -1.7110  1.6968
18099THY    HM336067   1.919   0.508   2.094  0.8834 -0.7308 -0.1183
18099THY    CA636068   1.612   0.491   2.097 -0.7437  0.5899 -0.2751
18099THY    HA636069   1.642   0.390   2.070  2.8920 -1.1617  1.0737
18100THY      O36070   4.790   7.154   7.705  0.3962  0.0845 -0.0233
18100THY     HO36071   4.815   7.105   7.786 -1.5689  0.8876  0.2009
18100THY    CA136072   4.877   7.254   7.692  0.0010 -0.7034 -0.3929
18100THY    CA236073   4.877   7.345   7.583  0.0951 -0.4144 -0.1300
18100THY    CP136074   4.768   7.325   7.476 -0.1906  0.9677 -0.1500
18100THY    HP136075   4.712   7.233   7.498  1.8125  1.2731 -1.3669
18100THY    CP236076   4.821   7.315   7.332  0.0356  0.2592  0.7609
18100THY    HP236077   4.884   7.225   7.332 -0.4815 -2.8621  0.2728
18100THY    HP336078   4.869   7.407   7.299  0.1507 -0.5006  0.4367
18100THY    HP436079   4.738   7.289   7.265  1.4080 -0.9501 -0.7230
18100THY    CP336080   4.674   7.444   7.483  0.5781 -0.5075 -0.3696
18100THY    HP536081   4.588   7.427   7.416  0.5928 -0.6841  0.2260
18100THY    HP636082   4.716   7.541   7.455 -3.0739  1.4426  2.0071
18100THY    HP736083   4.646   7.448   7.589  0.3013 -0.5829 -0.2577
18100THY    CA336084   4.967   7.452   7.587 -0.0700  0.3241  0.4023
18100THY    HA336085   4.964   7.521   7.503 -0.5527  0.0597  0.0715
18100THY    CA436086   5.070   7.453   7.678 -0.3520  0.9840 -0.2198
18100THY    HA436087   5.151   7.524   7.666 -0.3077 -1.0714 -0.5565
18100THY    CA536088   5.078   7.351   7.775 -0.7278 -0.1819 -0.1537
18100THY    CM136089   5.191   7.371   7.880 -0.0058 -0.1778  0.0488
18100THY    HM136090   5.178   7.314   7.973  1.0627 -0.4957 -0.7496
18100THY    HM236091   5.203   7.473   7.917 -1.1062 -0.9387  0.4737
18100THY    HM336092   5.284   7.328   7.840 -0.5844  0.2968 -1.7502
18100THY    CA636093   4.972   7.260   7.796  0.4834 -0.4828 -0.0074
18100THY    HA636094   4.977   7.195   7.883 -1.8153  0.7943  1.3689
18101THY      O36095   3.349   5.716   6.165 -0.0582  0.4522  0.2077
18101THY     HO36096   3.442   5.688   6.168 -0.0907 -0.6374 -0.0840
18101THY    CA136097   3.354   5.843   6.113 -0.4243 -0.0122  0.3360
18101THY    CA236098   3.247   5.936   6.116 -0.1522  0.4138  0.0836
18101THY    CP136099   3.110   5.892   6.160 -0.4330 -0.0981 -0.3810
18101THY    HP136100   3.087   5.789   6.130 -0.5826 -1.6589  0.0795
18101THY    CP236101   3.005   5.966   6.088 -0.2705  0.3144 -0.2590
18101THY    HP236102   2.909   5.917   6.109 -0.2567  0.4787 -0.2182
18101THY    HP336103   3.020   5.949   5.981 -1.5855  0.1714 -0.6624
18101THY    HP436104   2.993   6.072   6.111  0.3043  2.7131 -0.6588
18101THY    CP336105   3.080   5.902   6.306  0.2823 -0.5330 -0.0875
18101THY    HP536106   3.053   6.005   6.332 -0.8008 -0.2088 -0.4403
18101THY    HP636107   3.158   5.871   6.377  0.9079 -1.2708 -0.2212
18101THY    HP736108   2.990   5.842   6.326 -1.5243 -0.8776  2.3656
18101THY    CA336109   3.277   6.069   6.072 -0.2567  0.0017  0.0614
18101THY    HA336110   3.203   6.149   6.079  0.4702 -1.3088  0.8700
18101THY    CA436111   3.409   6.105   6.042  0.4091 -0.2239 -0.6294
18101THY    HA436112   3.442   6.206   6.017  1.5235 -0.0900 -0.9397
18101THY    CA536113   3.512   6.011   6.036  0.1358 -0.4971  0.7416
18101THY    CM136114   3.649   6.045   5.993  0.0178 -0.6563  0.1161
18101THY    HM136115   3.709   5.954   5.985 -0.6986  2.3028 -0.7316
18101THY    HM236116   3.687   6.117   6.066 -1.2342  0.5033 -0.3516
18101THY    HM336117   3.637   6.089   5.893 -0.3316  0.5606  2.9939
18101THY    CA636118   3.483   5.878   6.075 -1.1077  0.1712  0.0846
18101THY    HA636119   3.556   5.799   6.067 -1.7870  0.8331 -0.6250
18102THY      O36120   2.267   9.374   8.075  0.0503 -0.4838  0.0368
18102THY     HO36121   2.357   9.411   8.074 -0.3779  1.8397  1.3295
18102THY    CA136122   2.248   9.287   7.975 -0.4241  0.0339 -0.3872
18102THY    CA236123   2.114   9.258   7.925  0.2442  0.4651 -0.0108
18102THY    CP136124   1.992   9.324   7.999  0.5351 -0.4808 -0.2273
18102THY    HP136125   2.017   9.405   8.069  1.6960 -1.7208  0.5346
18102THY    CP236126   1.934   9.210   8.094 -0.1546  0.6153  1.0951
18102THY    HP236127   1.898   9.125   8.035  2.2634 -1.2160  1.2436
18102THY    HP336128   1.858   9.261   8.155 -0.3808  0.5534  0.8332
18102THY    HP436129   2.008   9.167   8.161  1.6039 -2.0539 -0.3045
18102THY    CP336130   1.885   9.372   7.905 -0.8513 -0.1992 -0.1806
18102THY    HP536131   1.823   9.429   7.975  1.0124  0.2278  1.4198
18102THY    HP636132   1.839   9.286   7.855  2.0815 -0.5411 -1.6987
18102THY    HP736133   1.922   9.443   7.831  0.1819 -0.3960 -0.8962
18102THY    CA336134   2.099   9.175   7.812  0.1658 -0.3874  0.0071
18102THY    HA336135   2.005   9.151   7.764  1.0468 -2.0852 -0.1937
18102THY    CA436136   2.213   9.117   7.754  0.2533  0.3716 -0.9482
18102THY    HA436137   2.198   9.054   7.667 -1.0891  0.2432 -0.4898
18102THY    CA536138   2.342   9.140   7.799 -0.2058  0.2146 -0.4403
18102THY    CM136139   2.454   9.072   7.735  0.1320  0.0955  0.4758
18102THY    HM136140   2.428   9.066   7.628 -0.5730  0.3284 -1.4650
18102THY    HM236141   2.466   8.965   7.758  1.7288  2.2454  1.0666
18102THY    HM336142   2.547   9.126   7.757  1.0521  0.0003 -0.9980
18102THY    CA636143   2.359   9.224   7.910 -0.1672 -0.9809 -0.2153
18102THY    HA636144   2.463   9.226   7.942  0.0968 -1.8238 -0.0160
18103THY      O36145   5.651   3.783   4.040 -0.1726  0.2931 -0.2636
18103THY     HO36146   5.738   3.824   4.051  0.7290 -2.9594 -0.9488
18103THY    CA136147   5.669   3.659   4.083 -0.5525 -0.0996  0.4869
18103THY    CA236148   5.564   3.567   4.109 -0.5575  0.9907  0.2930
18103THY    CP136149   5.419   3.625   4.099 -0.4544 -0.2120  0.1874
18103THY    HP136150   5.411   3.722   4.049 -2.6813 -1.3557 -0.5178
18103THY    CP236151   5.372   3.635   4.245 -0.4988 -0.0216  0.6457
18103THY    HP236152   5.399   3.736   4.277  1.7759 -1.4011  0.5533
18103THY    HP336153   5.414   3.554   4.305 -1.5471  0.3414  0.3605
18103THY    HP436154   5.264   3.618   4.243 -0.2575 -0.5777 -1.0723
18103THY    CP336155   5.331   3.532   4.011  1.0057 -0.4067  0.1202
18103THY    HP536156   5.394   3.505   3.926  1.8086 -0.0635  0.8343
18103THY    HP636157   5.238   3.578   3.975  0.8620 -0.8752 -0.5367
18103THY    HP736158   5.305   3.437   4.060 -0.6605 -0.3953  0.5404
18103THY    CA336159   5.590   3.437   4.139 -0.9971 -0.0517  0.1093
18103THY    HA336160   5.509   3.370   4.164  0.3632 -0.5932 -1.8044
18103THY    CA436161   5.723   3.393   4.149 -0.2418 -0.2419  0.2099
18103THY    HA436162   5.737   3.288   4.174 -0.7706  1.2192  0.4566
18103THY    CA536163   5.831   3.485   4.129  0.3270 -0.0347  0.2765
18103THY    CM136164   5.968   3.437   4.139 -1.1294 -0.2227  0.1944
18103THY    HM136165   6.028   3.519   4.180 -0.8691 -0.0422 -0.0854
18103THY    HM236166   6.017   3.416   4.043  2.2508  1.5833 -0.9175
18103THY    HM336167   5.985   3.358   4.212 -1.3291 -0.8106 -0.3997
18103THY    CA636168   5.809   3.618   4.098  0.5348  0.8830  0.0341
18103THY    HA636169   5.892   3.685   4.079  0.6412  1.2870  0.0172
18104THY      O36170   7.038   4.921   4.625 -0.3142  0.7719  0.3358
18104THY     HO36171   7.101   4.867   4.676 -0.8294 -2.0619 -3.3945
18104THY    CA136172   6.950   4.837   4.573  0.0604  0.0215  0.0721
18104THY    CA236173   6.844   4.884   4.490 -0.2587  0.3343  0.3463
18104THY    CP136174   6.825   5.033   4.468 -0.1042 -0.4529 -0.5670
18104THY    HP136175   6.880   5.095   4.539  1.8210 -0.5787 -2.0481
18104THY    CP236176   6.672   5.073   4.462  0.3648  0.1430 -0.0133
18104THY    HP236177   6.617   5.028   4.546 -3.4412 -1.3602  1.3957
18104THY    HP336178   6.618   5.041   4.372  0.9050 -0.0671 -0.3411
18104THY    HP436179   6.655   5.180   4.480  2.9151  1.3320  0.2550
18104THY    CP336180   6.889   5.070   4.333 -0.1874 -0.1077 -0.0390
18104THY    HP536181   6.997   5.049   4.328  0.5585  1.4395  2.8024
18104THY    HP636182   6.874   5.176   4.307 -1.8746 -1.4443 -0.5694
18104THY    HP736183   6.846   5.008   4.254  1.5149 -0.6315 -0.6259
18104THY    CA336184   6.759   4.777   4.436 -0.8638 -0.6998 -0.0480
18104THY    HA336185   6.683   4.816   4.369  0.8305 -2.3870  0.5140
18104THY    CA436186   6.783   4.643   4.456  0.4745  0.0561  0.6727
18104THY    HA436187   6.722   4.569   4.405 -0.0016 -0.4797  1.4191
18104THY    CA536188   6.886   4.605   4.545 -0.5162  0.1690  0.1346
18104THY    CM136189   6.908   4.454   4.575  1.0202 -0.0395  0.2819
18104THY    HM136190   7.004   4.414   4.540  0.6280 -0.4346 -0.3275
18104THY    HM236191   6.823   4.404   4.527  1.0254 -0.5532  0.7494
18104THY    HM336192   6.899   4.432   4.681  0.5409 -0.2822 -0.7220
18104THY    CA636193   6.968   4.702   4.600 -0.8565 -0.3797  0.6670
18104THY    HA636194   7.051   4.667   4.661 -2.5358 -0.0047 -3.1106
18105THY      O36195   2.025   3.312   3.892  0.6132  0.4850  0.0871
18105THY     HO36196   2.043   3.291   3.799 -2.1150 -0.5139  1.7467
18105THY    CA136197   1.929   3.221   3.920  0.0228 -0.1068 -0.3272
18105THY    CA236198   1.907   3.181   4.053  0.8970 -0.3226  0.7269
18105THY    CP136199   1.991   3.239   4.173  0.6710  0.1056  0.4933
18105THY    HP136200   2.073   3.297   4.129  0.8889 -1.7256 -1.1030
18105THY    CP236201   2.054   3.137   4.267 -0.0761 -0.7990  0.0194
18105THY    HP236202   2.108   3.067   4.203  0.5785 -1.8302  1.4110
18105THY    HP336203   1.983   3.076   4.324  1.3911 -0.7179 -1.7010
18105THY    HP436204   2.130   3.191   4.325  1.3239 -0.8436 -1.8047
18105THY    CP336205   1.897   3.334   4.263  0.4721  0.3849 -0.3319
18105THY    HP536206   1.859   3.414   4.197  1.4037  0.5461  0.2549
18105THY    HP636207   1.952   3.379   4.346 -1.3311  1.1438  0.6005
18105THY    HP736208   1.799   3.304   4.301 -0.4467  0.6008  2.5981
18105THY    CA336209   1.807   3.086   4.073 -0.2332  0.0734  0.1088
18105THY    HA336210   1.803   3.034   4.168 -0.1049  0.0231  0.0069
18105THY    CA436211   1.721   3.044   3.968 -0.1872 -0.3271  0.3659
18105THY    HA436212   1.638   2.976   3.987  0.8882  1.3056 -0.5698
18105THY    CA536213   1.751   3.084   3.837 -0.3204 -0.3698  0.4491
18105THY    CM136214   1.656   3.049   3.717 -0.3805 -0.3495  0.1807
18105THY    HM136215   1.599   2.956   3.735 -2.4252  0.2913  1.4850
18105THY    HM236216   1.719   3.027   3.630  0.6623  0.2858  0.6075
18105THY    HM336217   1.593   3.136   3.696 -1.8224  2.4853 -0.0648
18105THY    CA636218   1.854   3.178   3.816  0.2038 -0.5976  0.0318
18105THY    HA636219   1.875   3.218   3.717 -1.7222 -0.2653  2.0986
18106THY      O36220   8.102   0.816   3.568  0.2586 -0.4448  0.0987
18106THY     HO36221   8.028   0.876   3.546  0.4910 -2.8614 -0.4135
18106THY    CA136222   8.051   0.768   3.687  0.9245  0.1521  0.5885
18106THY    CA236223   8.111   0.661   3.756 -0.0345 -0.3919 -0.4338
18106THY    CP136224   8.240   0.592   3.697  1.1990 -0.2044 -0.5404
18106THY    HP136225   8.253   0.606   3.589  2.5492  0.1531  1.2632
18106THY    CP236226   8.225   0.444   3.709 -0.5403  0.2871  0.4777
18106THY    HP236227   8.298   0.397   3.641 -2.7789 -0.2241 -2.5961
18106THY    HP336228   8.129   0.398   3.680  0.5173  1.3588 -2.6970
18106THY    HP436229   8.248   0.414   3.812 -0.5929  0.4914  1.1158
18106THY    CP336230   8.360   0.656   3.764  0.0598 -0.2610 -0.1240
18106THY    HP536231   8.364   0.626   3.870  1.7309 -0.6677 -1.5517
18106THY    HP636232   8.361   0.764   3.748  1.7384 -1.4429 -0.2726
18106THY    HP736233   8.455   0.625   3.718  0.2007 -0.4972  0.6503
18106THY    CA336234   8.056   0.613   3.876 -0.2188  0.0058  0.4847
18106THY    HA336235   8.111   0.537   3.931 -1.7316  0.8019 -0.0617
18106THY    CA436236   7.938   0.675   3.919  0.1480  0.7041 -0.4585
18106THY    HA436237   7.891   0.636   4.008 -1.4887  0.7568  1.4954
18106THY    CA536238   7.875   0.778   3.847 -0.2415 -0.1157 -0.2548
18106THY    CM136239   7.750   0.848   3.902  0.5990 -0.6185  0.3112
18106THY    HM136240   7.683   0.771   3.942 -0.7929  1.0033  2.2545
18106THY    HM236241   7.708   0.911   3.823 -0.4101  0.8353  1.5611
18106THY    HM336242   7.793   0.921   3.971 -0.0276 -0.0936  0.1965
18106THY    CA636243   7.934   0.825   3.728  0.0090 -0.3395 -0.5082
18106THY    HA636244   7.885   0.894   3.659 -0.5564  0.9464  0.4040
18107THY      O36245   4.796   3.946   2.301  0.2161 -0.0438 -0.4801
18107THY     HO36246   4.890   3.949   2.327  0.5431 -1.2320  1.7729
18107THY    CA136247   4.729   3.861   2.374  0.0437 -0.3963  1.1137
18107THY    CA236248   4.596   3.813   2.352 -0.8053 -0.1238 -0.2008
18107THY    CP136249   4.537   3.864   2.216  1.1797  0.4741  0.4304
18107THY    HP136250   4.615   3.903   2.150 -0.8369 -0.7133  2.6963
18107THY    CP236251   4.438   3.976   2.240 -0.3620 -0.3582 -0.4817
18107THY    HP236252   4.339   3.940   2.271  0.0694 -0.3801 -1.7276
18107THY    HP336253   4.439   4.037   2.149  0.2945  0.3044  0.5216
18107THY    HP436254   4.468   4.026   2.332 -0.7299 -0.6512  0.2983
18107THY    CP336255   4.471   3.752   2.134 -0.5184 -0.1050  0.1505
18107THY    HP536256   4.380   3.708   2.176  0.0004 -0.0956 -0.9602
18107THY    HP636257   4.541   3.668   2.127 -0.0508 -1.1595  0.6113
18107THY    HP736258   4.451   3.790   2.033 -2.4112  0.9880  2.3260
18107THY    CA336259   4.537   3.722   2.437  0.2087  0.1613 -0.3181
18107THY    HA336260   4.431   3.702   2.419 -1.3591  2.8894  4.0830
18107THY    CA436261   4.606   3.691   2.561 -0.0014 -0.1813 -0.2722
18107THY    HA436262   4.558   3.630   2.636 -1.8230 -1.1996 -0.1705
18107THY    CA536263   4.733   3.737   2.586  0.7884 -0.8154 -0.5548
18107THY    CM136264   4.811   3.696   2.710 -0.4231  0.3223  0.3294
18107THY    HM136265   4.771   3.755   2.794  3.3490  0.9246  2.3532
18107THY    HM236266   4.914   3.733   2.705 -0.0914  1.1982 -0.4290
18107THY    HM336267   4.795   3.592   2.740 -2.6638  0.8179  0.7647
18107THY    CA636268   4.791   3.822   2.493  0.3128  0.0727 -0.1563
18107THY    HA636269   4.888   3.862   2.522 -0.5200  0.5933  1.6220
18108THY      O36270   3.946   1.870   5.698  0.8478 -0.9292  0.1995
18108THY     HO36271   3.990   1.810   5.760  0.7527 -0.8017  0.2591
18108THY    CA136272   4.013   1.989   5.703  0.0635  0.8024 -0.3367
18108THY    CA236273   3.943   2.106   5.691 -0.4188  0.1290 -0.1844
18108THY    CP136274   3.799   2.109   5.653 -0.2636 -0.3690 -0.5078
18108THY    HP136275   3.767   2.008   5.625  0.2430 -3.5061  0.0881
18108THY    CP236276   3.761   2.202   5.532 -0.2386 -0.6040 -0.2748
18108THY    HP236277   3.817   2.295   5.545 -0.4157 -3.4608  0.3104
18108THY    HP336278   3.652   2.220   5.533 -0.1797  1.2267  0.1735
18108THY    HP436279   3.791   2.148   5.442 -1.6260 -1.0639 -0.3420
18108THY    CP336280   3.698   2.150   5.759 -0.6197 -0.3193  0.0397
18108THY    HP536281   3.713   2.086   5.847 -1.0919  0.6358  1.1823
18108THY    HP636282   3.594   2.138   5.728 -0.4351 -1.2325  0.7291
18108THY    HP736283   3.705   2.251   5.801 -2.3738  1.1952 -0.4082
18108THY    CA336284   4.010   2.226   5.719  0.1431 -0.3905  0.1392
18108THY    HA336285   3.955   2.319   5.709  0.0178 -0.4745  0.0573
18108THY    CA436286   4.140   2.225   5.750 -0.5808 -0.0528 -0.0036
18108THY    HA436287   4.200   2.313   5.774  0.0592  1.1241 -0.7237
18108THY    CA536288   4.217   2.104   5.745 -0.0638  0.5594  0.2832
18108THY    CM136289   4.366   2.109   5.759 -0.7740 -0.3674  1.1164
18108THY    HM136290   4.404   2.038   5.834 -3.4296  1.5627  1.5929
18108THY    HM236291   4.392   2.209   5.795 -1.2189 -1.8643  1.8015
18108THY    HM336292   4.415   2.099   5.661  0.6397  0.4615 -0.7481
18108THY    CA636293   4.151   1.982   5.731  1.4713 -0.1048  0.0976
18108THY    HA636294   4.202   1.886   5.734  0.6252 -0.8181 -0.3908
18109THY      O36295   1.981   1.361   2.525 -0.2741  0.3150  0.2295
18109THY     HO36296   2.000   1.396   2.436  0.8792 -0.1566 -1.4240
18109THY    CA136297   1.940   1.237   2.505  0.0615 -0.0697 -0.8566
18109THY    CA236298   1.828   1.185   2.574  0.0619 -0.0957 -0.3545
18109THY    CP136299   1.764   1.259   2.694  0.1581 -0.2524 -0.4181
18109THY    HP136300   1.763   1.367   2.675  3.2389 -0.3187 -0.3138
18109THY    CP236301   1.857   1.237   2.816  0.1562 -0.1820 -0.1309
18109THY    HP236302   1.864   1.133   2.850  0.3439 -1.7361 -0.6500
18109THY    HP336303   1.833   1.301   2.902 -1.3245 -0.2445 -0.5751
18109THY    HP436304   1.956   1.268   2.782 -0.5296 -1.3563  0.8795
18109THY    CP336305   1.618   1.217   2.739 -0.1955 -0.1104  0.7216
18109THY    HP536306   1.613   1.113   2.774 -0.8993 -0.7764  0.5246
18109THY    HP636307   1.542   1.227   2.661 -3.4156  1.9409 -3.8619
18109THY    HP736308   1.582   1.274   2.826  0.1167  0.5615 -0.0786
18109THY    CA336309   1.767   1.073   2.530 -0.5845  0.0977  0.1968
18109THY    HA336310   1.677   1.036   2.578 -1.8757 -1.9786  0.5067
18109THY    CA436311   1.819   1.012   2.421 -0.6822  0.0952  0.6613
18109THY    HA436312   1.780   0.919   2.381 -0.7622  1.4094  0.1146
18109THY    CA536313   1.941   1.046   2.357 -0.2965  0.0673 -0.8651
18109THY    CM136314   1.998   0.974   2.233  0.6882 -0.0797  0.1212
18109THY    HM136315   1.979   0.866   2.241 -0.5649  0.4988  0.3644
18109THY    HM236316   2.103   1.005   2.226  0.3820 -0.4445  1.1268
18109THY    HM336317   1.967   1.010   2.134  1.2564  0.5963  2.7056
18109THY    CA636318   1.992   1.170   2.401 -0.3210  0.3660 -0.6459
18109THY    HA636319   2.082   1.200   2.349  0.0409  1.4906  0.2673
18110THY      O36320   4.651   6.342   5.091 -0.8317 -0.4376 -0.7087
18110THY     HO36321   4.607   6.421   5.127  0.7223 -0.2520  0.1142
18110THY    CA136322   4.772   6.331   5.149 -0.5832  1.0331 -0.1689
18110THY    CA236323   4.855   6.226   5.102 -0.1475  0.3611  0.3698
18110THY    CP136324   4.805   6.132   4.995 -0.3935  1.1184 -0.0177
18110THY    HP136325   4.704   6.152   4.960 -0.0347 -1.3583 -1.9800
18110THY    CP236326   4.808   5.989   5.041  1.0939 -0.9511 -0.1774
18110THY    HP236327   4.728   5.959   5.110  0.9983 -1.7399 -1.8676
18110THY    HP336328   4.910   5.966   5.075  0.5221  0.1312 -1.2162
18110THY    HP436329   4.793   5.920   4.956 -2.3568 -2.0483  1.6793
18110THY    CP336330   4.898   6.162   4.872 -0.0246  0.2247  0.3125
18110THY    HP536331   4.859   6.113   4.782 -0.0563  0.3394  0.1265
18110THY    HP636332   4.997   6.117   4.883  1.0050 -1.9771  1.8550
18110THY    HP736333   4.901   6.267   4.839  0.2960 -0.2968  0.1449
18110THY    CA336334   4.992   6.219   5.151  0.4376  0.2024  0.0986
18110THY    HA336335   5.057   6.139   5.117  0.8110 -1.1232  0.9342
18110THY    CA436336   5.036   6.319   5.237 -0.0208  0.5825  0.6591
18110THY    HA436337   5.137   6.318   5.278 -0.5705  2.0874 -1.6183
18110THY    CA536338   4.952   6.425   5.277  0.0551 -0.2540  0.0779
18110THY    CM136339   4.996   6.527   5.373 -0.5275 -0.3280  0.0311
18110THY    HM136340   4.946   6.517   5.470 -0.9947 -0.5352  0.2869
18110THY    HM236341   4.968   6.624   5.329 -3.4804 -1.2545 -1.1379
18110THY    HM336342   5.104   6.531   5.390 -0.4649 -0.2118 -1.6651
18110THY    CA636343   4.818   6.426   5.241  0.0969  1.0639  0.8096
18110THY    HA636344   4.743   6.493   5.283 -0.7367  0.5825  0.1889
18111THY      O36345   7.395   5.367   4.767 -0.8911  0.2345 -0.3943
18111THY     HO36346   7.346   5.429   4.709  1.3544 -1.2079  0.1361
18111THY    CA136347   7.367   5.404   4.891  1.6701 -1.2929  1.3066
18111THY    CA236348   7.463   5.374   4.992  0.0892 -0.3538  0.1601
18111THY    CP136349   7.601   5.299   4.966  0.0613 -0.7950 -0.5868
18111THY    HP136350   7.570   5.219   4.898  0.5068 -0.0492 -1.4111
18111THY    CP236351   7.669   5.237   5.090 -0.5929 -0.2215  0.1421
18111THY    HP236352   7.677   5.304   5.177  3.0429 -0.2501 -0.0641
18111THY    HP336353   7.774   5.216   5.068 -0.0208  0.8775  1.6185
18111THY    HP436354   7.617   5.146   5.122 -0.9275  1.1341  0.7843
18111THY    CP336355   7.709   5.397   4.904  0.3247  0.0166 -0.0160
18111THY    HP536356   7.753   5.453   4.987 -0.7121 -0.7674  2.0448
18111THY    HP636357   7.668   5.457   4.823 -0.5050  1.4217  1.3766
18111THY    HP736358   7.782   5.327   4.862 -0.7734 -0.9359 -0.6390
18111THY    CA336359   7.429   5.429   5.120  0.1915  0.4007  0.3331
18111THY    HA336360   7.500   5.425   5.202 -1.6415  2.2004  2.1918
18111THY    CA436361   7.311   5.499   5.134  0.5048 -0.6680  0.1432
18111THY    HA436362   7.289   5.550   5.227  0.1661  0.0686 -1.2824
18111THY    CA536363   7.218   5.510   5.032 -0.1254 -0.4245  0.6627
18111THY    CM136364   7.086   5.591   5.039  0.2886 -0.0532  0.4614
18111THY    HM136365   7.028   5.555   4.954 -2.5775  1.4884  1.1374
18111THY    HM236366   7.100   5.700   5.046 -0.1542  1.6664  0.4334
18111THY    HM336367   7.029   5.563   5.129 -0.2838 -0.6163 -0.2226
18111THY    CA636368   7.247   5.466   4.904  0.0526 -0.0349 -0.8706
18111THY    HA636369   7.174   5.478   4.824 -0.3280  0.4966  0.4950
18112THY      O36370   4.369   8.352   5.034 -0.1220  0.1884  0.4279
18112THY     HO36371   4.413   8.437   5.018 -0.3436 -1.5312  0.2586
18112THY    CA136372   4.267   8.353   4.944  0.1106 -0.0897 -0.4616
18112THY    CA236373   4.143   8.301   4.978  0.2359 -0.2414  0.6852
18112THY    CP136374   4.112   8.228   5.116 -0.7564 -0.0182 -0.1693
18112THY    HP136375   4.199   8.250   5.178 -1.5924  0.5637  1.7076
18112THY    CP236376   4.101   8.071   5.106 -1.1634  0.5201 -0.1325
18112THY    HP236377   4.043   8.042   5.194  0.3611  1.1082 -1.5152
18112THY    HP336378   4.193   8.014   5.117 -1.2403  0.8161 -0.2007
18112THY    HP436379   4.046   8.034   5.019 -0.4751  0.6212 -1.4464
18112THY    CP336380   3.983   8.285   5.182  0.1711 -1.0600 -0.5415
18112THY    HP536381   3.888   8.262   5.133 -0.2244 -0.0386 -1.1553
18112THY    HP636382   3.983   8.393   5.197  0.5641 -1.2203 -0.5223
18112THY    HP736383   3.975   8.235   5.280 -1.8543 -1.0828 -0.3677
18112THY    CA336384   4.044   8.305   4.883 -0.2004 -0.0362  0.7645
18112THY    HA336385   3.949   8.254   4.897  0.3712 -0.9414 -0.5884
18112THY    CA436386   4.078   8.352   4.757 -0.7670  0.0888  0.1604
18112THY    HA436387   4.013   8.349   4.670 -2.1631  0.9810  2.0792
18112THY    CA536388   4.195   8.414   4.724  0.2042 -0.1306 -0.0738
18112THY    CM136389   4.216   8.480   4.586  0.2198  0.5470  0.5562
18112THY    HM136390   4.248   8.583   4.602 -2.5256  0.0368  1.5831
18112THY    HM236391   4.127   8.480   4.521  0.0477  0.7733  1.3510
18112THY    HM336392   4.300   8.427   4.540  2.2318  1.3856  2.8722
18112THY    CA636393   4.288   8.424   4.822 -0.2396 -0.6066  0.5440
18112THY    HA636394   4.379   8.481   4.804  1.0078  1.0714 -0.8064
18113THY      O36395   0.538   2.400   3.863 -0.3484 -0.1550  0.0680
18113THY     HO36396   0.628   2.387   3.828  0.0374 -0.0645  2.1865
18113THY    CA136397   0.456   2.427   3.762 -0.1050 -0.4180  0.0178
18113THY    CA236398   0.312   2.417   3.771  0.0364 -0.8285 -0.2510
18113THY    CP136399   0.255   2.364   3.896  1.1193  0.8259  0.5405
18113THY    HP136400   0.317   2.280   3.928  1.1548  0.9448  0.6114
18113THY    CP236401   0.116   2.302   3.893  0.1212 -0.1885 -0.2572
18113THY    HP236402   0.114   2.226   3.972 -3.4257 -0.0683 -0.1936
18113THY    HP336403   0.102   2.243   3.801  0.6380  0.7797 -1.9631
18113THY    HP436404   0.038   2.374   3.919 -0.3450  0.4666 -0.9809
18113THY    CP336405   0.264   2.458   4.010 -0.4751  0.2538  0.0881
18113THY    HP536406   0.355   2.519   4.013  0.4494 -0.3736 -1.2058
18113THY    HP636407   0.257   2.399   4.102 -1.1424  0.9107  1.1422
18113THY    HP736408   0.178   2.526   4.018 -0.5493 -0.8053  0.1398
18113THY    CA336409   0.238   2.457   3.664  0.5204  0.1140 -0.4042
18113THY    HA336410   0.131   2.450   3.679  0.2769 -1.4307 -0.3264
18113THY    CA436411   0.293   2.511   3.550  0.4492  0.7032 -0.0261
18113THY    HA436412   0.238   2.567   3.474  0.4032  0.9455  0.2576
18113THY    CA536413   0.432   2.508   3.541 -0.1270  0.2701 -0.2000
18113THY    CM136414   0.490   2.558   3.408  0.5551 -1.0108  0.1413
18113THY    HM136415   0.426   2.556   3.319  0.2915 -0.8560  1.0456
18113THY    HM236416   0.581   2.499   3.391 -0.0775 -0.4765 -1.0236
18113THY    HM336417   0.532   2.657   3.431  0.6948 -0.3451 -0.0645
18113THY    CA636418   0.515   2.474   3.648  0.2516 -0.1743  0.2578
18113THY    HA636419   0.620   2.493   3.628  1.0676  1.1231 -2.3923
18114THY      O36420   7.812   6.429   4.940  0.1703  0.1188  0.1796
18114THY     HO36421   7.821   6.487   4.863  0.1877 -0.0787 -0.0822
18114THY    CA136422   7.792   6.306   4.888 -0.3671 -0.9325  0.3258
18114THY    CA236423   7.856   6.187   4.939  0.2835 -0.7203  0.2788
18114THY    CP136424   7.942   6.187   5.072  0.2681  0.7169 -0.6644
18114THY    HP136425   7.920   6.278   5.128 -0.4056 -0.3642 -0.1407
18114THY    CP236426   8.092   6.192   5.046 -0.4388  0.2953 -0.4994
18114THY    HP236427   8.153   6.194   5.137 -2.7864  1.9666  0.7508
18114THY    HP336428   8.114   6.287   4.994 -1.7178 -0.8211 -0.7709
18114THY    HP436429   8.129   6.113   4.980  0.5998 -0.5433  0.6460
18114THY    CP336430   7.909   6.066   5.166  0.2410 -0.5554 -0.2489
18114THY    HP536431   7.949   5.977   5.116 -0.5042  1.5810 -1.8724
18114THY    HP636432   7.799   6.066   5.168  0.2555  0.2312 -0.1869
18114THY    HP736433   7.946   6.079   5.268 -0.2403 -0.3358 -0.5708
18114THY    CA336434   7.836   6.060   4.869 -0.2489 -1.3873  0.3970
18114THY    HA336435   7.899   5.976   4.896  2.1438 -1.1561  2.1702
18114THY    CA436436   7.752   6.055   4.755  0.9373  0.1732  0.6647
18114THY    HA436437   7.736   5.961   4.702  1.6637 -0.2470  0.7793
18114THY    CA536438   7.690   6.173   4.713  0.7081 -0.5624  0.4012
18114THY    CM136439   7.610   6.161   4.585 -0.3227 -0.8502  0.7436
18114THY    HM136440   7.507   6.194   4.599 -0.6755 -2.8330  0.5934
18114THY    HM236441   7.582   6.058   4.560 -0.9010 -2.0946  1.1784
18114THY    HM336442   7.645   6.225   4.503 -0.8700 -1.8220 -0.1793
18114THY    CA636443   7.708   6.292   4.778 -0.4824  0.0264 -1.0300
18114THY    HA636444   7.648   6.378   4.752  0.3313 -1.0123 -0.7560
18115THY      O36445   5.640   4.578   4.895  0.4786 -0.0920  0.0345
18115THY     HO36446   5.615   4.669   4.873  1.4229  1.7714  0.7931
18115THY    CA136447   5.639   4.589   5.032 -0.0978 -0.1403  0.5978
18115THY    CA236448   5.643   4.477   5.116  0.6996  0.0567  0.4827
18115THY    CP136449   5.610   4.334   5.054  0.0995  0.4573 -0.0127
18115THY    HP136450   5.664   4.331   4.958 -0.7122 -0.1377  2.3269
18115THY    CP236451   5.465   4.317   5.016  0.3758 -0.3993  0.7517
18115THY    HP236452   5.436   4.395   4.944  0.3381  0.3826  1.4688
18115THY    HP336453   5.409   4.335   5.108 -0.3341 -0.4201 -1.0919
18115THY    HP436454   5.451   4.218   4.969  0.9133 -1.1699  1.0273
18115THY    CP336455   5.660   4.219   5.141  0.1661 -0.0541  0.4210
18115THY    HP536456   5.596   4.225   5.229  1.8219  1.1645  1.1223
18115THY    HP636457   5.760   4.233   5.184 -0.3006  0.8339  1.0813
18115THY    HP736458   5.643   4.118   5.102  0.4776 -0.5524  0.5556
18115THY    CA336459   5.660   4.500   5.256 -0.3337  0.0832  0.0528
18115THY    HA336460   5.661   4.415   5.324 -0.8517 -1.3267 -1.1325
18115THY    CA436461   5.661   4.630   5.308  0.3152 -0.3635 -0.2967
18115THY    HA436462   5.671   4.652   5.414 -0.9407 -0.1131 -0.8059
18115THY    CA536463   5.655   4.740   5.217 -0.1028 -0.5149 -0.5688
18115THY    CM136464   5.656   4.883   5.272 -0.3240  0.5885  0.3394
18115THY    HM136465   5.635   4.955   5.192  2.3455 -1.6818 -1.1818
18115THY    HM236466   5.752   4.894   5.324 -0.5711  1.0772  0.2169
18115THY    HM336467   5.572   4.881   5.342 -1.3640 -0.6132  0.4433
18115THY    CA636468   5.646   4.716   5.081  0.6571  0.4272  0.1053
18115THY    HA636469   5.634   4.801   5.014 -3.5044  0.0622 -0.5614
18116THY      O36470   7.707   2.702   6.012 -0.5264  0.5336 -1.0655
18116THY     HO36471   7.680   2.642   6.084 -0.1154  0.8039 -0.9323
18116THY    CA136472   7.733   2.804   6.086 -0.2201 -0.1066 -0.1273
18116THY    CA236473   7.839   2.892   6.061  0.0298 -0.1097  0.4552
18116THY    CP136474   7.937   2.879   5.945  0.1754  0.2749  0.5123
18116THY    HP136475   7.917   2.791   5.884  0.7774  1.1094 -0.2212
18116THY    CP236476   8.089   2.872   5.982 -1.1436  0.4585  0.5645
18116THY    HP236477   8.110   2.788   6.050 -3.5013 -0.0136 -0.4765
18116THY    HP336478   8.127   2.966   6.024 -0.2906 -0.8733  0.8462
18116THY    HP436479   8.148   2.845   5.894  0.6766  1.2283  1.8609
18116THY    CP336480   7.917   2.995   5.843  0.2283 -0.4058  0.6683
18116THY    HP536481   7.973   3.079   5.884  3.1154  1.1961 -1.8276
18116THY    HP636482   7.814   3.032   5.833  0.9537 -2.8769  2.2804
18116THY    HP736483   7.938   2.968   5.739  0.6856 -0.1801  0.1395
18116THY    CA336484   7.860   2.995   6.161 -0.0358 -0.2682  0.0256
18116THY    HA336485   7.953   3.052   6.163  0.4020  2.2805 -0.6435
18116THY    CA436486   7.763   3.009   6.266 -0.1675 -0.7295  0.6534
18116THY    HA436487   7.788   3.087   6.337  2.2976  1.9076 -2.2493
18116THY    CA536488   7.660   2.922   6.290  1.0335 -0.2556 -0.0736
18116THY    CM136489   7.566   2.948   6.404 -0.5740  1.0163  0.3092
18116THY    HM136490   7.627   2.943   6.494  0.4963  0.2803 -0.4519
18116THY    HM236491   7.488   2.873   6.420 -1.4805  2.1487  1.4486
18116THY    HM336492   7.536   3.053   6.397  1.6695  0.2831  0.9580
18116THY    CA636493   7.642   2.821   6.194 -0.5021 -0.1457 -0.1643
18116THY    HA636494   7.558   2.752   6.205 -0.8515 -1.2406  0.0631
18117THY      O36495   1.284   1.440   6.440  0.2089 -0.2004 -0.3748
18117THY     HO36496   1.344   1.499   6.489  1.2590 -0.9503 -0.7863
18117THY    CA136497   1.354   1.355   6.367 -0.2911  0.2344  0.3654
18117THY    CA236498   1.301   1.310   6.251  0.5187  0.3699  0.6737
18117THY    CP136499   1.163   1.354   6.190 -0.5137 -0.1455  0.0282
18117THY    HP136500   1.108   1.416   6.261  2.5751  2.6034 -0.1202
18117THY    CP236501   1.076   1.235   6.141  0.5397 -0.6585  0.4854
18117THY    HP236502   1.048   1.170   6.225  1.1143  0.0718  1.1718
18117THY    HP336503   1.121   1.175   6.060  0.8954 -0.9322  1.1087
18117THY    HP436504   0.979   1.267   6.104 -0.4547 -0.7960 -2.3767
18117THY    CP336505   1.180   1.466   6.072 -0.1767  0.6071 -0.0235
18117THY    HP536506   1.225   1.562   6.099 -1.5011  2.5647  0.1098
18117THY    HP636507   1.083   1.499   6.032  0.0027 -0.2045 -0.4581
18117THY    HP736508   1.237   1.424   5.988 -0.4670  0.6456 -0.5035
18117THY    CA336509   1.379   1.220   6.173  0.1822  0.0741 -0.4485
18117THY    HA336510   1.332   1.175   6.086 -2.0073  1.2556 -0.5776
18117THY    CA436511   1.507   1.179   6.215 -0.1687  0.6200  0.4771
18117THY    HA436512   1.565   1.106   6.160  1.9052  2.5653  0.5553
18117THY    CA536513   1.562   1.228   6.326  0.2468  0.1539  0.1396
18117THY    CM136514   1.693   1.171   6.373  0.0005 -0.2014  0.0284
18117THY    HM136515   1.739   1.114   6.291  2.0540 -0.0189  1.3264
18117THY    HM236516   1.675   1.106   6.459  0.4039 -1.1404 -1.3746
18117THY    HM336517   1.771   1.245   6.391  0.3215 -1.0261 -0.0913
18117THY    CA636518   1.476   1.299   6.415  0.4053  0.2091  0.0459
18117THY    HA636519   1.514   1.335   6.510  0.3777 -0.8747  3.2430
18118THY      O36520   8.187   8.992   5.449 -0.2254  0.4495  0.0937
18118THY     HO36521   8.136   8.926   5.499 -1.0390 -0.5499 -0.0608
18118THY    CA136522   8.295   9.029   5.528  0.2582 -1.0060 -0.4391
18118THY    CA236523   8.388   9.129   5.482  0.0323 -0.0776  0.9962
18118THY    CP136524   8.385   9.173   5.339 -0.8304 -0.1457  0.3813
18118THY    HP136525   8.283   9.156   5.302 -0.8615 -0.1999  0.6721
18118THY    CP236526   8.476   9.090   5.254 -0.1546 -0.2062 -0.4345
18118THY    HP236527   8.573   9.106   5.303  0.2313 -1.1024  0.0711
18118THY    HP336528   8.477   9.139   5.156  1.5705  1.2279  2.6984
18118THY    HP436529   8.435   8.988   5.262  1.1055  0.0158 -0.9490
18118THY    CP336530   8.408   9.324   5.318 -0.4680 -0.3208  0.1841
18118THY    HP536531   8.510   9.352   5.348 -1.1341  1.6122  0.6561
18118THY    HP636532   8.336   9.385   5.373 -0.8538  1.0870 -1.4877
18118THY    HP736533   8.403   9.355   5.212 -1.1545 -0.4691 -0.4159
18118THY    CA336534   8.493   9.165   5.565 -0.4614  0.1595 -0.2502
18118THY    HA336535   8.571   9.226   5.520 -0.3643 -0.6211 -0.9297
18118THY    CA436536   8.503   9.125   5.703  0.0664  0.7942  0.6368
18118THY    HA436537   8.588   9.154   5.765  0.4843 -0.5267  2.4718
18118THY    CA536538   8.401   9.042   5.750 -0.0651  0.0793 -0.2959
18118THY    CM136539   8.410   8.994   5.893  0.2956  0.6284 -0.8502
18118THY    HM136540   8.470   8.903   5.893  0.6684 -0.9361 -0.6314
18118THY    HM236541   8.311   8.991   5.940  1.8560  4.2453 -0.4587
18118THY    HM336542   8.463   9.067   5.956 -2.2786  1.1140  0.7484
18118THY    CA636543   8.299   8.992   5.668  0.1173 -0.2776 -0.6132
18118THY    HA636544   8.223   8.924   5.706 -1.1795  2.8833  2.3105
18119THY      O36545   2.897   7.778   3.067 -0.1483  0.0551  0.2082
18119THY     HO36546   2.858   7.689   3.070 -0.7894  1.7098  0.4949
18119THY    CA136547   2.859   7.830   3.187  0.5359 -0.1244  0.4226
18119THY    CA236548   2.884   7.967   3.213 -0.5398 -0.2905 -0.0238
18119THY    CP136549   2.972   8.052   3.119 -0.1411  0.6242 -0.4467
18119THY    HP136550   2.966   8.009   3.018 -0.9353  0.4258  0.0948
18119THY    CP236551   3.122   8.054   3.160 -0.3575 -0.2733 -0.1854
18119THY    HP236552   3.185   8.104   3.085  1.8527 -0.1709 -2.6180
18119THY    HP336553   3.170   7.961   3.193 -0.5933  0.3303 -0.0986
18119THY    HP436554   3.132   8.118   3.249  0.3878 -0.8771  0.5649
18119THY    CP336555   2.921   8.198   3.102  0.3839  0.0602 -0.7215
18119THY    HP536556   2.820   8.195   3.058 -0.2995  1.5970 -1.7042
18119THY    HP636557   2.988   8.244   3.029 -0.6694 -0.2885  0.3110
18119THY    HP736558   2.920   8.248   3.200 -0.5984 -0.3884  0.1734
18119THY    CA336559   2.847   8.008   3.336  0.4153 -0.0959 -0.1236
18119THY    HA336560   2.846   8.114   3.363 -1.1240 -2.2219  0.4662
18119THY    CA436561   2.777   7.922   3.427  0.0944 -0.0681 -0.3036
18119THY    HA436562   2.739   7.969   3.518 -0.3777 -0.7901  0.7506
18119THY    CA536563   2.759   7.792   3.400  0.5317  0.3423  0.7268
18119THY    CM136564   2.678   7.707   3.499  1.1613 -0.1431 -0.7900
18119THY    HM136565   2.584   7.761   3.515  2.7144  2.5680  1.3424
18119THY    HM236566   2.735   7.692   3.592  2.0304 -0.9625 -2.9535
18119THY    HM336567   2.656   7.603   3.473  0.4222  1.8959 -1.1875
18119THY    CA636568   2.801   7.745   3.282  0.8120  0.6140  0.7015
18119THY    HA636569   2.790   7.638   3.265  1.7681 -2.0471  0.9454
18120THY      O36570   7.508   8.119   5.028 -0.3813  0.0621 -0.5641
18120THY     HO36571   7.430   8.177   5.027  0.6124  0.2218  0.8011
18120THY    CA136572   7.525   8.074   5.154 -0.1290  0.4932  0.3690
18120THY    CA236573   7.583   7.947   5.180  0.6665  0.7059  0.2530
18120THY    CP136574   7.646   7.868   5.065  0.4572 -0.0745 -0.5077
18120THY    HP136575   7.663   7.926   4.973  0.9923 -1.0019 -2.0606
18120THY    CP236576   7.560   7.743   5.031  0.0461 -0.2616  0.5582
18120THY    HP236577   7.542   7.677   5.116 -2.4477 -2.1654 -1.4506
18120THY    HP336578   7.605   7.696   4.942 -1.0232 -1.5909  1.9215
18120THY    HP436579   7.458   7.780   5.016  0.7624 -2.0930  1.9455
18120THY    CP336580   7.784   7.820   5.103  1.0738 -0.6457  0.3665
18120THY    HP536581   7.823   7.753   5.026  0.6616  0.5851 -1.3787
18120THY    HP636582   7.778   7.756   5.192 -0.8925 -3.3135 -3.5762
18120THY    HP736583   7.855   7.901   5.122 -0.0556  0.1398  1.2102
18120THY    CA336584   7.592   7.893   5.309  0.5276  0.3335  0.3013
18120THY    HA336585   7.639   7.798   5.332  0.8948 -0.6887  0.2253
18120THY    CA436586   7.524   7.968   5.410 -0.4028 -1.0022 -0.9621
18120THY    HA436587   7.514   7.940   5.515 -2.2745 -0.3529  1.6602
18120THY    CA536588   7.466   8.095   5.384 -0.1364 -0.3335 -0.1484
18120THY    CM136589   7.395   8.169   5.494  0.2226 -0.5466 -0.9071
18120THY    HM136590   7.451   8.263   5.492 -0.3712 -0.9819 -0.5565
18120THY    HM236591   7.406   8.116   5.590 -0.7147 -0.7764 -1.5529
18120THY    HM336592   7.290   8.191   5.470 -0.1051  2.1271  0.9466
18120THY    CA636593   7.464   8.142   5.257  0.1150 -0.5261 -0.5885
18120THY    HA636594   7.429   8.241   5.228 -0.8359 -1.7386 -1.2660
18121THY      O36595   8.296   8.033   6.036 -0.3082  0.2870 -0.1583
18121THY     HO36596   8.322   8.126   6.021  0.2033  0.0698 -0.3329
18121THY    CA136597   8.261   8.032   6.170  0.1666 -0.0140 -0.9636
18121THY    CA236598   8.212   7.912   6.234 -0.2535  0.2997  0.0825
18121THY    CP136599   8.216   7.782   6.159  0.0409  0.4180  0.2840
18121THY    HP136600   8.225   7.796   6.050  0.5885  0.3848 -0.2980
18121THY    CP236601   8.067   7.727   6.160 -0.0356  0.1397  0.6918
18121THY    HP236602   8.060   7.625   6.120  1.6518 -0.4704  0.7884
18121THY    HP336603   7.993   7.795   6.117 -0.5120  0.1891  0.2191
18121THY    HP436604   8.046   7.726   6.267  0.3384  0.2141  0.0777
18121THY    CP336605   8.307   7.675   6.214  0.1936  0.8334  0.1067
18121THY    HP536606   8.395   7.731   6.249 -0.1306  0.0330  1.1492
18121THY    HP636607   8.342   7.613   6.130  1.4688  0.4881  1.2491
18121THY    HP736608   8.256   7.619   6.293 -0.7038 -0.5253 -1.0818
18121THY    CA336609   8.192   7.916   6.376  0.7985  0.1872  0.8124
18121THY    HA336610   8.166   7.825   6.429 -0.2948  0.6614  1.3731
18121THY    CA436611   8.201   8.039   6.438  0.2648 -0.8618  0.6464
18121THY    HA436612   8.192   8.043   6.546 -1.4435 -0.9727  0.4417
18121THY    CA536613   8.249   8.156   6.379 -0.0542 -0.0755  0.2598
18121THY    CM136614   8.272   8.276   6.465 -0.6862  1.5477  0.0099
18121THY    HM136615   8.219   8.273   6.561  1.7017  2.9378 -0.3119
18121THY    HM236616   8.229   8.365   6.419 -3.3604  1.3768 -1.2476
18121THY    HM336617   8.377   8.296   6.485 -0.0314 -0.1244 -1.4491
18121THY    CA636618   8.285   8.147   6.243  0.2763  0.0866 -0.0274
18121THY    HA636619   8.321   8.241   6.203  2.1961 -0.8234 -1.1019
18122THY      O36620   2.632   9.035   7.203  0.9539  0.0754 -0.0139
18122THY     HO36621   2.594   8.946   7.213  0.3070 -1.1835  0.0951
18122THY    CA136622   2.689   9.073   7.315 -0.5488  0.1701  0.4524
18122THY    CA236623   2.684   9.202   7.356  0.7625 -0.5095  0.1740
18122THY    CP136624   2.593   9.308   7.297  0.3576  0.7966 -0.7517
18122THY    HP136625   2.535   9.252   7.222  0.9212 -2.7351  2.9633
18122THY    CP236626   2.679   9.407   7.226 -0.1331 -1.1603 -0.0637
18122THY    HP236627   2.749   9.340   7.175  0.0475  0.1447 -0.8972
18122THY    HP336628   2.743   9.473   7.285  1.4598 -3.8540  0.9455
18122THY    HP436629   2.616   9.469   7.161 -2.7154  0.2578 -0.9988
18122THY    CP336630   2.506   9.363   7.405  0.7159 -0.6301 -0.8631
18122THY    HP536631   2.420   9.414   7.360  0.9827 -0.0056  0.1753
18122THY    HP636632   2.551   9.448   7.458  0.4895 -1.4024 -0.2413
18122THY    HP736633   2.470   9.290   7.479  0.1244 -0.0478 -0.0041
18122THY    CA336634   2.761   9.236   7.475  0.1841  0.0182 -0.3157
18122THY    HA336635   2.739   9.332   7.519  2.0760  0.5187 -0.0773
18122THY    CA436636   2.856   9.140   7.515  0.0239  0.2831  0.3573
18122THY    HA436637   2.921   9.159   7.600 -0.5054  0.6342  0.6174
18122THY    CA536638   2.870   9.013   7.461 -0.2351 -0.2416  0.0081
18122THY    CM136639   2.951   8.907   7.525 -0.2285 -0.1355  0.0895
18122THY    HM136640   3.016   8.869   7.445  0.4012  0.3396  0.1388
18122THY    HM236641   2.886   8.823   7.552 -1.9577  0.4893  1.5665
18122THY    HM336642   3.004   8.952   7.610  0.6389  0.1638 -1.4273
18122THY    CA636643   2.775   8.981   7.369  1.0602 -0.5555  0.0629
18122THY    HA636644   2.782   8.885   7.318 -1.6803 -0.8554 -0.0793
18123THY      O36645   2.972   7.508   7.592 -0.2618 -0.0373 -0.1061
18123THY     HO36646   2.929   7.513   7.679  1.6486  1.0570 -1.4584
18123THY    CA136647   2.971   7.380   7.566  0.5864  0.4858  0.3443
18123THY    CA236648   3.040   7.323   7.451  0.4677 -0.3382  0.1622
18123THY    CP136649   3.101   7.409   7.337  0.3151 -0.1640 -0.1579
18123THY    HP136650   3.156   7.489   7.388  1.5936  1.1482 -1.7956
18123THY    CP236651   2.979   7.457   7.253  0.3185  0.6770 -0.3965
18123THY    HP236652   2.886   7.400   7.265  0.1542  1.1272 -0.0474
18123THY    HP336653   2.992   7.463   7.145  1.4720  0.8521  0.6996
18123THY    HP436654   2.956   7.562   7.274  0.2990 -2.3400  0.2783
18123THY    CP336655   3.189   7.331   7.240  0.0519 -0.1980  0.0140
18123THY    HP536656   3.136   7.249   7.190 -0.6524 -0.9386  0.8948
18123THY    HP636657   3.284   7.298   7.284  1.5411 -2.5922  0.8393
18123THY    HP736658   3.225   7.396   7.160  2.0342 -0.8466 -1.7690
18123THY    CA336659   3.047   7.181   7.441 -0.0144  0.4194  0.4917
18123THY    HA336660   3.105   7.132   7.364  1.9800  1.9388  0.3446
18123THY    CA436661   2.979   7.096   7.529 -0.1322  0.2228 -0.0637
18123THY    HA436662   2.975   6.988   7.520 -3.4858 -2.4041  0.1138
18123THY    CA536663   2.920   7.155   7.636  0.8036 -0.8730  0.3165
18123THY    CM136664   2.866   7.071   7.748  0.1636  0.8262 -0.1273
18123THY    HM136665   2.822   7.135   7.825  0.2523  0.2501  0.6336
18123THY    HM236666   2.946   7.015   7.800  1.0806  2.2757  2.3800
18123THY    HM336667   2.792   6.997   7.716 -1.2563  1.3191  1.0492
18123THY    CA636668   2.903   7.297   7.651  0.4456 -0.4394  0.1396
18123THY    HA636669   2.849   7.332   7.739  1.5317  0.3975 -0.2041
18124THY      O36670   0.630   7.587   2.923  0.4037  0.2238 -0.0891
18124THY     HO36671   0.689   7.598   2.847 -0.2636 -0.2210  0.5199
18124THY    CA136672   0.697   7.643   3.034 -0.0610  0.0460  0.5570
18124THY    CA236673   0.636   7.735   3.119 -0.6263 -0.3648 -0.1663
18124THY    CP136674   0.494   7.776   3.101  0.5654  1.0066  0.0259
18124THY    HP136675   0.447   7.681   3.072  1.1960 -0.7075  0.1917
18124THY    CP236676   0.493   7.872   2.980 -0.2976  0.4170  0.1786
18124THY    HP236677   0.532   7.971   3.009 -0.7467 -0.2356  0.5615
18124THY    HP336678   0.392   7.901   2.951 -0.4994  0.9049 -0.0285
18124THY    HP436679   0.553   7.832   2.897  0.0937  0.6889  0.1957
18124THY    CP336680   0.413   7.823   3.216 -0.0315 -0.4540  0.1851
18124THY    HP536681   0.315   7.851   3.174 -0.2298  0.7611  1.4437
18124THY    HP636682   0.461   7.906   3.271  1.4753  0.7854 -1.4429
18124THY    HP736683   0.394   7.735   3.278 -0.8255 -1.7066 -0.5462
18124THY    CA336684   0.711   7.778   3.230 -0.0001 -0.0843 -0.8095
18124THY    HA336685   0.672   7.850   3.301  3.6785  1.2352  0.1150
18124THY    CA436686   0.849   7.742   3.239 -0.0003 -0.4906 -0.0629
18124THY    HA436687   0.902   7.782   3.326 -1.8138  0.7517 -0.2288
18124THY    CA536688   0.909   7.649   3.150  0.4364 -0.8229 -0.8412
18124THY    CM136689   1.038   7.608   3.175 -0.4216 -0.0459  0.5570
18124THY    HM136690   1.051   7.502   3.150 -1.0033  0.4865  0.3520
18124THY    HM236691   1.066   7.612   3.281 -0.0965  0.0417 -2.1312
18124THY    HM336692   1.108   7.662   3.109 -0.9548  0.6209  2.1095
18124THY    CA636693   0.828   7.595   3.047  1.2954 -0.2722 -0.2336
18124THY    HA636694   0.866   7.517   2.982 -0.4078 -1.0373 -0.4908
18125THY      O36695   4.582   5.590   2.072 -0.5762  0.1810 -0.0093
18125THY     HO36696   4.533   5.531   2.012  0.0836 -1.3063  0.8918
18125THY    CA136697   4.688   5.517   2.113 -0.2969 -0.2851  0.2734
18125THY    CA236698   4.746   5.537   2.240 -0.4357 -0.0776  0.8768
18125THY    CP136699   4.680   5.629   2.336  0.3524 -0.6138 -0.6002
18125THY    HP136700   4.587   5.674   2.298 -0.1794  0.7476 -0.5194
18125THY    CP236701   4.778   5.749   2.361 -0.4692  0.6817 -0.2448
18125THY    HP236702   4.871   5.705   2.399 -1.1449  1.6326 -0.8825
18125THY    HP336703   4.736   5.822   2.431  0.5800 -0.3088  1.3633
18125THY    HP436704   4.812   5.799   2.270  0.9860  0.4620 -1.5638
18125THY    CP336705   4.654   5.560   2.471  1.1176 -0.0365  0.3549
18125THY    HP536706   4.574   5.616   2.521 -1.1253 -2.8026 -0.1473
18125THY    HP636707   4.748   5.548   2.526  0.6602  0.6024 -0.4379
18125THY    HP736708   4.619   5.459   2.446  0.5369 -2.7876  1.1627
18125THY    CA336709   4.864   5.460   2.265 -0.3301 -0.3793  0.0683
18125THY    HA336710   4.904   5.477   2.365  3.4873 -1.7172 -0.0689
18125THY    CA436711   4.910   5.360   2.171 -0.5636 -0.4189 -0.0255
18125THY    HA436712   4.995   5.293   2.182 -1.1691 -1.5952 -1.0218
18125THY    CA536713   4.839   5.344   2.053  0.7095  0.0058  0.5319
18125THY    CM136714   4.883   5.250   1.952  0.4583 -0.3558  0.2839
18125THY    HM136715   4.821   5.242   1.862  0.3046 -0.3514  1.2574
18125THY    HM236716   4.896   5.150   1.993 -2.2945 -1.6554 -0.7177
18125THY    HM336717   4.981   5.286   1.919  0.1018 -0.7925  0.8733
18125THY    CA636718   4.726   5.416   2.023  0.4073  0.2790  0.2427
18125THY    HA636719   4.677   5.398   1.928  0.8796  0.3686 -1.7429
18126THY      O36720   1.203   2.390   6.205  0.5740 -0.9401 -0.4030
18126THY     HO36721   1.217   2.429   6.292  1.1278 -2.1093  2.2057
18126THY    CA136722   1.297   2.458   6.131  0.2191 -0.0362 -1.0999
18126THY    CA236723   1.366   2.387   6.031  0.1174  0.1688 -0.0809
18126THY    CP136724   1.312   2.250   5.975 -0.4326 -0.1384  0.4978
18126THY    HP136725   1.206   2.246   6.003 -0.1433  0.8795 -0.6931
18126THY    CP236726   1.401   2.145   6.048  0.3878  0.0517  0.6582
18126THY    HP236727   1.506   2.171   6.031  0.1213 -2.5373  0.3579
18126THY    HP336728   1.379   2.049   5.999  0.8018 -0.1306  0.6543
18126THY    HP436729   1.370   2.135   6.152  0.7095  0.0085 -1.1835
18126THY    CP336730   1.330   2.239   5.818 -0.0935 -0.2118  0.8129
18126THY    HP536731   1.278   2.154   5.773 -0.4472  1.5294  0.0564
18126THY    HP636732   1.437   2.243   5.794  0.3294  1.1713 -0.9629
18126THY    HP736733   1.279   2.328   5.778  0.5178 -0.1238  1.2102
18126THY    CA336734   1.482   2.447   5.979 -0.1162  0.7680 -0.7270
18126THY    HA336735   1.542   2.395   5.905 -0.0112  0.4777 -0.1996
18126THY    CA436736   1.522   2.571   6.026 -0.1277  0.4114 -0.3927
18126THY    HA436737   1.603   2.624   5.977 -0.6803 -0.2193 -0.1249
18126THY    CA536738   1.450   2.637   6.120 -0.6402 -0.3149  0.7482
18126THY    CM136739   1.502   2.769   6.169  0.3885  0.3555  0.7271
18126THY    HM136740   1.610   2.770   6.187  0.7161 -1.4142  1.4503
18126THY    HM236741   1.463   2.804   6.265 -0.4500  1.2024 -2.2254
18126THY    HM336742   1.478   2.845   6.094  2.5218 -1.1098  0.0592
18126THY    CA636743   1.342   2.582   6.178  0.5295  0.3083  0.7577
18126THY    HA636744   1.285   2.628   6.257  0.5965 -0.0265  1.4234
18127THY      O36745   8.597   3.054   1.964 -0.4706  0.0995  0.1352
18127THY     HO36746   8.651   3.096   1.896 -2.8961 -1.3460  1.1415
18127THY    CA136747   8.648   3.099   2.081 -0.2504 -0.3119  0.5413
18127THY    CA236748   8.583   3.097   2.210 -0.2926  0.4092 -0.0887
18127THY    CP136749   8.449   3.040   2.227 -0.1256 -0.1374  0.4865
18127THY    HP136750   8.418   3.009   2.126  3.3006 -1.7137  1.6575
18127THY    CP236751   8.344   3.140   2.271  0.8707 -0.2215 -0.0052
18127THY    HP236752   8.342   3.233   2.213 -2.2917 -0.2218  0.0088
18127THY    HP336753   8.372   3.182   2.369  1.7072 -0.4887  0.0807
18127THY    HP436754   8.245   3.095   2.270 -0.8242 -1.2536  3.3932
18127THY    CP336755   8.443   2.918   2.319 -0.3572 -1.1654 -0.1530
18127THY    HP536756   8.505   2.836   2.280  0.4709  0.5657 -0.3799
18127THY    HP636757   8.343   2.879   2.340 -0.1564  0.5690  0.2034
18127THY    HP736758   8.484   2.948   2.416 -0.6849 -1.3664  0.9751
18127THY    CA336759   8.648   3.160   2.322  0.1061 -0.5411 -0.4846
18127THY    HA336760   8.596   3.164   2.418 -2.6324 -1.9613  1.5842
18127THY    CA436761   8.763   3.228   2.304 -0.1363  0.2032 -0.2358
18127THY    HA436762   8.800   3.284   2.389 -0.7345  0.0631  0.3732
18127THY    CA536763   8.819   3.236   2.178 -0.6299 -0.2364  0.0149
18127THY    CM136764   8.945   3.312   2.164  0.4358 -0.0910  0.0718
18127THY    HM136765   9.018   3.257   2.103 -0.1950 -0.3775 -0.4565
18127THY    HM236766   8.992   3.334   2.261  0.8910  0.3040 -2.3235
18127THY    HM336767   8.925   3.405   2.109 -0.7150  0.1470 -0.0301
18127THY    CA636768   8.769   3.168   2.070 -0.5403  0.5572 -0.1587
18127THY    HA636769   8.828   3.175   1.980 -1.5257 -0.0100  1.0206
18128THY      O36770   8.263   8.269   5.641  0.1661 -0.1200  0.1163
18128THY     HO36771   8.253   8.173   5.645 -0.9297  0.6262  0.2459
18128THY    CA136772   8.374   8.298   5.573 -0.5173 -0.5233 -0.0407
18128THY    CA236773   8.396   8.428   5.521 -0.5729  0.2726 -0.1682
18128THY    CP136774   8.300   8.538   5.553  0.2341 -0.2094  0.0312
18128THY    HP136775   8.220   8.502   5.619  0.6197  0.4540  0.3750
18128THY    CP236776   8.230   8.585   5.434 -0.0981 -0.2773  0.1251
18128THY    HP236777   8.182   8.682   5.452  0.2412 -0.4655  0.3299
18128THY    HP336778   8.149   8.514   5.413 -0.8794  3.0596 -0.1533
18128THY    HP436779   8.302   8.600   5.353 -0.2379 -0.4639 -0.1965
18128THY    CP336780   8.369   8.649   5.629  0.4276 -0.3164  0.4367
18128THY    HP536781   8.472   8.615   5.647  0.6137 -0.1932  1.0498
18128THY    HP636782   8.325   8.670   5.727 -0.5104 -0.4574 -0.7765
18128THY    HP736783   8.381   8.737   5.565  0.7182 -1.4661 -0.4089
18128THY    CA336784   8.512   8.449   5.442 -0.5425  0.2959 -0.8052
18128THY    HA336785   8.527   8.547   5.397  0.9269  1.0120 -0.6692
18128THY    CA436786   8.610   8.344   5.430  0.5350  0.0217  0.0770
18128THY    HA436787   8.697   8.350   5.365  0.5438 -0.3493 -2.6260
18128THY    CA536788   8.586   8.220   5.485 -0.3823 -0.5223  0.5437
18128THY    CM136789   8.691   8.117   5.478 -0.9290 -0.0286 -0.5051
18128THY    HM136790   8.699   8.062   5.572  1.2185 -1.7281 -3.4267
18128THY    HM236791   8.790   8.158   5.458 -1.4251 -2.6436 -0.3614
18128THY    HM336792   8.663   8.029   5.419  0.4439 -0.8871 -0.3919
18128THY    CA636793   8.458   8.191   5.552 -0.8904  0.6980  0.6106
18128THY    HA636794   8.446   8.099   5.609 -1.7797 -2.1531 -1.1557
18129THY      O36795   5.712   5.141   1.928  0.5341  0.1898 -0.8501
18129THY     HO36796   5.798   5.160   1.968  0.5465 -0.2372  0.0316
18129THY    CA136797   5.735   5.049   1.833  0.3682 -0.6790 -0.3966
18129THY    CA236798   5.630   5.003   1.756  0.6612 -0.2725  0.0154
18129THY    CP136799   5.478   5.038   1.795 -0.5930 -0.4841  0.0003
18129THY    HP136800   5.479   5.104   1.882  0.6331 -1.9461  2.0285
18129THY    CP236801   5.394   4.921   1.820  0.0842 -0.5105  0.1366
18129THY    HP236802   5.299   4.948   1.868  0.8287  0.0840  1.8801
18129THY    HP336803   5.442   4.846   1.884  0.5288 -0.3493  0.5451
18129THY    HP436804   5.379   4.872   1.724 -0.5266 -0.0253 -0.6528
18129THY    CP336805   5.428   5.114   1.681  0.7551 -1.0817 -0.9697
18129THY    HP536806   5.323   5.138   1.703  1.5496  0.2092  1.8154
18129THY    HP636807   5.422   5.060   1.586 -1.1139 -2.0158  0.7035
18129THY    HP736808   5.493   5.203   1.682 -0.4529  0.3071 -0.0406
18129THY    CA336809   5.659   4.902   1.665 -0.4264 -0.0409 -0.7167
18129THY    HA336810   5.582   4.861   1.601 -1.8794  2.6858 -2.5390
18129THY    CA436811   5.787   4.848   1.655 -0.3193 -0.2421 -0.7719
18129THY    HA436812   5.810   4.779   1.574  0.1073 -2.4109  1.7572
18129THY    CA536813   5.896   4.898   1.729  0.2617 -0.7195  0.8457
18129THY    CM136814   6.034   4.835   1.729  0.0666  0.2169 -0.2760
18129THY    HM136815   6.037   4.771   1.640  0.3823 -1.4824  1.9529
18129THY    HM236816   6.053   4.779   1.821  2.6785  0.2762  0.5927
18129THY    HM336817   6.112   4.912   1.719  1.3499  0.9457 -1.4419
18129THY    CA636818   5.867   4.996   1.820  0.0203 -1.1688 -0.6114
18129THY    HA636819   5.947   5.041   1.879 -1.0761  0.7777 -1.1188
18130THY      O36820   8.273   1.567   5.958 -0.2137  0.2167  0.7390
18130THY     HO36821   8.338   1.537   5.893 -0.5982  0.7769 -1.5078
18130THY    CA136822   8.328   1.574   6.089 -0.0096  0.6529  0.4271
18130THY    CA236823   8.255   1.615   6.199 -0.0759  0.0356 -0.5058
18130THY    CP136824   8.107   1.672   6.187 -0.4310  0.3488  0.3981
18130THY    HP136825   8.065   1.663   6.086  1.6814 -0.5781  0.3867
18130THY    CP236826   8.102   1.816   6.234  0.3614 -0.1919 -0.8620
18130THY    HP236827   8.154   1.829   6.330  0.8739 -0.4703 -0.8238
18130THY    HP336828   7.999   1.848   6.253  0.4714 -0.1094 -0.5574
18130THY    HP436829   8.153   1.876   6.158 -0.8636  0.0586  0.5233
18130THY    CP336830   8.005   1.587   6.264  0.0534  1.0465 -0.0507
18130THY    HP536831   7.907   1.634   6.275 -0.9033 -0.0460 -1.6974
18130THY    HP636832   8.036   1.561   6.365  0.1114  1.9848  3.1521
18130THY    HP736833   7.991   1.495   6.207 -1.7216  1.0202  0.2104
18130THY    CA336834   8.324   1.614   6.323 -0.6380  0.0997  0.1515
18130THY    HA336835   8.271   1.641   6.414  0.4424  0.9775 -0.6113
18130THY    CA436836   8.467   1.583   6.331 -0.0274 -0.6211  0.0289
18130THY    HA436837   8.510   1.574   6.430 -1.0607 -0.3204 -2.3292
18130THY    CA536838   8.536   1.545   6.218  0.5951  0.1417 -0.7467
18130THY    CM136839   8.682   1.514   6.229 -0.3377  0.0763  0.5009
18130THY    HM136840   8.732   1.593   6.286 -0.5427  0.5372  0.3011
18130THY    HM236841   8.734   1.511   6.132  0.0766  0.3145 -0.3223
18130THY    HM336842   8.698   1.416   6.274  0.1215 -0.0360  0.5227
18130THY    CA636843   8.466   1.539   6.098  0.5968  0.0135  0.0158
18130THY    HA636844   8.520   1.513   6.007 -0.5090 -0.3690 -1.0213
18131THY      O36845   1.277   7.035   4.258 -0.2659  0.4298 -0.1857
18131THY     HO36846   1.283   6.987   4.343 -3.0685  0.0735 -1.3596
18131THY    CA136847   1.353   6.976   4.168 -1.2255 -0.0806  0.1300
18131THY    CA236848   1.308   6.963   4.040  0.4137 -0.2381  0.8398
18131THY    CP136849   1.176   7.021   3.998 -0.2098 -0.0281  0.7062
18131THY    HP136850   1.112   7.022   4.088 -0.4765 -0.2180  1.7391
18131THY    CP236851   1.099   6.942   3.888 -0.0259 -0.0441  0.2048
18131THY    HP236852   0.998   6.985   3.883  0.5604 -0.9693  1.5514
18131THY    HP336853   1.074   6.836   3.902 -1.9299  1.1318  0.7423
18131THY    HP436854   1.135   6.960   3.786 -0.7118 -0.2037  0.7426
18131THY    CP336855   1.200   7.161   3.948 -0.0797 -0.1826 -0.1630
18131THY    HP536856   1.105   7.206   3.919  0.8014 -1.4715  0.9733
18131THY    HP636857   1.272   7.156   3.865  0.3394 -0.0586  2.3705
18131THY    HP736858   1.251   7.225   4.021  2.2490 -2.5498  0.8963
18131THY    CA336859   1.389   6.891   3.953 -0.2027  0.5105 -0.0658
18131THY    HA336860   1.355   6.883   3.851  0.9477 -0.2450  3.2432
18131THY    CA436861   1.509   6.834   3.992  0.2880 -0.8235 -0.4795
18131THY    HA436862   1.559   6.781   3.911  0.4972 -1.4996  0.7319
18131THY    CA536863   1.568   6.872   4.112 -0.5078 -0.3043 -0.6710
18131THY    CM136864   1.703   6.833   4.162 -0.0880 -0.1629 -0.3363
18131THY    HM136865   1.687   6.779   4.255 -0.4501 -0.4338 -0.6962
18131THY    HM236866   1.760   6.923   4.190 -1.0886  0.5137  0.1034
18131THY    HM336867   1.759   6.773   4.089 -0.7067  0.1391 -1.2855
18131THY    CA636868   1.488   6.952   4.195  0.6292 -0.0322  0.0306
18131THY    HA636869   1.533   6.989   4.287  0.2725  0.7872 -1.4857
18132THY      O36870   5.576   2.784   2.975 -0.0001 -0.6715 -0.4473
18132THY     HO36871   5.500   2.799   2.916 -0.3478 -0.1330 -0.0536
18132THY    CA136872   5.589   2.900   3.045 -0.1276 -0.8830  0.9686
18132THY    CA236873   5.677   2.907   3.159 -0.0650 -0.6360 -0.1277
18132THY    CP136874   5.738   2.787   3.224 -0.1054 -0.1455  0.6040
18132THY    HP136875   5.713   2.692   3.176 -2.3017  0.6463  0.7119
18132THY    CP236876   5.690   2.769   3.363 -0.0143  0.5208  0.5642
18132THY    HP236877   5.743   2.685   3.410 -0.8373  1.1864  0.4045
18132THY    HP336878   5.583   2.747   3.356  0.2076 -3.3643  0.0673
18132THY    HP436879   5.704   2.855   3.429  0.8575 -0.1184  0.9344
18132THY    CP336880   5.894   2.799   3.219 -0.3129 -0.3287 -0.0252
18132THY    HP536881   5.924   2.816   3.115  0.4924 -0.2908 -1.1143
18132THY    HP636882   5.940   2.703   3.246 -0.6575  0.8732  0.1288
18132THY    HP736883   5.935   2.869   3.293 -1.2747  0.6215 -0.4298
18132THY    CA336884   5.697   3.026   3.223  0.0451  0.9360 -0.5023
18132THY    HA336885   5.767   3.032   3.306  2.4960 -1.1269  0.9868
18132THY    CA436886   5.634   3.147   3.166 -0.1494 -0.1105 -0.1334
18132THY    HA436887   5.657   3.243   3.211 -1.3646 -1.0820  0.6357
18132THY    CA536888   5.566   3.140   3.045  0.0319  0.7912 -0.2887
18132THY    CM136889   5.515   3.259   2.973 -0.2925  0.5371  0.4704
18132THY    HM136890   5.546   3.265   2.868 -0.0215  0.5534 -0.4473
18132THY    HM236891   5.544   3.356   3.015 -0.5076 -0.0632  0.8005
18132THY    HM336892   5.405   3.266   2.971 -0.3776 -0.8796 -0.6348
18132THY    CA636893   5.538   3.013   2.993 -0.1635  0.3973 -0.3064
18132THY    HA636894   5.480   2.993   2.904  0.0209  0.4211 -0.9786
18133THY      O36895   7.282   0.344   2.970 -0.2952 -0.3004  0.3060
18133THY     HO36896   7.214   0.288   3.010  0.8332 -0.8581 -1.5327
18133THY    CA136897   7.373   0.357   3.073 -0.2325 -0.5487  0.2976
18133THY    CA236898   7.511   0.337   3.046 -0.6968 -0.3620  0.0502
18133THY    CP136899   7.564   0.318   2.902  0.1180 -0.5257 -0.3816
18133THY    HP136900   7.483   0.308   2.828 -0.0019 -0.1004 -3.8193
18133THY    CP236901   7.637   0.186   2.884 -0.1106  0.1809  0.6535
18133THY    HP236902   7.736   0.185   2.930  0.9176 -1.8930 -1.5100
18133THY    HP336903   7.654   0.159   2.779 -0.9188  0.5287 -1.3778
18133THY    HP436904   7.573   0.108   2.926  1.2447  0.0952 -0.5267
18133THY    CP336905   7.652   0.437   2.862 -0.1997 -0.1589  0.0672
18133THY    HP536906   7.684   0.423   2.758 -0.0798  0.1472 -2.3540
18133THY    HP636907   7.739   0.431   2.927 -0.2110 -0.2875 -2.0619
18133THY    HP736908   7.601   0.533   2.876 -0.1229  0.4314  0.0244
18133THY    CA336909   7.600   0.356   3.154  1.1498 -0.4048 -0.0749
18133THY    HA336910   7.706   0.334   3.138  1.4287  1.8129 -0.5988
18133THY    CA436911   7.550   0.384   3.282 -0.5552  0.3244 -0.1601
18133THY    HA436912   7.621   0.377   3.364 -1.0615  0.7186 -0.9336
18133THY    CA536913   7.415   0.405   3.305 -0.4062  0.3295  0.3875
18133THY    CM136914   7.371   0.434   3.447 -0.6887  0.6842  0.0863
18133THY    HM136915   7.408   0.526   3.493 -0.0541  0.4019 -0.0189
18133THY    HM236916   7.417   0.357   3.510  2.2034  1.2953  2.1527
18133THY    HM336917   7.262   0.429   3.458 -0.4789  2.6602 -3.3171
18133THY    CA636918   7.324   0.382   3.200  0.4133 -0.3367  0.0175
18133THY    HA636919   7.218   0.399   3.216  0.9781  1.6995  2.2017
18134THY      O36920   5.383   7.190   7.567 -0.2845  0.1599 -0.5537
18134THY     HO36921   5.295   7.223   7.542 -0.4338  3.1837  1.7763
18134THY    CA136922   5.451   7.303   7.595 -0.3115  0.2164  0.3233
18134THY    CA236923   5.579   7.302   7.657 -1.0048  0.6441  1.0816
18134THY    CP136924   5.635   7.169   7.692  0.1146  0.6317 -0.4601
18134THY    HP136925   5.559   7.091   7.683 -1.1369 -0.4830  0.8419
18134THY    CP236926   5.669   7.159   7.837  0.2193 -0.4941  0.5539
18134THY    HP236927   5.585   7.175   7.905  0.1424  0.1116 -2.0030
18134THY    HP336928   5.743   7.234   7.869 -1.0794  1.3914  1.1020
18134THY    HP436929   5.705   7.058   7.858 -1.2870 -0.3245  0.0293
18134THY    CP336930   5.760   7.139   7.605 -0.4426 -0.3529 -0.1947
18134THY    HP536931   5.724   7.111   7.505  1.3104 -0.2569 -3.1415
18134THY    HP636932   5.805   7.044   7.636 -0.2512  0.4921  0.1640
18134THY    HP736933   5.842   7.212   7.598 -0.4530 -1.1847 -0.2495
18134THY    CA336934   5.664   7.417   7.659 -0.9601 -0.2024  0.0994
18134THY    HA336935   5.768   7.420   7.688 -0.7068 -1.1532  0.7866
18134THY    CA436936   5.605   7.539   7.611  0.5842  0.2779 -0.5816
18134THY    HA436937   5.662   7.631   7.608  0.1055 -0.0823 -0.2920
18134THY    CA536938   5.475   7.537   7.564  0.6284 -0.7774 -0.0825
18134THY    CM136939   5.425   7.654   7.497 -0.6385  0.3624  0.4026
18134THY    HM136940   5.321   7.661   7.530 -1.2080 -1.2473 -0.0007
18134THY    HM236941   5.439   7.644   7.389  1.4776  0.7396 -1.9218
18134THY    HM336942   5.482   7.739   7.536  2.8168 -1.2880 -0.9464
18134THY    CA636943   5.399   7.424   7.558  0.2740 -0.2694  0.6984
18134THY    HA636944   5.304   7.427   7.506  0.7814 -1.3161 -0.3673
18135THY      O36945   7.732   0.621   5.204  0.2831 -0.0710 -0.1847
18135THY     HO36946   7.679   0.539   5.206 -0.8368  0.4626  0.5311
18135THY    CA136947   7.786   0.616   5.084 -0.4282  0.1533 -0.4662
18135THY    CA236948   7.797   0.730   5.002 -0.4591 -0.5844  0.4005
18135THY    CP136949   7.761   0.864   5.058  0.2437  0.3819  0.4500
18135THY    HP136950   7.661   0.849   5.102 -0.1607  0.2896  2.5369
18135THY    CP236951   7.757   0.981   4.949  0.0541 -0.0638 -0.5442
18135THY    HP236952   7.684   0.937   4.880  0.4726 -0.8771  0.0176
18135THY    HP336953   7.856   0.983   4.903  0.4910  0.8531 -0.4261
18135THY    HP436954   7.718   1.080   4.974  0.0789 -2.1337  0.0415
18135THY    CP336955   7.856   0.906   5.169 -0.5442 -0.2356 -0.6072
18135THY    HP536956   7.851   0.825   5.243  0.2113  0.9947  0.4519
18135THY    HP636957   7.824   1.005   5.204  1.0708 -1.0127  0.2305
18135THY    HP736958   7.957   0.919   5.128 -0.6345 -1.4488 -3.1601
18135THY    CA336959   7.856   0.713   4.870 -0.7073  0.0494  0.2654
18135THY    HA336960   7.887   0.799   4.812  1.3877  1.6373  0.6660
18135THY    CA436961   7.889   0.585   4.825  0.0399 -0.3389  1.1893
18135THY    HA436962   7.919   0.557   4.725 -0.6236  0.4126 -3.0347
18135THY    CA536963   7.842   0.469   4.904 -0.0485 -0.5746  0.8969
18135THY    CM136964   7.858   0.334   4.854 -0.5433  0.7612  0.0637
18135THY    HM136965   7.876   0.331   4.746  0.4063  0.9310 -2.2770
18135THY    HM236966   7.767   0.274   4.867 -0.4281 -0.6444 -0.4427
18135THY    HM336967   7.941   0.283   4.904  0.4975 -1.9348 -1.0363
18135THY    CA636968   7.795   0.488   5.031  0.4887  0.2729  0.3705
18135THY    HA636969   7.757   0.403   5.088  1.6183  0.0729 -0.2822
18136THY      O36970   3.907   8.644   5.862  0.4078  0.3937 -0.3373
18136THY     HO36971   3.823   8.596   5.849  0.1323 -1.1143  0.4816
18136THY    CA136972   3.991   8.552   5.918 -0.1779  0.3962 -0.0486
18136THY    CA236973   4.105   8.598   5.998  0.4057  0.5173  0.7492
18136THY    CP136974   4.111   8.743   6.041 -0.1228 -0.5775 -0.6709
18136THY    HP136975   4.040   8.807   5.988  0.5970 -0.9270 -0.1441
18136THY    CP236976   4.250   8.813   6.004  0.4337 -0.1605  0.0256
18136THY    HP236977   4.254   8.919   6.032 -0.8775  1.5243 -0.3266
18136THY    HP336978   4.276   8.793   5.899  1.4009 -0.1402  1.0815
18136THY    HP436979   4.329   8.772   6.068  1.6215 -1.0291  0.8621
18136THY    CP336980   4.089   8.759   6.193 -0.2319  0.1921  0.8786
18136THY    HP536981   3.991   8.715   6.216  0.0505  0.0001  0.1241
18136THY    HP636982   4.092   8.861   6.233 -1.9923  0.3710  0.8946
18136THY    HP736983   4.165   8.696   6.241 -1.8078  1.3010 -0.2423
18136THY    CA336984   4.197   8.502   6.036  0.5931  0.2595  0.0407
18136THY    HA336985   4.287   8.538   6.086 -0.7161  0.7050  2.9248
18136THY    CA436986   4.190   8.370   5.985  0.6063 -0.0185  0.3810
18136THY    HA436987   4.257   8.288   6.010 -1.7148  1.0908 -1.3118
18136THY    CA536988   4.092   8.335   5.896  0.8340  0.0862 -0.4816
18136THY    CM136989   4.094   8.204   5.838 -0.5600  0.4574  0.1323
18136THY    HM136990   4.161   8.133   5.887 -0.0754  0.8167  0.8397
18136THY    HM236991   4.131   8.201   5.735  0.3752  0.7734  0.4917
18136THY    HM336992   3.993   8.159   5.834 -0.2993  0.7078 -0.4875
18136THY    CA636993   3.987   8.423   5.871 -0.2335 -0.5424 -0.2892
18136THY    HA636994   3.898   8.397   5.814 -0.7686  0.5577 -0.9246
18137THY      O36995   7.484   7.622   3.866  0.0701  1.0143  0.1775
18137THY     HO36996   7.559   7.591   3.812 -0.2517  0.0663  1.0115
18137THY    CA136997   7.544   7.704   3.949  0.1176 -0.0717  0.0833
18137THY    CA236998   7.492   7.726   4.079 -0.0700  0.2961  0.0229
18137THY    CP136999   7.374   7.642   4.125  0.0505  0.2427  0.7988
18137THY    HP137000   7.354   7.568   4.047  3.6791 -0.2485  0.1774
18137THY    CP237001   7.252   7.735   4.136 -0.2380  0.0950 -0.0892
18137THY    HP237002   7.163   7.692   4.181 -0.0060  0.2197 -0.4370
18137THY    HP337003   7.220   7.761   4.034 -1.5946  0.8334  1.3111
18137THY    HP437004   7.272   7.826   4.194  1.1949 -2.0161  1.0491
18137THY    CP337005   7.382   7.565   4.261 -0.1331 -0.0598 -0.2030
18137THY    HP537006   7.389   7.644   4.337 -0.0942 -0.8923  0.6156
18137THY    HP637007   7.475   7.507   4.260 -0.4065 -2.3001 -0.6877
18137THY    HP737008   7.289   7.513   4.288 -0.9146 -1.0430  0.6395
18137THY    CA337009   7.550   7.824   4.165  0.1372  0.0562  0.3956
18137THY    HA337010   7.520   7.839   4.269 -1.0315 -0.0758 -0.9185
18137THY    CA437011   7.652   7.904   4.113 -0.1399 -0.0916  0.5670
18137THY    HA437012   7.690   7.987   4.172  1.9952  1.2655 -1.2500
18137THY    CA537013   7.696   7.886   3.977 -0.4966 -0.4070 -0.0772
18137THY    CM137014   7.791   7.989   3.922  0.6374  0.0076 -0.5448
18137THY    HM137015   7.855   7.937   3.849 -0.0081  0.3771 -1.9292
18137THY    HM237016   7.855   8.038   3.995  1.2685 -1.6017  1.1304
18137THY    HM337017   7.726   8.066   3.880 -0.9291  0.4876 -1.5501
18137THY    CA637018   7.641   7.784   3.897 -0.3002 -0.3915 -0.0330
18137THY    HA637019   7.675   7.763   3.796 -0.0367 -0.2501 -0.2850
18138THY      O37020   2.588   6.759   2.855  0.7469 -0.5315  0.1243
18138THY     HO37021   2.521   6.767   2.785  0.1118 -0.1013 -1.2395
18138THY    CA137022   2.583   6.866   2.940  0.6607 -0.2256 -0.0771
18138THY    CA237023   2.587   6.844   3.079  0.3135  0.0188 -0.4483
18138THY    CP137024   2.594   6.701   3.149 -0.2630  0.6311 -0.4071
18138THY    HP137025   2.582   6.629   3.067 -0.0429  1.1033 -0.9848
18138THY    CP237026   2.471   6.683   3.231 -0.4200  0.1005 -0.5913
18138THY    HP237027   2.385   6.716   3.173 -1.2258  0.2979 -2.2452
18138THY    HP337028   2.477   6.739   3.325 -1.3598 -0.2274  0.0803
18138THY    HP437029   2.466   6.575   3.253  2.0624  0.0760 -0.7708
18138THY    CP337030   2.730   6.687   3.214 -0.6075  0.4836  0.9414
18138THY    HP537031   2.746   6.595   3.271  0.7494 -1.9765 -0.4474
18138THY    HP637032   2.747   6.773   3.280  0.5016 -1.2119  2.0682
18138THY    HP737033   2.815   6.701   3.148 -0.6729  0.6441  2.2652
18138THY    CA337034   2.574   6.953   3.163 -0.3783 -0.5359  0.2060
18138THY    HA337035   2.585   6.944   3.271 -0.8747 -0.5240 -0.3246
18138THY    CA437036   2.558   7.076   3.103  0.3681  0.1041  0.2451
18138THY    HA437037   2.566   7.161   3.171  2.0403  1.3319 -0.8457
18138THY    CA537038   2.550   7.097   2.972  0.7435  0.8000  0.5749
18138THY    CM137039   2.538   7.235   2.920  0.2237  0.5075 -0.2211
18138THY    HM137040   2.634   7.283   2.939  0.7519 -1.8862 -0.1905
18138THY    HM237041   2.451   7.291   2.954  1.2203  1.4182  0.8236
18138THY    HM337042   2.545   7.234   2.811  1.7441  0.5693  0.5304
18138THY    CA637043   2.558   6.997   2.889  0.1794  0.6401  0.5838
18138THY    HA637044   2.560   7.012   2.782 -3.2207  0.0734 -1.8318
18139THY      O37045   2.170   1.722   7.805  0.1167  0.2887  0.6481
18139THY     HO37046   2.139   1.632   7.822 -3.0980 -0.8997  1.4011
18139THY    CA137047   2.158   1.721   7.671  0.0410 -0.4385 -0.0244
18139THY    CA237048   2.190   1.829   7.589  0.5845 -0.4419 -0.0498
18139THY    CP137049   2.215   1.967   7.649 -0.4378  0.4953 -0.4014
18139THY    HP137050   2.258   1.948   7.748 -1.7113  1.2979  0.7195
18139THY    CP237051   2.092   2.064   7.648 -0.0913  0.0648 -0.3961
18139THY    HP237052   2.002   2.015   7.686 -0.1721 -0.1321 -0.4028
18139THY    HP337053   2.076   2.102   7.546  5.6830 -0.5466  1.5022
18139THY    HP437054   2.110   2.158   7.702  1.2871 -0.0053 -0.5886
18139THY    CP337055   2.335   2.038   7.591  0.3822  0.5607  0.1069
18139THY    HP537056   2.364   2.128   7.646  1.0526  0.6603 -0.1625
18139THY    HP637057   2.304   2.064   7.489  1.2483  0.1897 -0.2480
18139THY    HP737058   2.425   1.974   7.591  0.1921  1.0223 -0.1605
18139THY    CA337059   2.158   1.814   7.453  0.2252  0.5711 -0.7718
18139THY    HA337060   2.185   1.899   7.390  1.0618 -0.0700 -1.4904
18139THY    CA437061   2.112   1.690   7.400  0.2315 -0.4212 -1.2524
18139THY    HA437062   2.087   1.680   7.295  0.8844 -0.9359  1.5706
18139THY    CA537063   2.107   1.582   7.484  0.0740  0.0520  0.2712
18139THY    CM137064   2.081   1.438   7.436 -0.5351 -0.1536 -0.0529
18139THY    HM137065   2.012   1.381   7.500 -0.6530  0.1854  0.4626
18139THY    HM237066   2.177   1.385   7.429  0.0473 -2.9050  1.2102
18139THY    HM337067   2.041   1.432   7.334  1.1448 -0.8201 -0.6291
18139THY    CA637068   2.127   1.596   7.623  0.3178 -0.3570 -0.1003
18139THY    HA637069   2.109   1.509   7.686  0.8053 -1.0900 -0.7498
18140THY      O37070   5.772   1.097   4.218  0.4898  0.1905 -0.1128
18140THY     HO37071   5.683   1.066   4.197  2.0217 -2.8761 -3.0215
18140THY    CA137072   5.839   1.116   4.096 -0.0166 -0.1236  0.2762
18140THY    CA237073   5.978   1.097   4.084 -0.1147 -0.3866  0.7340
18140THY    CP137074   6.065   1.056   4.204  0.0720  0.1398  0.0914
18140THY    HP137075   6.008   1.048   4.298 -2.1181 -1.2003 -1.1492
18140THY    CP237076   6.169   1.168   4.226  0.1483  0.3837 -0.3161
18140THY    HP237077   6.117   1.262   4.247  1.2002 -0.2275  0.4228
18140THY    HP337078   6.232   1.175   4.137 -1.4537 -0.8073 -0.4389
18140THY    HP437079   6.241   1.132   4.300 -0.1096  0.6848 -0.2197
18140THY    CP337080   6.133   0.927   4.198 -0.5269  0.2898 -0.4517
18140THY    HP537081   6.056   0.849   4.190  0.4315 -0.8104 -1.3102
18140THY    HP637082   6.199   0.915   4.285  0.9951 -0.8238 -0.2855
18140THY    HP737083   6.191   0.930   4.106 -1.7587 -0.5523 -1.5788
18140THY    CA337084   6.038   1.129   3.960  0.2797 -0.5935 -0.2208
18140THY    HA337085   6.143   1.130   3.936  0.4343 -0.0903 -2.0175
18140THY    CA437086   5.958   1.164   3.853  0.0799 -0.1946 -0.0084
18140THY    HA437087   6.016   1.172   3.761  0.4783 -0.2119 -2.2603
18140THY    CA537088   5.819   1.159   3.859 -0.0163 -0.1506 -0.7714
18140THY    CM137089   5.749   1.195   3.734 -0.2137  1.1783  0.2087
18140THY    HM137090   5.641   1.178   3.733 -0.2694  2.4596  0.3898
18140THY    HM237091   5.797   1.141   3.652 -1.5954  0.2843  0.3051
18140THY    HM337092   5.774   1.300   3.718  2.3859  0.9725 -0.3683
18140THY    CA637093   5.761   1.137   3.986 -0.3710 -0.2983 -0.3441
18140THY    HA637094   5.654   1.150   3.997 -0.2225  0.5785  0.2077
18141THY      O37095   1.298   6.252   5.690 -0.2051 -0.2450 -0.1422
18141THY     HO37096   1.202   6.262   5.676 -0.7547  1.1662 -2.7332
18141THY    CA137097   1.327   6.139   5.621 -0.0193  0.3092 -0.4784
18141THY    CA237098   1.422   6.039   5.662  0.7457  0.3593 -0.7241
18141THY    CP137099   1.505   6.052   5.790  0.3678 -0.0491 -0.0240
18141THY    HP137100   1.460   6.131   5.852 -0.0514 -1.2290  0.6854
18141THY    CP237101   1.656   6.078   5.765 -0.9479  0.2977  0.0015
18141THY    HP237102   1.690   5.991   5.706  0.4420 -0.5078  1.0424
18141THY    HP337103   1.710   6.086   5.860  0.7294 -0.6009 -0.0844
18141THY    HP437104   1.671   6.165   5.700  0.8454 -0.6904 -0.9544
18141THY    CP337105   1.497   5.925   5.877  0.2949 -0.4398  0.0451
18141THY    HP537106   1.394   5.902   5.905  0.3749  0.3850  0.6595
18141THY    HP637107   1.551   5.950   5.969  1.9087 -0.2765 -3.4907
18141THY    HP737108   1.550   5.841   5.829  2.4614  0.9938  0.5104
18141THY    CA337109   1.439   5.930   5.575 -0.1582 -0.6858 -0.4194
18141THY    HA337110   1.516   5.857   5.601  1.4376  1.0172  1.7545
18141THY    CA437111   1.374   5.917   5.453 -0.1397 -0.6344  0.5140
18141THY    HA437112   1.398   5.828   5.396  1.3140 -0.3960  0.7190
18141THY    CA537113   1.283   6.012   5.416  0.1046 -0.0842 -0.3190
18141THY    CM137114   1.208   5.983   5.289  0.4035  0.3497  0.0700
18141THY    HM137115   1.228   6.064   5.218  0.2727  0.4767  0.2130
18141THY    HM237116   1.099   5.981   5.305  0.5724  1.8322  0.9867
18141THY    HM337117   1.244   5.887   5.252  0.4982  0.7006 -0.0301
18141THY    CA637118   1.256   6.128   5.505  0.2403  1.0221  1.0183
18141THY    HA637119   1.191   6.208   5.473 -0.7310  1.9110  0.6003
18142THY      O37120   3.158   5.480   6.177 -0.0927  0.2281 -0.0034
18142THY     HO37121   3.214   5.556   6.154 -0.4533 -1.3404 -0.1793
18142THY    CA137122   3.109   5.438   6.060  0.0364 -0.2155 -0.3059
18142THY    CA237123   3.013   5.336   6.057 -0.4424 -0.8664 -0.5466
18142THY    CP137124   2.951   5.287   6.191  0.2400  0.8774  0.1807
18142THY    HP137125   2.981   5.353   6.273  0.7499  0.6202  0.2722
18142THY    CP237126   2.978   5.132   6.216  0.1233  0.0630 -0.5368
18142THY    HP237127   2.946   5.104   6.317 -0.8243  0.7241  2.5446
18142THY    HP337128   3.082   5.099   6.207 -0.4148 -3.4874 -1.7492
18142THY    HP437129   2.927   5.072   6.139 -3.4542  0.4653  1.6981
18142THY    CP337130   2.799   5.297   6.203 -0.1896  0.3467 -0.5321
18142THY    HP537131   2.761   5.389   6.159  0.1956 -0.9835 -0.9940
18142THY    HP637132   2.759   5.283   6.304 -0.0479  0.6726  1.1984
18142THY    HP737133   2.740   5.224   6.148 -1.8809 -1.9803  2.3552
18142THY    CA337134   2.961   5.290   5.935 -0.5091  0.6516 -0.0138
18142THY    HA337135   2.880   5.217   5.935 -1.0305  0.3394  0.5475
18142THY    CA437136   3.008   5.335   5.820 -0.0772  0.2365 -0.4670
18142THY    HA437137   2.971   5.300   5.724  0.5380 -0.2440  0.1536
18142THY    CA537138   3.102   5.442   5.822  0.2399  0.3173 -0.4701
18142THY    CM137139   3.151   5.514   5.693  0.0063  0.0064  0.1409
18142THY    HM137140   3.250   5.474   5.667 -0.3786  0.1770 -0.9799
18142THY    HM237141   3.152   5.623   5.696  1.3959  0.0313  0.1409
18142THY    HM337142   3.091   5.490   5.605  2.6633 -2.0804  0.6997
18142THY    CA637143   3.158   5.487   5.941 -0.4125  0.6929  0.3933
18142THY    HA637144   3.229   5.569   5.939 -2.8927  1.0342  2.6667
18143THY      O37145   6.591   5.738   3.749  0.0026 -0.4855 -0.3022
18143THY     HO37146   6.667   5.799   3.755  1.4109 -1.2698 -1.8994
18143THY    CA137147   6.476   5.810   3.742  0.4170  0.1600  0.1350
18143THY    CA237148   6.353   5.753   3.773  0.3333  0.1757  0.1129
18143THY    CP137149   6.349   5.606   3.823 -0.4984  0.4143 -0.1354
18143THY    HP137150   6.446   5.559   3.805  0.9991  1.2220  2.4373
18143THY    CP237151   6.243   5.522   3.757  0.2993  0.0271 -0.2454
18143THY    HP237152   6.239   5.421   3.799  1.6682  1.8287  0.3978
18143THY    HP337153   6.273   5.515   3.652  1.5609  0.4238 -1.1375
18143THY    HP437154   6.144   5.567   3.768 -0.0908 -1.3118 -0.7391
18143THY    CP337155   6.321   5.607   3.973 -0.3379  0.3591 -0.3500
18143THY    HP537156   6.255   5.685   4.011 -0.0393  3.5296 -1.4840
18143THY    HP637157   6.418   5.633   4.018 -0.4744  1.1075 -1.0858
18143THY    HP737158   6.277   5.514   4.010 -1.3582 -1.2166 -0.5379
18143THY    CA337159   6.238   5.838   3.755 -0.4351 -0.3572  0.2367
18143THY    HA337160   6.137   5.808   3.779 -0.0234 -0.0870 -0.9935
18143THY    CA437161   6.256   5.972   3.711 -0.6189 -0.5398  0.0989
18143THY    HA437162   6.166   6.031   3.697 -0.9640  1.6914  0.2027
18143THY    CA537163   6.379   6.018   3.669 -0.2924  0.1030 -0.0208
18143THY    CM137164   6.402   6.158   3.616 -0.0660 -0.2177  0.1278
18143THY    HM137165   6.421   6.156   3.508 -0.6459 -0.3264  0.0286
18143THY    HM237166   6.469   6.223   3.673  0.9905 -2.2765  0.9472
18143THY    HM337167   6.314   6.224   3.616 -0.2509  0.0186 -0.1161
18143THY    CA637168   6.488   5.933   3.683  0.5004 -0.1598 -0.1791
18143THY    HA637169   6.586   5.973   3.659  0.0002  0.2027  1.3353
18144THY      O37170   1.726   4.478   7.563 -0.1008  0.4243 -0.1325
18144THY     HO37171   1.817   4.446   7.576  0.3130 -1.2605  0.2929
18144THY    CA137172   1.732   4.614   7.567 -0.4154  0.5666  0.0671
18144THY    CA237173   1.651   4.705   7.500 -0.6554  0.4700 -0.1666
18144THY    CP137174   1.521   4.662   7.434  0.3762  0.3231  0.8937
18144THY    HP137175   1.463   4.618   7.516 -0.6442  1.2146  3.6592
18144THY    CP237176   1.560   4.552   7.329 -0.6330  0.0555  0.5668
18144THY    HP237177   1.597   4.459   7.372  0.0193 -0.7394  0.4433
18144THY    HP337178   1.626   4.586   7.248  2.3276  1.2636 -1.8588
18144THY    HP437179   1.472   4.515   7.273  0.6758 -1.6286 -0.1330
18144THY    CP337180   1.446   4.768   7.352 -0.4769  0.0089  0.3117
18144THY    HP537181   1.504   4.800   7.264  2.8034  1.6093 -0.7777
18144THY    HP637182   1.416   4.850   7.419 -2.7774 -0.1426 -0.3331
18144THY    HP737183   1.345   4.734   7.325 -0.2675 -0.2605 -0.1070
18144THY    CA337184   1.693   4.839   7.479  0.2206 -0.1778  0.8097
18144THY    HA337185   1.638   4.904   7.411  1.4306 -1.8275  0.1638
18144THY    CA437186   1.811   4.873   7.545 -0.4422  0.6770  0.6212
18144THY    HA437187   1.844   4.976   7.530 -0.7230 -1.9978  0.4130
18144THY    CA537188   1.884   4.789   7.626  0.0156  0.3997 -0.4579
18144THY    CM137189   2.016   4.835   7.685 -0.2166  0.8971  0.5180
18144THY    HM137190   2.002   4.838   7.793  0.0543  0.9286  0.7227
18144THY    HM237191   2.032   4.939   7.653 -2.2878 -2.1225  0.0487
18144THY    HM337192   2.101   4.769   7.663 -0.8809  0.3407 -0.1741
18144THY    CA637193   1.847   4.658   7.629  0.2129 -0.7891 -0.1776
18144THY    HA637194   1.914   4.596   7.688  1.7146 -0.9274  1.2285
18145THY      O37195   2.875   1.886   2.702 -0.5578 -0.0838 -0.3109
18145THY     HO37196   2.851   1.943   2.627 -0.5295  0.1273 -0.0200
18145THY    CA137197   2.782   1.905   2.799  0.5881 -0.3154 -0.6241
18145THY    CA237198   2.769   1.814   2.907  0.1198 -0.0471  0.9683
18145THY    CP137199   2.851   1.689   2.925  0.2409  0.4313 -0.1557
18145THY    HP137200   2.908   1.672   2.834 -0.0379 -0.1098  1.5475
18145THY    CP237201   2.765   1.561   2.947 -0.1284  0.7775  0.6438
18145THY    HP237202   2.684   1.565   2.874 -0.7227  1.3391 -0.4236
18145THY    HP337203   2.723   1.554   3.048  0.9966  1.2335  0.2042
18145THY    HP437204   2.822   1.470   2.922  1.3080 -3.2240  2.4429
18145THY    CP337205   2.942   1.688   3.045 -0.9969  0.1954  0.2125
18145THY    HP537206   3.020   1.766   3.043  0.5673  1.2096 -1.2470
18145THY    HP637207   2.984   1.587   3.055 -0.2570 -0.5637  0.4336
18145THY    HP737208   2.895   1.704   3.143  0.2885  1.1121 -1.2515
18145THY    CA337209   2.674   1.846   3.011  0.3942  0.0976  1.1005
18145THY    HA337210   2.663   1.791   3.105  0.2834 -1.2739 -1.3796
18145THY    CA437211   2.592   1.960   2.994 -0.5560 -0.3946 -0.3944
18145THY    HA437212   2.521   1.991   3.070  0.4153  0.5603 -0.4329
18145THY    CA537213   2.609   2.042   2.884  1.0107  0.7571  0.0255
18145THY    CM137214   2.520   2.149   2.852 -0.2376 -0.0512 -0.6201
18145THY    HM137215   2.419   2.115   2.878 -0.6423  1.3076  1.4609
18145THY    HM237216   2.514   2.180   2.747 -0.5741  0.2020  0.2157
18145THY    HM337217   2.547   2.235   2.914  0.2326  0.1762 -0.9315
18145THY    CA637218   2.696   2.011   2.784  0.0337 -0.2495 -0.3751
18145THY    HA637219   2.710   2.078   2.700  1.1125  0.1182 -0.1320
18146THY      O37220   4.031   9.186   4.557 -0.1331  0.3507  0.1696
18146THY     HO37221   3.976   9.194   4.637 -0.4485 -0.0168  2.1025
18146THY    CA137222   4.103   9.082   4.595 -0.3474 -0.7084 -0.3795
18146THY    CA237223   4.202   9.028   4.513  0.0208  0.1564  0.1003
18146THY    CP137224   4.226   9.095   4.378 -0.2340 -0.3072  0.0045
18146THY    HP137225   4.145   9.157   4.339  0.1200 -0.0969  0.6075
18146THY    CP237226   4.253   8.999   4.262 -0.2663  0.3359 -0.2579
18146THY    HP237227   4.355   8.959   4.266 -0.2180 -0.0172 -0.1749
18146THY    HP337228   4.250   9.048   4.164 -0.6912  0.1248 -0.6986
18146THY    HP437229   4.171   8.930   4.285 -3.2915 -0.6092  2.7534
18146THY    CP337230   4.352   9.180   4.391 -0.4147  0.6309 -0.4561
18146THY    HP537231   4.385   9.216   4.293 -1.3100  0.0076 -1.2800
18146THY    HP637232   4.441   9.132   4.435 -0.6363  1.1617 -0.3825
18146THY    HP737233   4.325   9.264   4.455  0.8162  1.8603 -0.9655
18146THY    CA337234   4.264   8.907   4.554 -0.4928 -0.0934  0.9587
18146THY    HA337235   4.348   8.865   4.498  0.1824  1.2924  0.3987
18146THY    CA437236   4.241   8.857   4.682  0.5652  0.1861  0.0273
18146THY    HA437237   4.292   8.770   4.722 -0.4796  0.6127 -0.4149
18146THY    CA537238   4.146   8.919   4.768  0.0579 -0.8181  0.0313
18146THY    CM137239   4.114   8.864   4.911 -0.2900 -1.0929 -0.3972
18146THY    HM137240   4.100   8.755   4.910  2.7822  1.4376 -0.9696
18146THY    HM237241   4.030   8.912   4.962 -0.5037 -1.7191 -0.0986
18146THY    HM337242   4.201   8.884   4.975 -0.5425 -0.2178 -1.9315
18146THY    CA637243   4.075   9.029   4.721  0.3090  0.1169 -0.6112
18146THY    HA637244   4.002   9.075   4.788 -1.4843  1.9581 -5.4770
18147THY      O37245   5.231   3.242   7.336  0.6081  0.1069 -0.3849
18147THY     HO37246   5.201   3.288   7.256  0.2046  0.6477  0.3095
18147THY    CA137247   5.344   3.308   7.364 -0.1810 -0.5906  0.3293
18147THY    CA237248   5.411   3.286   7.488 -0.6649  0.3783  0.0616
18147THY    CP137249   5.350   3.192   7.592  0.3942  0.2099  0.2061
18147THY    HP137250   5.241   3.201   7.587  0.4510 -0.2791  0.6892
18147THY    CP237251   5.383   3.227   7.739  0.2320  0.2683 -0.6564
18147THY    HP237252   5.347   3.329   7.754  0.7127  1.1406 -0.6077
18147THY    HP337253   5.492   3.242   7.749  0.0680  0.7403  0.2667
18147THY    HP437254   5.348   3.148   7.807 -0.5076  0.9592  0.2525
18147THY    CP337255   5.384   3.044   7.554  0.2829 -0.0259 -0.2994
18147THY    HP537256   5.333   2.972   7.618 -0.1207 -0.0255 -0.0181
18147THY    HP637257   5.491   3.026   7.545 -0.0977 -3.1533 -1.7569
18147THY    HP737258   5.347   3.038   7.451 -1.0531  0.4279 -0.1917
18147THY    CA337259   5.537   3.348   7.513  0.5483  0.3523 -0.0918
18147THY    HA337260   5.603   3.337   7.598 -1.8561  2.2972 -0.2882
18147THY    CA437261   5.585   3.438   7.411 -0.0528 -0.7241 -0.4133
18147THY    HA437262   5.680   3.489   7.425 -0.6885  2.7948  0.0614
18147THY    CA537263   5.523   3.447   7.286 -0.2309  0.4672 -0.2340
18147THY    CM137264   5.566   3.525   7.168  0.6085 -0.9838  0.2001
18147THY    HM137265   5.494   3.606   7.149 -0.4627  2.1072  0.1134
18147THY    HM237266   5.584   3.444   7.097 -0.7042 -1.8266  0.6123
18147THY    HM337267   5.657   3.578   7.199 -0.3390 -0.2109  1.4629
18147THY    CA637268   5.398   3.389   7.272 -0.1956  0.0635 -0.1329
18147THY    HA637269   5.349   3.409   7.177 -1.4622  1.1930  2.6561
18148THY      O37270   1.564   7.059   3.638  0.5369 -0.2654 -0.1317
18148THY     HO37271   1.553   7.125   3.708 -2.5297 -0.7014 -0.0342
18148THY    CA137272   1.682   6.997   3.657  0.1011  1.0277  0.0340
18148THY    CA237273   1.715   6.886   3.575  0.0036 -0.3576  0.5541
18148THY    CP137274   1.609   6.833   3.476  0.2702  0.0431 -0.3570
18148THY    HP137275   1.539   6.915   3.458  0.4359 -2.6262 -0.7287
18148THY    CP237276   1.539   6.709   3.542  0.1123  0.3467  0.0046
18148THY    HP237277   1.438   6.703   3.502  0.1794  0.3091 -1.1240
18148THY    HP337278   1.536   6.722   3.651  2.9709  0.7267 -1.6376
18148THY    HP437279   1.591   6.614   3.529 -1.7188 -2.4222 -0.7303
18148THY    CP337280   1.657   6.804   3.335 -0.4995  0.2000  0.2731
18148THY    HP537281   1.737   6.728   3.334 -0.6325 -0.2057  0.1316
18148THY    HP637282   1.703   6.893   3.291 -1.6761  1.5726  1.5899
18148THY    HP737283   1.570   6.773   3.276  1.0421 -0.9935 -2.1818
18148THY    CA337284   1.834   6.813   3.601  0.7714  0.8042  0.1944
18148THY    HA337285   1.845   6.722   3.543  0.3683 -0.2144  0.7703
18148THY    CA437286   1.909   6.853   3.703  0.0772 -0.5916  0.3474
18148THY    HA437287   2.000   6.794   3.707  0.5971  0.1597  1.1742
18148THY    CA537288   1.873   6.955   3.793  0.0978 -0.9542 -0.1907
18148THY    CM137289   1.964   6.981   3.915 -0.3217  0.3901 -0.5154
18148THY    HM137290   1.911   7.032   3.996 -0.8282 -0.2069 -0.0713
18148THY    HM237291   2.054   7.035   3.883 -1.2499 -1.5572 -0.0486
18148THY    HM337292   2.001   6.888   3.960  1.4824 -1.0275 -0.5434
18148THY    CA637293   1.767   7.041   3.760  1.2159 -0.7496 -0.3076
18148THY    HA637294   1.747   7.121   3.831  0.8029 -0.6136 -0.5330
18149THY      O37295   3.415   6.931   4.794 -0.0077 -0.6638 -0.0650
18149THY     HO37296   3.464   6.941   4.711 -1.9903 -1.6665  2.5677
18149THY    CA137297   3.302   6.994   4.769 -0.5528  0.1733 -0.1032
18149THY    CA237298   3.190   6.978   4.856 -0.1079  0.0633 -0.0581
18149THY    CP137299   3.199   6.905   4.989 -0.1864 -0.8703 -0.0302
18149THY    HP137300   3.283   6.835   4.988  1.0163  0.3683  1.3438
18149THY    CP237301   3.080   6.808   5.011  0.0888 -0.2825 -0.5179
18149THY    HP237302   2.993   6.872   5.028  0.8308 -3.0009  1.3900
18149THY    HP337303   3.104   6.747   5.099  0.3464 -0.5375 -0.7875
18149THY    HP437304   3.078   6.750   4.918  1.3606 -0.8904  0.3599
18149THY    CP337305   3.223   6.998   5.112 -0.2932 -0.7221 -0.7577
18149THY    HP537306   3.160   7.087   5.120  1.4431  0.1005  0.4643
18149THY    HP637307   3.332   7.011   5.118 -0.1845  0.0629 -1.9147
18149THY    HP737308   3.197   6.951   5.207  1.6317  0.0053 -0.4535
18149THY    CA337309   3.065   7.037   4.814 -0.2362 -0.4080  0.2381
18149THY    HA337310   2.985   7.044   4.887  0.1852  0.1160 -0.3115
18149THY    CA437311   3.061   7.115   4.694  0.1151  0.1849  0.1469
18149THY    HA437312   2.970   7.162   4.659  1.3049 -1.3065  1.4337
18149THY    CA537313   3.180   7.130   4.612 -0.0430  0.5503  1.1462
18149THY    CM137314   3.155   7.205   4.491 -0.3692  0.5000 -0.2468
18149THY    HM137315   3.063   7.165   4.446 -1.3074  2.8193 -0.8653
18149THY    HM237316   3.239   7.192   4.422  0.2922  1.3742 -0.6946
18149THY    HM337317   3.128   7.310   4.511 -0.5799 -0.0162 -0.1995
18149THY    CA637318   3.302   7.074   4.654  0.1662 -0.3287  0.5596
18149THY    HA637319   3.386   7.071   4.585 -0.9143 -1.6353 -1.0777
18150THY      O37320   1.800   0.122   3.106 -0.0011  0.1741  0.3507
18150THY     HO37321   1.882   0.093   3.150  0.4296  0.1757  1.5033
18150THY    CA137322   1.838   0.221   3.021 -0.6070  0.7977  0.0172
18150THY    CA237323   1.754   0.331   2.997 -0.4934  0.1369 -0.3505
18150THY    CP137324   1.614   0.332   3.045  0.6684 -0.2190  0.8210
18150THY    HP137325   1.607   0.274   3.138 -1.2332 -0.9360 -0.2311
18150THY    CP237326   1.535   0.256   2.938  0.6291 -0.0357 -0.8473
18150THY    HP237327   1.575   0.156   2.917 -0.4293 -0.0923 -1.2708
18150THY    HP337328   1.528   0.309   2.842  0.3782 -1.7296 -3.7108
18150THY    HP437329   1.435   0.253   2.982  1.0639  1.2006  1.0458
18150THY    CP337330   1.558   0.465   3.065  0.2304 -0.3963  0.1743
18150THY    HP537331   1.532   0.528   2.979  0.9332 -1.3754 -0.8384
18150THY    HP637332   1.633   0.512   3.130  0.7823 -1.1353  0.3196
18150THY    HP737333   1.462   0.466   3.120  0.6471  0.3464  0.5094
18150THY    CA337334   1.809   0.445   2.926  0.3337  0.6487  0.3904
18150THY    HA337335   1.752   0.537   2.916  1.4783 -1.0116  0.9734
18150THY    CA437336   1.937   0.436   2.872  0.5503  0.2703 -0.2687
18150THY    HA437337   1.983   0.523   2.827  1.4450  1.1350 -0.2785
18150THY    CA537338   2.016   0.321   2.899 -0.7632  0.4812 -0.3656
18150THY    CM137339   2.154   0.307   2.837  0.1003 -0.2504  0.2070
18150THY    HM137340   2.196   0.212   2.872  0.8106  0.3138  0.7149
18150THY    HM237341   2.225   0.378   2.883  0.4189  1.9088 -1.4161
18150THY    HM337342   2.172   0.316   2.729 -0.0358 -0.2331  0.7199
18150THY    CA637343   1.975   0.215   2.974  0.1536  0.3698  0.1651
18150THY    HA637344   2.044   0.132   2.986  1.0765 -2.0144  0.4971
18151THY      O37345   8.021   0.810   4.337 -0.4818  0.4109 -0.0654
18151THY     HO37346   8.104   0.859   4.350  0.3339  0.1904 -1.3428
18151THY    CA137347   7.922   0.860   4.416 -0.1857 -1.0741  0.0776
18151THY    CA237348   7.810   0.788   4.455 -0.6133 -0.4044 -0.9575
18151THY    CP137349   7.803   0.644   4.417 -0.3896  1.4850  0.0542
18151THY    HP137350   7.902   0.597   4.426 -0.0858 -0.6317  0.1862
18151THY    CP237351   7.766   0.611   4.272 -0.2568  0.1654 -0.0894
18151THY    HP237352   7.664   0.649   4.258 -0.1593  3.2252  1.6677
18151THY    HP337353   7.774   0.504   4.250 -0.1827  1.4437 -0.3621
18151THY    HP437354   7.832   0.663   4.202  1.9231  2.8931  1.0806
18151THY    CP337355   7.720   0.550   4.505  0.0863 -0.2909 -0.1460
18151THY    HP537356   7.612   0.543   4.488  0.2616 -0.9690 -1.5823
18151THY    HP637357   7.734   0.596   4.604  0.4815  0.1109 -1.1056
18151THY    HP737358   7.765   0.450   4.509  1.2461 -3.3933  0.1291
18151THY    CA337359   7.706   0.851   4.532  0.1039  0.8352 -0.3197
18151THY    HA337360   7.620   0.806   4.581  0.1716  2.0610  0.7997
18151THY    CA437361   7.731   0.992   4.557 -0.3471 -0.7178  0.1519
18151THY    HA437362   7.662   1.048   4.620  0.0026 -0.8223  0.7030
18151THY    CA537363   7.843   1.063   4.515 -0.6145  0.0261  0.2817
18151THY    CM137364   7.869   1.207   4.545 -0.2633  0.6924 -0.2461
18151THY    HM137365   7.793   1.261   4.487  0.0025 -0.6116 -1.2106
18151THY    HM237366   7.973   1.227   4.518 -0.1824  0.0436 -1.4459
18151THY    HM337367   7.852   1.223   4.652 -0.9919  0.4358  0.8215
18151THY    CA637368   7.940   0.993   4.446 -0.1428  0.0323 -0.4657
18151THY    HA637369   8.027   1.047   4.411 -1.3419  1.2355  2.5400
18152THY      O37370   6.742   2.840   3.397  0.4123  0.2963  0.3150
18152THY     HO37371   6.666   2.829   3.456  0.5319  0.3260 -0.4063
18152THY    CA137372   6.699   2.786   3.282 -0.0422 -0.1952 -0.1639
18152THY    CA237373   6.783   2.725   3.179  0.1729  0.3867 -0.2406
18152THY    CP137374   6.933   2.750   3.174  0.4997  0.0619  0.0703
18152THY    HP137375   6.963   2.797   3.268 -1.5916  1.2429 -0.7623
18152THY    CP237376   6.980   2.840   3.053  0.4622  0.0283 -0.5914
18152THY    HP237377   6.913   2.927   3.050  2.6713  2.8712  1.3689
18152THY    HP337378   6.972   2.793   2.954 -0.7146 -1.7687  2.9924
18152THY    HP437379   7.078   2.889   3.055 -0.6509  0.2008  1.7958
18152THY    CP337380   7.007   2.614   3.163 -0.5947  0.4100 -0.6279
18152THY    HP537381   6.988   2.568   3.066 -0.4929 -1.0303  2.1911
18152THY    HP637382   6.996   2.546   3.249  2.7269  0.6548 -0.9895
18152THY    HP737383   7.116   2.616   3.159 -0.6080 -0.8761 -1.5078
18152THY    CA337384   6.724   2.669   3.066 -0.0411 -0.1045  0.1872
18152THY    HA337385   6.784   2.619   2.990 -0.1860  0.1803 -0.4372
18152THY    CA437386   6.584   2.656   3.071 -0.1565  0.5157 -0.2333
18152THY    HA437387   6.537   2.599   2.992  0.4512  0.8498 -1.2095
18152THY    CA537388   6.504   2.712   3.167 -0.0791 -0.1623 -0.1370
18152THY    CM137389   6.357   2.697   3.157 -0.4442  0.5483 -0.1706
18152THY    HM137390   6.310   2.776   3.097  0.1906  0.3676  0.0833
18152THY    HM237391   6.309   2.708   3.254 -0.4392  0.3367  2.4900
18152THY    HM337392   6.333   2.602   3.109 -1.4166  0.8269 -0.0763
18152THY    CA637393   6.561   2.771   3.282 -0.0032  0.7123 -0.3443
18152THY    HA637394   6.502   2.808   3.365 -1.6246  0.2182 -1.6886
18153THY      O37395   1.984   3.721   5.575 -0.9932 -0.0926 -0.0014
18153THY     HO37396   2.002   3.700   5.482  0.2060  0.4029 -1.3140
18153THY    CA137397   2.058   3.632   5.641 -0.1574 -0.0788  0.1440
18153THY    CA237398   1.997   3.560   5.741 -0.1677 -0.2413 -0.4443
18153THY    CP137399   1.848   3.583   5.776  0.7405 -0.2093 -0.9305
18153THY    HP137400   1.785   3.606   5.689  1.1787 -0.2965 -0.0134
18153THY    CP237401   1.848   3.701   5.863 -0.0655 -0.3642 -0.5411
18153THY    HP237402   1.886   3.784   5.803  1.0968  1.3681  0.2506
18153THY    HP337403   1.916   3.679   5.946 -0.2692 -0.3138 -0.9986
18153THY    HP437404   1.748   3.720   5.906 -0.9496 -2.2477 -0.7577
18153THY    CP337405   1.768   3.470   5.843 -0.2403  0.0615 -0.2585
18153THY    HP537406   1.746   3.402   5.760 -2.0944 -1.0118  1.5568
18153THY    HP637407   1.673   3.502   5.887 -0.2809  0.3705 -0.7925
18153THY    HP737408   1.832   3.429   5.922  1.8871 -0.9309  0.9819
18153THY    CA337409   2.073   3.454   5.797  0.4203  0.0426 -0.4795
18153THY    HA337410   2.034   3.378   5.865  3.0514  0.9737 -1.1147
18153THY    CA437411   2.202   3.435   5.762 -0.4975  0.4868  0.4565
18153THY    HA437412   2.258   3.346   5.790  0.9865 -0.8460  0.9194
18153THY    CA537413   2.263   3.510   5.662  0.4701 -0.0195 -0.0010
18153THY    CM137414   2.405   3.494   5.624 -0.0991  0.0141 -1.0168
18153THY    HM137415   2.432   3.391   5.648  1.2354 -1.7444 -1.1321
18153THY    HM237416   2.471   3.573   5.662 -2.7502  1.3963  0.6858
18153THY    HM337417   2.418   3.499   5.515  0.9648  0.0224 -2.7099
18153THY    CA637418   2.184   3.602   5.591  0.4741 -0.6704  0.4632
18153THY    HA637419   2.221   3.663   5.510  0.6225 -0.3131  0.8607
18154THY      O37420   4.779   4.700   2.278  0.8086  0.3032 -0.4093
18154THY     HO37421   4.715   4.684   2.349 -2.7103 -2.3641  0.4705
18154THY    CA137422   4.726   4.629   2.179  0.4020  0.5189  0.0285
18154THY    CA237423   4.675   4.696   2.065 -0.0216  0.1610  0.6529
18154THY    CP137424   4.693   4.844   2.040  0.3612  0.3740 -0.0995
18154THY    HP137425   4.789   4.878   2.080  1.0629 -0.5504 -0.9209
18154THY    CP237426   4.575   4.919   2.113  0.1160 -0.2660  0.0975
18154THY    HP237427   4.476   4.890   2.075  0.1802  0.0836 -0.5994
18154THY    HP337428   4.592   5.027   2.104  1.8573  0.5053 -0.0921
18154THY    HP437429   4.596   4.885   2.215 -0.8818 -0.0829 -0.0007
18154THY    CP337430   4.694   4.893   1.892  0.0276  0.0209  0.4697
18154THY    HP537431   4.596   4.874   1.848  1.0201 -1.6535 -1.2143
18154THY    HP637432   4.769   4.834   1.837  0.2808  0.4733  0.3648
18154THY    HP737433   4.711   5.000   1.877 -0.0721 -2.2694  0.2276
18154THY    CA337434   4.606   4.611   1.976 -0.4511 -0.0912 -0.3258
18154THY    HA337435   4.567   4.656   1.885  0.5107 -2.1322 -3.3283
18154THY    CA437436   4.599   4.474   1.987  0.3433  0.5628 -1.2061
18154THY    HA437437   4.536   4.420   1.917  0.6115 -1.2663  0.7511
18154THY    CA537438   4.657   4.412   2.097 -0.3275 -0.3680 -0.6263
18154THY    CM137439   4.627   4.263   2.114 -0.0198 -0.9049  0.9069
18154THY    HM137440   4.544   4.228   2.053 -0.4024  0.3138 -0.4261
18154THY    HM237441   4.599   4.245   2.219  2.7859 -0.3407 -0.8428
18154THY    HM337442   4.724   4.215   2.093 -0.4187 -2.5255  0.7498
18154THY    CA637443   4.712   4.490   2.200  0.4062  0.8857  0.0183
18154THY    HA637444   4.750   4.453   2.295  2.2579  0.7074  1.3373
18155THY      O37445   7.955   6.275   6.230  0.7088  0.3425 -0.5937
18155THY     HO37446   7.969   6.186   6.195  1.0584  0.6739 -0.6744
18155THY    CA137447   7.836   6.315   6.178 -0.1950  0.5023  0.0189
18155THY    CA237448   7.777   6.438   6.211  0.3713 -0.1056  0.4668
18155THY    CP137449   7.834   6.523   6.319 -0.1427  0.2553  0.0216
18155THY    HP137450   7.943   6.507   6.323 -0.1140 -0.3756  0.0616
18155THY    CP237451   7.779   6.473   6.449  0.3883 -1.1278 -0.7638
18155THY    HP237452   7.671   6.458   6.438  0.2698 -1.0489 -0.0019
18155THY    HP337453   7.804   6.539   6.533 -0.6945  0.5607 -2.4130
18155THY    HP437454   7.818   6.375   6.477  2.4788  3.0127  0.9939
18155THY    CP337455   7.827   6.676   6.297 -0.1607  0.5716  0.3473
18155THY    HP537456   7.858   6.701   6.194  2.3392 -0.5976 -5.6530
18155THY    HP637457   7.880   6.737   6.371 -1.8153 -0.4411  3.2128
18155THY    HP737458   7.730   6.722   6.317  0.8561 -0.0264  2.8986
18155THY    CA337459   7.646   6.465   6.164 -0.3445  0.5551  0.2486
18155THY    HA337460   7.583   6.550   6.188 -0.4993 -2.2515  0.9946
18155THY    CA437461   7.585   6.379   6.075 -0.0396  0.1525 -0.0719
18155THY    HA437462   7.486   6.384   6.031 -0.1467  0.2106 -1.3814
18155THY    CA537463   7.654   6.264   6.035  0.6123 -0.2706 -1.2448
18155THY    CM137464   7.582   6.164   5.948 -0.0315  0.2717 -0.4037
18155THY    HM137465   7.512   6.103   6.006  0.2770  1.6812  0.5405
18155THY    HM237466   7.651   6.087   5.912 -0.3080 -0.0862 -0.4848
18155THY    HM337467   7.537   6.214   5.861  0.8255  0.4897  0.7861
18155THY    CA637468   7.779   6.234   6.079 -0.2820  0.2174 -0.3476
18155THY    HA637469   7.836   6.148   6.046  0.3543  1.1108 -0.2832
18156THY      O37470   4.279   5.399   5.228 -0.1845  0.0242  0.3132
18156THY     HO37471   4.223   5.353   5.164  0.2934 -0.3523  0.2441
18156THY    CA137472   4.198   5.451   5.320 -0.1250  0.2336  0.0074
18156THY    CA237473   4.227   5.456   5.461 -0.0750  0.7298 -0.4368
18156THY    CP137474   4.359   5.405   5.514  0.1113  0.2171  0.3699
18156THY    HP137475   4.401   5.319   5.462 -0.1106  1.4889 -0.5359
18156THY    CP237476   4.342   5.351   5.659 -0.0018  0.3571 -0.5088
18156THY    HP237477   4.338   5.425   5.740 -0.2587 -0.1830  0.0789
18156THY    HP337478   4.428   5.284   5.671  2.0323  0.0862  1.8737
18156THY    HP437479   4.250   5.292   5.664 -0.5322 -1.5927  0.0606
18156THY    CP337480   4.470   5.511   5.497 -0.2134 -0.7606 -0.6298
18156THY    HP537481   4.566   5.468   5.529 -0.5410 -1.9435 -2.3555
18156THY    HP637482   4.440   5.605   5.545  0.7893 -1.1500 -0.0863
18156THY    HP737483   4.474   5.533   5.389 -0.7391 -0.6607  0.0033
18156THY    CA337484   4.130   5.532   5.538  0.3926 -0.3128  0.1617
18156THY    HA337485   4.144   5.520   5.645 -0.9380 -0.2871 -1.6389
18156THY    CA437486   4.023   5.616   5.478 -0.2608 -0.1092  0.3351
18156THY    HA437487   3.953   5.676   5.536  1.0815  0.0951  1.7666
18156THY    CA537488   4.005   5.604   5.333  0.0563  0.1658 -0.4352
18156THY    CM137489   3.896   5.682   5.262  0.3524 -0.5088  0.9885
18156THY    HM137490   3.807   5.618   5.269  0.0116  1.4629  1.6098
18156THY    HM237491   3.915   5.698   5.156  2.3523 -0.7631 -2.1961
18156THY    HM337492   3.882   5.774   5.320  3.9463  0.1182  1.2826
18156THY    CA637493   4.092   5.525   5.261 -0.2178  0.0302 -0.0987
18156THY    HA637494   4.085   5.524   5.152 -1.9670  0.0747 -2.5288
18157THY      O37495   7.504   8.575   6.028  0.2524 -0.2291  0.2194
18157THY     HO37496   7.461   8.656   5.996  0.0431 -1.6807 -0.4257
18157THY    CA137497   7.560   8.599   6.140 -0.8660 -0.3881  0.2050
18157THY    CA237498   7.556   8.507   6.251  0.2757  0.3400 -0.3965
18157THY    CP137499   7.495   8.363   6.232 -0.1705 -0.4677  0.4976
18157THY    HP137500   7.528   8.333   6.131  0.1926 -1.0049  2.5184
18157THY    CP237501   7.349   8.374   6.246  0.1432 -0.5490  0.5908
18157THY    HP237502   7.307   8.447   6.176 -1.8297 -0.1975 -0.1554
18157THY    HP337503   7.326   8.413   6.346 -0.6275  0.5262 -2.4158
18157THY    HP437504   7.304   8.278   6.220 -2.2597 -0.1853  1.5598
18157THY    CP337505   7.551   8.252   6.323  0.5944 -0.7118  0.0159
18157THY    HP537506   7.507   8.288   6.417  0.7406 -1.5641  2.6610
18157THY    HP637507   7.661   8.253   6.326  0.6816 -2.5865  0.0150
18157THY    HP737508   7.512   8.156   6.290 -0.4876 -1.7559  0.7899
18157THY    CA337509   7.621   8.551   6.370  0.2682  0.3328 -0.6162
18157THY    HA337510   7.623   8.484   6.456 -1.8367  1.3706  0.5529
18157THY    CA437511   7.678   8.678   6.379 -0.2443 -0.3580 -0.0859
18157THY    HA437512   7.705   8.721   6.476 -0.7208 -0.4963  0.5403
18157THY    CA537513   7.690   8.758   6.269 -0.1345 -0.3667 -0.0024
18157THY    CM137514   7.729   8.898   6.288  0.2462  0.1776 -0.2083
18157THY    HM137515   7.662   8.945   6.360 -0.6944 -1.0964  0.4727
18157THY    HM237516   7.727   8.955   6.194  1.0252 -0.6092 -1.4098
18157THY    HM337517   7.827   8.912   6.336  0.2427 -0.4354  2.5031
18157THY    CA637518   7.637   8.718   6.148  0.6704 -0.2054  0.6762
18157THY    HA637519   7.646   8.786   6.064  2.7827 -0.8905 -0.3370
18158THY      O37520   8.238   8.562   4.242  0.3439  0.1760  0.0798
18158THY     HO37521   8.206   8.643   4.284 -0.4702 -0.0075 -0.1303
18158THY    CA137522   8.192   8.578   4.116 -0.8881  0.9970  0.6054
18158THY    CA237523   8.185   8.466   4.029  0.4533  0.1531  0.0963
18158THY    CP137524   8.230   8.325   4.082 -0.7352 -0.0134 -0.2745
18158THY    HP137525   8.244   8.341   4.189 -2.5121 -0.1823  3.1934
18158THY    CP237526   8.362   8.273   4.013 -0.0153  0.4954  0.1924
18158THY    HP237527   8.397   8.182   4.064  1.0597 -1.7791 -0.7528
18158THY    HP337528   8.430   8.354   4.040 -0.6824  0.7193  0.6870
18158THY    HP437529   8.362   8.257   3.904 -0.1478  0.3716  0.9891
18158THY    CP337530   8.130   8.215   4.067  0.0275  0.1992  1.1629
18158THY    HP537531   8.166   8.133   4.130 -0.7770  2.1385  2.2271
18158THY    HP637532   8.133   8.171   3.967  0.8804  1.4312 -1.8177
18158THY    HP737533   8.028   8.237   4.103  0.3039  3.1837 -1.8117
18158THY    CA337534   8.135   8.489   3.895  0.0764 -0.0261  0.3330
18158THY    HA337535   8.153   8.409   3.825 -0.2346  0.5884 -0.2800
18158THY    CA437536   8.097   8.623   3.865 -0.5919  0.4034  0.6395
18158THY    HA437537   8.071   8.639   3.761  0.5722 -0.0560 -0.2829
18158THY    CA537538   8.095   8.727   3.956  0.0385  0.0915 -0.3455
18158THY    CM137539   8.052   8.863   3.907 -0.7790  0.7031 -0.4858
18158THY    HM137540   8.079   8.871   3.801  0.1269  0.8558 -1.3013
18158THY    HM237541   8.094   8.950   3.958 -0.0713  1.3704 -1.2027
18158THY    HM337542   7.942   8.872   3.909 -0.6201  2.2358  1.9513
18158THY    CA637543   8.141   8.704   4.084  0.1478  0.1306  0.1297
18158THY    HA637544   8.150   8.782   4.159 -1.8960  0.2385  0.3287
18159THY      O37545   5.223   3.779   3.249  0.3701 -0.1867 -0.5484
18159THY     HO37546   5.291   3.797   3.315  0.9693 -1.1097  0.7152
18159THY    CA137547   5.138   3.881   3.264  0.3647 -0.3064  0.4471
18159THY    CA237548   4.995   3.860   3.250  0.1431  0.0188 -0.1255
18159THY    CP137549   4.936   3.730   3.188  0.4215  0.1828 -0.3870
18159THY    HP137550   4.994   3.640   3.210 -0.3853  0.8265 -0.7595
18159THY    CP237551   4.937   3.750   3.037 -0.6874 -0.3552 -0.2049
18159THY    HP237552   4.920   3.652   2.992  0.9507 -1.6086  0.0412
18159THY    HP337553   5.040   3.772   3.007 -0.0445  0.3489 -2.0787
18159THY    HP437554   4.873   3.833   3.005 -0.5804  1.8502  0.8194
18159THY    CP337555   4.794   3.705   3.247  0.3738 -0.4117 -0.2438
18159THY    HP537556   4.765   3.601   3.227 -0.0767 -0.8619 -0.0321
18159THY    HP637557   4.723   3.768   3.193  1.9350 -2.9185 -0.4770
18159THY    HP737558   4.796   3.710   3.357 -0.4829 -0.2395 -2.3115
18159THY    CA337559   4.914   3.976   3.263  0.3484 -1.0367 -0.1576
18159THY    HA337560   4.807   3.969   3.244  0.0590 -0.1345  1.3961
18159THY    CA437561   4.971   4.102   3.293  0.4331 -0.7192  0.4923
18159THY    HA437562   4.903   4.187   3.301 -0.7182 -0.4613 -0.4295
18159THY    CA537563   5.114   4.110   3.310 -0.6103  0.0722 -0.7661
18159THY    CM137564   5.173   4.241   3.352  0.0605  0.8417 -0.2435
18159THY    HM137565   5.252   4.263   3.279  1.3197  1.2692 -2.9530
18159THY    HM237566   5.224   4.230   3.448 -1.0759  1.7319  1.8140
18159THY    HM337567   5.104   4.324   3.368  0.2146  2.8773 -0.4613
18159THY    CA637568   5.197   4.000   3.294 -0.0259 -0.4055  0.7325
18159THY    HA637569   5.304   4.009   3.313  0.1090 -0.6761 -0.1854
18160THY      O37570   2.158   3.376   6.606  0.4956 -0.3020  0.0237
18160THY     HO37571   2.090   3.438   6.638  0.5970 -2.1338  1.1578
18160THY    CA137572   2.158   3.389   6.474 -0.4271  0.0179  0.1332
18160THY    CA237573   2.276   3.370   6.401  0.2309  0.2111  0.0615
18160THY    CP137574   2.405   3.323   6.478 -0.7383  0.1340  0.0254
18160THY    HP137575   2.375   3.266   6.567 -3.8444 -1.3951 -0.9424
18160THY    CP237576   2.491   3.443   6.527 -0.0202 -0.3223  0.4264
18160THY    HP237577   2.523   3.507   6.444 -0.2482  0.8477  2.1174
18160THY    HP337578   2.576   3.412   6.589 -1.0525  0.7354 -0.3843
18160THY    HP437579   2.424   3.514   6.577 -2.3824 -1.7283 -0.6948
18160THY    CP337580   2.494   3.247   6.380  0.1038 -0.6594  0.2046
18160THY    HP537581   2.541   3.322   6.316  0.6240  0.9887  1.3474
18160THY    HP637582   2.438   3.173   6.323  0.4564  1.1507 -1.5591
18160THY    HP737583   2.575   3.192   6.430 -0.6048  0.0405 -0.2245
18160THY    CA337584   2.271   3.387   6.263 -0.5788 -0.4012  0.2555
18160THY    HA337585   2.360   3.373   6.201  0.1076  0.6897 -0.3278
18160THY    CA437586   2.147   3.408   6.196 -0.3276 -0.7388 -0.4689
18160THY    HA437587   2.145   3.413   6.087  1.7141 -0.8265 -0.5898
18160THY    CA537588   2.035   3.445   6.272  0.7868  0.3930  0.3429
18160THY    CM137589   1.903   3.468   6.198  0.5561  0.5715 -0.1385
18160THY    HM137590   1.886   3.378   6.138  0.9072  0.0211  0.1547
18160THY    HM237591   1.915   3.553   6.129 -0.3025  0.8813  0.2554
18160THY    HM337592   1.811   3.466   6.257  0.0002 -0.2816 -1.1846
18160THY    CA637593   2.038   3.426   6.411 -0.4389  0.1703 -0.0208
18160THY    HA637594   1.950   3.440   6.472 -0.6695 -0.5933  2.1429
18161THY      O37595   7.753   4.823   6.365  0.3372  0.0364  0.1709
18161THY     HO37596   7.846   4.845   6.345 -0.7058 -3.4390  2.2842
18161THY    CA137597   7.715   4.753   6.261 -0.6040  0.1157 -0.9649
18161THY    CA237598   7.633   4.640   6.272 -0.0327  0.1779  0.6523
18161THY    CP137599   7.599   4.584   6.406  0.1147  0.3636 -0.2826
18161THY    HP137600   7.587   4.663   6.481  3.3012  1.2246 -0.5124
18161THY    CP237601   7.714   4.492   6.461 -0.4129  0.1320  0.0320
18161THY    HP237602   7.741   4.402   6.405 -1.6483  0.3174 -0.4740
18161THY    HP337603   7.680   4.454   6.558  0.9142  0.6136  0.0470
18161THY    HP437604   7.806   4.548   6.480 -0.2624  3.4746 -1.1148
18161THY    CP337605   7.466   4.500   6.409  0.4290 -0.2745  0.5250
18161THY    HP537606   7.484   4.392   6.401 -1.5253  1.6679 -0.0147
18161THY    HP637607   7.397   4.543   6.335  0.8644  0.8895  3.4655
18161THY    HP737608   7.410   4.510   6.503  0.4719 -0.0787 -0.8827
18161THY    CA337609   7.605   4.569   6.155 -0.0961  0.2996 -0.9772
18161THY    HA337610   7.545   4.480   6.167 -0.3490  0.5974 -0.7683
18161THY    CA437611   7.649   4.620   6.026 -0.6844  0.2247  0.2618
18161THY    HA437612   7.618   4.559   5.941 -3.5544  2.5407 -1.8195
18161THY    CA537613   7.725   4.736   6.011 -0.7068 -0.1786 -0.5125
18161THY    CM137614   7.761   4.785   5.872  0.1227 -0.5129  0.8622
18161THY    HM137615   7.818   4.709   5.817 -0.0928 -1.8880  1.6707
18161THY    HM237616   7.825   4.874   5.867 -0.1853 -0.4606  1.0871
18161THY    HM337617   7.665   4.791   5.820 -0.2665  0.1111  0.1973
18161THY    CA637618   7.768   4.804   6.133 -0.0681 -0.5495 -0.5559
18161THY    HA637619   7.841   4.885   6.133 -0.6332  0.4369 -0.0210
18162THY      O37620   2.069   8.822   4.448  0.4932  0.4239  0.0518
18162THY     HO37621   2.032   8.829   4.359 -0.0026  0.6176 -0.0908
18162THY    CA137622   1.967   8.874   4.521 -0.1432 -0.0189  0.0794
18162THY    CA237623   1.949   8.849   4.659  0.0982  0.6380  0.1542
18162THY    CP137624   2.051   8.771   4.736  0.0736 -0.3619  0.4660
18162THY    HP137625   2.128   8.723   4.675 -0.6592 -0.6491 -0.3537
18162THY    CP237626   1.992   8.651   4.819  0.3715  0.1376 -0.1759
18162THY    HP237627   1.957   8.565   4.761  0.2713  1.7638 -1.2892
18162THY    HP337628   1.910   8.672   4.889 -0.1521 -0.0234 -1.5518
18162THY    HP437629   2.072   8.621   4.888 -0.8739  1.7787  0.1592
18162THY    CP337630   2.110   8.868   4.840  0.2523 -0.1044 -0.2935
18162THY    HP537631   2.029   8.897   4.908  0.3630  0.2983 -0.9103
18162THY    HP637632   2.145   8.962   4.796 -1.2146  1.6495  1.1567
18162THY    HP737633   2.189   8.821   4.900 -0.3420  0.0726 -1.1082
18162THY    CA337634   1.839   8.904   4.729  0.2613  0.1434 -0.1711
18162THY    HA337635   1.817   8.875   4.831  3.5381  0.2643 -2.9676
18162THY    CA437636   1.761   9.001   4.665 -0.0034 -0.7949  0.2388
18162THY    HA437637   1.688   9.053   4.726 -0.2292 -1.2467  0.4521
18162THY    CA537638   1.772   9.022   4.529  0.2370 -0.0349  0.5268
18162THY    CM137639   1.681   9.116   4.451 -0.0128  0.2984 -0.1333
18162THY    HM137640   1.613   9.174   4.515 -0.6197 -1.3866  1.0744
18162THY    HM237641   1.624   9.063   4.374  1.2751  0.8977 -2.5787
18162THY    HM337642   1.741   9.198   4.410  0.2775  1.0394  0.0405
18162THY    CA637643   1.873   8.949   4.456  0.2392  0.1695  0.0822
18162THY    HA637644   1.875   8.958   4.348 -2.6580 -0.1500 -1.6335
18163THY      O37645   2.833   7.811   2.795 -0.0349  0.0556 -0.6027
18163THY     HO37646   2.868   7.859   2.873  2.0056 -0.7516 -0.6752
18163THY    CA137647   2.699   7.850   2.783 -0.2784  0.8789  0.6637
18163THY    CA237648   2.622   7.823   2.668 -0.4095 -0.2909  0.6326
18163THY    CP137649   2.675   7.730   2.551  0.0628 -0.1090 -0.2917
18163THY    HP137650   2.775   7.696   2.579  0.4315 -2.9349 -1.8069
18163THY    CP237651   2.685   7.805   2.425 -0.6555 -0.2462 -0.7562
18163THY    HP237652   2.743   7.897   2.438 -3.5603  0.6440  1.0966
18163THY    HP337653   2.588   7.852   2.406 -0.9902  0.1903 -1.2681
18163THY    HP437654   2.728   7.752   2.339  1.4867  1.4197 -1.8665
18163THY    CP337655   2.593   7.601   2.529 -0.2277 -0.3329 -0.5250
18163THY    HP537656   2.611   7.526   2.607  0.8117  0.7925  0.8572
18163THY    HP637657   2.617   7.564   2.428  1.3372 -0.0633 -0.3293
18163THY    HP737658   2.485   7.618   2.532 -0.2638 -0.8270 -0.6479
18163THY    CA337659   2.488   7.874   2.658 -0.3379  0.0974 -0.2023
18163THY    HA337660   2.428   7.837   2.576 -2.3708  0.1991  2.5140
18163THY    CA437661   2.434   7.946   2.762  0.1480  0.4421  0.2413
18163THY    HA437662   2.329   7.971   2.773  0.6395  4.9458  1.0899
18163THY    CA537663   2.513   7.978   2.867  0.0572  0.2774 -0.7122
18163THY    CM137664   2.456   8.069   2.969 -0.5844  0.4784  0.7193
18163THY    HM137665   2.423   8.164   2.925 -1.9610 -1.1775 -0.4582
18163THY    HM237666   2.524   8.081   3.055 -1.2530  1.4620 -1.8271
18163THY    HM337667   2.366   8.024   3.013 -1.6242  0.2037  2.4459
18163THY    CA637668   2.641   7.926   2.882 -0.0270  0.3507 -0.1908
18163THY    HA637669   2.698   7.953   2.971 -2.3019  0.9162  3.3270
18164THY      O37670   1.254   5.249   5.470  0.8623 -0.3170 -0.0856
18164THY     HO37671   1.231   5.163   5.433  1.1066 -0.2863 -0.1648
18164THY    CA137672   1.345   5.228   5.564  0.3505  0.3165 -0.5629
18164THY    CA237673   1.360   5.323   5.672 -0.1778  0.5865 -0.0882
18164THY    CP137674   1.272   5.449   5.690  0.1145 -0.5007 -0.0150
18164THY    HP137675   1.225   5.469   5.593 -2.2210  0.3512 -1.0319
18164THY    CP237676   1.340   5.575   5.745 -0.4837  0.0959 -0.1556
18164THY    HP237677   1.266   5.654   5.726 -0.0061  0.8104  0.4758
18164THY    HP337678   1.432   5.599   5.691 -1.6429 -1.1890  1.6656
18164THY    HP437679   1.359   5.571   5.853 -0.1390  0.0044 -0.9697
18164THY    CP337680   1.152   5.430   5.783  0.0919 -1.0021  0.4662
18164THY    HP537681   1.077   5.508   5.769  0.8518 -0.2980  1.3470
18164THY    HP637682   1.189   5.430   5.886  0.2089 -1.0280 -0.7891
18164THY    HP737683   1.108   5.331   5.766 -0.0603  2.5228 -0.1883
18164THY    CA337684   1.463   5.308   5.759 -0.5265  0.0121  0.0822
18164THY    HA337685   1.486   5.381   5.837 -1.2708 -0.7635  1.1746
18164THY    CA437686   1.549   5.195   5.747  0.4793 -0.4166 -0.9281
18164THY    HA437687   1.628   5.187   5.821  2.8958 -2.6241  0.8253
18164THY    CA537688   1.532   5.105   5.643  0.2572 -0.0248  1.0491
18164THY    CM137689   1.631   4.983   5.630 -0.3729  0.2877 -0.6534
18164THY    HM137690   1.721   5.007   5.572 -0.6586  0.5074  1.0617
18164THY    HM237691   1.591   4.890   5.587  1.6530 -1.7885 -0.6609
18164THY    HM337692   1.674   4.965   5.729 -2.4996  1.1224 -1.3803
18164THY    CA637693   1.430   5.126   5.552  0.4814  0.3795  0.0115
18164THY    HA637694   1.435   5.063   5.463 -0.4540  1.6606 -1.9958
18165THY      O37695   4.687   7.233   4.580  0.3295 -0.1167 -0.3276
18165THY     HO37696   4.599   7.193   4.591 -1.1983 -0.4005  2.6354
18165THY    CA137697   4.706   7.299   4.699  0.0515 -0.3364  0.0491
18165THY    CA237698   4.748   7.434   4.710 -0.4136  0.9992 -0.7249
18165THY    CP137699   4.779   7.516   4.587 -0.1076 -0.0073  0.1826
18165THY    HP137700   4.804   7.448   4.505 -0.8637  0.2876 -0.4579
18165THY    CP237701   4.906   7.595   4.608 -0.5088  0.3858 -0.0254
18165THY    HP237702   4.896   7.680   4.676 -0.5286 -1.5550  1.6047
18165THY    HP337703   4.947   7.633   4.513 -0.3438  0.1351 -0.8216
18165THY    HP437704   4.987   7.529   4.642 -0.4345  0.6677  0.2071
18165THY    CP337705   4.654   7.599   4.563 -0.4611 -0.3924  0.8510
18165THY    HP537706   4.658   7.667   4.477  1.4596 -2.1898 -1.3631
18165THY    HP637707   4.622   7.661   4.648  0.3550  0.2811  0.3710
18165THY    HP737708   4.571   7.529   4.547 -0.0213  1.1251 -0.0621
18165THY    CA337709   4.743   7.493   4.836 -0.6616 -0.3296  0.2763
18165THY    HA337710   4.769   7.597   4.849  0.1944 -0.6115  0.1081
18165THY    CA437711   4.700   7.414   4.946 -0.1408  0.5151 -0.3720
18165THY    HA437712   4.688   7.462   5.042 -3.6242  0.7972 -1.5064
18165THY    CA537713   4.681   7.275   4.933  0.1725  0.0570  0.1310
18165THY    CM137714   4.643   7.187   5.045  0.6786  0.3774 -0.3338
18165THY    HM137715   4.700   7.224   5.131 -1.1268  1.7104 -0.4949
18165THY    HM237716   4.662   7.081   5.026 -0.7915 -2.6248 -0.1715
18165THY    HM337717   4.538   7.210   5.067  0.4315 -1.3630  0.3410
18165THY    CA637718   4.677   7.212   4.808  0.3285 -0.6014 -0.7041
18165THY    HA637719   4.652   7.107   4.802  0.7761  2.5329 -1.0906
18166THY      O37720   7.316   3.843   7.482  0.5985 -0.5443  0.2837
18166THY     HO37721   7.395   3.879   7.527  1.3248 -1.5024 -0.0724
18166THY    CA137722   7.348   3.830   7.356 -0.3205 -0.0737  0.5033
18166THY    CA237723   7.260   3.780   7.264  0.3646  0.1577 -0.3082
18166THY    CP137724   7.123   3.724   7.308  0.1016  0.3101 -0.6010
18166THY    HP137725   7.102   3.762   7.408  0.4756 -0.6842  2.6042
18166THY    CP237726   7.124   3.573   7.301 -0.0216 -0.1778 -0.5677
18166THY    HP237727   7.028   3.534   7.339 -0.7765 -0.7953  0.6307
18166THY    HP337728   7.201   3.541   7.372  1.2626 -1.1236  0.3143
18166THY    HP437729   7.127   3.535   7.198  2.3710 -0.2952 -0.2078
18166THY    CP337730   7.004   3.781   7.227 -0.0314  0.0720 -0.0944
18166THY    HP537731   7.011   3.759   7.120 -0.9560 -0.1918  0.8616
18166THY    HP637732   7.014   3.889   7.236  1.2790 -1.3874 -0.0647
18166THY    HP737733   6.917   3.731   7.272  0.0995 -0.2089 -0.5818
18166THY    CA337734   7.294   3.777   7.127  0.0879  0.3047  0.0772
18166THY    HA337735   7.228   3.731   7.054 -1.1207 -0.0895  2.3121
18166THY    CA437736   7.409   3.838   7.082 -0.8834  0.6306 -0.7883
18166THY    HA437737   7.444   3.839   6.979  0.4804  1.0681  0.2552
18166THY    CA537738   7.482   3.911   7.174 -0.2461  0.7537 -0.3867
18166THY    CM137739   7.603   3.991   7.131  0.4103 -0.1475 -0.2211
18166THY    HM137740   7.592   4.033   7.031 -0.1675 -0.6007 -1.3977
18166THY    HM237741   7.687   3.921   7.120 -0.0822  1.1958 -1.0658
18166THY    HM337742   7.631   4.074   7.197  0.6421  1.4154 -1.4863
18166THY    CA637743   7.455   3.907   7.307 -0.5009  0.0881  0.8142
18166THY    HA637744   7.528   3.954   7.373  1.4525 -1.0473 -0.4658
18167THY      O37745   2.845   2.061   2.474  0.0695 -0.2268  0.2845
18167THY     HO37746   2.853   2.157   2.460  1.8029  1.8826  0.5208
18167THY    CA137747   2.730   2.033   2.410 -0.4055 -0.7391  0.6278
18167THY    CA237748   2.709   1.899   2.363 -0.5050 -0.4575  0.0053
18167THY    CP137749   2.835   1.810   2.344  0.0390 -0.2062  0.6934
18167THY    HP137750   2.922   1.845   2.400  0.6329  0.0285 -1.0819
18167THY    CP237751   2.879   1.805   2.193  0.4200  0.2102 -0.1066
18167THY    HP237752   2.974   1.752   2.181 -0.0267  0.6311 -1.0162
18167THY    HP337753   2.900   1.897   2.136 -0.0127  0.6762  0.2862
18167THY    HP437754   2.796   1.755   2.142  0.4724 -0.4204  0.4290
18167THY    CP337755   2.805   1.667   2.396  0.1141  1.0611  0.6353
18167THY    HP537756   2.788   1.685   2.502 -0.4810  1.5445 -2.3600
18167THY    HP637757   2.890   1.599   2.390 -0.7502 -0.1082 -0.3845
18167THY    HP737758   2.712   1.615   2.370 -0.6687  2.0108  1.5207
18167THY    CA337759   2.576   1.849   2.332  0.4881  0.4424 -0.0768
18167THY    HA337760   2.556   1.757   2.278 -1.1017 -0.1201  0.5702
18167THY    CA437761   2.467   1.934   2.353 -0.4406 -0.2129 -0.3157
18167THY    HA437762   2.362   1.906   2.344 -1.0168  2.3081  0.7132
18167THY    CA537763   2.494   2.063   2.410 -0.4462  0.8000  0.1356
18167THY    CM137764   2.383   2.161   2.417  0.9535  0.6134 -0.2181
18167THY    HM137765   2.302   2.143   2.345  1.4935  0.2129 -1.1517
18167THY    HM237766   2.425   2.262   2.407  2.4522 -1.6864 -0.9628
18167THY    HM337767   2.326   2.146   2.509 -0.3896 -0.1446  0.0597
18167THY    CA637768   2.624   2.119   2.427  0.0713  0.2068 -0.1143
18167THY    HA637769   2.641   2.217   2.470 -0.4910 -0.6855  0.3959
18168THY      O37770   1.622   2.155   4.150 -0.1141 -0.2249 -0.3070
18168THY     HO37771   1.620   2.251   4.162  0.2877 -1.3327 -0.1517
18168THY    CA137772   1.505   2.119   4.094  0.2834 -0.4411 -0.4845
18168THY    CA237773   1.446   2.002   4.145 -0.0030 -0.3204 -0.3453
18168THY    CP137774   1.521   1.910   4.251  0.2702  0.1923 -0.0805
18168THY    HP137775   1.575   1.977   4.320  0.8944 -0.7194  0.3748
18168THY    CP237776   1.615   1.810   4.184  0.2731 -0.0658  0.1477
18168THY    HP237777   1.632   1.744   4.269 -3.0192  3.2339  3.1035
18168THY    HP337778   1.706   1.864   4.156 -0.8437  0.2354  2.2781
18168THY    HP437779   1.572   1.766   4.093  0.5051  0.2426 -0.7370
18168THY    CP337780   1.422   1.837   4.343 -0.0031 -0.7765  0.0177
18168THY    HP537781   1.482   1.799   4.427 -1.5048  0.1792 -0.3477
18168THY    HP637782   1.368   1.759   4.288 -0.6403  0.4671 -0.4436
18168THY    HP737783   1.363   1.919   4.384  1.1405 -1.4608  1.2319
18168THY    CA337784   1.314   1.973   4.101  0.1621  0.1663 -1.0894
18168THY    HA337785   1.264   1.884   4.140  0.0454 -0.4879 -1.3253
18168THY    CA437786   1.254   2.059   4.003 -0.2817  0.1086 -0.7895
18168THY    HA437787   1.149   2.050   3.976 -0.1879  0.0033 -1.6783
18168THY    CA537788   1.313   2.177   3.959 -0.0462 -0.2188 -0.5953
18168THY    CM137789   1.232   2.265   3.870 -0.3679 -0.5991  0.0163
18168THY    HM137790   1.165   2.328   3.929 -0.6558 -0.0738 -0.7607
18168THY    HM237791   1.168   2.212   3.798 -3.0081  1.8232 -0.2967
18168THY    HM337792   1.300   2.340   3.828 -1.6493  0.1667  1.6618
18168THY    CA637793   1.439   2.208   4.010 -0.5561  0.2121 -0.4997
18168THY    HA637794   1.486   2.296   3.968 -2.2237 -0.4362  0.1315
18169THY      O37795   5.284   2.415   1.877  0.4598  0.2205  0.2551
18169THY     HO37796   5.261   2.320   1.877 -2.3487 -0.9946  0.8294
18169THY    CA137797   5.186   2.476   1.944 -1.3223 -0.0977  0.5459
18169THY    CA237798   5.217   2.574   2.044  0.1705 -0.0768 -0.3489
18169THY    CP137799   5.364   2.607   2.070  0.2215  0.8233  0.1771
18169THY    HP137800   5.417   2.513   2.049 -0.4983  0.1841 -0.0935
18169THY    CP237801   5.389   2.613   2.223 -0.0002  0.4568 -0.3099
18169THY    HP237802   5.341   2.701   2.267  1.2844  0.3934  0.4447
18169THY    HP337803   5.495   2.626   2.248  0.2207 -0.5334 -0.1088
18169THY    HP437804   5.362   2.518   2.269 -0.9853  0.7694  0.1085
18169THY    CP337805   5.418   2.719   1.984  0.5004 -0.3116  0.6345
18169THY    HP537806   5.439   2.682   1.883  0.1980 -0.4224  0.7544
18169THY    HP637807   5.513   2.760   2.019  0.9702  0.0764 -0.7478
18169THY    HP737808   5.347   2.802   1.976  1.3037 -0.0562  1.3590
18169THY    CA337809   5.110   2.633   2.115 -0.1504  0.4452  0.4532
18169THY    HA337810   5.122   2.712   2.188 -1.3996  0.0938  0.9924
18169THY    CA437811   4.979   2.590   2.091 -0.3324 -0.0358 -0.5967
18169THY    HA437812   4.899   2.615   2.160  0.4316  0.5637  0.2862
18169THY    CA537813   4.955   2.493   1.996  0.2566  0.1193  0.8484
18169THY    CM137814   4.821   2.426   1.988 -0.9409  0.5956 -0.6976
18169THY    HM137815   4.742   2.491   2.028  1.3568  0.0339  2.6739
18169THY    HM237816   4.810   2.333   2.045 -3.7791 -0.2628 -0.9709
18169THY    HM337817   4.798   2.405   1.883  0.2225  0.1249  0.2506
18169THY    CA637818   5.058   2.433   1.919  0.4310 -0.2565 -0.2072
18169THY    HA637819   5.040   2.352   1.848 -0.9514 -1.4381  1.0506
18170THY      O37820   6.996   8.012   5.955  0.0463  0.1416  0.3708
18170THY     HO37821   7.037   7.924   5.957 -0.8480 -0.4160 -0.0763
18170THY    CA137822   7.091   8.108   5.942  0.0077 -0.6248  0.1434
18170THY    CA237823   7.059   8.242   5.960  0.9237  0.0640 -0.1823
18170THY    CP137824   6.908   8.281   5.985 -0.3375  0.1927  0.3004
18170THY    HP137825   6.859   8.205   6.048 -0.0494 -0.0469 -0.0888
18170THY    CP237826   6.820   8.292   5.856  0.1341 -0.4274  0.6332
18170THY    HP237827   6.844   8.383   5.800  0.4537 -0.9202  0.2453
18170THY    HP337828   6.714   8.279   5.880  0.0029 -0.0318  2.2425
18170THY    HP437829   6.836   8.206   5.790  2.0610 -1.0080  1.3890
18170THY    CP337830   6.908   8.426   6.041  0.4334  0.5158 -0.3508
18170THY    HP537831   6.924   8.496   5.959 -0.5776  0.7546  0.1800
18170THY    HP637832   6.986   8.431   6.118 -0.1590  1.0455  1.1244
18170THY    HP737833   6.813   8.450   6.089 -1.2699 -2.4128 -0.6908
18170THY    CA337834   7.163   8.340   5.944  0.5043 -0.0391  0.1026
18170THY    HA337835   7.139   8.446   5.951  0.5806 -3.0103  0.4054
18170THY    CA437836   7.292   8.296   5.917 -0.3845 -1.3333  0.3216
18170THY    HA437837   7.364   8.378   5.917 -1.5613 -1.0058  1.3906
18170THY    CA537838   7.320   8.157   5.899 -0.0917 -0.0524 -0.8008
18170THY    CM137839   7.465   8.107   5.886  0.0777 -0.2630 -1.2979
18170THY    HM137840   7.536   8.185   5.855 -0.2240 -0.4510 -1.0919
18170THY    HM237841   7.469   8.031   5.808 -0.6413 -1.8568  0.2283
18170THY    HM337842   7.500   8.071   5.983  0.6659 -0.1370 -0.4379
18170THY    CA637843   7.215   8.063   5.911 -0.0188 -0.1951 -0.2590
18170THY    HA637844   7.230   7.961   5.877 -1.8661 -0.7812 -0.3778
18171THY      O37845   0.331   3.809   4.140 -0.4035  0.3139 -0.1331
18171THY     HO37846   0.346   3.881   4.077 -0.8766  1.1320  0.7004
18171THY    CA137847   0.441   3.786   4.222 -0.1479  0.8643  1.2980
18171THY    CA237848   0.450   3.669   4.305  0.4386  0.3734 -0.4709
18171THY    CP137849   0.348   3.559   4.294 -0.4091 -0.5036  0.4718
18171THY    HP137850   0.263   3.575   4.227 -0.1811 -0.8168  0.3801
18171THY    CP237851   0.300   3.518   4.435  0.1102 -0.6456  0.7226
18171THY    HP237852   0.251   3.603   4.484  0.1825 -0.4541  0.6528
18171THY    HP337853   0.388   3.500   4.497 -0.3636 -0.1484  0.0640
18171THY    HP437854   0.244   3.424   4.436  0.6874  3.6499  0.2390
18171THY    CP337855   0.414   3.429   4.235  0.3690  0.2287 -0.3180
18171THY    HP537856   0.471   3.448   4.144 -0.7734 -0.6464 -0.9143
18171THY    HP637857   0.338   3.355   4.205  0.3289 -3.0680  0.9244
18171THY    HP737858   0.485   3.375   4.299 -1.2434  1.2137 -1.3628
18171THY    CA337859   0.573   3.657   4.372 -0.0314  0.5767 -0.3827
18171THY    HA337860   0.598   3.559   4.413  0.3250 -1.3319 -1.1249
18171THY    CA437861   0.663   3.761   4.374 -0.3594 -0.0024  0.8444
18171THY    HA437862   0.760   3.755   4.423 -0.1292 -0.3941  1.2813
18171THY    CA537863   0.645   3.886   4.309  0.1395  0.2867  0.1948
18171THY    CM137864   0.749   3.995   4.321 -0.0495  0.1618 -0.0751
18171THY    HM137865   0.700   4.089   4.348  1.5695  2.3872  0.2208
18171THY    HM237866   0.800   4.009   4.225 -1.0243 -0.1293  1.7586
18171THY    HM337867   0.814   3.983   4.409  2.4329 -1.4819  0.5853
18171THY    CA637868   0.533   3.892   4.234  0.2019  0.5179  0.3206
18171THY    HA637869   0.504   3.987   4.191 -1.1309  2.9076  1.0740
18172THY      O37870   6.791   0.370   4.460  0.2194  0.0449  0.2026
18172THY     HO37871   6.726   0.392   4.530  2.5554  2.2141  0.7358
18172THY    CA137872   6.903   0.442   4.497  0.9005  0.3927  0.1507
18172THY    CA237873   7.026   0.409   4.445  0.3388 -0.3451 -0.7887
18172THY    CP137874   7.045   0.295   4.328 -0.2321 -0.2481  0.3122
18172THY    HP137875   6.964   0.304   4.255 -0.2428 -0.3758 -0.6964
18172THY    CP237876   7.034   0.159   4.398  0.1449 -0.2787  0.1167
18172THY    HP237877   6.931   0.131   4.424  0.5492 -0.4493 -1.6513
18172THY    HP337878   7.097   0.160   4.488  0.6737 -0.3732 -4.4970
18172THY    HP437879   7.076   0.076   4.340  0.2514  2.0239 -1.5442
18172THY    CP337880   7.184   0.305   4.258  0.1063  0.3328 -0.5786
18172THY    HP537881   7.258   0.287   4.337 -1.9284  2.7225  0.9175
18172THY    HP637882   7.193   0.406   4.217  0.4602  0.0560 -0.7186
18172THY    HP737883   7.201   0.244   4.168 -0.1104 -1.2446  1.5655
18172THY    CA337884   7.141   0.466   4.517  0.2613  0.6334 -0.4001
18172THY    HA337885   7.240   0.430   4.488  0.3177  0.7366 -0.3259
18172THY    CA437886   7.121   0.564   4.617 -0.0459 -0.0682 -0.2703
18172THY    HA437887   7.206   0.606   4.669 -0.5503 -1.5544  2.8633
18172THY    CA537888   6.998   0.604   4.644  0.2868  0.4500 -0.7070
18172THY    CM137889   6.976   0.696   4.761  0.1561  0.0319 -0.0612
18172THY    HM137890   6.944   0.651   4.855  1.7196  0.3921 -0.4895
18172THY    HM237891   6.898   0.766   4.730 -0.1688  1.8478  0.4205
18172THY    HM337892   7.067   0.752   4.785  0.3456  0.0045 -0.3537
18172THY    CA637893   6.889   0.547   4.588 -0.3018 -0.2654 -0.1033
18172THY    HA637894   6.792   0.590   4.613 -0.5260 -2.6545  0.9542
18173THY      O37895   7.472   3.751   4.244  1.0505 -1.1404  0.3893
18173THY     HO37896   7.519   3.813   4.185  2.1736  1.7196  2.4874
18173THY    CA137897   7.475   3.631   4.182  0.5289  0.2211  0.4827
18173THY    CA237898   7.377   3.528   4.209 -0.3527  0.4203 -0.0485
18173THY    CP137899   7.283   3.533   4.330  0.1542 -0.1100  0.7602
18173THY    HP137900   7.254   3.636   4.357 -0.3526  0.8879  0.3698
18173THY    CP237901   7.350   3.479   4.458 -0.3478 -0.4333 -0.0229
18173THY    HP237902   7.286   3.498   4.545  0.2323 -0.3259  1.5952
18173THY    HP337903   7.449   3.524   4.475 -1.3010 -1.5733  2.7134
18173THY    HP437904   7.366   3.371   4.457 -1.9721  0.5229 -0.3065
18173THY    CP337905   7.142   3.455   4.314  0.8452  0.2865  0.1813
18173THY    HP537906   7.091   3.494   4.225 -0.4695  0.6732 -0.6060
18173THY    HP637907   7.078   3.484   4.398 -1.3057 -1.2314  0.0519
18173THY    HP737908   7.158   3.346   4.310  2.4811  2.1825  0.3026
18173THY    CA337909   7.379   3.416   4.128 -0.4547 -0.2764 -0.0822
18173THY    HA337910   7.311   3.333   4.145 -1.2642 -1.1170  0.3889
18173THY    CA437911   7.477   3.401   4.026  0.1194 -0.0055 -0.1660
18173THY    HA437912   7.473   3.310   3.966  2.5193  0.2698 -0.4975
18173THY    CA537913   7.560   3.505   3.992  0.7595  0.2970  0.0318
18173THY    CM137914   7.655   3.492   3.882 -0.0601  0.0831 -0.7985
18173THY    HM137915   7.589   3.470   3.797 -0.8846  0.2320  0.8952
18173THY    HM237916   7.728   3.412   3.893  0.0719  0.6495 -0.6044
18173THY    HM337917   7.688   3.595   3.867 -3.2709  0.6947  0.4648
18173THY    CA637918   7.557   3.625   4.069 -0.0449 -0.0658  0.2571
18173THY    HA637919   7.616   3.713   4.044  1.1266  2.2158  0.1838
18174THY      O37920   8.121   2.503   6.552 -0.0101  0.2565  1.1395
18174THY     HO37921   8.208   2.465   6.530 -0.4039 -0.3981  0.5997
18174THY    CA137922   8.129   2.617   6.481 -0.0003 -0.4326 -0.2540
18174THY    CA237923   8.025   2.711   6.485  0.4625 -0.0398 -0.5479
18174THY    CP137924   7.894   2.677   6.555  0.0260  0.5117 -0.1054
18174THY    HP137925   7.896   2.587   6.617 -1.2625 -1.4528 -1.5637
18174THY    CP237926   7.784   2.664   6.451  0.2303  0.5894  0.4457
18174THY    HP237927   7.686   2.699   6.486  0.2278  3.1706 -1.8053
18174THY    HP337928   7.759   2.560   6.428 -0.2795 -1.2195  0.9355
18174THY    HP437929   7.817   2.712   6.358  0.2517 -0.4942 -1.5523
18174THY    CP337930   7.863   2.792   6.649  0.8750 -0.6115 -0.1317
18174THY    HP537931   7.842   2.880   6.587  2.2100 -1.3755 -0.3202
18174THY    HP637932   7.943   2.810   6.721 -2.0361  2.3080  2.1656
18174THY    HP737933   7.776   2.757   6.706  1.5718  1.1050  0.8235
18174THY    CA337934   8.034   2.837   6.414  1.0376  0.1641  0.3139
18174THY    HA337935   7.952   2.907   6.405 -0.3054 -0.7863 -1.2961
18174THY    CA437936   8.154   2.856   6.345  0.0234  0.0831 -0.9755
18174THY    HA437937   8.164   2.944   6.283 -3.3248 -0.6427 -0.9869
18174THY    CA537938   8.251   2.763   6.342  0.1554  0.4775 -0.6486
18174THY    CM137939   8.378   2.791   6.260  0.1837 -0.0490  0.2305
18174THY    HM137940   8.373   2.887   6.208  1.0006 -1.6298 -0.5468
18174THY    HM237941   8.389   2.713   6.184 -2.6519  1.8165 -2.2330
18174THY    HM337942   8.469   2.777   6.320  0.3088 -0.4998 -1.0411
18174THY    CA637943   8.243   2.646   6.410  0.5515  0.2412  0.6472
18174THY    HA637944   8.321   2.571   6.422 -0.3462  1.1671 -0.1689
18175THY      O37945   6.700   2.575   6.268 -0.1832 -0.1012 -0.0974
18175THY     HO37946   6.690   2.484   6.234 -3.2969 -0.1288  0.1410
18175THY    CA137947   6.713   2.553   6.400 -0.0646  0.0138 -0.6467
18175THY    CA237948   6.773   2.658   6.480 -0.0186 -0.1716  0.0384
18175THY    CP137949   6.809   2.800   6.425 -0.6488  0.0282  0.4056
18175THY    HP137950   6.819   2.793   6.316 -1.8677 -0.0793  0.0246
18175THY    CP237951   6.943   2.851   6.479 -0.4200 -1.1426 -0.1112
18175THY    HP237952   7.013   2.767   6.487  0.2516  2.0945  0.6441
18175THY    HP337953   6.939   2.878   6.585  0.5365 -0.2181 -3.1526
18175THY    HP437954   6.986   2.929   6.415  0.8255  0.1661  0.3106
18175THY    CP337955   6.694   2.898   6.449  0.1345  0.1664  0.3621
18175THY    HP537956   6.677   2.884   6.556  1.1563  0.1755 -0.9873
18175THY    HP637957   6.610   2.888   6.378 -1.7782  2.1061  1.7157
18175THY    HP737958   6.729   3.000   6.434 -1.2174 -1.2131  0.6668
18175THY    CA337959   6.806   2.624   6.616  0.5181 -0.5205 -0.6319
18175THY    HA337960   6.846   2.694   6.689  2.7380 -1.2951 -0.9888
18175THY    CA437961   6.750   2.504   6.668 -0.7064  0.4591  0.6970
18175THY    HA437962   6.761   2.469   6.770 -1.8451 -0.3407 -2.3151
18175THY    CA537963   6.679   2.412   6.589  0.1232  1.1190  0.3253
18175THY    CM137964   6.631   2.275   6.654 -0.2853  0.2855 -0.6596
18175THY    HM137965   6.701   2.226   6.724 -0.3239  0.1711 -0.8819
18175THY    HM237966   6.614   2.205   6.571  0.5892  0.2842 -0.8820
18175THY    HM337967   6.535   2.286   6.705  0.8268  1.9921  2.2243
18175THY    CA637968   6.672   2.429   6.449  0.3390  0.2841  0.2498
18175THY    HA637969   6.620   2.355   6.389 -0.7729  2.4911 -0.8499
18176THY      O37970   8.270   5.334   6.447 -0.4983 -0.3261  0.0817
18176THY     HO37971   8.197   5.392   6.422  1.0855 -0.8391  1.9501
18176THY    CA137972   8.358   5.347   6.345 -0.1317 -0.3935 -0.0508
18176THY    CA237973   8.491   5.309   6.356 -0.6351 -0.1729  0.0134
18176THY    CP137974   8.538   5.254   6.493 -0.0737  0.0946  0.7379
18176THY    HP137975   8.465   5.197   6.551 -0.3331  1.4942  2.4049
18176THY    CP237976   8.587   5.367   6.581  0.6357 -0.0037  0.2504
18176THY    HP237977   8.498   5.429   6.596 -0.3423  1.4306 -1.4000
18176THY    HP337978   8.675   5.410   6.532  0.1867  0.0569  1.2668
18176THY    HP437979   8.618   5.337   6.682  0.8376  0.2228  1.2032
18176THY    CP337980   8.655   5.153   6.488  0.1934  0.3018  0.8115
18176THY    HP537981   8.751   5.191   6.450  0.9461  0.5478 -0.7537
18176THY    HP637982   8.637   5.070   6.419  0.4779  2.9674 -1.5768
18176THY    HP737983   8.666   5.103   6.584 -1.6040  0.6444  1.0372
18176THY    CA337984   8.576   5.313   6.248 -0.6547  0.1194  0.1382
18176THY    HA337985   8.682   5.293   6.263 -1.2031  0.6817 -2.8185
18176THY    CA437986   8.530   5.369   6.129 -0.0698 -0.1275 -0.1825
18176THY    HA437987   8.596   5.388   6.044 -1.4153 -0.6833  2.3620
18176THY    CA537988   8.392   5.398   6.119  0.2347  0.4552  0.3179
18176THY    CM137989   8.338   5.445   5.987 -0.0487  0.3868  0.7939
18176THY    HM137990   8.335   5.370   5.907 -1.1256  0.6916  0.4893
18176THY    HM237991   8.390   5.533   5.947  0.1741 -1.9230 -0.3292
18176THY    HM337992   8.235   5.475   6.011 -0.5310  1.5096 -1.5854
18176THY    CA637993   8.309   5.392   6.227 -0.4881 -0.5165 -0.3810
18176THY    HA637994   8.206   5.425   6.213 -0.3433 -2.9349 -0.7582
18177THY      O37995   6.337   7.892   2.505 -0.3907 -0.4302  0.3324
18177THY     HO37996   6.265   7.840   2.544 -1.7218 -1.5012  1.3013
18177THY    CA137997   6.311   8.023   2.534  0.8055  0.4906 -0.0537
18177THY    CA237998   6.338   8.126   2.446 -0.0680 -0.1220 -0.2948
18177THY    CP137999   6.424   8.102   2.320 -0.0506  0.4386  0.4561
18177THY    HP138000   6.403   7.998   2.292  1.3352  2.3962 -0.3930
18177THY    CP238001   6.572   8.132   2.352 -0.0224  0.1562  0.2410
18177THY    HP238002   6.629   8.090   2.268 -0.1462  0.0106  0.3680
18177THY    HP338003   6.620   8.086   2.439  1.2066 -1.5780 -1.9424
18177THY    HP438004   6.587   8.240   2.344 -0.1170  1.6104  0.3903
18177THY    CP338005   6.382   8.183   2.192  0.0538  0.4056 -0.0344
18177THY    HP538006   6.279   8.156   2.167  0.1239  0.3245 -0.2340
18177THY    HP638007   6.443   8.148   2.107 -0.8153 -1.1952  2.0828
18177THY    HP738008   6.404   8.290   2.206 -0.6899 -2.1421  0.5249
18177THY    CA338009   6.307   8.253   2.480 -0.5524 -0.5732 -0.6585
18177THY    HA338010   6.327   8.335   2.412  0.7070 -0.4599 -0.8561
18177THY    CA438011   6.247   8.280   2.602 -0.0786  1.2463 -0.3006
18177THY    HA438012   6.238   8.382   2.640  1.8802 -0.2057  0.4793
18177THY    CA538013   6.224   8.176   2.691  0.2712 -0.1055 -0.5660
18177THY    CM138014   6.154   8.212   2.826  0.4601 -0.6041  0.0715
18177THY    HM138015   6.149   8.141   2.909  2.0291 -2.3267 -2.2006
18177THY    HM238016   6.048   8.224   2.803  0.8374 -4.1263 -2.0087
18177THY    HM338017   6.194   8.309   2.860 -0.1180 -0.0828  0.1323
18177THY    CA638018   6.253   8.043   2.659  0.1646  0.7836 -0.2296
18177THY    HA638019   6.243   7.965   2.734 -0.3622 -0.5676 -1.5086
18178THY      O38020   1.982   2.654   2.660 -0.0437  0.4650  0.5221
18178THY     HO38021   1.971   2.749   2.640 -1.9242  1.1440  0.4809
18178THY    CA138022   1.868   2.598   2.678  0.1191 -0.4265 -0.6285
18178THY    CA238023   1.841   2.469   2.628  0.4032 -0.6067  0.1701
18178THY    CP138024   1.946   2.387   2.558  0.1344 -0.1240 -0.5383
18178THY    HP138025   2.046   2.428   2.576  1.0180 -1.3776 -1.9962
18178THY    CP238026   1.925   2.402   2.415  0.0790  0.0308 -0.3283
18178THY    HP238027   1.830   2.358   2.383  0.2295 -0.0424 -0.6084
18178THY    HP338028   2.002   2.354   2.353 -1.4971 -1.6065 -0.8602
18178THY    HP438029   1.940   2.506   2.385 -0.9261  1.7340  0.3382
18178THY    CP338030   1.952   2.237   2.597 -0.4144 -0.1621 -0.1899
18178THY    HP538031   2.044   2.186   2.565 -0.1681 -0.1375  0.2333
18178THY    HP638032   1.863   2.182   2.563  0.1483  0.8162 -1.7765
18178THY    HP738033   1.941   2.228   2.706 -0.8361 -0.2006 -0.1930
18178THY    CA338034   1.711   2.427   2.642  0.3365 -1.1472  0.0518
18178THY    HA338035   1.685   2.326   2.609 -0.7910 -1.8740  0.5611
18178THY    CA438036   1.607   2.519   2.681 -0.8006 -0.0583  0.4964
18178THY    HA438037   1.501   2.494   2.682 -1.6893 -1.7443  3.5885
18178THY    CA538038   1.642   2.644   2.734 -0.2236  0.3222 -0.4697
18178THY    CM138039   1.537   2.733   2.796 -0.2331 -0.3572  0.0149
18178THY    HM138040   1.479   2.784   2.719  2.1401 -2.5171 -0.2954
18178THY    HM238041   1.588   2.806   2.860  1.9684 -0.9111 -0.9528
18178THY    HM338042   1.473   2.676   2.864 -1.4555  0.0953  1.8519
18178THY    CA638043   1.775   2.686   2.732 -0.0931 -0.2335  0.4467
18178THY    HA638044   1.811   2.778   2.776 -1.1105  0.5368  0.4923
18179THY      O38045   6.276   4.421   2.862 -0.1546 -0.4929  0.3884
18179THY     HO38046   6.228   4.375   2.792 -1.0458  0.0696  0.4335
18179THY    CA138047   6.295   4.543   2.820 -0.1078  0.8629 -0.7734
18179THY    CA238048   6.402   4.620   2.860 -0.5043 -0.1203 -0.1958
18179THY    CP138049   6.506   4.558   2.965 -0.0787  0.3206  0.5166
18179THY    HP138050   6.451   4.511   3.048 -1.1076  0.0765  1.2450
18179THY    CP238051   6.590   4.663   3.045 -0.2592 -0.4346 -0.3859
18179THY    HP238052   6.673   4.699   2.982  0.4776 -0.2687 -1.7299
18179THY    HP338053   6.630   4.621   3.137 -1.7190 -0.1714 -1.2537
18179THY    HP438054   6.533   4.753   3.070  0.5064  0.0349 -0.0207
18179THY    CP338055   6.609   4.464   2.893 -0.7232 -0.3380 -0.1648
18179THY    HP538056   6.675   4.415   2.965 -0.4021  0.4942  1.4275
18179THY    HP638057   6.682   4.525   2.838  0.1640  0.7015 -0.2583
18179THY    HP738058   6.576   4.389   2.820  1.4767  0.5015 -2.0704
18179THY    CA338059   6.414   4.753   2.821 -0.2657  0.3577 -0.6642
18179THY    HA338060   6.495   4.814   2.861 -0.7282  0.7421 -0.3021
18179THY    CA438061   6.331   4.796   2.715  0.5018  0.1041 -0.1813
18179THY    HA438062   6.348   4.894   2.671  1.8743 -0.7125 -0.7550
18179THY    CA538063   6.223   4.715   2.667  0.9142 -0.5434 -0.2363
18179THY    CM138064   6.121   4.768   2.567 -0.2526 -0.0566  0.3583
18179THY    HM138065   6.046   4.816   2.631  0.9444  1.7954 -0.1341
18179THY    HM238066   6.081   4.686   2.506  2.3723 -0.0164 -1.0736
18179THY    HM338067   6.165   4.837   2.494  1.2086  0.1439 -0.3217
18179THY    CA638068   6.195   4.592   2.729 -0.6194  0.0144 -0.5942
18179THY    HA638069   6.107   4.532   2.712 -1.3131  1.3386 -0.0130
18180THY      O38070   1.111   3.389   5.828  0.6556 -0.2148  0.1633
18180THY     HO38071   1.120   3.309   5.774  1.1888 -0.8655  0.6550
18180THY    CA138072   1.218   3.457   5.805  0.5450 -0.0105 -0.3150
18180THY    CA238073   1.229   3.587   5.858 -0.4856  0.5187  0.1320
18180THY    CP138074   1.137   3.635   5.974 -0.8636 -0.0708 -0.0713
18180THY    HP138075   1.072   3.556   6.012  0.7666  1.4511 -0.7514
18180THY    CP238076   1.044   3.745   5.911  0.0238 -0.0920  0.7342
18180THY    HP238077   1.092   3.806   5.835 -0.1545 -0.4824  0.3924
18180THY    HP338078   0.990   3.795   5.992 -0.6381  0.7406 -1.1988
18180THY    HP438079   0.971   3.689   5.851  1.4575  0.8452 -2.4179
18180THY    CP338080   1.220   3.687   6.094  0.4195 -0.2289  0.2553
18180THY    HP538081   1.311   3.626   6.104  0.2742 -1.1954 -0.1406
18180THY    HP638082   1.169   3.673   6.190  0.9682  0.2025  1.1105
18180THY    HP738083   1.252   3.791   6.082  1.6350  0.4814 -0.0249
18180THY    CA338084   1.343   3.665   5.813  0.2774 -0.1578  0.2670
18180THY    HA338085   1.367   3.761   5.858 -0.7141  0.8733  0.0482
18180THY    CA438086   1.431   3.616   5.713 -0.1170 -0.5907 -0.2569
18180THY    HA438087   1.519   3.673   5.685 -0.3937  1.1547  1.1237
18180THY    CA538088   1.408   3.497   5.653 -1.1486 -0.6170  0.1919
18180THY    CM138089   1.499   3.430   5.558 -0.4338  0.4024  0.4557
18180THY    HM138090   1.479   3.465   5.456  2.2241  0.4771  2.5035
18180THY    HM238091   1.495   3.321   5.553  0.6501  1.0344  0.3721
18180THY    HM338092   1.602   3.453   5.586  0.2986 -0.9803 -0.9811
18180THY    CA638093   1.305   3.414   5.706 -0.3753  0.0937  0.1129
18180THY    HA638094   1.299   3.310   5.675 -1.7859  0.6309  0.0091
18181THY      O38095   1.240   8.876   5.693 -0.1755  0.6490 -0.0024
18181THY     HO38096   1.218   8.821   5.771 -0.6353 -0.2548 -1.1409
18181THY    CA138097   1.131   8.952   5.681 -0.5291  0.6906  0.4144
18181THY    CA238098   1.133   9.057   5.592 -0.7722  0.0553  0.3530
18181THY    CP138099   1.256   9.076   5.498 -0.7451 -0.0579  0.4856
18181THY    HP138100   1.342   9.018   5.532  0.4835 -1.3808  1.4620
18181THY    CP238101   1.297   9.225   5.490 -0.1760 -0.3466  0.2537
18181THY    HP238102   1.390   9.230   5.432 -0.5670 -0.9979  0.1087
18181THY    HP338103   1.304   9.278   5.586 -0.9022  0.5856 -1.2657
18181THY    HP438104   1.216   9.276   5.437  0.2229 -0.8212  0.4036
18181THY    CP338105   1.223   9.033   5.354 -0.0787 -0.4520  0.1901
18181THY    HP538106   1.310   9.030   5.287  1.5157  1.5422 -0.0438
18181THY    HP638107   1.152   9.107   5.315  1.5704 -1.8839  1.1030
18181THY    HP738108   1.166   8.940   5.366  1.6341  3.9174 -0.5402
18181THY    CA338109   1.011   9.123   5.568  0.1292  0.2535  0.7662
18181THY    HA338110   0.996   9.194   5.487  0.5297  1.7453  2.6218
18181THY    CA438111   0.906   9.101   5.647  0.3235  0.0860  0.7058
18181THY    HA438112   0.811   9.151   5.628  1.4708 -2.0973  2.1820
18181THY    CA538113   0.905   9.007   5.751 -0.4122  0.4331  1.0762
18181THY    CM138114   0.785   8.995   5.846  0.5919  0.1135  0.2992
18181THY    HM138115   0.793   8.903   5.905 -0.8511  0.1670  0.1870
18181THY    HM238116   0.688   8.981   5.796  0.2034  1.0563 -0.4394
18181THY    HM338117   0.788   9.075   5.921  0.3486  1.0767 -0.5846
18181THY    CA638118   1.025   8.931   5.766  0.6030  0.0071  1.3342
18181THY    HA638119   1.029   8.856   5.844 -1.8418 -0.9168  0.1459
18182THY      O38120   3.071   5.784   2.476 -0.3853  0.2027 -0.0956
18182THY     HO38121   3.104   5.872   2.501  0.9070 -0.4665 -0.3483
18182THY    CA138122   3.162   5.703   2.529  0.4827 -0.4047  0.5350
18182THY    CA238123   3.148   5.563   2.512 -0.3127  0.6238 -0.1040
18182THY    CP138124   3.072   5.499   2.397 -0.4465  0.3178  0.0432
18182THY    HP138125   3.041   5.565   2.314 -1.2454  0.7078  0.1647
18182THY    CP238126   2.948   5.434   2.466 -0.7030  0.2465 -0.2636
18182THY    HP238127   2.968   5.372   2.554 -1.3150  1.4258  1.1467
18182THY    HP338128   2.879   5.388   2.394 -4.2628  1.7341  2.2694
18182THY    HP438129   2.881   5.512   2.505  0.9693  1.5060  0.5899
18182THY    CP338130   3.149   5.395   2.313  0.3914  0.0247 -0.8195
18182THY    HP538131   3.188   5.311   2.373 -0.2661  0.5449 -0.7648
18182THY    HP638132   3.238   5.442   2.270  1.5256  1.8247 -1.2059
18182THY    HP738133   3.083   5.366   2.230  0.3267 -0.0701 -0.3969
18182THY    CA338134   3.212   5.475   2.605 -0.1100 -0.6898  1.0590
18182THY    HA338135   3.188   5.369   2.602 -1.9065  0.2837  1.3898
18182THY    CA438136   3.297   5.531   2.706 -0.5273  0.2045 -0.2962
18182THY    HA438137   3.351   5.458   2.766  1.1915 -0.3150  0.4888
18182THY    CA538138   3.311   5.668   2.717  0.0923 -0.0421 -0.6825
18182THY    CM138139   3.397   5.724   2.827  0.5995  0.0414 -0.3077
18182THY    HM138140   3.394   5.656   2.912 -0.0588 -0.5711 -1.0532
18182THY    HM238141   3.359   5.820   2.864 -1.4433 -0.1668 -0.9808
18182THY    HM338142   3.502   5.729   2.796  0.7745  0.6613  0.0268
18182THY    CA638143   3.242   5.750   2.631 -0.2697 -1.3175 -0.3377
18182THY    HA638144   3.252   5.857   2.647 -3.0339  0.1206 -0.2180
18183THY      O38145   9.326   1.907   3.949  0.2232  0.2361 -0.3169
18183THY     HO38146   9.368   1.868   3.870 -0.7274 -0.1808 -0.5348
18183THY    CA138147   9.208   1.947   3.914 -0.6636  0.7721  0.5244
18183THY    CA238148   9.128   2.025   3.997 -0.2180 -0.1501 -0.2271
18183THY    CP138149   9.176   2.057   4.141 -0.0978  0.8854 -0.5107
18183THY    HP138150   9.281   2.026   4.155  0.3532 -1.4102 -0.1805
18183THY    CP238151   9.089   1.984   4.247  0.8972 -0.6239 -0.6088
18183THY    HP238152   9.010   2.047   4.290  0.7995 -0.3326 -0.9226
18183THY    HP338153   9.167   1.966   4.322  1.0687 -0.5001  0.5533
18183THY    HP438154   9.042   1.898   4.198  0.5430 -2.3790  0.5289
18183THY    CP338155   9.168   2.207   4.159  0.0219 -0.9762 -0.5679
18183THY    HP538156   9.221   2.266   4.083  1.4796 -0.8666 -1.6944
18183THY    HP638157   9.222   2.230   4.252 -0.2258 -0.2431 -2.7683
18183THY    HP738158   9.071   2.252   4.186 -0.2991 -1.8796 -0.7147
18183THY    CA338159   9.003   2.067   3.941  1.0191  0.1219 -0.7485
18183THY    HA338160   8.935   2.120   4.008 -0.4618  0.0932 -2.5281
18183THY    CA438161   8.962   2.023   3.813 -0.2650 -0.4263  0.4198
18183THY    HA438162   8.861   2.049   3.783 -1.8987  1.7390 -2.7538
18183THY    CA538163   9.040   1.942   3.735  0.4198 -0.4820  0.0019
18183THY    CM138164   8.983   1.889   3.601 -0.2340 -0.2550  0.5346
18183THY    HM138165   8.929   1.969   3.549 -0.5755  2.4157  2.1680
18183THY    HM238166   8.917   1.804   3.621 -0.4703  1.6873  1.1326
18183THY    HM338167   9.063   1.851   3.536  0.8392  0.5928  1.2745
18183THY    CA638168   9.163   1.901   3.785  0.4600 -0.1224 -0.2560
18183THY    HA638169   9.224   1.837   3.721 -0.3997 -0.3583 -0.8629
18184THY      O38170   8.903   8.480   2.257  0.0716  0.3802  0.1621
18184THY     HO38171   8.995   8.498   2.231  0.8344  2.6114 -0.2620
18184THY    CA138172   8.839   8.594   2.294  0.1270 -0.0684  0.0217
18184THY    CA238173   8.699   8.597   2.298  0.3694  0.0264 -0.2754
18184THY    CP138174   8.614   8.479   2.263  0.0205  0.4649 -0.3357
18184THY    HP138175   8.675   8.397   2.223 -1.1227 -0.6356 -0.6826
18184THY    CP238176   8.530   8.510   2.140  0.6838  0.0843  0.0702
18184THY    HP238177   8.495   8.409   2.114  1.5339  0.0419 -0.2198
18184THY    HP338178   8.591   8.544   2.056  0.3267  0.2325  1.1138
18184THY    HP438179   8.442   8.572   2.162 -0.0250 -0.8624 -0.5806
18184THY    CP338180   8.526   8.429   2.370  0.1774 -1.0056  0.5567
18184THY    HP538181   8.590   8.403   2.454  0.3928 -1.1436  0.6425
18184THY    HP638182   8.461   8.344   2.344  2.4827  2.4306 -2.5539
18184THY    HP738183   8.466   8.515   2.402  0.2842 -1.1886  0.7018
18184THY    CA338184   8.639   8.718   2.346  0.5845  0.5612 -0.0463
18184THY    HA338185   8.531   8.721   2.355  0.7344  2.4091  1.7378
18184THY    CA438186   8.718   8.829   2.380 -0.0671 -0.5381  0.1533
18184THY    HA438187   8.672   8.916   2.425 -0.9650  1.9536 -1.5313
18184THY    CA538188   8.856   8.828   2.363 -0.3116  1.0166 -0.2030
18184THY    CM138189   8.937   8.943   2.406  0.2163  0.3922 -0.1830
18184THY    HM138190   8.929   8.969   2.512 -1.1004 -0.0017  1.1061
18184THY    HM238191   8.916   9.032   2.346 -1.0789  2.1776  0.7464
18184THY    HM338192   9.043   8.920   2.386  0.2676  0.2903  0.1307
18184THY    CA638193   8.919   8.705   2.321 -0.3595  0.5222  0.2684
18184THY    HA638194   9.025   8.685   2.309 -0.7306 -1.4691 -0.7478
18185THY      O38195   1.076   6.939   7.001 -0.5386 -0.2618  0.0971
18185THY     HO38196   1.023   6.906   7.075  1.2575  0.3537 -1.6153
18185THY    CA138197   1.180   6.857   6.990  0.3484  0.1618 -0.1861
18185THY    CA238198   1.301   6.892   6.931  0.3342 -0.1997 -0.5048
18185THY    CP138199   1.316   7.035   6.877 -0.6186 -0.1580 -0.0982
18185THY    HP138200   1.227   7.098   6.886 -0.3869 -1.0308  0.3842
18185THY    CP238201   1.349   7.042   6.730  0.3385  0.4372 -0.0620
18185THY    HP238202   1.451   7.009   6.707  0.9778  0.6011  1.6870
18185THY    HP338203   1.345   7.147   6.697  1.6231  0.0647 -0.1040
18185THY    HP438204   1.268   6.982   6.687  0.0255  2.9118 -1.5374
18185THY    CP338205   1.421   7.113   6.951  0.0608 -0.4809 -0.0206
18185THY    HP538206   1.379   7.132   7.050 -0.0067 -0.4711 -0.2191
18185THY    HP638207   1.452   7.205   6.900  0.2918  3.9370  2.6303
18185THY    HP738208   1.513   7.055   6.969  0.1152  0.0772  0.2329
18185THY    CA338209   1.404   6.796   6.927  0.0798  0.2813  1.0769
18185THY    HA338210   1.503   6.822   6.890  0.7037  1.0043 -0.1960
18185THY    CA438211   1.385   6.661   6.974  0.2207 -0.3337  0.0475
18185THY    HA438212   1.475   6.600   6.976  1.3735 -0.6299  1.6705
18185THY    CA538213   1.258   6.622   7.020 -0.5116 -0.1439 -0.3924
18185THY    CM138214   1.243   6.491   7.079  0.3649  0.0103  0.9725
18185THY    HM138215   1.273   6.414   7.007  0.8173  0.8655  0.3401
18185THY    HM238216   1.136   6.481   7.103  0.6223  0.9219  0.3345
18185THY    HM338217   1.312   6.483   7.163  0.6045 -0.2521  0.3039
18185THY    CA638218   1.160   6.721   7.025  0.4602  0.1182  0.3996
18185THY    HA638219   1.063   6.693   7.066  0.2473  0.6251  1.7962
18186THY      O38220   9.120   3.214   3.866 -0.2535 -0.0181  0.2287
18186THY     HO38221   9.109   3.229   3.961 -0.8471  0.2219 -1.4505
18186THY    CA138222   9.226   3.276   3.818  0.6087 -0.1854  0.3407
18186THY    CA238223   9.272   3.237   3.692  0.0425 -0.0559 -0.3684
18186THY    CP138224   9.224   3.102   3.631 -0.2730 -0.2678 -0.2271
18186THY    HP138225   9.125   3.076   3.672  0.0606  1.0212  0.4924
18186THY    CP238226   9.330   2.992   3.637 -0.1630 -0.2843 -0.1892
18186THY    HP238227   9.373   2.969   3.735  0.8302 -0.5646  0.4085
18186THY    HP338228   9.419   3.014   3.577  1.9093  2.8323  0.6798
18186THY    HP438229   9.278   2.900   3.608 -0.3523 -0.1002 -0.1422
18186THY    CP338230   9.198   3.121   3.480 -0.4954 -0.3430  0.7785
18186THY    HP538231   9.175   3.028   3.427 -2.4763  0.6938  0.6213
18186THY    HP638232   9.286   3.167   3.433 -0.3858 -0.0062  0.9219
18186THY    HP738233   9.110   3.183   3.460  0.5087  0.1055  2.4201
18186THY    CA338234   9.379   3.316   3.634 -0.4588  0.0349  0.5315
18186THY    HA338235   9.424   3.282   3.541 -1.3021 -0.2311  0.0992
18186THY    CA438236   9.427   3.427   3.700 -0.9349 -0.4437 -0.1478
18186THY    HA438237   9.506   3.489   3.658 -2.2409 -2.5536  0.1670
18186THY    CA538238   9.394   3.451   3.834  0.6165  0.6256 -0.1514
18186THY    CM138239   9.453   3.570   3.902 -0.3996  0.4536  0.0201
18186THY    HM138240   9.426   3.557   4.007 -2.9221 -0.0725  0.4422
18186THY    HM238241   9.407   3.663   3.866 -1.7376  1.2195 -0.3193
18186THY    HM338242   9.562   3.562   3.893 -0.5087 -0.7868 -0.2703
18186THY    CA638243   9.292   3.376   3.891  0.0593  0.6246 -0.4925
18186THY    HA638244   9.264   3.391   3.995 -0.8269  0.4082 -0.6191
18187THY      O38245   8.733   2.186   4.997 -0.1327 -0.1587  0.2051
18187THY     HO38246   8.756   2.091   5.003  0.6891 -1.2231  0.3194
18187THY    CA138247   8.755   2.196   4.862  0.4273 -0.6091 -1.0293
18187THY    CA238248   8.719   2.309   4.788  0.1401  0.1858 -0.2366
18187THY    CP138249   8.662   2.427   4.863 -0.0329  0.0989 -0.9956
18187THY    HP138250   8.643   2.411   4.970  0.2813  0.1103 -1.3060
18187THY    CP238251   8.533   2.467   4.800  0.2559  0.3125  0.4792
18187THY    HP238252   8.460   2.385   4.794  2.3731 -0.8393 -1.4350
18187THY    HP338253   8.542   2.491   4.694  0.5390 -0.1234 -1.4554
18187THY    HP438254   8.472   2.541   4.854  0.5394  0.2005  0.7946
18187THY    CP338255   8.752   2.555   4.863 -0.7156 -0.1053 -0.2501
18187THY    HP538256   8.700   2.651   4.869  0.7564  1.5674  0.5054
18187THY    HP638257   8.805   2.564   4.767 -2.3674 -1.1981 -1.5256
18187THY    HP738258   8.822   2.556   4.948 -0.2881 -0.4563  0.0976
18187THY    CA338259   8.746   2.298   4.645  0.0227 -0.4227 -0.1164
18187THY    HA338260   8.740   2.392   4.590 -1.1280  0.1576  0.1767
18187THY    CA438261   8.801   2.179   4.586 -0.0826 -0.1933  0.4254
18187THY    HA438262   8.831   2.182   4.482  0.4611 -0.0148  1.8652
18187THY    CA538263   8.844   2.078   4.666 -0.8965 -0.1390 -0.6816
18187THY    CM138264   8.918   1.963   4.610 -0.4684  0.6447 -0.4463
18187THY    HM138265   9.011   1.993   4.559 -0.2016  1.5001  0.2198
18187THY    HM238266   8.860   1.927   4.524 -1.0552  0.8733 -0.0669
18187THY    HM338267   8.935   1.873   4.669  0.8082 -1.7481 -1.8728
18187THY    CA638268   8.816   2.085   4.807  0.0789  0.3733  0.1090
18187THY    HA638269   8.846   1.995   4.861 -0.3756 -1.3713 -1.1435
18188THY      O38270   4.927   5.404   4.553  0.5783 -0.0594 -0.4669
18188THY     HO38271   4.899   5.312   4.543 -2.9985 -1.9332  0.6513
18188THY    CA138272   5.059   5.406   4.564  0.0498 -0.0595 -0.2780
18188THY    CA238273   5.136   5.526   4.590 -0.2626 -0.8196  0.1332
18188THY    CP138274   5.063   5.653   4.618  0.1929 -0.9216  0.3663
18188THY    HP138275   4.963   5.659   4.572  0.2198 -0.9956  0.2435
18188THY    CP238276   5.130   5.783   4.566 -0.9492  0.3222 -0.3062
18188THY    HP238277   5.235   5.789   4.597 -0.6721 -0.6720  0.1004
18188THY    HP338278   5.090   5.876   4.609 -1.4113  0.2034 -0.4445
18188THY    HP438279   5.119   5.776   4.457 -0.8699  0.3505 -0.9406
18188THY    CP338280   5.042   5.679   4.766  0.7065 -0.0992  0.1169
18188THY    HP538281   5.142   5.677   4.811  0.8163 -0.3363  0.2172
18188THY    HP638282   4.983   5.602   4.816  1.3349  1.6899  0.7529
18188THY    HP738283   4.991   5.774   4.782  1.4028  0.2647  0.4371
18188THY    CA338284   5.274   5.518   4.607 -0.1109 -0.4376  0.4584
18188THY    HA338285   5.333   5.603   4.639 -1.8980 -0.4988  1.7718
18188THY    CA438286   5.336   5.393   4.593 -0.0264  0.5712  0.2700
18188THY    HA438287   5.443   5.387   4.612  0.5650 -1.7374  1.9608
18188THY    CA538288   5.267   5.280   4.566  0.3396  0.4286 -0.1242
18188THY    CM138289   5.346   5.144   4.556  0.3621  0.5243  0.4592
18188THY    HM138290   5.451   5.157   4.528  0.4261 -0.7759 -2.2734
18188THY    HM238291   5.298   5.094   4.471  0.8988  0.6329 -0.2466
18188THY    HM338292   5.330   5.094   4.653  0.1215 -0.2424 -1.0110
18188THY    CA638293   5.129   5.284   4.546  0.5228 -0.2146  0.3146
18188THY    HA638294   5.073   5.195   4.519  0.4729 -2.5397  0.9977
18189THY      O38295   0.248   2.197   6.848  0.1143 -0.1000 -0.3925
18189THY     HO38296   0.216   2.156   6.766  2.2544 -0.7434 -0.8835
18189THY    CA138297   0.220   2.334   6.842  0.1412 -0.8001 -0.1829
18189THY    CA238298   0.222   2.418   6.959  0.1341  0.0099 -0.0430
18189THY    CP138299   0.227   2.362   7.097 -0.4943 -0.9387 -0.5306
18189THY    HP138300   0.229   2.253   7.102  0.6058  0.6652 -0.4729
18189THY    CP238301   0.093   2.400   7.170  0.7749 -0.0680 -0.4177
18189THY    HP238302   0.020   2.348   7.106  2.1807 -1.6249 -0.5797
18189THY    HP338303   0.075   2.508   7.167  0.0295 -0.1611 -0.5330
18189THY    HP438304   0.105   2.361   7.271  3.4093 -0.2984 -0.3568
18189THY    CP338305   0.339   2.424   7.183 -0.1329  0.4162  0.2592
18189THY    HP538306   0.326   2.533   7.194 -1.0879 -1.9362  0.4316
18189THY    HP638307   0.435   2.409   7.133 -1.2052 -1.6050 -0.1996
18189THY    HP738308   0.351   2.382   7.284  0.8808 -0.0959 -0.7453
18189THY    CA338309   0.195   2.553   6.939 -0.1175  0.4829 -0.0278
18189THY    HA338310   0.194   2.626   7.019  1.1726  0.1375  0.3953
18189THY    CA438311   0.186   2.603   6.807 -0.1124 -0.6958  0.2260
18189THY    HA438312   0.189   2.707   6.776 -1.0644 -2.2690 -0.1785
18189THY    CA538313   0.185   2.518   6.698  0.5079  0.2004  0.5865
18189THY    CM138314   0.181   2.579   6.562 -0.1551 -0.5630 -0.0614
18189THY    HM138315   0.198   2.688   6.566  0.2060  0.2180 -0.1405
18189THY    HM238316   0.084   2.558   6.516  0.4262 -0.8014 -2.4182
18189THY    HM338317   0.265   2.549   6.498 -0.5192 -0.5056 -1.2550
18189THY    CA638318   0.208   2.383   6.714 -0.4173  0.6286 -0.1564
18189THY    HA638319   0.222   2.322   6.625 -1.2414  0.2118  0.2487
18190THY      O38320   6.962   1.919   5.418 -0.3618 -0.1459 -0.1882
18190THY     HO38321   7.025   1.927   5.492 -0.6626 -0.0811  2.9318
18190THY    CA138322   7.036   1.940   5.314  0.0834  0.6158 -0.6539
18190THY    CA238323   6.992   1.921   5.184 -0.2003  0.8135 -0.0296
18190THY    CP138324   6.849   1.887   5.161 -0.3631 -0.3677  0.3679
18190THY    HP138325   6.798   1.858   5.254  1.0648  1.0285  2.1231
18190THY    CP238326   6.826   1.762   5.081  0.0610  0.2082 -0.0941
18190THY    HP238327   6.890   1.764   4.992  2.5347  1.8898  0.7112
18190THY    HP338328   6.720   1.751   5.055 -0.1546  0.9551  0.1567
18190THY    HP438329   6.856   1.673   5.138  3.3095 -0.6188  0.3661
18190THY    CP338330   6.781   2.007   5.094 -0.5098 -0.5023 -0.4298
18190THY    HP538331   6.676   1.984   5.070 -1.5062  1.1427  1.9851
18190THY    HP638332   6.826   2.038   4.999 -2.0922 -1.7274 -1.6795
18190THY    HP738333   6.790   2.091   5.164 -0.1689  1.2355 -1.8662
18190THY    CA338334   7.082   1.939   5.074 -0.1861 -0.0171 -0.1953
18190THY    HA338335   7.049   1.913   4.974 -0.4307 -0.0398  0.1892
18190THY    CA438336   7.211   1.984   5.096 -0.2936 -0.9675 -0.2083
18190THY    HA438337   7.286   1.991   5.018  0.4828 -0.4176 -1.9203
18190THY    CA538338   7.251   2.009   5.229  0.3547  0.6547  0.0326
18190THY    CM138339   7.393   2.041   5.266  0.1081 -0.3284  0.2363
18190THY    HM138340   7.465   2.000   5.194  0.7566  0.4627 -0.0586
18190THY    HM238341   7.424   1.995   5.361  3.3481 -0.8119  1.2026
18190THY    HM338342   7.410   2.149   5.272 -1.1548 -0.0549  0.4387
18190THY    CA638343   7.162   1.986   5.329 -0.7391 -0.3546  0.3675
18190THY    HA638344   7.196   2.008   5.430  0.9710 -1.1721  1.6758
18191THY      O38345   7.005   6.660   6.665  0.7015 -0.3543 -0.0697
18191THY     HO38346   6.959   6.682   6.748  2.3581  0.7240 -0.4767
18191THY    CA138347   7.050   6.533   6.677 -0.5650  0.8243 -0.7993
18191THY    CA238348   7.115   6.477   6.567 -0.5441  0.2466  0.1302
18191THY    CP138349   7.132   6.557   6.434  0.2437  0.0327  0.8890
18191THY    HP138350   7.096   6.660   6.447 -2.2441  1.6199 -0.0802
18191THY    CP238351   7.043   6.493   6.320 -0.4818 -0.4545  0.2429
18191THY    HP238352   7.058   6.385   6.312 -1.2598 -0.3435  0.1216
18191THY    HP338353   7.045   6.542   6.222 -0.8051 -0.6907 -0.2068
18191THY    HP438354   6.941   6.499   6.361  0.7303  2.6384  2.1243
18191THY    CP338355   7.282   6.539   6.383  0.8909  0.1855 -0.2099
18191THY    HP538356   7.355   6.576   6.455  1.1740  1.5292 -3.0837
18191THY    HP638357   7.285   6.591   6.287 -0.8607  0.5404  0.5912
18191THY    HP738358   7.310   6.434   6.369  0.2594 -0.8167 -0.2576
18191THY    CA338359   7.143   6.343   6.579  0.5463  0.6609  0.5817
18191THY    HA338360   7.185   6.291   6.493 -1.8495 -0.6013  0.5912
18191THY    CA438361   7.130   6.272   6.696  0.3631  0.3461  0.1783
18191THY    HA438362   7.169   6.171   6.707  2.0617  0.0182  0.7824
18191THY    CA538363   7.064   6.332   6.807  0.2609 -0.3959  0.5546
18191THY    CM138364   7.052   6.256   6.940  0.1076 -0.1453 -0.2337
18191THY    HM138365   6.958   6.289   6.987  1.1154  3.2128 -1.6705
18191THY    HM238366   7.127   6.287   7.013 -1.7503  2.2595 -1.0505
18191THY    HM338367   7.039   6.147   6.943  0.9151  2.7320 -0.3484
18191THY    CA638368   7.036   6.469   6.797 -0.5742 -0.4390  0.0859
18191THY    HA638369   7.004   6.530   6.881  1.2414  0.9653 -0.8356
18192THY      O38370   7.241   4.087   2.011  0.2619 -0.1382  0.2503
18192THY     HO38371   7.218   4.057   1.921  0.8493 -0.4050  0.5921
18192THY    CA138372   7.266   4.217   2.002 -0.0851 -0.4726 -0.5148
18192THY    CA238373   7.299   4.293   2.120  0.4222 -0.4346 -0.3535
18192THY    CP138374   7.285   4.230   2.259 -0.5004 -0.6226  0.4110
18192THY    HP138375   7.266   4.122   2.254  1.2755  0.3474  0.0151
18192THY    CP238376   7.163   4.275   2.335  0.1563  0.1915  0.8288
18192THY    HP238377   7.181   4.379   2.367 -1.3851 -1.8847  1.8294
18192THY    HP338378   7.141   4.208   2.419 -0.7573 -0.5800  0.1473
18192THY    HP438379   7.074   4.282   2.271  0.8648 -0.8096  0.9026
18192THY    CP338380   7.416   4.248   2.348 -0.4263  0.1473 -0.3467
18192THY    HP538381   7.406   4.191   2.441 -0.5972  1.1083  1.2066
18192THY    HP638382   7.435   4.352   2.376 -0.8093  1.6420 -0.6640
18192THY    HP738383   7.509   4.207   2.305 -0.2077  0.5548 -0.2822
18192THY    CA338384   7.343   4.428   2.101 -0.3641  0.3639  0.2794
18192THY    HA338385   7.364   4.494   2.185  1.4634 -0.2993  0.6272
18192THY    CA438386   7.330   4.482   1.974 -0.0434  0.8712  0.5775
18192THY    HA438387   7.343   4.589   1.956 -4.0369  0.1131  1.1213
18192THY    CA538388   7.294   4.407   1.866  0.5644  0.1519  1.1253
18192THY    CM138389   7.283   4.473   1.730  0.0885  0.1374  0.2889
18192THY    HM138390   7.375   4.528   1.709 -0.0745 -1.5712 -0.0212
18192THY    HM238391   7.203   4.546   1.717  1.2015  2.3711  2.0106
18192THY    HM338392   7.285   4.393   1.655  0.2939 -0.5591  0.9345
18192THY    CA638393   7.261   4.270   1.875 -0.1376 -0.1774  0.3986
18192THY    HA638394   7.239   4.208   1.789 -1.0539  1.5923 -1.8781
18193THY      O38395   2.642   0.512   4.514 -0.1219  0.2034 -0.4045
18193THY     HO38396   2.604   0.469   4.436  0.4125  0.0267 -0.5707
18193THY    CA138397   2.551   0.612   4.542 -0.7915 -0.2779  0.3380
18193THY    CA238398   2.564   0.694   4.652 -0.7866 -0.1754  0.5726
18193THY    CP138399   2.685   0.676   4.748 -0.1263  0.0268 -0.3460
18193THY    HP138400   2.732   0.580   4.725  0.4869 -0.3710  0.0428
18193THY    CP238401   2.646   0.673   4.898  0.0184  0.1501  0.0312
18193THY    HP238402   2.613   0.774   4.928 -0.3777  0.2230 -0.1167
18193THY    HP338403   2.719   0.637   4.971 -0.4432 -0.1734 -1.6154
18193THY    HP438404   2.566   0.598   4.909 -0.7839 -1.9477  0.5131
18193THY    CP338405   2.798   0.778   4.716 -0.0121 -0.2041 -0.0095
18193THY    HP538406   2.758   0.874   4.752 -1.9192 -2.3293  0.0866
18193THY    HP638407   2.815   0.802   4.610  2.8487 -0.1312 -1.3589
18193THY    HP738408   2.891   0.749   4.765 -0.6961  0.0588 -1.8994
18193THY    CA338409   2.473   0.807   4.675 -0.3591 -0.3053 -0.2194
18193THY    HA338410   2.501   0.890   4.739 -0.6598  0.2699 -0.5609
18193THY    CA438411   2.357   0.811   4.598  0.5548  0.5289  0.4074
18193THY    HA438412   2.276   0.883   4.608 -0.9476  1.7149 -1.3592
18193THY    CA538413   2.343   0.725   4.485 -0.4128  0.0998  0.4785
18193THY    CM138414   2.219   0.734   4.387 -0.0841  0.5025  0.5986
18193THY    HM138415   2.237   0.683   4.292  0.2812 -2.0358  4.9591
18193THY    HM238416   2.186   0.835   4.360 -1.3567  1.3218  0.4296
18193THY    HM338417   2.134   0.690   4.440  0.7263 -0.2761 -2.1088
18193THY    CA638418   2.444   0.630   4.453  0.0030 -0.4490 -0.3393
18193THY    HA638419   2.422   0.549   4.384  1.7347 -1.4818  0.0221
18194THY      O38420   4.152   4.121   7.293  0.0415  0.1509  0.1401
18194THY     HO38421   4.130   4.145   7.201 -3.3670  1.1013  1.1681
18194THY    CA138422   4.070   4.216   7.359 -0.3169  0.5572 -0.0653
18194THY    CA238423   3.978   4.172   7.454  0.8523  0.3730 -0.5993
18194THY    CP138424   3.951   4.030   7.490  0.0796 -0.8611  0.5173
18194THY    HP138425   4.003   3.955   7.429  1.1598  1.7226 -0.9625
18194THY    CP238426   3.804   3.995   7.487 -0.0403 -0.4046 -0.3841
18194THY    HP238427   3.758   4.043   7.399  0.0443  0.9425  2.3780
18194THY    HP338428   3.750   4.043   7.569  0.2691 -1.5261  2.0569
18194THY    HP438429   3.788   3.887   7.496 -0.0144  0.7176 -0.3047
18194THY    CP338430   3.999   4.014   7.632 -0.1067 -0.0181  0.4908
18194THY    HP538431   4.097   4.064   7.633 -0.0657 -0.9770  0.4498
18194THY    HP638432   4.006   3.909   7.661  0.0422  2.0690  1.0434
18194THY    HP738433   3.930   4.051   7.708 -0.1652  0.6247 -0.8797
18194THY    CA338434   3.916   4.268   7.533 -0.1845 -0.5577 -0.2160
18194THY    HA338435   3.869   4.241   7.627 -0.8691 -1.3796 -2.0336
18194THY    CA438436   3.924   4.403   7.499 -0.1320  0.3299  0.1484
18194THY    HA438437   3.864   4.476   7.554  1.0007  1.7073  0.0832
18194THY    CA538438   4.000   4.441   7.387  0.5990 -0.8419 -0.1418
18194THY    CM138439   4.013   4.586   7.362 -0.4092 -0.0348 -0.2344
18194THY    HM138440   4.017   4.612   7.255  2.1957  0.2637  0.9782
18194THY    HM238441   4.097   4.637   7.412  1.4267 -0.5459 -2.5733
18194THY    HM338442   3.927   4.651   7.380 -0.8143 -3.3360  0.3481
18194THY    CA638443   4.081   4.348   7.321  0.8997 -0.2001  0.1239
18194THY    HA638444   4.135   4.389   7.236 -1.9601 -0.3240  4.2970
18195THY      O38445   5.506   9.148   1.987  0.4503 -0.1219 -0.1320
18195THY     HO38446   5.470   9.229   2.026  0.1943 -1.0221  0.2040
18195THY    CA138447   5.614   9.186   1.914  0.1898 -0.2938  0.1603
18195THY    CA238448   5.726   9.106   1.893  0.8093 -1.0157 -0.6240
18195THY    CP138449   5.730   8.965   1.947 -0.0002  0.2125  0.7477
18195THY    HP138450   5.630   8.937   1.981 -0.5074 -1.4474  0.4782
18195THY    CP238451   5.831   8.946   2.062 -0.2442 -0.1620 -0.5109
18195THY    HP238452   5.805   8.877   2.143  1.3937 -0.3900 -1.4565
18195THY    HP338453   5.864   9.041   2.107 -2.9306  1.2892 -0.1689
18195THY    HP438454   5.922   8.903   2.020  1.6788 -0.3222  3.2749
18195THY    CP338455   5.747   8.863   1.832  0.3794  0.0182  0.8312
18195THY    HP538456   5.677   8.886   1.751  1.3226 -0.9013  0.5517
18195THY    HP638457   5.725   8.761   1.866  0.1634  0.9285  1.1654
18195THY    HP738458   5.849   8.858   1.794  0.2085 -0.2728 -1.5539
18195THY    CA338459   5.836   9.164   1.816 -0.5472 -0.4642  0.1445
18195THY    HA338460   5.930   9.110   1.807 -0.7302 -1.4976 -0.0118
18195THY    CA438461   5.830   9.295   1.777 -0.2701  0.1427  0.0035
18195THY    HA438462   5.911   9.338   1.720 -0.0336  0.4789  0.0015
18195THY    CA538463   5.714   9.369   1.796 -0.8727 -0.0993  0.4771
18195THY    CM138464   5.703   9.502   1.728  0.0220  0.4139 -0.2512
18195THY    HM138465   5.768   9.505   1.640 -0.5502 -0.1327 -2.0817
18195THY    HM238466   5.729   9.586   1.793 -0.1229 -0.8430  0.7966
18195THY    HM338467   5.606   9.517   1.679  0.5990 -0.5941  0.2725
18195THY    CA638468   5.608   9.311   1.862  0.1006 -0.0835 -0.4851
18195THY    HA638469   5.512   9.363   1.871  0.3237 -1.0210  0.1199
18196THY      O38470   3.819   6.791   7.348  0.0172  0.4739  0.2962
18196THY     HO38471   3.796   6.877   7.385 -0.9920  2.3636 -0.7127
18196THY    CA138472   3.933   6.773   7.419  0.2551 -0.3261  0.3824
18196THY    CA238473   4.033   6.681   7.368 -0.5060 -0.6469 -0.2350
18196THY    CP138474   4.017   6.630   7.224 -0.2486 -0.1537 -0.1018
18196THY    HP138475   3.914   6.637   7.189  0.1051 -0.9907  1.1758
18196THY    CP238476   4.062   6.481   7.224 -0.3592  0.2116 -0.5101
18196THY    HP238477   4.170   6.467   7.218 -0.4079 -0.5783 -0.6206
18196THY    HP338478   4.021   6.436   7.133  1.2390 -0.5386 -0.5101
18196THY    HP438479   4.020   6.432   7.312  0.0154  0.2959 -0.6741
18196THY    CP338480   4.107   6.719   7.131  0.3731 -0.6571 -0.2396
18196THY    HP538481   4.202   6.748   7.177 -0.5061  0.9619  0.2098
18196THY    HP638482   4.056   6.812   7.104 -0.5904  0.0710 -0.5422
18196THY    HP738483   4.130   6.670   7.036  1.4403  0.4466 -2.0275
18196THY    CA338484   4.154   6.664   7.440 -0.4254  1.3195  0.2019
18196THY    HA338485   4.230   6.604   7.391 -1.1895 -2.2906  1.9031
18196THY    CA438486   4.167   6.724   7.557  0.3689  0.1650 -0.8881
18196THY    HA438487   4.257   6.700   7.613  1.3288 -0.3695  1.1988
18196THY    CA538488   4.068   6.810   7.615 -0.3161  0.0344 -0.0947
18196THY    CM138489   4.100   6.862   7.751 -0.5446  1.2006  0.0843
18196THY    HM138490   4.078   6.969   7.754  2.1140 -1.1915  0.8321
18196THY    HM238491   4.206   6.845   7.773  0.0591 -1.6033 -0.3239
18196THY    HM338492   4.045   6.818   7.835 -1.3574  0.3663 -0.5245
18196THY    CA638493   3.956   6.836   7.539  0.1576  0.3215 -0.7296
18196THY    HA638494   3.875   6.898   7.577 -0.0097  0.3137 -0.9426
18197THY      O38495   1.832   6.569   2.606  0.5803 -0.1473 -0.1269
18197THY     HO38496   1.923   6.536   2.594  0.8189  0.0070  0.4483
18197THY    CA138497   1.775   6.473   2.678 -0.0438  1.1263 -0.7482
18197THY    CA238498   1.677   6.506   2.770  1.2479  0.1191  0.7796
18197THY    CP138499   1.624   6.649   2.790  0.7944 -0.3278 -0.3718
18197THY    HP138500   1.657   6.709   2.704  1.1362 -0.7386 -1.1478
18197THY    CP238501   1.678   6.695   2.922 -0.0677  0.5985  0.1136
18197THY    HP238502   1.787   6.699   2.929 -0.1226  1.4709  0.5095
18197THY    HP338503   1.634   6.638   3.005 -0.3276  0.5093  0.1810
18197THY    HP438504   1.633   6.795   2.934  0.1141 -0.7091  0.3654
18197THY    CP338505   1.469   6.659   2.784 -0.1433  0.1214 -0.2966
18197THY    HP538506   1.423   6.614   2.874 -2.4013  0.4328  2.3589
18197THY    HP638507   1.435   6.610   2.692  0.4250  0.0677 -0.6019
18197THY    HP738508   1.442   6.765   2.795  1.9978 -0.6973  0.3676
18197THY    CA338509   1.614   6.400   2.845 -0.2129 -0.1528 -0.5572
18197THY    HA338510   1.538   6.425   2.919  0.0086 -0.3184  0.6861
18197THY    CA438511   1.657   6.269   2.829 -0.1574  0.3791  0.2146
18197THY    HA438512   1.609   6.190   2.886  1.0929 -1.1418 -1.7212
18197THY    CA538513   1.775   6.247   2.748  0.0090  0.1546 -0.0856
18197THY    CM138514   1.812   6.103   2.734  0.6565  0.6269 -0.1845
18197THY    HM138515   1.896   6.089   2.665 -0.8455 -1.0663 -1.1285
18197THY    HM238516   1.727   6.040   2.707  1.6010 -2.5592 -0.2397
18197THY    HM338517   1.836   6.061   2.832 -0.4405  1.6577  1.4665
18197THY    CA638518   1.826   6.343   2.662 -0.3616  0.5930 -1.1748
18197THY    HA638519   1.907   6.330   2.591  0.3686  1.3123 -0.5764
18198THY      O38520   7.450   2.764   4.131 -0.1140 -0.1139  0.3808
18198THY     HO38521   7.470   2.698   4.062 -0.0224  1.0358 -0.8307
18198THY    CA138522   7.522   2.872   4.099 -0.1770 -0.3478 -0.5752
18198THY    CA238523   7.548   2.974   4.191 -0.4963 -0.7626 -0.4930
18198THY    CP138524   7.499   2.976   4.337 -0.8350 -0.3899 -0.3123
18198THY    HP138525   7.425   2.898   4.358 -0.3591 -2.2145 -1.3089
18198THY    CP238526   7.414   3.104   4.358 -0.5659 -0.0378 -0.4058
18198THY    HP238527   7.455   3.193   4.310 -1.0789 -2.7508 -1.5490
18198THY    HP338528   7.409   3.126   4.465 -0.8788 -0.1794  0.2117
18198THY    HP438529   7.320   3.085   4.305 -0.5501 -0.1354 -0.2059
18198THY    CP338530   7.607   2.967   4.442 -0.2851  0.2140 -0.9772
18198THY    HP538531   7.661   3.062   4.429 -1.8023 -1.6830 -0.3059
18198THY    HP638532   7.673   2.881   4.428  1.1426 -0.6663  0.2035
18198THY    HP738533   7.569   2.969   4.545  1.1937  0.8815  3.1882
18198THY    CA338534   7.636   3.077   4.148 -0.2940  0.4357 -0.1261
18198THY    HA338535   7.657   3.163   4.211 -2.6319  0.3592  0.5593
18198THY    CA438536   7.688   3.077   4.019  0.0202  0.1091 -0.3058
18198THY    HA438537   7.768   3.147   3.996 -0.4965  0.7340  0.4994
18198THY    CA538538   7.658   2.976   3.929  0.3524 -0.1818 -0.5520
18198THY    CM138539   7.711   2.977   3.786  0.8011 -0.2624 -0.2110
18198THY    HM138540   7.820   2.971   3.781  1.0380  1.1214  1.9325
18198THY    HM238541   7.691   3.072   3.734  5.3989  2.0258  2.3078
18198THY    HM338542   7.666   2.900   3.722 -1.2885 -2.9039  2.9258
18198THY    CA638543   7.576   2.872   3.963  0.8162  0.5289  0.0894
18198THY    HA638544   7.544   2.798   3.890 -1.4761  0.0956  1.4021
18199THY      O38545   1.127   5.435   7.258 -0.4449 -0.1445 -0.4406
18199THY     HO38546   1.093   5.525   7.269 -0.9474 -2.2772 -0.3134
18199THY    CA138547   1.025   5.350   7.259 -0.1406 -0.7688  0.4473
18199THY    CA238548   1.027   5.232   7.187  0.3324 -0.1601  0.8896
18199THY    CP138549   1.138   5.205   7.089  0.2565  0.3606  0.3414
18199THY    HP138550   1.205   5.290   7.074 -0.7943 -0.3863  1.0643
18199THY    CP238551   1.090   5.187   6.951 -0.3677  0.5646 -0.1859
18199THY    HP238552   1.174   5.147   6.893 -0.2360 -0.7490  1.8537
18199THY    HP338553   1.061   5.283   6.906 -1.9274  1.9987  0.0639
18199THY    HP438554   1.008   5.114   6.939 -0.1590 -0.1613 -0.3115
18199THY    CP338555   1.223   5.097   7.143  0.2151 -0.2984 -0.3038
18199THY    HP538556   1.161   5.007   7.152  0.9723 -1.2687 -0.9443
18199THY    HP638557   1.256   5.120   7.245  2.0079 -0.8326 -0.3130
18199THY    HP738558   1.310   5.084   7.078  1.6077  0.5895  3.3757
18199THY    CA338559   0.915   5.146   7.203 -0.6860  0.0953 -0.1774
18199THY    HA338560   0.911   5.057   7.141 -1.1204  0.0994 -0.1633
18199THY    CA438561   0.816   5.168   7.292  0.4857 -0.2979 -0.6538
18199THY    HA438562   0.736   5.098   7.312  0.6615  2.7850 -0.0862
18199THY    CA538563   0.817   5.282   7.369  0.8556  0.3932 -0.0296
18199THY    CM138564   0.719   5.308   7.470 -0.0840  0.2845 -0.5426
18199THY    HM138565   0.739   5.262   7.567  3.5028 -0.1958 -0.2413
18199THY    HM238566   0.622   5.261   7.450 -0.8686 -0.1841  1.1888
18199THY    HM338567   0.696   5.415   7.470 -0.0322  1.9833 -0.5154
18199THY    CA638568   0.918   5.376   7.347  0.4507  0.0454  0.0848
18199THY    HA638569   0.912   5.456   7.420 -1.4858  2.0716 -1.7533
18200THY      O38570   4.507   8.647   3.363 -0.8098 -0.1567  0.1411
18200THY     HO38571   4.561   8.614   3.289 -1.3431  0.5349 -2.5054
18200THY    CA138572   4.460   8.537   3.428  0.2037 -0.3410 -0.5002
18200THY    CA238573   4.337   8.539   3.500 -0.2893 -0.5312 -0.2548
18200THY    CP138574   4.258   8.669   3.521 -0.3770 -0.6465  0.3769
18200THY    HP138575   4.253   8.728   3.428 -0.1114 -0.9243 -0.0349
18200THY    CP238576   4.325   8.752   3.623  0.4288  0.5330 -0.2079
18200THY    HP238577   4.261   8.836   3.653  0.0798 -1.3630  0.2491
18200THY    HP338578   4.412   8.795   3.573  2.7031  2.3276 -2.4226
18200THY    HP438579   4.349   8.685   3.706 -2.3635 -0.1697 -2.2775
18200THY    CP338580   4.110   8.649   3.562 -0.5836  0.4261  0.8487
18200THY    HP538581   4.098   8.600   3.660 -1.3888  1.3189  2.7218
18200THY    HP638582   4.069   8.581   3.487  0.5771 -0.1880  0.7924
18200THY    HP738583   4.063   8.748   3.570  0.4917  1.1435  1.3292
18200THY    CA338584   4.292   8.420   3.567  0.3851 -0.4300 -0.2726
18200THY    HA338585   4.203   8.417   3.630  0.5888 -0.0952  0.3399
18200THY    CA438586   4.367   8.310   3.565  0.2962  1.0199 -0.0222
18200THY    HA438587   4.345   8.216   3.614  0.3046 -1.8843 -1.6601
18200THY    CA538588   4.480   8.307   3.480 -0.5267  0.4021 -0.3956
18200THY    CM138589   4.558   8.189   3.457 -0.2051  0.4573 -0.3480
18200THY    HM138590   4.513   8.124   3.381 -3.5142  0.5350  1.6144
18200THY    HM238591   4.556   8.121   3.543  0.6868 -1.8727 -3.5755
18200THY    HM338592   4.662   8.210   3.429 -0.1775  1.0603  0.3514
18200THY    CA638593   4.528   8.419   3.414  0.0046 -0.2183 -0.8151
18200THY    HA638594   4.618   8.412   3.353  0.7876  0.9351 -1.0693
18201THY      O38595   0.824   8.133   1.884 -0.0944 -0.2926 -0.0461
18201THY     HO38596   0.910   8.170   1.857  0.1941 -0.1990 -0.6386
18201THY    CA138597   0.847   8.012   1.943 -0.8265 -0.2780  0.4664
18201THY    CA238598   0.744   7.919   1.927  0.1731 -0.4332  0.5485
18201THY    CP138599   0.628   7.945   1.830  0.1641  0.3594  0.2758
18201THY    HP138600   0.661   8.006   1.745 -0.2632 -1.1754 -1.5527
18201THY    CP238601   0.522   8.012   1.919  0.2403 -0.1029  0.2396
18201THY    HP238602   0.432   8.051   1.870  0.9712  0.9094  3.5196
18201THY    HP338603   0.570   8.097   1.968  2.1423 -0.3661 -0.6258
18201THY    HP438604   0.481   7.956   2.004 -0.8086  1.3909  3.0816
18201THY    CP338605   0.563   7.827   1.763 -0.4068  0.1816 -0.2126
18201THY    HP538606   0.500   7.872   1.685 -0.4217  1.9477  3.1880
18201THY    HP638607   0.495   7.768   1.826  0.5970 -0.4611 -2.1525
18201THY    HP738608   0.634   7.758   1.716 -1.0477  0.1102 -0.8374
18201THY    CA338609   0.751   7.804   2.009  0.0294 -0.6253  0.1551
18201THY    HA338610   0.672   7.730   1.998  0.1175  2.2185 -0.4582
18201THY    CA438611   0.865   7.787   2.101 -0.3395  0.9827  0.4169
18201THY    HA438612   0.862   7.699   2.165 -1.4457  0.4940  0.0842
18201THY    CA538613   0.974   7.877   2.100  0.2996 -0.6245  0.3149
18201THY    CM138614   1.092   7.863   2.182 -0.8767 -0.1032 -0.3579
18201THY    HM138615   1.111   7.935   2.263  0.9753  0.2454 -1.1734
18201THY    HM238616   1.181   7.868   2.117 -0.6078 -0.0728 -3.1965
18201THY    HM338617   1.093   7.764   2.227 -0.7312 -1.2754 -0.9090
18201THY    CA638618   0.963   7.991   2.017  0.7649  0.2849  0.0710
18201THY    HA638619   1.044   8.063   2.016  0.5565  1.5522  0.3470
18202THY      O38620   6.654   5.742   3.442 -0.0448  0.4271  0.6166
18202THY     HO38621   6.606   5.732   3.526 -1.0574 -0.3287 -1.5518
18202THY    CA138622   6.582   5.676   3.351 -0.2094  0.4264 -0.0959
18202THY    CA238623   6.631   5.618   3.235 -0.5597  0.2890 -0.2151
18202THY    CP138624   6.785   5.614   3.208  0.6678  0.7472  0.0596
18202THY    HP138625   6.836   5.689   3.268  1.3527 -1.0972  1.1375
18202THY    CP238626   6.817   5.648   3.064  0.3600 -0.7123 -0.4798
18202THY    HP238627   6.745   5.719   3.023 -0.4091 -0.8576 -1.3248
18202THY    HP338628   6.824   5.562   2.997  2.6206  0.4003 -1.2550
18202THY    HP438629   6.917   5.693   3.057  2.2291  2.0428 -3.6890
18202THY    CP338630   6.838   5.475   3.246 -0.1201 -0.3115 -0.4548
18202THY    HP538631   6.772   5.397   3.206 -0.5808 -0.9166  0.2265
18202THY    HP638632   6.847   5.473   3.355 -0.0774 -0.2624  1.2513
18202THY    HP738633   6.937   5.449   3.207  0.4512  1.8525 -1.8018
18202THY    CA338634   6.539   5.560   3.143  0.3737 -0.0318 -0.3447
18202THY    HA338635   6.573   5.519   3.048 -1.9455 -0.5115 -1.3290
18202THY    CA438636   6.398   5.571   3.163 -0.7933  0.5688  1.0077
18202THY    HA438637   6.327   5.533   3.091  0.3066 -0.0827  0.1118
18202THY    CA538638   6.357   5.619   3.286 -0.9405 -0.1206 -0.3338
18202THY    CM138639   6.214   5.613   3.332  0.6751  0.1469 -0.6332
18202THY    HM138640   6.137   5.667   3.276  2.1193  0.3068  1.7400
18202THY    HM238641   6.195   5.659   3.430 -1.6974 -1.0011  1.0056
18202THY    HM338642   6.174   5.511   3.329 -0.1020  0.1981 -0.3321
18202THY    CA638643   6.451   5.676   3.377 -0.3262 -0.1182 -0.1190
18202THY    HA638644   6.421   5.737   3.462  1.0926  0.3829 -0.0717
18203THY      O38645   6.239   6.973   3.305  0.0236 -0.2888 -0.2479
18203THY     HO38646   6.206   6.883   3.289  0.8664  0.4828 -0.7141
18203THY    CA138647   6.360   6.947   3.352 -0.5350  0.3902  0.0624
18203THY    CA238648   6.463   7.039   3.351 -0.5835  0.4087  0.0522
18203THY    CP138649   6.461   7.148   3.250  0.7815 -0.3828 -0.1381
18203THY    HP138650   6.366   7.159   3.196  2.3496 -3.1380  1.0626
18203THY    CP238651   6.558   7.114   3.142 -0.2908 -0.4034 -0.0482
18203THY    HP238652   6.662   7.096   3.173 -0.6913  0.6011 -0.6864
18203THY    HP338653   6.558   7.190   3.063 -1.7107  0.0644  0.4660
18203THY    HP438654   6.514   7.024   3.097 -0.6060  1.1876 -0.7245
18203THY    CP338655   6.477   7.286   3.314  0.3979  0.0712  0.1252
18203THY    HP538656   6.579   7.300   3.349 -0.0483  0.9186  1.4419
18203THY    HP638657   6.407   7.292   3.399  0.0453 -0.0682 -1.3643
18203THY    HP738658   6.449   7.364   3.242 -0.5513  0.0272 -0.2390
18203THY    CA338659   6.582   7.002   3.419  0.6438  0.1636 -0.0570
18203THY    HA338660   6.671   7.064   3.409  0.3532 -0.1664  0.3114
18203THY    CA438661   6.596   6.882   3.485  0.2898 -0.4382 -0.1658
18203THY    HA438662   6.690   6.860   3.534  0.3536 -1.1337 -1.6016
18203THY    CA538663   6.498   6.786   3.482  0.1384 -0.2950 -0.0159
18203THY    CM138664   6.516   6.657   3.555 -0.6343 -0.3740 -0.6038
18203THY    HM138665   6.522   6.688   3.660 -0.8975 -1.1156  2.2445
18203THY    HM238666   6.610   6.612   3.522 -0.2073  1.8827 -1.5429
18203THY    HM338667   6.435   6.583   3.546 -1.0988 -0.2877 -0.1165
18203THY    CA638668   6.375   6.821   3.418 -0.2122  0.2412  0.7778
18203THY    HA638669   6.297   6.746   3.412  1.4370 -0.5055 -0.9622
18204THY      O38670   5.446   6.922   7.501  0.0151  0.3246 -0.2698
18204THY     HO38671   5.414   7.012   7.519 -0.4110 -0.8009 -0.1801
18204THY    CA138672   5.371   6.839   7.582  0.4011  0.0016  0.1235
18204THY    CA238673   5.365   6.699   7.554 -0.2701  0.3614 -0.4494
18204THY    CP138674   5.430   6.643   7.427 -0.0104  0.2500 -0.0950
18204THY    HP138675   5.523   6.700   7.414 -0.2214  2.5210  0.8656
18204THY    CP238676   5.341   6.674   7.298  0.6919  0.9978  0.2610
18204THY    HP238677   5.389   6.664   7.200  2.4658  1.8419  0.2535
18204THY    HP338678   5.318   6.781   7.303  2.1759  0.8512  0.6048
18204THY    HP438679   5.250   6.612   7.300  1.6164  1.0384 -1.1321
18204THY    CP338680   5.467   6.498   7.429 -0.1194  0.1185  0.4726
18204THY    HP538681   5.543   6.479   7.505  0.9393 -0.9884  0.1792
18204THY    HP638682   5.513   6.466   7.335 -1.9462 -0.5514 -0.3590
18204THY    HP738683   5.377   6.435   7.443 -0.5036 -1.3046  0.6675
18204THY    CA338684   5.292   6.615   7.641 -0.6408  0.1452 -0.0334
18204THY    HA338685   5.293   6.506   7.639  0.6477  2.1857 -0.0998
18204THY    CA438686   5.222   6.672   7.747  0.4355  0.6532 -0.0120
18204THY    HA438687   5.168   6.605   7.813  0.5208 -0.7029 -1.4705
18204THY    CA538688   5.220   6.810   7.771  0.0715  0.0533 -0.3044
18204THY    CM138689   5.147   6.866   7.896 -0.1969  0.4879 -0.3110
18204THY    HM138690   5.199   6.825   7.984 -1.3910  1.5955  0.4727
18204THY    HM238691   5.050   6.815   7.902 -0.7575  0.2999  0.6995
18204THY    HM338692   5.134   6.974   7.904  0.1631  2.3420 -0.3683
18204THY    CA638693   5.294   6.893   7.682 -0.0074  0.0791  0.5761
18204THY    HA638694   5.279   7.000   7.700 -0.8441  0.7440  0.3600
18205THY      O38695   3.785   3.399   3.145  0.7950  0.2754 -0.1808
18205THY     HO38696   3.835   3.336   3.090 -1.0039 -1.2881 -0.3138
18205THY    CA138697   3.785   3.499   3.058  0.5610  0.2369 -0.1041
18205THY    CA238698   3.674   3.590   3.041  1.0282 -0.3769  0.2906
18205THY    CP138699   3.558   3.566   3.129  0.5672  0.7106  0.2456
18205THY    HP138700   3.598   3.534   3.226  1.9735  0.6724  1.7774
18205THY    CP238701   3.465   3.457   3.082  0.8116  0.2469  0.1568
18205THY    HP238702   3.378   3.439   3.147  0.5952 -0.5339 -1.8584
18205THY    HP338703   3.514   3.360   3.067 -0.5185  0.3634 -0.5614
18205THY    HP438704   3.421   3.487   2.987  1.2330  0.6084  2.0349
18205THY    CP338705   3.482   3.694   3.163  0.0879  0.2663 -0.1068
18205THY    HP538706   3.436   3.662   3.257  0.7253 -0.3641 -3.2421
18205THY    HP638707   3.406   3.726   3.090 -0.1780  0.0064 -1.2965
18205THY    HP738708   3.560   3.769   3.181  0.1420 -1.7723  0.3870
18205THY    CA338709   3.686   3.689   2.945  1.2028 -0.0552  0.4580
18205THY    HA338710   3.597   3.748   2.927  0.2777  1.2658 -0.4434
18205THY    CA438711   3.802   3.700   2.871 -0.8358  0.3788 -0.5764
18205THY    HA438712   3.824   3.778   2.799 -1.9015 -0.9574 -1.4674
18205THY    CA538713   3.912   3.612   2.896  0.5589 -0.2588 -0.2621
18205THY    CM138714   4.051   3.632   2.829 -0.2501 -0.7664 -0.1591
18205THY    HM138715   4.052   3.588   2.729 -0.8805 -0.9816  0.3080
18205THY    HM238716   4.124   3.573   2.884 -1.1478  0.9009  0.2197
18205THY    HM338717   4.092   3.734   2.828 -1.7913  1.9081  0.5862
18205THY    CA638718   3.904   3.509   2.990 -0.0720  0.2549  0.3657
18205THY    HA638719   3.993   3.454   3.019  0.9055 -2.2204  0.5267
18206THY      O38720   6.909   6.519   5.685 -0.0354 -0.0172  0.1441
18206THY     HO38721   6.942   6.441   5.638 -0.0308 -0.9668  0.7012
18206THY    CA138722   7.018   6.599   5.680  0.9069 -0.1151  0.8456
18206THY    CA238723   7.014   6.727   5.735 -0.3564  0.0761  0.3665
18206THY    CP138724   6.894   6.785   5.814 -0.2371 -0.0031  0.1712
18206THY    HP138725   6.803   6.748   5.767 -0.6516  1.3996 -0.6935
18206THY    CP238726   6.898   6.940   5.821  0.7235  0.6326  0.0361
18206THY    HP238727   6.806   6.980   5.864  1.1679  1.7838 -0.1313
18206THY    HP338728   6.906   6.968   5.716 -1.7100  0.0388 -1.2389
18206THY    HP438729   6.980   6.975   5.884  0.6142  0.2507  0.9858
18206THY    CP338730   6.889   6.730   5.962 -0.5196  0.9026 -0.2251
18206THY    HP538731   6.977   6.754   6.024  0.2442 -0.6238  1.0916
18206THY    HP638732   6.886   6.621   5.970  0.0226 -0.4024 -0.3521
18206THY    HP738733   6.808   6.770   6.024 -0.0262  1.1745  0.3834
18206THY    CA338734   7.140   6.788   5.749  0.0414  0.2838 -0.3965
18206THY    HA338735   7.155   6.877   5.810  0.8785  0.9126 -0.9511
18206THY    CA438736   7.255   6.736   5.682  0.0138 -0.9030  0.2165
18206THY    HA438737   7.349   6.790   5.672  0.4687 -1.8489 -0.7272
18206THY    CA538738   7.251   6.618   5.610 -0.0618 -0.2594  0.4461
18206THY    CM138739   7.368   6.560   5.542  0.4363 -0.3845  0.3774
18206THY    HM138740   7.386   6.609   5.445 -0.6596 -0.6153  0.3348
18206THY    HM238741   7.357   6.455   5.514 -0.3408 -0.0173  0.3518
18206THY    HM338742   7.453   6.567   5.611 -0.3605  0.4860  2.0762
18206THY    CA638743   7.132   6.545   5.619  0.2119 -0.1364  0.1517
18206THY    HA638744   7.132   6.445   5.578  0.0730 -0.0279  0.1056
18207THY      O38745   3.954   2.563   6.947 -0.0397  0.4055  0.7173
18207THY     HO38746   3.870   2.570   6.996 -0.3426  0.0379 -0.2145
18207THY    CA138747   3.922   2.594   6.816 -0.0768 -0.3084 -0.1762
18207THY    CA238748   4.001   2.542   6.715  0.6064  0.4209 -0.3140
18207THY    CP138749   4.119   2.460   6.743  0.1288  0.6025 -0.5531
18207THY    HP138750   4.127   2.424   6.846  2.6956  1.7386  2.7050
18207THY    CP238751   4.252   2.534   6.726  0.1646  0.0184 -0.7254
18207THY    HP238752   4.251   2.617   6.798 -0.7569 -2.4925  1.5633
18207THY    HP338753   4.246   2.573   6.624 -0.3596  1.1211  2.3693
18207THY    HP438754   4.335   2.464   6.741  2.5932  0.3523  2.0491
18207THY    CP338755   4.110   2.340   6.647  0.3675  0.8490 -0.1489
18207THY    HP538756   4.108   2.360   6.539  1.4314  0.6667 -0.9735
18207THY    HP638757   4.039   2.263   6.680  1.0719  0.2280 -1.0928
18207THY    HP738758   4.198   2.278   6.668  0.7875 -0.5556 -0.0803
18207THY    CA338759   3.974   2.586   6.580  0.2795  0.2572 -0.7300
18207THY    HA338760   4.039   2.564   6.496 -0.4991 -1.0201  1.4951
18207THY    CA438761   3.861   2.667   6.555 -0.3818 -0.3734  0.3553
18207THY    HA438762   3.838   2.704   6.456 -2.3276  0.3114  1.1385
18207THY    CA538763   3.778   2.711   6.654  0.0614 -0.7584 -0.1259
18207THY    CM138764   3.672   2.810   6.622  0.1380  0.1754  0.1983
18207THY    HM138765   3.631   2.784   6.524  0.2219  0.2927 -0.3809
18207THY    HM238766   3.700   2.916   6.626  0.1888  1.6463  0.1495
18207THY    HM338767   3.582   2.823   6.682 -0.7828 -1.1874  0.2944
18207THY    CA638768   3.808   2.669   6.788 -0.4009 -0.2912 -0.0154
18207THY    HA638769   3.743   2.702   6.869 -1.9440 -0.7963 -1.6412
18208THY      O38770   9.015   1.270   2.874 -0.3048  1.0607  0.3165
18208THY     HO38771   9.066   1.277   2.791 -1.9804 -0.0358  0.1005
18208THY    CA138772   9.087   1.184   2.944 -0.0243  0.1053  0.2343
18208THY    CA238773   9.035   1.057   2.972 -0.4413 -0.1809  0.0575
18208THY    CP138774   8.919   1.008   2.889  0.2461  0.1392 -0.1953
18208THY    HP138775   8.882   1.082   2.817  0.9720  0.1711  0.2098
18208THY    CP238776   8.818   0.933   2.977  0.0916  0.2985  0.1612
18208THY    HP238777   8.732   0.895   2.920 -0.8484 -0.1613  2.7425
18208THY    HP338778   8.777   1.000   3.053 -1.3837 -0.6705  0.3999
18208THY    HP438779   8.858   0.847   3.031  1.2542 -0.7016  0.0503
18208THY    CP338780   8.975   0.910   2.782  0.3337 -0.2702  0.4408
18208THY    HP538781   8.904   0.916   2.699 -0.6746  0.6311  1.2325
18208THY    HP638782   8.993   0.811   2.826  0.8013 -0.5201  0.4123
18208THY    HP738783   9.073   0.945   2.746  2.0417 -0.4214 -3.8634
18208THY    CA338784   9.105   0.967   3.056 -0.5257  0.1005  0.2657
18208THY    HA338785   9.078   0.864   3.078 -1.5653 -2.7237 -0.1490
18208THY    CA438786   9.228   1.012   3.112  0.3009 -0.3239  0.5225
18208THY    HA438787   9.272   0.953   3.192 -1.0132  0.1380  0.1205
18208THY    CA538788   9.275   1.140   3.093 -0.3769  0.1855 -0.5024
18208THY    CM138789   9.385   1.189   3.176  0.6505  0.1952  1.1059
18208THY    HM138790   9.367   1.166   3.282 -2.8472 -0.3717  0.6997
18208THY    HM238791   9.393   1.297   3.161  3.1139  1.9344  1.2567
18208THY    HM338792   9.482   1.145   3.149  0.2708 -1.4752  1.2408
18208THY    CA638793   9.210   1.227   3.004 -0.4884 -0.4550 -0.2266
18208THY    HA638794   9.252   1.326   2.990  1.1693  0.0804 -0.8259
18209THY      O38795   8.662   8.196   7.001 -0.6540  0.2319  0.2747
18209THY     HO38796   8.659   8.293   7.001 -0.1719  0.0949  0.2886
18209THY    CA138797   8.581   8.159   7.101  0.2464 -0.9622  0.5789
18209THY    CA238798   8.508   8.040   7.097  0.4726  0.4764  0.7567
18209THY    CP138799   8.478   7.972   6.958 -0.0187 -0.6042 -0.5841
18209THY    HP138800   8.515   8.034   6.875 -1.8032 -0.0119  1.4022
18209THY    CP238801   8.328   7.947   6.936 -0.0447  0.5430  1.1128
18209THY    HP238802   8.300   7.901   6.840  0.3893  0.4940  0.9503
18209THY    HP338803   8.268   8.039   6.928 -1.0873 -1.0329  0.3398
18209THY    HP438804   8.286   7.889   7.019 -1.3831 -0.0786  1.1465
18209THY    CP338805   8.572   7.853   6.943 -0.1605  0.1673  0.7305
18209THY    HP538806   8.547   7.804   6.849  0.1189  0.3839  0.1689
18209THY    HP638807   8.530   7.780   7.013  0.4814  1.1825  1.3006
18209THY    HP738808   8.678   7.868   6.969 -0.2192  0.1209  1.2396
18209THY    CA338809   8.451   7.996   7.219  0.1035 -0.4276  0.6934
18209THY    HA338810   8.387   7.908   7.222 -0.4079  0.9587  1.0763
18209THY    CA438811   8.461   8.066   7.339 -0.5060 -0.2558  0.4243
18209THY    HA438812   8.428   8.021   7.432 -0.7864 -0.6096 -0.1237
18209THY    CA538813   8.552   8.177   7.339  0.4959  0.0016  0.2632
18209THY    CM138814   8.574   8.254   7.468  0.1265  0.3595  0.5006
18209THY    HM138815   8.544   8.357   7.446 -2.2474 -1.2864 -0.4513
18209THY    HM238816   8.680   8.250   7.498 -0.2212  1.5123 -2.0513
18209THY    HM338817   8.524   8.214   7.556  0.6898 -0.0510 -1.1918
18209THY    CA638818   8.606   8.221   7.218  0.0143  0.1809  0.0403
18209THY    HA638819   8.676   8.303   7.217  0.3827  1.4877 -0.2432
18210THY      O38820   3.777   7.618   7.756  0.1578 -0.0896  0.1635
18210THY     HO38821   3.740   7.610   7.846  0.5233 -0.0969 -2.0295
18210THY    CA138822   3.912   7.584   7.774  0.0942 -0.3632 -0.1040
18210THY    CA238823   4.013   7.575   7.675  0.3816 -0.1460  0.0344
18210THY    CP138824   3.984   7.607   7.530  0.4339  0.2888  0.1556
18210THY    HP138825   3.877   7.617   7.511  0.2640 -1.0075 -3.1515
18210THY    CP238826   4.040   7.508   7.432 -0.4672  0.5707 -0.8446
18210THY    HP238827   4.004   7.536   7.332  0.2459  0.4314 -0.3928
18210THY    HP338828   4.008   7.406   7.454 -2.3239 -0.2201 -0.4887
18210THY    HP438829   4.148   7.520   7.424 -0.4662 -3.8438 -2.0408
18210THY    CP338830   4.030   7.747   7.486  0.2388  0.7368  0.5305
18210THY    HP538831   4.139   7.751   7.482  0.4300  2.1625 -1.4663
18210THY    HP638832   3.980   7.817   7.555  0.2166  1.4515 -0.1737
18210THY    HP738833   3.990   7.774   7.388  1.3826 -0.0820 -0.6524
18210THY    CA338834   4.145   7.543   7.706  0.2606  0.3832  0.2528
18210THY    HA338835   4.220   7.536   7.628 -2.0368 -1.9746 -0.1430
18210THY    CA438836   4.178   7.504   7.840 -0.1314  0.6644  0.4954
18210THY    HA438837   4.280   7.477   7.863 -0.2910  0.6841 -0.1008
18210THY    CA538838   4.081   7.511   7.936  0.1269 -0.2812 -0.3808
18210THY    CM138839   4.110   7.496   8.084  0.5080 -0.1520  0.3318
18210THY    HM138840   4.167   7.403   8.089  0.9333 -0.8187  0.5525
18210THY    HM238841   4.013   7.498   8.135  0.3352 -0.1943 -2.6629
18210THY    HM338842   4.162   7.583   8.126  0.4230  0.2003  0.2147
18210THY    CA638843   3.950   7.555   7.906 -0.3308 -0.4531 -0.5515
18210THY    HA638844   3.876   7.571   7.984  0.5586 -0.2682  4.1452
18211THY      O38845   4.856   3.210   3.084  0.5953 -0.4922  0.0022
18211THY     HO38846   4.821   3.119   3.085  0.1561 -2.1805  0.1179
18211THY    CA138847   4.869   3.249   3.213  0.2083 -0.2660 -0.2017
18211THY    CA238848   4.994   3.289   3.270 -0.1647  0.7581  0.3339
18211THY    CP138849   5.124   3.283   3.184  0.0969  0.2531 -0.2016
18211THY    HP138850   5.101   3.241   3.086 -0.8324 -0.4784  1.8581
18211THY    CP238851   5.228   3.188   3.240  0.0155 -0.1964  0.0088
18211THY    HP238852   5.238   3.218   3.345 -0.6058  0.5484 -2.1731
18211THY    HP338853   5.323   3.173   3.187 -0.1050 -0.9373  1.6549
18211THY    HP438854   5.187   3.087   3.244  1.5777 -0.9700 -0.6975
18211THY    CP338855   5.182   3.425   3.153  0.6033 -1.0242 -0.1799
18211THY    HP538856   5.279   3.423   3.102  0.5778 -1.0629 -1.0628
18211THY    HP638857   5.191   3.493   3.239 -0.8187 -1.6249  0.8111
18211THY    HP738858   5.118   3.481   3.084  1.0681  0.0041  1.7155
18211THY    CA338859   4.997   3.335   3.401  0.5696 -0.4705 -0.0157
18211THY    HA338860   5.084   3.365   3.459  0.6367 -0.8505  0.5302
18211THY    CA438861   4.876   3.361   3.467 -0.4208  0.1315  0.2186
18211THY    HA438862   4.879   3.406   3.565  1.8702 -0.4781  1.5448
18211THY    CA538863   4.750   3.333   3.403 -0.4043  0.2181  0.2730
18211THY    CM138864   4.618   3.354   3.471 -0.2685 -0.3650  0.0381
18211THY    HM138865   4.536   3.396   3.412  0.9530 -1.4436  0.9722
18211THY    HM238866   4.630   3.422   3.556 -0.1994  2.8957 -3.6761
18211THY    HM338867   4.582   3.255   3.501 -0.6712  0.7057  0.4862
18211THY    CA638868   4.748   3.276   3.282 -0.5795  0.2288  0.0592
18211THY    HA638869   4.657   3.248   3.229  0.2268 -0.8664 -0.5281
18212THY      O38870   2.023   9.016   5.596 -1.2217 -0.5776 -0.0102
18212THY     HO38871   2.058   8.925   5.587  0.8729 -2.3473  0.8604
18212THY    CA138872   1.892   9.001   5.633 -0.3622 -0.0689  0.4674
18212THY    CA238873   1.789   9.088   5.590 -0.3556  0.1739  0.5309
18212THY    CP138874   1.824   9.211   5.489  0.3095 -0.0438  0.2480
18212THY    HP138875   1.930   9.222   5.461  0.7338  1.7153  1.0067
18212THY    CP238876   1.769   9.352   5.529  0.3899  0.1250 -0.8341
18212THY    HP238877   1.660   9.357   5.525  0.3491  0.0372 -1.6766
18212THY    HP338878   1.805   9.431   5.462 -2.7978  0.5355  1.1312
18212THY    HP438879   1.791   9.369   5.635 -1.0115  0.3984 -0.6564
18212THY    CP338880   1.774   9.173   5.349  0.9358 -0.1162 -0.1945
18212THY    HP538881   1.796   9.257   5.283 -3.2423 -1.3068  0.1835
18212THY    HP638882   1.665   9.163   5.352  1.1181  0.2530 -2.9822
18212THY    HP738883   1.813   9.072   5.331 -1.5224  0.9343 -1.3987
18212THY    CA338884   1.659   9.079   5.633  0.5709 -0.5817  0.3216
18212THY    HA338885   1.583   9.147   5.596 -0.5384 -0.1409 -0.6252
18212THY    CA438886   1.621   8.962   5.707 -0.7611  0.3160 -0.4917
18212THY    HA438887   1.517   8.954   5.738 -1.3175 -0.9355  1.2807
18212THY    CA538888   1.717   8.874   5.752  0.0605 -0.5574 -0.4137
18212THY    CM138889   1.664   8.769   5.849  0.0443  0.6494 -0.3253
18212THY    HM138890   1.641   8.800   5.952 -0.9532  0.2618  0.2641
18212THY    HM238891   1.733   8.684   5.846  0.8271  0.2111  0.3166
18212THY    HM338892   1.572   8.725   5.811  0.3072 -1.5798  0.9144
18212THY    CA638893   1.852   8.891   5.712  0.2660  0.7276  0.1728
18212THY    HA638894   1.932   8.832   5.756  0.6917  1.7464  1.4570
18213THY      O38895   8.998   9.026   4.882  0.2044 -0.8570 -0.1433
18213THY     HO38896   8.954   9.084   4.818 -2.0769  1.9083  1.4290
18213THY    CA138897   9.076   8.942   4.804  0.7820 -0.8517  0.7207
18213THY    CA238898   9.143   8.831   4.850  0.4334 -0.5063 -0.0967
18213THY    CP138899   9.141   8.797   5.001 -0.1030 -0.0390  0.2455
18213THY    HP138900   9.044   8.821   5.044  0.6935  2.2677 -0.4513
18213THY    CP238901   9.243   8.884   5.071 -0.4333 -0.3982 -0.1684
18213THY    HP238902   9.245   8.868   5.179 -0.0359 -0.3781  0.0250
18213THY    HP338903   9.234   8.990   5.043 -1.7692 -0.7198 -0.3519
18213THY    HP438904   9.344   8.852   5.045 -0.4043 -0.0200 -0.3832
18213THY    CP338905   9.170   8.648   5.026 -0.1097 -0.4368 -0.3753
18213THY    HP538906   9.270   8.616   4.994 -0.3421  0.6272 -2.3025
18213THY    HP638907   9.100   8.584   4.972 -0.8462  0.6243 -0.4921
18213THY    HP738908   9.168   8.629   5.134 -1.0889 -0.0932  1.5005
18213THY    CA338909   9.224   8.755   4.758  0.0684  0.7254 -0.2832
18213THY    HA338910   9.281   8.667   4.788  1.0565  0.6735  0.3220
18213THY    CA438911   9.231   8.796   4.621  0.3372 -0.3657 -0.3192
18213THY    HA438912   9.297   8.747   4.551  1.3154 -0.3781  0.9718
18213THY    CA538913   9.160   8.908   4.576  0.0951 -0.7547 -0.4256
18213THY    CM138914   9.173   8.942   4.438 -0.4475 -0.4989  0.4393
18213THY    HM138915   9.267   8.994   4.416  0.2617 -1.1936 -1.0568
18213THY    HM238916   9.089   9.002   4.400 -0.8555  0.4906  0.5050
18213THY    HM338917   9.166   8.847   4.383 -1.0314 -0.2139  0.3153
18213THY    CA638918   9.081   8.981   4.670  0.1541  0.5265 -0.1717
18213THY    HA638919   9.039   9.070   4.626  0.1560 -1.0349 -0.9036
18214THY      O38920   1.544   3.178   5.130 -0.0449  0.0726  0.8247
18214THY     HO38921   1.457   3.150   5.097  0.5444  1.4485 -3.2634
18214THY    CA138922   1.576   3.293   5.062 -0.7008 -0.0419 -0.0581
18214THY    CA238923   1.695   3.301   4.989  0.1724 -0.1690  1.3247
18214THY    CP138924   1.787   3.183   4.989 -0.1284 -0.0267 -1.2352
18214THY    HP138925   1.788   3.126   5.082  1.8930 -0.6017 -2.2655
18214THY    CP238926   1.939   3.227   4.982 -0.0229 -0.2100  0.0244
18214THY    HP238927   1.960   3.242   4.876 -1.9719 -0.2033  4.3605
18214THY    HP338928   1.997   3.138   5.010 -0.7286  2.5633  0.3245
18214THY    HP438929   1.967   3.305   5.053 -1.9017 -1.2124  1.6800
18214THY    CP338930   1.761   3.083   4.865  0.2529 -0.4028  0.0413
18214THY    HP538931   1.759   3.129   4.765 -1.3267 -1.2973 -1.8386
18214THY    HP638932   1.661   3.041   4.881  0.0920  0.6242  0.7707
18214THY    HP738933   1.834   3.002   4.867  0.3203 -0.0298  0.1116
18214THY    CA338934   1.704   3.414   4.899 -0.0171 -0.5357 -0.1799
18214THY    HA338935   1.784   3.408   4.826  0.6408 -0.0630  1.9199
18214THY    CA438936   1.619   3.525   4.905  0.2487  0.3557 -0.5731
18214THY    HA438937   1.627   3.615   4.843 -0.6643  0.9310 -0.0820
18214THY    CA538938   1.517   3.520   5.003 -0.1554  0.0669 -0.0571
18214THY    CM138939   1.420   3.634   5.017  0.5577  0.1188  0.0423
18214THY    HM138940   1.415   3.653   5.124  1.5039 -0.0192  1.1324
18214THY    HM238941   1.322   3.621   4.968  1.1847 -1.5676  1.3766
18214THY    HM338942   1.446   3.723   4.958 -0.0691  0.6500  0.5870
18214THY    CA638943   1.498   3.405   5.072  0.5804 -0.7790 -0.0136
18214THY    HA638944   1.408   3.405   5.134  1.3365  0.3754 -1.1310
18215THY      O38945   8.866   6.970   5.045  0.3176 -0.2610  0.1221
18215THY     HO38946   8.811   6.963   5.125 -0.2661 -0.6378  0.3283
18215THY    CA138947   8.820   6.866   4.969 -0.0901 -0.0927 -1.0185
18215THY    CA238948   8.888   6.828   4.847  0.1867 -0.2484  0.8624
18215THY    CP138949   9.008   6.902   4.791  0.3913 -0.1744 -0.0325
18215THY    HP138950   8.976   7.005   4.808  0.8834  0.7654 -0.0229
18215THY    CP238951   9.018   6.879   4.639 -0.1050  0.5662  0.0368
18215THY    HP238952   9.026   6.774   4.610 -2.2658 -0.7163  0.1749
18215THY    HP338953   9.100   6.948   4.615 -1.9973  1.3603  2.7569
18215THY    HP438954   8.931   6.905   4.578  1.2669 -1.5899 -0.1895
18215THY    CP338955   9.136   6.865   4.861 -0.7339 -0.5872 -0.1435
18215THY    HP538956   9.137   6.905   4.963  1.1602 -0.2023 -1.0231
18215THY    HP638957   9.219   6.911   4.806 -0.7327 -0.5627 -0.1165
18215THY    HP738958   9.157   6.757   4.861  0.2287  0.2554  0.0295
18215THY    CA338959   8.835   6.708   4.798 -0.5498  0.4944  0.0676
18215THY    HA338960   8.883   6.660   4.713  0.1868  1.4530 -0.9800
18215THY    CA438961   8.735   6.637   4.858 -0.6116 -0.2148  0.8096
18215THY    HA438962   8.700   6.542   4.817 -2.6824  3.9558 -0.4835
18215THY    CA538963   8.663   6.685   4.969 -0.7293  0.2368  0.0223
18215THY    CM138964   8.548   6.613   5.036 -0.2906 -0.0906  0.2940
18215THY    HM138965   8.463   6.675   5.065 -0.1106  0.6393  0.2109
18215THY    HM238966   8.593   6.572   5.127 -0.7397 -0.4444 -1.0614
18215THY    HM338967   8.509   6.532   4.972 -0.3145 -0.3347  0.4982
18215THY    CA638968   8.713   6.804   5.032 -0.6014 -0.3533 -1.3455
18215THY    HA638969   8.661   6.843   5.119 -1.1316 -1.9750  1.8792
18216THY      O38970   0.568   1.850   5.971  0.3522 -0.8065  0.1798
18216THY     HO38971   0.493   1.795   6.001 -0.9523 -1.4790  1.5133
18216THY    CA138972   0.625   1.787   5.869  0.2513  0.2411 -0.5664
18216THY    CA238973   0.750   1.827   5.828  0.2031  0.1402 -0.4340
18216THY    CP138974   0.837   1.932   5.908  0.6873  0.1659 -0.4078
18216THY    HP138975   0.774   1.985   5.980 -0.0074 -0.8992  0.2372
18216THY    CP238976   0.909   2.042   5.828  1.1001  0.4139  0.2002
18216THY    HP238977   0.859   2.080   5.738 -0.4612  0.9099 -0.6138
18216THY    HP338978   1.009   2.017   5.791  1.0789  0.5939 -0.1642
18216THY    HP438979   0.926   2.130   5.892 -1.0006  0.9438  0.2730
18216THY    CP338980   0.947   1.861   5.994 -0.0245  0.9644  0.0785
18216THY    HP538981   1.000   1.932   6.059  0.0595  2.6068 -1.4083
18216THY    HP638982   1.019   1.807   5.931  0.0019  1.9853 -1.1235
18216THY    HP738983   0.892   1.792   6.060 -0.8629  0.1116 -0.0789
18216THY    CA338984   0.791   1.794   5.692 -0.3004 -0.1058  0.0405
18216THY    HA338985   0.873   1.851   5.649 -0.3544 -0.5885 -0.2462
18216THY    CA438986   0.712   1.710   5.618  0.1352 -0.2013  0.7395
18216THY    HA438987   0.742   1.681   5.517 -1.2308 -0.6449  0.8117
18216THY    CA538988   0.595   1.664   5.667  1.2042 -0.2984  0.0658
18216THY    CM138989   0.507   1.566   5.584 -0.2773  0.5087 -0.0579
18216THY    HM138990   0.467   1.620   5.497  1.5304 -0.2975  0.0494
18216THY    HM238991   0.420   1.541   5.646  0.1605  1.6396  1.0911
18216THY    HM338992   0.561   1.483   5.537  1.1013  1.5729  0.1912
18216THY    CA638993   0.542   1.710   5.789  0.2753 -0.3569 -0.1925
18216THY    HA638994   0.445   1.680   5.827  1.3483  3.2550  0.4427
18217THY      O38995   1.294   6.318   2.915 -0.1024 -0.3666  1.0430
18217THY     HO38996   1.322   6.375   2.841 -2.7972 -1.1428  1.4918
18217THY    CA138997   1.165   6.340   2.932 -0.0231 -0.8098  0.0223
18217THY    CA238998   1.094   6.271   3.029  0.2553  0.2349 -0.3465
18217THY    CP138999   1.156   6.160   3.110  0.2070 -0.0425 -0.4693
18217THY    HP139000   1.262   6.149   3.082  0.0502 -1.9959  2.1821
18217THY    CP239001   1.085   6.020   3.075  0.3295 -0.7286  0.2574
18217THY    HP239002   1.000   6.005   3.143  1.7709  0.9527 -0.6802
18217THY    HP339003   1.167   5.948   3.088  0.6954  0.1305  0.8085
18217THY    HP439004   1.044   6.009   2.974 -0.7538 -0.2731 -0.0471
18217THY    CP339005   1.146   6.198   3.256  0.2429  0.8929  0.1545
18217THY    HP539006   1.245   6.179   3.298  0.7573 -0.6549 -0.7582
18217THY    HP639007   1.071   6.144   3.315 -0.3140  0.6632  0.6710
18217THY    HP739008   1.130   6.306   3.266 -0.7390 -1.4781  0.2937
18217THY    CA339009   0.959   6.309   3.057 -0.7383 -0.2273  0.0869
18217THY    HA339010   0.893   6.257   3.126 -0.0976  1.0330  0.9042
18217THY    CA439011   0.901   6.414   2.985  0.3924  0.3205  0.4565
18217THY    HA439012   0.806   6.461   3.006  1.1351  3.7770  0.6641
18217THY    CA539013   0.972   6.483   2.885 -0.5383 -0.8717  0.8150
18217THY    CM139014   0.925   6.604   2.807  0.9932 -0.4083  0.3218
18217THY    HM139015   0.981   6.695   2.831 -0.5584  1.1535  0.9173
18217THY    HM239016   0.818   6.618   2.826  1.2031  0.2629  1.1041
18217THY    HM339017   0.936   6.586   2.699  1.5567  0.0324 -2.3769
18217THY    CA639018   1.105   6.442   2.858  0.1878  0.0820 -0.5944
18217THY    HA639019   1.166   6.503   2.791  1.0891  2.7032  1.5967
18218THY      O39020   2.707   8.244   6.475 -0.8666  0.0409  0.2610
18218THY     HO39021   2.738   8.278   6.561  0.2252  0.1789 -0.9898
18218THY    CA139022   2.763   8.327   6.384  1.2837 -0.3864 -0.0832
18218THY    CA239023   2.746   8.307   6.250  0.2670  0.2390  0.3160
18218THY    CP139024   2.654   8.204   6.186  0.3975 -0.0615  0.0042
18218THY    HP139025   2.574   8.178   6.257 -1.4881 -1.4734  1.6603
18218THY    CP239026   2.732   8.076   6.148  0.9394  0.4164 -0.4720
18218THY    HP239027   2.661   7.999   6.115 -0.2278  1.1353  0.2750
18218THY    HP339028   2.774   8.026   6.236  1.2023 -0.4626 -1.8776
18218THY    HP439029   2.802   8.084   6.064 -2.2083 -2.5587 -1.5811
18218THY    CP339030   2.581   8.248   6.073 -0.4131 -0.2922  0.3278
18218THY    HP539031   2.549   8.347   6.108  2.9356 -0.5445  1.6229
18218THY    HP639032   2.493   8.187   6.050 -0.8454  0.1066  0.7899
18218THY    HP739033   2.641   8.265   5.983  2.1818  0.7841 -2.3259
18218THY    CA339034   2.814   8.400   6.164  0.0094  0.3465  0.1654
18218THY    HA339035   2.790   8.407   6.058 -1.4251  0.3835 -2.8083
18218THY    CA439036   2.905   8.498   6.213 -0.2786 -0.3061 -0.5851
18218THY    HA439037   2.963   8.566   6.151  0.7595  2.8615  1.6328
18218THY    CA539038   2.909   8.515   6.350  1.4608 -0.3086  0.5269
18218THY    CM139039   3.004   8.619   6.401 -0.4488  0.1838  0.3411
18218THY    HM139040   2.955   8.650   6.494 -1.2877 -0.0460 -0.2390
18218THY    HM239041   2.995   8.712   6.345  1.3337 -1.7881 -0.5909
18218THY    HM339042   3.109   8.587   6.393 -0.1053 -0.2367  1.5473
18218THY    CA639043   2.837   8.432   6.435  0.0701 -0.3422  0.0722
18218THY    HA639044   2.843   8.462   6.539 -2.0614 -0.3329  0.6584
18219THY      O39045   3.951   7.794   3.906  0.4310  0.3537  0.3594
18219THY     HO39046   3.889   7.867   3.926  1.7399  1.3910  1.2307
18219THY    CA139047   4.076   7.850   3.885 -0.0749  0.1328 -0.0830
18219THY    CA239048   4.191   7.766   3.859 -0.2044  0.0149 -0.0095
18219THY    CP139049   4.182   7.610   3.864  0.4223  0.1457  0.3724
18219THY    HP139050   4.090   7.584   3.917 -0.1297 -1.3070 -0.7768
18219THY    CP239051   4.299   7.538   3.947  0.1130 -0.3351 -0.1432
18219THY    HP239052   4.282   7.433   3.972 -1.9286 -0.5307  0.1017
18219THY    HP339053   4.331   7.602   4.030  3.0506 -1.5360  0.1615
18219THY    HP439054   4.393   7.542   3.890  0.8288  0.8770  2.5704
18219THY    CP339055   4.163   7.542   3.726 -0.0650  0.2003 -0.0496
18219THY    HP539056   4.136   7.437   3.741  0.1907  1.2280  0.0219
18219THY    HP639057   4.256   7.547   3.668 -0.7173 -0.7367  2.6186
18219THY    HP739058   4.081   7.589   3.671 -1.5222  0.5449 -2.0608
18219THY    CA339059   4.312   7.833   3.841 -0.6800  0.2871  0.1192
18219THY    HA339060   4.401   7.771   3.846 -0.6014  1.0170  0.2826
18219THY    CA439061   4.318   7.973   3.847 -0.0845  0.5310  0.2718
18219THY    HA439062   4.409   8.024   3.818 -1.9988 -0.9971  3.0946
18219THY    CA539063   4.203   8.049   3.865 -0.0995 -0.0404 -0.9751
18219THY    CM139064   4.210   8.198   3.852 -1.2842 -1.1387  0.6813
18219THY    HM139065   4.223   8.251   3.947 -1.2076 -1.5606  1.4292
18219THY    HM239066   4.135   8.247   3.789 -1.6624 -1.2864 -0.0795
18219THY    HM339067   4.306   8.227   3.808 -1.6206 -2.7767 -0.5536
18219THY    CA639068   4.085   7.989   3.890 -0.6288 -0.0760 -0.2699
18219THY    HA639069   3.999   8.053   3.909 -0.5443 -0.0400 -0.1695
18220THY      O39070   4.046   1.349   2.111  0.2052  0.0292  0.2962
18220THY     HO39071   4.020   1.268   2.159 -2.1848 -0.8028  0.4906
18220THY    CA139072   4.035   1.308   1.980 -0.2592 -0.9936 -0.1670
18220THY    CA239073   4.087   1.377   1.874 -0.5766  0.6216  0.3676
18220THY    CP139074   4.165   1.506   1.878  0.4753  0.0678 -0.1835
18220THY    HP139075   4.184   1.527   1.984 -0.0066  0.0431  0.4369
18220THY    CP239076   4.084   1.618   1.825  0.6414  0.1119 -0.3021
18220THY    HP239077   4.081   1.613   1.715 -1.8438  0.1499 -0.9705
18220THY    HP339078   4.121   1.715   1.859 -1.9249  2.0673  0.1170
18220THY    HP439079   3.981   1.616   1.863 -0.1543 -1.9263 -0.8422
18220THY    CP339080   4.290   1.503   1.800 -0.0381  0.5172 -0.0487
18220THY    HP539081   4.269   1.488   1.693 -4.0295  1.1232  0.1373
18220THY    HP639082   4.357   1.429   1.845 -0.9036  1.9007 -0.0217
18220THY    HP739083   4.340   1.598   1.821  0.6067  0.6537 -0.4176
18220THY    CA339084   4.049   1.328   1.751  0.2898  1.1024 -0.0201
18220THY    HA339085   4.072   1.383   1.661  0.6347  0.5358 -1.0588
18220THY    CA439086   3.980   1.205   1.738 -0.2873 -0.3397 -0.3985
18220THY    HA439087   3.961   1.168   1.638 -0.4569 -0.8680  1.0750
18220THY    CA539088   3.934   1.139   1.851  0.0782  0.0155  0.0939
18220THY    CM139089   3.886   1.002   1.825  0.2784 -0.1153  0.0493
18220THY    HM139090   3.776   1.009   1.821  0.2030 -2.5790 -1.2469
18220THY    HM239091   3.916   0.928   1.900 -2.8895  1.4357  0.1561
18220THY    HM339092   3.918   0.975   1.724 -1.3194 -0.5399 -0.4042
18220THY    CA639093   3.961   1.190   1.976 -0.1773  0.6223  0.0796
18220THY    HA639094   3.933   1.134   2.065 -1.5916  0.4514  0.4895
18221THY      O39095   6.149   7.623   2.477 -0.1269  0.6587 -0.1879
18221THY     HO39096   6.218   7.559   2.453  0.0543  1.7470 -0.4238
18221THY    CA139097   6.085   7.575   2.591 -0.5479  0.0584  0.1256
18221THY    CA239098   5.957   7.624   2.634 -0.0207 -0.4771  0.1158
18221THY    CP139099   5.882   7.727   2.543 -0.3055  0.5201 -0.1854
18221THY    HP139100   5.948   7.763   2.463 -0.8237  0.4148  0.5627
18221THY    CP239101   5.833   7.849   2.629  0.5459  0.7055 -0.1312
18221THY    HP239102   5.894   7.880   2.714 -0.7030  0.8422  2.1606
18221THY    HP339103   5.736   7.823   2.671 -0.4104 -0.3860  1.5007
18221THY    HP439104   5.810   7.930   2.559  2.0603  0.0415 -0.2319
18221THY    CP339105   5.769   7.651   2.473  0.2864 -0.1946  0.0114
18221THY    HP539106   5.695   7.611   2.543  0.1561 -0.1489  0.3326
18221THY    HP639107   5.818   7.568   2.420  0.8930 -0.8220  0.7508
18221THY    HP739108   5.714   7.710   2.399 -0.4994 -0.8714 -1.5118
18221THY    CA339109   5.908   7.582   2.762  0.0117 -0.3245 -0.0146
18221THY    HA339110   5.812   7.622   2.795  0.5207  1.2788 -0.0307
18221THY    CA439111   5.975   7.488   2.841 -0.3472 -0.1640 -0.1112
18221THY    HA439112   5.938   7.455   2.938  2.8932  0.4342 -2.4898
18221THY    CA539113   6.097   7.439   2.790  0.1287 -0.0483  0.6640
18221THY    CM139114   6.178   7.348   2.868  0.0424  0.8389  0.2523
18221THY    HM139115   6.150   7.332   2.973 -1.8246  0.1676 -1.2989
18221THY    HM239116   6.282   7.381   2.870 -0.3205  1.8917  1.4123
18221THY    HM339117   6.174   7.257   2.807 -1.6295 -2.5196  2.4107
18221THY    CA639118   6.148   7.474   2.668  0.0903  0.4628  0.3118
18221THY    HA639119   6.242   7.439   2.626  1.0780  0.8738  2.3144
18222THY      O39120   3.918   0.826   6.990  0.1316 -0.4067 -0.2249
18222THY     HO39121   3.860   0.880   6.935 -1.5142  2.8403  1.6017
18222THY    CA139122   3.929   0.888   7.114  0.4987 -0.4549 -0.7448
18222THY    CA239123   4.032   0.841   7.206 -0.2183 -0.2717  0.2114
18222THY    CP139124   4.140   0.748   7.149 -0.8230  0.2480 -0.1617
18222THY    HP139125   4.160   0.768   7.043 -0.1835  0.1731 -1.1629
18222THY    CP239126   4.085   0.604   7.166  0.1152 -0.6964  0.1919
18222THY    HP239127   4.039   0.570   7.259  2.4642  0.1432 -0.9080
18222THY    HP339128   4.166   0.531   7.155 -1.4444 -0.6556 -1.6339
18222THY    HP439129   4.022   0.592   7.077  0.3452 -1.3468  3.0290
18222THY    CP339130   4.282   0.756   7.210  0.3027  0.0728 -0.5207
18222THY    HP539131   4.343   0.683   7.155 -1.0551  0.3473 -1.9173
18222THY    HP639132   4.289   0.728   7.316 -0.6178  0.0488 -0.8921
18222THY    HP739133   4.327   0.855   7.208 -1.1599 -2.2864  0.1937
18222THY    CA339134   4.044   0.909   7.325 -0.0473  1.0268  0.4827
18222THY    HA339135   4.121   0.874   7.394  1.1075  0.5393  1.9775
18222THY    CA439136   3.954   1.011   7.350 -0.5646 -0.3527  0.0450
18222THY    HA439137   3.961   1.066   7.444 -1.1592 -0.6537  0.6487
18222THY    CA539138   3.840   1.040   7.274 -0.6161 -0.6962  0.2175
18222THY    CM139139   3.724   1.125   7.334  0.5819  0.0216 -0.9716
18222THY    HM139140   3.680   1.079   7.423  0.5203  0.7855  0.5014
18222THY    HM239141   3.646   1.147   7.260  0.6339  0.7252  2.0580
18222THY    HM339142   3.753   1.223   7.373 -0.8759  0.5141 -0.7198
18222THY    CA639143   3.830   0.980   7.156  0.4907  0.0910 -0.2303
18222THY    HA639144   3.747   1.009   7.093 -0.0497  1.5740  1.5605
18223THY      O39145   5.069   8.316   3.823  0.5556  0.0834 -0.0005
18223THY     HO39146   5.012   8.266   3.883 -0.6254  0.8478  2.1218
18223THY    CA139147   5.072   8.245   3.709 -0.8284  0.8152  0.7620
18223THY    CA239148   5.170   8.276   3.608 -0.3074  0.1406  0.1718
18223THY    CP139149   5.277   8.384   3.639 -0.6226 -1.1639 -0.8783
18223THY    HP139150   5.247   8.447   3.723 -0.5944 -0.7507 -1.4050
18223THY    CP239151   5.304   8.481   3.523  0.2420 -0.3538 -0.4024
18223THY    HP239152   5.214   8.542   3.513  0.1240 -1.9000 -0.7914
18223THY    HP339153   5.331   8.433   3.429  2.5507 -0.6998  1.3778
18223THY    HP439154   5.379   8.556   3.554 -0.5170  0.7067 -0.0549
18223THY    CP339155   5.404   8.308   3.667 -0.9016  0.2075 -0.2962
18223THY    HP539156   5.491   8.368   3.697 -0.5680  0.7555 -1.0380
18223THY    HP639157   5.435   8.255   3.576 -1.1145  0.0076 -0.0769
18223THY    HP739158   5.381   8.231   3.741  0.4711  0.3417 -0.6103
18223THY    CA339159   5.187   8.188   3.495  0.1068 -0.0619  0.5790
18223THY    HA339160   5.268   8.193   3.423  1.6992  1.6540  0.6759
18223THY    CA439161   5.096   8.079   3.495 -0.3079 -0.6048 -0.6170
18223THY    HA439162   5.108   8.012   3.411 -0.0975 -1.8192  0.8980
18223THY    CA539163   4.997   8.053   3.589 -0.4897 -0.4145 -0.3823
18223THY    CM139164   4.908   7.935   3.588 -0.3136 -0.2826  0.2495
18223THY    HM139165   4.952   7.855   3.648  0.3263 -1.2701 -0.1583
18223THY    HM239166   4.878   7.910   3.485 -0.2695 -1.0007  2.8705
18223THY    HM339167   4.814   7.964   3.636  0.7503  2.6313 -0.7321
18223THY    CA639168   4.982   8.142   3.697  0.4868 -0.4844 -0.3045
18223THY    HA639169   4.913   8.112   3.776  1.4270 -0.0505 -1.4123
18224THY      O39170   3.624   8.541   2.397 -0.4063  0.4361 -0.0067
18224THY     HO39171   3.552   8.537   2.332 -0.1370  0.1677 -0.5509
18224THY    CA139172   3.670   8.661   2.380 -0.5069 -0.4786 -0.0788
18224THY    CA239173   3.809   8.687   2.359  0.1664  0.6026 -0.7008
18224THY    CP139174   3.906   8.566   2.341  0.0432 -0.3041  0.3524
18224THY    HP139175   3.898   8.500   2.429  1.9906 -0.4868 -0.1975
18224THY    CP239176   4.054   8.618   2.323 -0.1285  0.5819 -0.0196
18224THY    HP239177   4.097   8.670   2.410 -0.4390  0.6000  0.2066
18224THY    HP339178   4.071   8.669   2.228 -0.5106  1.0304  0.9547
18224THY    HP439179   4.102   8.519   2.314 -1.7123 -3.2334 -0.6189
18224THY    CP339180   3.882   8.490   2.210 -0.0389 -0.0167 -0.3335
18224THY    HP539181   3.793   8.428   2.227 -0.5236  0.6273  0.5276
18224THY    HP639182   3.966   8.427   2.176  1.3756 -0.6386  1.7978
18224THY    HP739183   3.863   8.557   2.126  4.8186 -1.6292 -0.5558
18224THY    CA339184   3.850   8.823   2.356  0.3521  0.4219  0.1777
18224THY    HA339185   3.952   8.853   2.334  0.4561  0.4411 -0.1664
18224THY    CA439186   3.752   8.922   2.363 -0.4518  0.5920 -0.4565
18224THY    HA439187   3.787   9.024   2.372 -0.3156 -1.0038 -0.3315
18224THY    CA539188   3.616   8.893   2.381 -0.1207  0.0836  0.7723
18224THY    CM139189   3.514   8.997   2.350 -0.0699  0.4220 -0.4368
18224THY    HM139190   3.542   9.057   2.262 -0.6346 -0.3313 -1.2415
18224THY    HM239191   3.492   9.070   2.428 -2.5072 -0.2085 -0.4096
18224THY    HM339192   3.416   8.950   2.330  0.4142  0.9729 -1.7258
18224THY    CA639193   3.578   8.763   2.391 -0.0674 -0.2235 -0.3522
18224THY    HA639194   3.471   8.746   2.400  0.1595  0.2501 -1.5890
18225THY      O39195   4.554   8.191   4.878 -0.3951  0.2659  0.0033
18225THY     HO39196   4.475   8.230   4.919 -2.2777 -0.9971 -2.2678
18225THY    CA139197   4.513   8.067   4.845  0.7526  0.2422 -0.4169
18225THY    CA239198   4.532   8.023   4.712 -0.1110 -0.0731 -0.1711
18225THY    CP139199   4.595   8.114   4.611  0.1672 -0.4187 -0.0738
18225THY    HP139200   4.634   8.207   4.656  1.7700  2.3548 -1.9450
18225THY    CP239201   4.502   8.150   4.503  0.5124 -0.2253 -0.4819
18225THY    HP239202   4.521   8.240   4.444 -0.6873 -0.2347 -0.2210
18225THY    HP339203   4.409   8.199   4.534  0.0660 -3.3868  0.8932
18225THY    HP439204   4.481   8.070   4.431 -0.5907 -1.8585  1.2084
18225THY    CP339205   4.731   8.060   4.559  0.3012 -0.6319  0.1797
18225THY    HP539206   4.714   7.978   4.488 -0.9442 -0.1824  0.0294
18225THY    HP639207   4.793   8.033   4.646  2.3821 -1.7179  1.1655
18225THY    HP739208   4.789   8.136   4.505 -0.3297 -2.8845 -0.8587
18225THY    CA339209   4.482   7.898   4.672 -1.0002  0.3598  0.5490
18225THY    HA339210   4.485   7.865   4.569  2.2703  0.5951 -0.2689
18225THY    CA439211   4.424   7.819   4.772  0.3033 -0.0834 -0.3099
18225THY    HA439212   4.381   7.724   4.740 -1.8030  2.3810 -0.2803
18225THY    CA539213   4.410   7.864   4.895  0.0597 -0.3691 -0.1005
18225THY    CM139214   4.338   7.784   4.992  0.5748 -0.4084 -0.0482
18225THY    HM139215   4.379   7.802   5.092  0.9123 -0.2698 -1.5392
18225THY    HM239216   4.361   7.678   4.978 -0.1203  1.3058 -0.4647
18225THY    HM339217   4.231   7.806   5.002  0.5184 -0.9736 -0.0556
18225THY    CA639218   4.450   7.992   4.935  0.4671 -0.3018  0.5823
18225THY    HA639219   4.435   8.031   5.036 -0.1162 -0.3887  0.5931
18226THY      O39220   7.545   5.731   2.919 -0.0772 -0.0118 -0.2256
18226THY     HO39221   7.509   5.647   2.951 -0.1338 -0.0708 -0.2240
18226THY    CA139222   7.638   5.761   3.009  0.3214 -0.7414  0.4551
18226THY    CA239223   7.752   5.839   2.972 -0.0784  0.6937 -0.0565
18226THY    CP139224   7.760   5.899   2.830  0.3830  0.8709 -0.3056
18226THY    HP139225   7.672   5.880   2.768 -0.6460  2.4707 -0.9456
18226THY    CP239226   7.880   5.862   2.756  0.4962 -0.2217  0.5812
18226THY    HP239227   7.968   5.923   2.781  1.0417  0.1440 -0.3253
18226THY    HP339228   7.862   5.842   2.650  0.3759 -0.1374  0.2409
18226THY    HP439229   7.903   5.760   2.789 -0.4769  0.0079  0.4293
18226THY    CP339230   7.759   6.059   2.822  0.6811  0.6561 -0.0772
18226THY    HP539231   7.759   6.093   2.717 -1.0765  0.9623  0.9424
18226THY    HP639232   7.839   6.110   2.877  0.6628  1.6606 -1.0993
18226THY    HP739233   7.659   6.093   2.848 -0.5568 -0.5362 -2.5030
18226THY    CA339234   7.859   5.857   3.064  0.2780  0.3907  0.2150
18226THY    HA339235   7.949   5.914   3.047  0.9691  0.0919 -0.9410
18226THY    CA439236   7.842   5.793   3.193  0.0139 -0.1130 -0.4931
18226THY    HA439237   7.923   5.803   3.265 -0.5260  0.7846 -2.2346
18226THY    CA539238   7.729   5.721   3.227 -0.4264  1.1026  0.1268
18226THY    CM139239   7.733   5.643   3.357  0.2507  0.2653 -0.9771
18226THY    HM139240   7.786   5.698   3.436 -1.7131  1.3534 -0.5581
18226THY    HM239241   7.785   5.549   3.339  1.0051  1.4098 -0.8055
18226THY    HM339242   7.636   5.618   3.402  0.8396  1.5043 -1.1392
18226THY    CA639243   7.627   5.699   3.133  0.1017 -0.3618  0.0700
18226THY    HA639244   7.541   5.643   3.168 -1.3022 -1.7845  1.2509
18227THY      O39245   8.357   0.764   1.547  0.1733  0.4054 -0.4354
18227THY     HO39246   8.368   0.729   1.457  1.4749  0.6168 -0.6209
18227THY    CA139247   8.306   0.670   1.624  0.2009 -0.6329  0.5478
18227THY    CA239248   8.348   0.641   1.753  0.0264  0.1888  0.2706
18227THY    CP139249   8.470   0.727   1.814  0.0169 -0.0818 -0.4164
18227THY    HP139250   8.510   0.793   1.736  1.2940  2.3334  1.8255
18227THY    CP239251   8.588   0.643   1.844 -0.6628  0.0379 -0.0565
18227THY    HP239252   8.669   0.698   1.893 -0.3845  0.4555 -0.8254
18227THY    HP339253   8.630   0.592   1.756 -0.4379 -0.2652  0.6403
18227THY    HP439254   8.554   0.571   1.918 -0.6341  1.2148  1.1093
18227THY    CP339255   8.420   0.819   1.927  0.5080 -0.4942  0.0343
18227THY    HP539256   8.495   0.899   1.927 -2.0212 -1.1246  2.5754
18227THY    HP639257   8.410   0.768   2.024 -1.6617 -0.8706 -0.3504
18227THY    HP739258   8.334   0.876   1.891  0.5219 -0.6835 -0.0618
18227THY    CA339259   8.293   0.540   1.832 -0.1419 -0.3665  0.4515
18227THY    HA339260   8.333   0.507   1.928  1.0032 -1.6042 -2.0681
18227THY    CA439261   8.184   0.470   1.782 -0.6807  0.2776  0.2046
18227THY    HA439262   8.139   0.392   1.843 -1.2731 -0.7250 -0.2627
18227THY    CA539263   8.129   0.508   1.658 -0.3690 -0.2832 -0.8528
18227THY    CM139264   7.999   0.452   1.606 -0.0583  0.1271 -0.0993
18227THY    HM139265   7.916   0.465   1.676 -0.4544 -0.1802 -0.9123
18227THY    HM239266   8.023   0.351   1.573  0.8057 -3.6357  1.1471
18227THY    HM339267   7.977   0.502   1.510  3.8344 -0.5319  0.6986
18227THY    CA639268   8.196   0.607   1.583  0.1247  0.8614  0.7370
18227THY    HA639269   8.155   0.649   1.491  2.8855 -0.1204  1.4774
18228THY      O39270   1.787   5.753   6.416 -0.3289 -0.0774 -0.0906
18228THY     HO39271   1.770   5.666   6.456  1.8625  0.9842 -0.1047
18228THY    CA139272   1.918   5.771   6.409 -0.0878  0.9005  0.6126
18228THY    CA239273   1.983   5.819   6.298 -0.2833  0.7291 -0.0678
18228THY    CP139274   1.909   5.861   6.174 -0.1349  0.0998  0.4473
18228THY    HP139275   1.804   5.888   6.192 -0.8250 -2.6484 -0.0829
18228THY    CP239276   1.897   5.746   6.076 -0.1943 -0.0831 -0.0416
18228THY    HP239277   1.822   5.672   6.108 -1.7108 -1.3645  0.8849
18228THY    HP339278   1.993   5.693   6.073  0.3947 -2.5556  1.0315
18228THY    HP439279   1.870   5.788   5.978 -0.4439  0.6338  1.5209
18228THY    CP339280   1.969   5.987   6.097  0.0663 -0.0696 -0.5351
18228THY    HP539281   2.038   5.958   6.017 -0.4664 -1.1738  1.0752
18228THY    HP639282   2.024   6.041   6.175  0.8265 -0.0076 -1.3824
18228THY    HP739283   1.887   6.051   6.062  0.9626 -2.2324 -0.4871
18228THY    CA339284   2.125   5.825   6.301 -0.5180  0.1668  0.6005
18228THY    HA339285   2.182   5.854   6.213 -1.2631 -0.4132  0.3445
18228THY    CA439286   2.196   5.792   6.418 -0.5765  0.3085  0.6843
18228THY    HA439287   2.304   5.789   6.409 -0.7021 -1.1178 -0.7453
18228THY    CA539288   2.124   5.742   6.526  0.2887  0.1533 -0.4804
18228THY    CM139289   2.201   5.712   6.657 -0.6000  0.1390 -0.5420
18228THY    HM139290   2.299   5.760   6.669 -1.4188 -0.9575  1.5561
18228THY    HM239291   2.194   5.608   6.690 -0.2525 -1.0537 -0.9630
18228THY    HM339292   2.148   5.771   6.732 -1.7282  0.2817 -1.6888
18228THY    CA639293   1.985   5.726   6.524 -0.2182 -0.3058  0.5069
18228THY    HA639294   1.926   5.689   6.607 -1.1064 -1.4576 -0.7926
18229THY      O39295   0.074   1.721   4.946  0.1931 -0.3280 -0.4483
18229THY     HO39296   0.076   1.785   4.872  0.2714  0.3281  0.3191
18229THY    CA139297   0.136   1.612   4.909 -0.4033 -0.3386  0.0812
18229THY    CA239298   0.192   1.517   5.001  0.6530 -0.0531 -0.2714
18229THY    CP139299   0.162   1.537   5.158  0.1570 -0.5770  0.0439
18229THY    HP139300   0.062   1.580   5.167  0.6814 -1.1202  1.4393
18229THY    CP239301   0.257   1.640   5.228 -0.0062  0.6559  0.7357
18229THY    HP239302   0.360   1.605   5.219  0.6140  0.4900  2.4942
18229THY    HP339303   0.217   1.646   5.330 -0.5139  1.2061 -5.7170
18229THY    HP439304   0.257   1.732   5.168  0.6283  1.2862  1.1530
18229THY    CP339305   0.170   1.397   5.233  0.6202 -0.2775  0.0461
18229THY    HP539306   0.274   1.382   5.265  0.5279  1.3409  2.3594
18229THY    HP639307   0.139   1.318   5.163 -0.5686 -0.2019  0.4232
18229THY    HP739308   0.113   1.393   5.327  3.4024  1.6354  1.5396
18229THY    CA339309   0.270   1.409   4.949 -0.6160  0.5714 -0.0509
18229THY    HA339310   0.315   1.333   5.013 -0.3898  0.0069 -0.4000
18229THY    CA439311   0.300   1.411   4.813 -0.1833  0.0050 -0.3048
18229THY    HA439312   0.353   1.328   4.769 -1.8154  0.1167 -1.4719
18229THY    CA539313   0.234   1.504   4.726 -0.0800  0.1008  0.8432
18229THY    CM139314   0.275   1.497   4.580 -0.0967  0.4675 -0.8127
18229THY    HM139315   0.368   1.556   4.578 -1.2867  3.3574  1.4460
18229THY    HM239316   0.200   1.549   4.519  0.6666  0.3746  0.2067
18229THY    HM339317   0.289   1.393   4.547 -0.0055  2.3760 -1.4466
18229THY    CA639318   0.163   1.606   4.776  0.2793 -0.9463 -0.4527
18229THY    HA639319   0.135   1.686   4.708 -3.4702 -0.5790 -1.2701
18230THY      O39320   4.253   2.171   4.686  0.8032  0.2881  0.1927
18230THY     HO39321   4.350   2.168   4.692  1.0957 -2.9126  0.0907
18230THY    CA139322   4.223   2.113   4.576  0.5680  0.7295  0.1348
18230THY    CA239323   4.094   2.127   4.520  0.6327 -0.7899  0.1370
18230THY    CP139324   3.989   2.218   4.588  0.1861  0.5503  0.0203
18230THY    HP139325   4.020   2.236   4.692  0.2043  0.3145  1.4752
18230THY    CP239326   3.852   2.157   4.597 -0.1212  0.4046 -0.3028
18230THY    HP239327   3.789   2.152   4.507 -0.0864  0.3545  0.1162
18230THY    HP339328   3.787   2.203   4.673 -1.2892  0.1950 -1.5551
18230THY    HP439329   3.865   2.060   4.646 -0.0939  1.4337  0.1953
18230THY    CP339330   3.974   2.358   4.515 -0.7187  0.0003  0.6830
18230THY    HP539331   3.913   2.419   4.583 -0.4179  0.1191  0.8514
18230THY    HP639332   3.913   2.356   4.424 -0.9375 -0.0467  3.9891
18230THY    HP739333   4.072   2.407   4.509 -0.1169 -1.3220 -0.6235
18230THY    CA339334   4.061   2.067   4.390 -0.3200 -0.2579 -1.2198
18230THY    HA339335   3.964   2.082   4.344 -1.6616  2.3536 -1.3047
18230THY    CA439336   4.164   2.000   4.324  0.4338  0.0461 -0.3356
18230THY    HA439337   4.149   1.960   4.225  1.2268  0.0240 -0.5916
18230THY    CA539338   4.286   1.979   4.389  0.0129 -0.1072 -0.0852
18230THY    CM139339   4.383   1.898   4.309  1.0954 -0.1140  0.4970
18230THY    HM139340   4.469   1.854   4.362  0.1428 -0.7268 -2.3152
18230THY    HM239341   4.418   1.970   4.234 -1.1414  0.8007  2.6526
18230THY    HM339342   4.336   1.811   4.263  2.7808  2.4342 -1.9490
18230THY    CA639343   4.324   2.038   4.510 -0.5735 -0.6418 -0.9111
18230THY    HA639344   4.427   2.023   4.543 -1.1544  0.6353 -2.3783
18231THY      O39345   2.801   2.767   5.769 -0.6055  0.1126  0.0132
18231THY     HO39346   2.888   2.789   5.806 -0.0818 -1.3836  0.5308
18231THY    CA139347   2.823   2.736   5.637 -1.0143  0.3984  0.2171
18231THY    CA239348   2.732   2.662   5.564  0.5632  0.6237  0.8747
18231THY    CP139349   2.594   2.617   5.620  0.0794 -0.5840 -0.6675
18231THY    HP139350   2.587   2.630   5.728  1.8065 -0.6978  2.1763
18231THY    CP239351   2.582   2.469   5.593  0.1082 -0.5645 -0.1593
18231THY    HP239352   2.584   2.444   5.487 -2.4482 -0.5267 -0.8201
18231THY    HP339353   2.496   2.428   5.647  0.6694 -0.1073 -0.7476
18231THY    HP439354   2.669   2.427   5.645 -1.3621  1.5938 -0.7031
18231THY    CP339355   2.468   2.682   5.553  0.0791 -0.1749  1.0616
18231THY    HP539356   2.450   2.631   5.458  0.6085 -0.6453  1.7391
18231THY    HP639357   2.486   2.781   5.510  0.2835 -0.3834  0.9372
18231THY    HP739358   2.380   2.689   5.618 -0.6029 -0.9811  0.2036
18231THY    CA339359   2.755   2.642   5.422  0.7392 -0.5096  0.6168
18231THY    HA339360   2.674   2.603   5.361  0.3555  0.7131 -0.5590
18231THY    CA439361   2.878   2.689   5.367 -0.8976 -0.4760  0.2842
18231THY    HA439362   2.898   2.678   5.261  1.3117  0.0726 -1.9426
18231THY    CA539363   2.967   2.762   5.447 -0.2714  0.1027  0.4059
18231THY    CM139364   3.102   2.804   5.395 -0.4361 -1.1814  0.2189
18231THY    HM139365   3.107   2.798   5.286  0.2003 -1.0711 -2.0467
18231THY    HM239366   3.169   2.726   5.433 -0.7648  1.7477  1.2559
18231THY    HM339367   3.134   2.904   5.427  0.8637  1.2403 -0.8826
18231THY    CA639368   2.944   2.781   5.583  0.2273  0.2643  0.1542
18231THY    HA639369   3.021   2.825   5.647  0.1184  2.1101 -2.1669
18232THY      O39370   7.248   9.487   3.182  0.2395  0.0315 -0.1731
18232THY     HO39371   7.298   9.483   3.265  0.3968 -0.0846 -0.8698
18232THY    CA139372   7.170   9.377   3.193 -1.1028 -0.1679 -0.3871
18232THY    CA239373   7.071   9.344   3.092 -0.2019 -0.4957  0.0321
18232THY    CP139374   7.060   9.422   2.968  0.5982 -0.7915  0.2361
18232THY    HP139375   7.129   9.507   2.972 -0.1434  0.1803  0.8145
18232THY    CP239376   6.914   9.491   2.962 -0.4444  0.3126  0.2703
18232THY    HP239377   6.900   9.553   3.051  0.8140 -0.0665  1.1214
18232THY    HP339378   6.839   9.411   2.970  0.1010  1.2305 -0.1674
18232THY    HP439379   6.897   9.548   2.870 -2.7344 -0.2268 -1.1537
18232THY    CP339380   7.097   9.340   2.838  0.3367 -0.0294 -0.3071
18232THY    HP539381   7.105   9.408   2.753 -0.6423  0.2076  0.1193
18232THY    HP639382   7.017   9.267   2.823  2.1349 -0.0829 -2.3509
18232THY    HP739383   7.190   9.284   2.850 -0.1844  0.7083 -1.0318
18232THY    CA339384   7.011   9.220   3.107 -0.3236  0.9248  0.1877
18232THY    HA339385   6.942   9.187   3.030 -0.6653  0.8679  0.9930
18232THY    CA439386   7.029   9.148   3.229  0.3313  0.1403 -0.6989
18232THY    HA439387   6.971   9.058   3.248 -0.1989 -0.4889 -0.5008
18232THY    CA539388   7.111   9.195   3.328 -0.4863  0.2771  0.2435
18232THY    CM139389   7.150   9.099   3.440 -0.1774  0.4942 -0.1723
18232THY    HM139390   7.222   9.143   3.510  2.1307 -1.0113 -1.3881
18232THY    HM239391   7.197   9.008   3.401 -0.0705  1.6253 -0.6193
18232THY    HM339392   7.063   9.081   3.504 -0.7541 -0.5512 -1.2582
18232THY    CA639393   7.187   9.308   3.310 -0.1442  0.4770  0.1490
18232THY    HA639394   7.268   9.330   3.379  1.5304 -1.3832  0.1093
18233THY      O39395   2.655   0.796   2.747  0.2440 -0.0010  0.2790
18233THY     HO39396   2.649   0.890   2.770 -1.9474 -1.2632  0.4937
18233THY    CA139397   2.541   0.752   2.691 -0.3002 -0.2811  0.3084
18233THY    CA239398   2.533   0.626   2.631  0.0434 -0.3508  0.1763
18233THY    CP139399   2.636   0.518   2.643  0.0574  0.1800 -0.4663
18233THY    HP139400   2.727   0.548   2.697  1.7496 -2.8919  0.3925
18233THY    CP239401   2.703   0.471   2.514  0.1549 -0.1813 -0.7343
18233THY    HP239402   2.749   0.558   2.467 -0.2868  0.3229 -0.2218
18233THY    HP339403   2.624   0.425   2.453 -0.7083 -0.1940  0.7000
18233THY    HP439404   2.787   0.403   2.529  1.8138 -0.7503  1.1239
18233THY    CP339405   2.579   0.393   2.711  0.7879  0.4402  0.3836
18233THY    HP539406   2.512   0.416   2.795  0.2924  1.2235 -3.2660
18233THY    HP639407   2.658   0.332   2.757  1.4841 -1.4941 -0.2462
18233THY    HP739408   2.528   0.338   2.631  1.7792 -1.4726  2.1172
18233THY    CA339409   2.417   0.604   2.558  0.4529 -0.5813 -0.5362
18233THY    HA339410   2.406   0.506   2.511  0.4217 -1.5967 -0.0562
18233THY    CA439411   2.311   0.689   2.549 -0.0399 -0.0040  0.5323
18233THY    HA439412   2.231   0.682   2.475 -0.6642  0.5955  1.1723
18233THY    CA539413   2.324   0.820   2.615  0.4216 -0.2418  0.6584
18233THY    CM139414   2.214   0.926   2.605 -0.0412  0.6384 -0.6673
18233THY    HM139415   2.208   1.000   2.686 -4.1320  0.9832 -1.1513
18233THY    HM239416   2.121   0.869   2.604  0.1247  1.8359 -0.9881
18233THY    HM339417   2.233   0.978   2.510  0.5478  1.7420  1.2337
18233THY    CA639418   2.440   0.848   2.685 -0.3590  0.7924 -0.1101
18233THY    HA639419   2.456   0.948   2.723 -1.5876 -1.3937  0.9865
18234THY      O39420   3.009   1.977   7.654 -0.6790 -0.5399 -0.1036
18234THY     HO39421   2.949   1.954   7.727  0.8214  0.3896 -1.1496
18234THY    CA139422   3.094   1.884   7.640 -0.3976  0.7449  0.3039
18234THY    CA239423   3.217   1.900   7.568  0.1414 -0.1195  0.0439
18234THY    CP139424   3.273   2.031   7.513 -0.1022  0.0955 -0.1170
18234THY    HP139425   3.195   2.107   7.523 -0.4094 -0.1480 -0.3977
18234THY    CP239426   3.307   2.020   7.366 -0.2110  0.0098 -0.4077
18234THY    HP239427   3.407   1.980   7.342  1.1037  1.3961  1.8608
18234THY    HP339428   3.311   2.124   7.332  0.6549 -2.1282 -1.0821
18234THY    HP439429   3.222   1.973   7.316 -0.3140 -0.3361  0.1426
18234THY    CP339430   3.390   2.081   7.597 -0.6019  0.2447  0.8240
18234THY    HP539431   3.466   2.003   7.606 -1.1513 -0.0308  0.2487
18234THY    HP639432   3.348   2.086   7.698  1.6507  1.2558  0.4238
18234THY    HP739433   3.427   2.176   7.556  1.5409 -1.5710 -0.6921
18234THY    CA339434   3.305   1.789   7.555  0.0189  0.2130  0.2355
18234THY    HA339435   3.402   1.801   7.507  0.0340 -0.2252 -1.4298
18234THY    CA439436   3.265   1.666   7.600 -0.3451 -0.9963  0.6950
18234THY    HA439437   3.325   1.576   7.586 -0.6413  0.5788  0.2291
18234THY    CA539438   3.137   1.646   7.656 -0.2921 -0.0832  0.0389
18234THY    CM139439   3.088   1.505   7.697 -0.1516 -0.3410 -0.2778
18234THY    HM139440   3.134   1.483   7.794  1.9612 -0.6350  2.3551
18234THY    HM239441   3.113   1.427   7.624  1.3504  0.5766 -0.6891
18234THY    HM339442   2.981   1.499   7.717  0.0476  0.5435 -1.1121
18234THY    CA639443   3.056   1.759   7.678  0.2766  0.0765  0.4907
18234THY    HA639444   2.955   1.745   7.714 -0.1220 -0.9860  0.5865
18235THY      O39445   3.677   7.640   4.278  0.0950 -0.2844 -0.2849
18235THY     HO39446   3.741   7.614   4.210 -0.3303 -0.1420 -1.7776
18235THY    CA139447   3.573   7.545   4.261  0.4465  0.7426  0.3897
18235THY    CA239448   3.457   7.541   4.347 -0.0189  0.5584  0.6376
18235THY    CP139449   3.444   7.641   4.459 -0.0617  0.1806 -0.5600
18235THY    HP139450   3.532   7.706   4.455 -0.3793  0.5432 -0.1053
18235THY    CP239451   3.465   7.565   4.588  0.6190 -0.5633 -0.2724
18235THY    HP239452   3.566   7.524   4.603  0.6570  2.3664  0.6696
18235THY    HP339453   3.391   7.484   4.586  0.5552 -1.4267 -0.2014
18235THY    HP439454   3.453   7.632   4.673 -0.8092 -0.0918 -1.0652
18235THY    CP339455   3.316   7.726   4.460  0.5590 -0.0278 -0.2483
18235THY    HP539456   3.321   7.786   4.368 -0.9242  1.0868  1.6760
18235THY    HP639457   3.321   7.786   4.551 -1.3809 -1.3311  2.0690
18235THY    HP739458   3.221   7.672   4.456  0.8772  0.0949 -0.8287
18235THY    CA339459   3.348   7.462   4.313 -0.8811  0.2654 -0.9855
18235THY    HA339460   3.258   7.470   4.372 -1.2266 -0.5524  2.3013
18235THY    CA439461   3.352   7.393   4.196  0.1482 -0.0798 -0.5174
18235THY    HA439462   3.267   7.339   4.157  1.1433 -1.8213 -0.9095
18235THY    CA539463   3.461   7.403   4.102 -0.3648  0.4237  0.2190
18235THY    CM139464   3.453   7.334   3.963 -0.0242 -0.2265 -0.2456
18235THY    HM139465   3.345   7.319   3.951 -0.1126  1.0265 -0.7027
18235THY    HM239466   3.507   7.239   3.968  1.0821  1.3006  0.4318
18235THY    HM339467   3.484   7.405   3.885 -0.8395  0.9909  1.5487
18235THY    CA639468   3.567   7.486   4.135 -0.4304  0.3581 -0.0584
18235THY    HA639469   3.638   7.515   4.058 -2.3334 -1.5361 -0.1576
18236THY      O39470   8.060   8.506   1.724  0.7905 -0.0399 -0.1566
18236THY     HO39471   8.038   8.451   1.647 -0.0098 -0.9571  1.3784
18236THY    CA139472   8.187   8.486   1.736 -0.5872 -0.3200  0.5308
18236THY    CA239473   8.278   8.591   1.766  0.7676  0.3559  0.1223
18236THY    CP139474   8.231   8.738   1.789  0.5629  0.0278 -0.7920
18236THY    HP139475   8.127   8.751   1.758  1.1084 -0.5792  3.9352
18236THY    CP239476   8.316   8.832   1.707  0.3189  0.0203 -0.9037
18236THY    HP239477   8.347   8.784   1.614  0.6753 -0.3961  0.1147
18236THY    HP339478   8.410   8.861   1.756 -0.4406  0.1389  1.5776
18236THY    HP439479   8.263   8.926   1.689  1.5541 -1.0107 -0.3814
18236THY    CP339480   8.252   8.762   1.938 -0.7100 -0.3464 -0.1536
18236THY    HP539481   8.357   8.762   1.969 -0.8868  0.5772  2.9582
18236THY    HP639482   8.220   8.677   1.999 -1.5663  1.7316  1.5845
18236THY    HP739483   8.204   8.850   1.982 -0.1093 -0.6448  0.3281
18236THY    CA339484   8.417   8.556   1.772  0.6575  0.6305 -0.1459
18236THY    HA339485   8.486   8.636   1.795 -0.6881 -0.9963  1.5493
18236THY    CA439486   8.460   8.424   1.753  0.1329  0.3312 -0.0624
18236THY    HA439487   8.565   8.407   1.775  0.2802 -0.3863 -0.1199
18236THY    CA539488   8.366   8.324   1.718 -0.2501  0.2073  0.2145
18236THY    CM139489   8.403   8.173   1.710  0.5065  0.0065 -0.5902
18236THY    HM139490   8.315   8.110   1.694  1.2349 -1.3623 -1.3062
18236THY    HM239491   8.461   8.138   1.795 -0.6799  0.9842 -0.2424
18236THY    HM339492   8.477   8.161   1.630 -0.3946 -1.1366  0.9867
18236THY    CA639493   8.233   8.353   1.717  0.1224  0.1302 -0.9482
18236THY    HA639494   8.161   8.276   1.689 -1.0829  0.5327  0.0027
18237THY      O39495   2.042   3.123   6.816  0.1938  0.4197 -0.2562
18237THY     HO39496   2.124   3.166   6.847 -0.0538  1.2571 -0.3724
18237THY    CA139497   2.077   3.004   6.765  0.1589 -0.3902  0.0403
18237THY    CA239498   2.015   2.879   6.814  0.1022 -0.0776  0.0323
18237THY    CP139499   1.904   2.891   6.917  1.0948 -0.0656 -0.1752
18237THY    HP139500   1.839   2.972   6.884  1.5554  1.0913  0.6894
18237THY    CP239501   1.958   2.929   7.061 -0.1984  0.8765  0.1060
18237THY    HP239502   2.023   2.846   7.090  0.2130 -1.1991 -0.3450
18237THY    HP339503   1.876   2.949   7.131  1.7958  3.0696  1.0725
18237THY    HP439504   2.025   3.016   7.062  0.3452 -0.0700 -0.2836
18237THY    CP339505   1.816   2.765   6.939  0.0965 -0.4731 -0.4049
18237THY    HP539506   1.724   2.798   6.988 -0.4938 -0.1394 -2.4313
18237THY    HP639507   1.865   2.681   6.990  0.4261  1.4632  0.8932
18237THY    HP739508   1.782   2.733   6.840 -1.2477  0.0967 -0.7795
18237THY    CA339509   2.070   2.752   6.778 -0.2290 -0.1019 -0.1399
18237THY    HA339510   2.034   2.654   6.808 -0.0519 -0.0721 -0.1962
18237THY    CA439511   2.172   2.753   6.684 -0.1581  0.2541 -0.4581
18237THY    HA439512   2.216   2.657   6.659  0.9623  0.7389 -0.0940
18237THY    CA539513   2.236   2.873   6.642 -0.2503 -0.0429 -0.4391
18237THY    CM139514   2.350   2.874   6.542 -0.1915 -0.5095  0.6041
18237THY    HM139515   2.437   2.917   6.593 -0.5459  0.7364 -0.1112
18237THY    HM239516   2.323   2.917   6.444  1.3956 -1.1649  0.1630
18237THY    HM339517   2.368   2.773   6.506 -1.3809  0.3856  0.0509
18237THY    CA639518   2.180   2.996   6.677  0.3028 -0.4989  0.2216
18237THY    HA639519   2.217   3.087   6.630  2.2292 -0.0289 -0.2777
18238THY      O39520   2.615   7.482   7.717 -0.2057 -0.3921 -0.3753
18238THY     HO39521   2.604   7.531   7.633 -0.5617  1.2375  2.5962
18238THY    CA139522   2.487   7.454   7.751 -0.7753 -1.0332  0.6184
18238THY    CA239523   2.444   7.383   7.863  1.0706 -0.5286  0.0371
18238THY    CP139524   2.550   7.317   7.953 -0.0459 -0.1447  0.1255
18238THY    HP139525   2.653   7.343   7.928  0.1214  2.6460  2.7606
18238THY    CP239526   2.542   7.163   7.946  0.1687  0.1065 -0.1758
18238THY    HP239527   2.588   7.132   7.852 -2.4480 -1.6372  0.8669
18238THY    HP339528   2.442   7.119   7.934  0.6983  0.2341 -1.4531
18238THY    HP439529   2.591   7.105   8.025  1.4775 -1.7124 -1.6523
18238THY    CP339530   2.531   7.357   8.101 -0.2901  0.1441  0.3499
18238THY    HP539531   2.481   7.452   8.118 -1.0493 -0.9288  0.1728
18238THY    HP639532   2.626   7.335   8.151 -0.1926 -0.0440  0.3341
18238THY    HP739533   2.460   7.284   8.142  0.4584  0.0343 -0.4641
18238THY    CA339534   2.309   7.375   7.891 -0.1438 -0.0742  0.9966
18238THY    HA339535   2.272   7.324   7.980  1.9222  1.2421  1.6798
18238THY    CA439536   2.216   7.416   7.790 -0.0522 -0.1306 -0.2425
18238THY    HA439537   2.109   7.398   7.800 -0.1122  1.1829  0.6678
18238THY    CA539538   2.261   7.480   7.679 -0.1480  0.3587 -0.1694
18238THY    CM139539   2.162   7.526   7.571 -0.9194  0.6201 -0.2265
18238THY    HM139540   2.161   7.450   7.492  2.9546 -1.6243  1.6977
18238THY    HM239541   2.191   7.618   7.518 -1.2531  0.2104 -0.3511
18238THY    HM339542   2.065   7.551   7.616 -0.6404  0.6186  0.9413
18238THY    CA639543   2.395   7.496   7.658 -0.2418  0.3903 -0.7495
18238THY    HA639544   2.420   7.549   7.566  0.1359  0.7970 -0.2067
18239THY      O39545   5.861   2.776   2.867  0.5251  0.1540  0.2135
18239THY     HO39546   5.778   2.816   2.899  0.4496  0.7770 -0.4218
18239THY    CA139547   5.932   2.883   2.829  0.2641  0.7301 -0.2403
18239THY    CA239548   6.065   2.871   2.774  0.9844 -0.0590  0.0649
18239THY    CP139549   6.125   2.733   2.741  0.7037  0.1625  0.5618
18239THY    HP139550   6.078   2.668   2.816  0.2425  1.0819  1.9269
18239THY    CP239551   6.270   2.706   2.750  1.0182  0.0517  0.0112
18239THY    HP239552   6.290   2.598   2.748  0.1699 -0.4524 -0.1441
18239THY    HP339553   6.300   2.744   2.848 -2.8474  1.7648 -0.7995
18239THY    HP439554   6.327   2.747   2.666  1.1211  0.0811 -0.0721
18239THY    CP339555   6.083   2.686   2.600  0.5013  0.3111  0.1892
18239THY    HP539556   6.111   2.745   2.512  0.8682 -0.1336 -0.6352
18239THY    HP639557   5.975   2.667   2.602  0.0095 -0.6605  2.5704
18239THY    HP739558   6.122   2.587   2.575  0.1971  1.8591 -0.3502
18239THY    CA339559   6.136   2.989   2.740 -0.3561 -0.2603  0.1010
18239THY    HA339560   6.231   2.986   2.688 -0.1177  0.1964 -0.8139
18239THY    CA439561   6.071   3.111   2.753  0.1676  0.2805 -0.3830
18239THY    HA439562   6.124   3.206   2.746 -3.1751  2.0164  1.8294
18239THY    CA539563   5.930   3.121   2.786 -0.4911 -0.2166 -0.4761
18239THY    CM139564   5.870   3.252   2.807 -0.2230 -0.0127 -0.5863
18239THY    HM139565   5.760   3.245   2.799 -0.3241  2.2786 -3.3032
18239THY    HM239566   5.908   3.315   2.726  0.8537  1.9809  1.4597
18239THY    HM339567   5.897   3.292   2.905 -0.8048 -0.2634  0.4585
18239THY    CA639568   5.867   3.008   2.838 -0.1787  0.5169  0.3001
18239THY    HA639569   5.762   3.004   2.866 -1.8134 -4.7267 -0.3914
18240THY      O39570   2.537   1.092   6.956  0.1787 -0.2421 -0.2748
18240THY     HO39571   2.628   1.083   6.925 -0.1510 -1.2143 -0.3736
18240THY    CA139572   2.493   0.967   6.963  0.4243  0.3416  0.9611
18240THY    CA239573   2.358   0.946   6.983  0.1503  0.2009 -0.1625
18240THY    CP139574   2.267   1.062   6.949 -0.8271 -0.3551  0.1083
18240THY    HP139575   2.297   1.111   6.855  1.8304  1.4593  2.2607
18240THY    CP239576   2.261   1.168   7.068  0.3172 -0.5307 -0.7161
18240THY    HP239577   2.343   1.182   7.139 -1.5600  1.3342  1.8875
18240THY    HP339578   2.175   1.143   7.132  0.9878  0.8419  0.3588
18240THY    HP439579   2.224   1.261   7.023  0.0026 -2.2028 -1.6053
18240THY    CP339580   2.125   1.015   6.910  0.3107 -0.4309  0.7765
18240THY    HP539581   2.076   0.974   7.000 -0.8180 -1.5189 -0.3311
18240THY    HP639582   2.132   0.931   6.841  0.6596  1.0656 -0.4811
18240THY    HP739583   2.062   1.100   6.881  2.7395 -0.2996  2.7387
18240THY    CA339584   2.314   0.818   7.016  0.1080 -1.0547  0.2627
18240THY    HA339585   2.208   0.799   7.032  0.2390 -0.8931 -0.3512
18240THY    CA439586   2.403   0.709   7.034  0.2224  0.2575 -0.4873
18240THY    HA439587   2.367   0.607   7.040 -0.3445 -1.1076 -0.3810
18240THY    CA539588   2.540   0.736   7.023  0.0189  0.5080  0.6577
18240THY    CM139589   2.631   0.620   7.029  0.8555 -0.2723 -0.3913
18240THY    HM139590   2.588   0.520   7.012  0.3540  1.4074 -0.4786
18240THY    HM239591   2.676   0.606   7.127  0.4118 -0.1400 -0.9354
18240THY    HM339592   2.707   0.626   6.950 -0.2535 -1.3346 -0.0057
18240THY    CA639593   2.585   0.866   6.994  0.1459 -0.2833 -0.0176
18240THY    HA639594   2.692   0.865   6.977  0.1412 -0.3588 -1.3876
18241THY      O39595   3.032   5.284   3.962  0.4791  0.8385  0.1541
18241THY     HO39596   3.083   5.350   3.911  0.4546  0.5280 -0.0638
18241THY    CA139597   2.944   5.347   4.046  0.2237 -0.6049  0.1704
18241THY    CA239598   2.877   5.287   4.156 -0.1261 -0.1172  0.5044
18241THY    CP139599   2.909   5.142   4.186 -0.0725 -0.0215 -0.1057
18241THY    HP139600   2.921   5.083   4.095  2.9975 -0.2524  0.7248
18241THY    CP239601   2.804   5.071   4.272  0.2572 -0.2182  0.3894
18241THY    HP239602   2.702   5.073   4.232 -1.0219  2.7689  1.7223
18241THY    HP339603   2.806   5.111   4.374 -1.7142 -0.4433  1.1638
18241THY    HP439604   2.829   4.966   4.291  0.2967  0.3136  0.4883
18241THY    CP339605   3.049   5.119   4.260 -0.1916  0.0552  0.0742
18241THY    HP539606   3.050   5.176   4.354  1.6038  1.6695 -2.4479
18241THY    HP639607   3.132   5.142   4.193  0.6478  1.1503  0.3110
18241THY    HP739608   3.053   5.013   4.287 -0.7973 -0.1467 -0.0040
18241THY    CA339609   2.791   5.364   4.233  0.1870  0.2220  0.0832
18241THY    HA339610   2.740   5.322   4.319  2.7508  2.5351  1.4163
18241THY    CA439611   2.767   5.495   4.200  0.3257  0.6493 -0.0804
18241THY    HA439612   2.696   5.556   4.255  0.3060  0.0393  0.4523
18241THY    CA539613   2.833   5.561   4.097  0.3672  0.2627  0.2764
18241THY    CM139614   2.819   5.709   4.068  0.3220 -0.0245 -0.3180
18241THY    HM139615   2.801   5.784   4.146 -0.2064 -1.5909  1.2698
18241THY    HM239616   2.744   5.726   3.990  1.5221 -0.8103  1.7682
18241THY    HM339617   2.910   5.742   4.016  0.4370 -0.3127 -1.0635
18241THY    CA639618   2.918   5.482   4.024 -0.0415 -0.1946  0.2078
18241THY    HA639619   2.965   5.528   3.937 -0.1480  1.1078  3.0035
18242THY      O39620   8.040   1.410   7.213  0.6521  0.2951  0.3175
18242THY     HO39621   7.995   1.475   7.270 -2.9774 -1.5012 -0.3321
18242THY    CA139622   7.954   1.310   7.225 -0.5485  0.2220 -0.1644
18242THY    CA239623   7.952   1.201   7.142 -0.5987  0.3346  0.1187
18242THY    CP139624   8.053   1.164   7.039 -0.0825 -0.1670 -0.1896
18242THY    HP139625   8.113   1.255   7.029  0.1597  0.8893 -0.2276
18242THY    CP239626   7.991   1.133   6.901  0.7975 -0.1780 -0.3843
18242THY    HP239627   7.914   1.054   6.902 -0.5663 -0.3499  0.8986
18242THY    HP339628   8.073   1.100   6.836  1.1196  0.5798 -1.1050
18242THY    HP439629   7.944   1.226   6.867  1.5285  0.4941  0.2360
18242THY    CP339630   8.157   1.050   7.080  0.5922  0.3141 -0.0325
18242THY    HP539631   8.155   1.019   7.185 -0.7359  0.7060  1.2307
18242THY    HP639632   8.251   1.065   7.026 -0.0834 -0.4829  1.6084
18242THY    HP739633   8.119   0.958   7.036 -0.8380 -0.1161  0.7334
18242THY    CA339634   7.856   1.099   7.161  0.0400  0.5933  0.1617
18242THY    HA339635   7.846   1.006   7.106 -1.4267 -0.2224  0.7812
18242THY    CA439636   7.768   1.114   7.267 -0.2243  0.0707  0.3515
18242THY    HA439637   7.695   1.036   7.287 -0.9270  0.1756  1.0211
18242THY    CA539638   7.765   1.225   7.350  0.0871  0.0314 -0.4531
18242THY    CM139639   7.670   1.247   7.460 -0.0657  0.1508 -0.0153
18242THY    HM139640   7.621   1.152   7.482 -2.3537  0.7176  1.2309
18242THY    HM239641   7.604   1.327   7.425  1.5881 -0.6690  1.0389
18242THY    HM339642   7.718   1.287   7.551 -0.9865 -0.2053  2.0312
18242THY    CA639643   7.865   1.324   7.331 -0.0666  0.1325 -0.7209
18242THY    HA639644   7.848   1.416   7.386 -1.5477  2.2281 -2.1535
18243THY      O39645   7.975   2.443   6.806  0.5663 -0.2837  0.1523
18243THY     HO39646   8.017   2.462   6.720 -1.5881 -1.5361 -0.4838
18243THY    CA139647   7.868   2.362   6.769  0.3497 -0.0779 -0.4278
18243THY    CA239648   7.744   2.379   6.830 -0.5454  0.9295  0.2916
18243THY    CP139649   7.721   2.491   6.929 -0.2668  0.1282 -0.4347
18243THY    HP139650   7.798   2.566   6.909 -0.9033  3.0722  1.1047
18243THY    CP239651   7.716   2.457   7.078 -0.5111 -0.6483 -0.2110
18243THY    HP239652   7.617   2.438   7.122  0.0664  0.6212 -0.3636
18243THY    HP339653   7.756   2.547   7.127 -1.0964 -1.7387  0.6586
18243THY    HP439654   7.794   2.390   7.117  1.1314  1.6117  2.7448
18243THY    CP339655   7.588   2.571   6.907  0.0936 -0.9137 -0.0516
18243THY    HP539656   7.577   2.653   6.979  2.1685 -0.5801 -0.0059
18243THY    HP639657   7.510   2.494   6.910 -1.0446  0.0184  1.0975
18243THY    HP739658   7.578   2.610   6.806 -1.2172 -2.1162 -3.1432
18243THY    CA339659   7.649   2.274   6.803 -0.4881 -0.5017 -0.3034
18243THY    HA339660   7.557   2.257   6.858 -1.4763 -2.5717 -2.0775
18243THY    CA439661   7.676   2.165   6.714 -0.0212  0.3303  0.9310
18243THY    HA439662   7.601   2.087   6.705 -0.1603  0.2370  1.0745
18243THY    CA539663   7.804   2.155   6.661 -0.0005 -0.1985 -0.1244
18243THY    CM139664   7.856   2.023   6.599 -0.6468  0.0299  0.2315
18243THY    HM139665   7.845   1.943   6.673 -0.9670  0.1703  0.4023
18243THY    HM239666   7.958   2.032   6.559 -1.6632 -2.6830  0.5841
18243THY    HM339667   7.804   2.008   6.504 -1.8264  0.4377  1.5823
18243THY    CA639668   7.898   2.254   6.689  0.6440  0.0643  0.3687
18243THY    HA639669   8.002   2.241   6.661  1.3020  2.0071  1.0242
18244THY      O39670   4.495   1.380   4.734 -0.5939 -0.2323  0.3416
18244THY     HO39671   4.581   1.348   4.765  0.2935 -1.2718  1.6036
18244THY    CA139672   4.468   1.497   4.795  0.2554 -0.2491 -0.1659
18244THY    CA239673   4.359   1.579   4.750  0.5734  0.5551 -0.5917
18244THY    CP139674   4.285   1.553   4.622  0.4259  0.0342 -0.1215
18244THY    HP139675   4.321   1.459   4.579 -0.5074  2.2690 -1.5866
18244THY    CP239676   4.312   1.665   4.521 -0.2803  0.2074  1.1932
18244THY    HP239677   4.265   1.757   4.558  0.2420  1.4356  0.9834
18244THY    HP339678   4.275   1.619   4.428 -1.9198  1.3092  0.1679
18244THY    HP439679   4.415   1.702   4.520  0.1001  2.4212  0.3317
18244THY    CP339680   4.134   1.541   4.651  0.2801 -0.1232  0.0445
18244THY    HP539681   4.131   1.465   4.730 -1.1839  1.5611  1.7439
18244THY    HP639682   4.082   1.510   4.560  0.6752 -1.0819  2.0504
18244THY    HP739683   4.089   1.634   4.688 -0.2855 -0.2019 -0.1965
18244THY    CA339684   4.335   1.700   4.818  0.4145  0.2578 -0.3074
18244THY    HA339685   4.268   1.778   4.781  1.8237  0.2508  0.9475
18244THY    CA439686   4.406   1.728   4.936 -0.7156  0.3331  0.8286
18244THY    HA439687   4.379   1.816   4.995  0.2882  1.1320  0.6307
18244THY    CA539688   4.497   1.635   4.990  0.7171 -0.4118 -0.5307
18244THY    CM139689   4.568   1.670   5.120 -0.7250 -0.5707 -0.1754
18244THY    HM139690   4.660   1.719   5.085 -1.2800 -1.6268  0.1334
18244THY    HM239691   4.600   1.581   5.176 -3.0744  1.5856  0.2306
18244THY    HM339692   4.510   1.740   5.182  0.3332 -0.2521  0.4462
18244THY    CA639693   4.539   1.524   4.910  0.1627  0.0731 -0.5499
18244THY    HA639694   4.604   1.446   4.949 -0.3570 -1.0562 -1.5724
18245THY      O39695   3.026   7.256   1.964  0.3797 -0.1110  0.1204
18245THY     HO39696   2.948   7.265   2.021  0.6110  0.2270  0.0064
18245THY    CA139697   3.050   7.384   1.919  0.0184  0.2107  0.4763
18245THY    CA239698   3.161   7.417   1.843 -0.5116 -0.2667 -0.0515
18245THY    CP139699   3.261   7.308   1.811  0.2558 -0.3485 -0.2114
18245THY    HP139700   3.200   7.219   1.793 -0.5883  2.3634 -0.2641
18245THY    CP239701   3.358   7.292   1.935 -0.7255 -0.2554  0.0893
18245THY    HP239702   3.433   7.220   1.900 -0.5204  0.8681 -0.2462
18245THY    HP339703   3.306   7.253   2.023 -0.5266 -0.7613 -1.3621
18245THY    HP439704   3.400   7.389   1.964  2.9782  0.2560 -1.5239
18245THY    CP339705   3.340   7.334   1.681 -0.0691 -0.2484 -1.2346
18245THY    HP539706   3.281   7.390   1.608  2.1354 -1.1880  0.0010
18245THY    HP639707   3.367   7.236   1.638 -2.4714 -1.2131 -1.5370
18245THY    HP739708   3.422   7.403   1.703 -1.6455 -0.9423  0.9504
18245THY    CA339709   3.185   7.550   1.816  0.7224  0.7569 -0.1319
18245THY    HA339710   3.282   7.582   1.779  0.2576 -0.7309 -0.3303
18245THY    CA439711   3.096   7.645   1.863  0.1968 -0.3834 -0.2991
18245THY    HA439712   3.115   7.750   1.844 -1.6959  1.5586  0.4674
18245THY    CA539713   2.973   7.607   1.921 -0.9893 -0.3161  0.0675
18245THY    CM139714   2.868   7.715   1.938 -0.0944 -0.3057  0.6196
18245THY    HM139715   2.828   7.745   1.840 -1.3611  0.4426  1.4996
18245THY    HM239716   2.897   7.806   1.991  1.0145 -2.3021  1.4906
18245THY    HM339717   2.784   7.666   1.988 -0.0189  0.2227  1.0204
18245THY    CA639718   2.955   7.475   1.950 -0.0769 -0.0084  0.2576
18245THY    HA639719   2.859   7.438   1.984 -0.5020 -1.9510 -0.5407
18246THY      O39720   9.215   2.657   2.467 -0.0992  0.1042 -0.2509
18246THY     HO39721   9.213   2.667   2.370  1.0255  0.1227  0.3440
18246THY    CA139722   9.286   2.543   2.490 -0.1670  0.0635 -0.3484
18246THY    CA239723   9.346   2.513   2.613  0.3875 -0.3581 -0.3809
18246THY    CP139724   9.347   2.610   2.729  0.3056 -0.4685 -0.0184
18246THY    HP139725   9.303   2.702   2.689  1.8816 -1.7953  0.2233
18246THY    CP239726   9.489   2.663   2.767 -0.1315  1.0830 -0.4708
18246THY    HP239727   9.505   2.748   2.700 -4.1128  0.6451  0.0967
18246THY    HP339728   9.574   2.596   2.749  0.5154  1.4137  0.2365
18246THY    HP439729   9.493   2.704   2.869  0.5067  0.3755  1.3265
18246THY    CP339730   9.281   2.557   2.849 -0.1799 -0.3905 -0.7271
18246THY    HP539731   9.323   2.466   2.894 -0.6046  3.7592  0.9114
18246THY    HP639732   9.178   2.528   2.827 -0.4672  1.2254 -1.0473
18246THY    HP739733   9.281   2.626   2.935 -0.1710 -0.0492 -1.1450
18246THY    CA339734   9.416   2.388   2.621 -0.8073  0.5876 -1.0307
18246THY    HA339735   9.467   2.352   2.710  0.4006 -0.3384 -1.6757
18246THY    CA439736   9.421   2.301   2.511 -0.7586 -0.0580  0.2025
18246THY    HA439737   9.488   2.215   2.516 -1.1572  0.3348 -0.0879
18246THY    CA539738   9.371   2.337   2.383  0.1723 -0.4348  0.0528
18246THY    CM139739   9.385   2.246   2.274  0.1124 -0.2045  0.1726
18246THY    HM139740   9.314   2.164   2.289  1.4323  3.2327 -0.4955
18246THY    HM239741   9.490   2.219   2.265  1.1811  0.6568  3.5002
18246THY    HM339742   9.355   2.302   2.184  1.0829  0.1916  1.3632
18246THY    CA639743   9.309   2.457   2.375 -0.3089 -0.2072  0.2354
18246THY    HA639744   9.271   2.488   2.279 -0.0755 -0.3192  0.1744
18247THY      O39745   4.594   8.943   6.822 -0.0421  0.4801 -0.3024
18247THY     HO39746   4.628   8.914   6.736 -0.5673  0.1689 -0.0016
18247THY    CA139747   4.703   8.947   6.911  0.1959  0.1027 -0.0816
18247THY    CA239748   4.681   8.959   7.056  0.4255  0.3318 -0.6194
18247THY    CP139749   4.547   8.978   7.112  0.0037 -0.3175 -0.8155
18247THY    HP139750   4.471   8.970   7.033  0.2509 -0.4133 -2.6574
18247THY    CP239751   4.529   9.123   7.168  1.1459  0.1128 -1.0707
18247THY    HP239752   4.423   9.148   7.173  1.0313 -1.5863 -1.0560
18247THY    HP339753   4.588   9.193   7.107 -0.8837 -0.1870  0.4480
18247THY    HP439754   4.558   9.129   7.273  0.8742  0.2384 -1.8543
18247THY    CP339755   4.503   8.874   7.222  0.3736  0.1345  0.2362
18247THY    HP539756   4.515   8.771   7.186 -2.0363 -0.6161  0.1435
18247THY    HP639757   4.410   8.888   7.279 -0.5314 -0.4740 -2.6054
18247THY    HP739758   4.569   8.875   7.309  0.1774  0.3652 -1.7705
18247THY    CA339759   4.799   8.969   7.136 -0.6035  0.2723 -0.5666
18247THY    HA339760   4.793   8.978   7.244  0.8009  0.4317 -1.2859
18247THY    CA439761   4.925   8.966   7.077  0.5882  0.2205  0.2608
18247THY    HA439762   5.013   8.966   7.140 -0.2947  1.7209 -3.2561
18247THY    CA539763   4.944   8.940   6.942 -0.3911 -0.7302  0.4904
18247THY    CM139764   5.077   8.935   6.888 -0.2392  0.6783 -0.3036
18247THY    HM139765   5.086   9.029   6.832 -0.9899  0.1560 -0.5294
18247THY    HM239766   5.098   8.851   6.822  0.3363  0.8539 -0.2990
18247THY    HM339767   5.154   8.930   6.966 -2.0352  2.5827  0.0860
18247THY    CA639768   4.834   8.934   6.856 -0.1513 -0.3265 -0.2161
18247THY    HA639769   4.847   8.922   6.749 -0.4057 -0.6439  1.9545
18248THY      O39770   6.026   1.963   4.019  0.1743 -0.2971  0.0971
18248THY     HO39771   5.944   1.973   3.968  0.5282 -1.2326 -1.3300
18248THY    CA139772   6.050   1.829   4.023  0.1743 -0.0494 -1.1008
18248THY    CA239773   6.137   1.767   4.103 -0.3848  0.0668 -0.1864
18248THY    CP139774   6.212   1.854   4.203 -0.3680  0.0459 -0.5721
18248THY    HP139775   6.203   1.962   4.191 -0.6050  0.2589 -0.5663
18248THY    CP239776   6.365   1.814   4.206 -0.1394  0.4715 -0.4088
18248THY    HP239777   6.374   1.712   4.243 -2.3996 -2.0354 -1.6495
18248THY    HP339778   6.421   1.870   4.281  0.1859  2.1559 -2.8489
18248THY    HP439779   6.416   1.812   4.109 -0.2435  0.4306 -1.5563
18248THY    CP339780   6.144   1.832   4.336  0.0859  0.1670 -0.2241
18248THY    HP539781   6.187   1.897   4.413 -0.4263 -0.2586  0.6399
18248THY    HP639782   6.155   1.727   4.366 -0.4263  0.6950 -0.1333
18248THY    HP739783   6.038   1.859   4.327  0.8264  0.0653  3.0427
18248THY    CA339784   6.142   1.628   4.101 -0.7668  0.6123  0.4936
18248THY    HA339785   6.210   1.576   4.167  1.6786 -2.7543 -0.9923
18248THY    CA439786   6.072   1.548   4.009 -0.4987  0.0160 -0.2547
18248THY    HA439787   6.073   1.440   4.023  2.9310  0.7861 -0.2596
18248THY    CA539788   5.982   1.621   3.927 -0.7285  0.4927  0.4932
18248THY    CM139789   5.894   1.553   3.833  0.1135  0.2613  0.0762
18248THY    HM139790   5.899   1.580   3.727 -0.1955 -0.6045 -2.9939
18248THY    HM239791   5.792   1.585   3.856 -0.1178 -0.2556 -0.2874
18248THY    HM339792   5.907   1.445   3.823 -0.9204  2.3996 -0.3082
18248THY    CA639793   5.974   1.761   3.937  0.6761  0.5391  0.2419
18248THY    HA639794   5.897   1.808   3.877  0.2726  0.3320 -0.6738
18249THY      O39795   2.674   5.766   3.112 -0.2399 -0.7079 -0.4623
18249THY     HO39796   2.637   5.848   3.151 -4.0411  1.2623 -2.8347
18249THY    CA139797   2.804   5.799   3.089 -0.0798 -0.3877  0.2059
18249THY    CA239798   2.890   5.728   2.996 -0.0035  0.2256 -0.0278
18249THY    CP139799   2.818   5.614   2.924  0.0206  0.0432  0.0295
18249THY    HP139800   2.711   5.634   2.918  0.1689 -0.1084  0.8450
18249THY    CP239801   2.826   5.482   3.004  0.3642 -0.6079  0.4895
18249THY    HP239802   2.762   5.497   3.091 -0.7034 -1.5121  1.3613
18249THY    HP339803   2.924   5.446   3.038  0.2999  2.6061  2.8676
18249THY    HP439804   2.791   5.403   2.937 -0.9487  0.3898  0.1955
18249THY    CP339805   2.867   5.586   2.778  0.2104  0.1487 -0.2144
18249THY    HP539806   2.965   5.536   2.779 -0.4982  0.4869 -1.6453
18249THY    HP639807   2.870   5.676   2.716 -0.6342  0.2209 -0.1342
18249THY    HP739808   2.802   5.514   2.728 -0.6848  0.2355  0.5261
18249THY    CA339809   3.025   5.766   2.970  0.2799 -0.4568  0.1623
18249THY    HA339810   3.079   5.717   2.890  0.1396 -0.8475  0.6386
18249THY    CA439811   3.078   5.872   3.044  0.6592  0.4816 -0.7725
18249THY    HA439812   3.179   5.909   3.026  0.6844 -0.8370 -1.4674
18249THY    CA539813   2.990   5.949   3.129 -0.0965  0.1680 -0.5009
18249THY    CM139814   3.028   6.069   3.201  0.0590 -0.1163 -0.0462
18249THY    HM139815   3.002   6.163   3.152  0.3720  0.7319  0.4892
18249THY    HM239816   3.137   6.080   3.213  0.1889 -1.6281  0.5778
18249THY    HM339817   2.988   6.073   3.303 -1.5705 -0.6805 -0.8645
18249THY    CA639818   2.856   5.915   3.143 -0.5885  0.2550 -0.4224
18249THY    HA639819   2.797   5.979   3.209 -1.8321 -0.5724 -0.6901
18250THY      O39820   7.057   8.997   4.785  0.0297  0.0708 -0.3828
18250THY     HO39821   7.129   9.023   4.725 -0.7737 -1.1867 -0.9944
18250THY    CA139822   7.024   9.112   4.854  0.1533  0.7553 -0.0024
18250THY    CA239823   6.945   9.118   4.970  0.8010  0.2070  0.5671
18250THY    CP139824   6.888   8.984   5.034 -0.2755  0.1550  0.3465
18250THY    HP139825   6.933   8.896   4.986 -2.0607  2.1759 -1.8167
18250THY    CP239826   6.738   8.978   5.008  0.7009  0.3152  0.0262
18250THY    HP239827   6.684   8.925   5.088  0.4948  0.5549  0.5872
18250THY    HP339828   6.711   8.951   4.905 -0.9826  0.3210  1.4594
18250THY    HP439829   6.705   9.079   5.032  0.5425 -0.1637  0.0897
18250THY    CP339830   6.910   8.981   5.185 -0.5668 -0.0495  1.1293
18250THY    HP539831   7.019   8.987   5.193 -0.5916 -0.4574  2.2889
18250THY    HP639832   6.884   8.882   5.224  2.6569 -1.2800 -0.3322
18250THY    HP739833   6.856   9.056   5.242 -0.6989  0.8433  0.3742
18250THY    CA339834   6.932   9.239   5.038 -0.3072 -0.1155  0.0371
18250THY    HA339835   6.869   9.246   5.126 -1.6569 -0.4496 -4.6238
18250THY    CA439836   6.984   9.359   4.978 -0.2912  0.4226  0.4759
18250THY    HA439837   6.967   9.458   5.020  1.0622  0.1287  0.8447
18250THY    CA539838   7.056   9.349   4.864 -0.7699 -0.2294 -0.3737
18250THY    CM139839   7.099   9.485   4.799 -0.9430 -0.3212  0.1304
18250THY    HM139840   7.141   9.460   4.701 -0.5689  0.3989 -2.3313
18250THY    HM239841   7.175   9.529   4.865  2.7346 -2.0273 -3.0792
18250THY    HM339842   7.016   9.556   4.807 -0.9298  0.0686  0.1062
18250THY    CA639843   7.081   9.224   4.806  0.0459 -0.4818 -0.2453
18250THY    HA639844   7.132   9.221   4.710  0.1894 -0.4028 -0.3447
18251THY      O39845   7.223   6.941   2.396 -0.0754  0.3988  0.4652
18251THY     HO39846   7.222   6.851   2.360 -2.5127  1.7269 -0.0996
18251THY    CA139847   7.148   7.001   2.296 -0.0080 -0.0449  0.6845
18251THY    CA239848   7.141   7.140   2.290  0.1682 -0.4738 -0.0683
18251THY    CP139849   7.205   7.227   2.401 -0.2346  0.3077 -0.0078
18251THY    HP139850   7.267   7.164   2.465  0.9965 -2.2578 -1.5940
18251THY    CP239851   7.103   7.293   2.498  0.0509 -0.1478  0.1310
18251THY    HP239852   7.022   7.226   2.530  0.6328  0.6847 -0.1984
18251THY    HP339853   7.064   7.388   2.460 -0.2249 -0.7490 -0.2175
18251THY    HP439854   7.148   7.318   2.595  1.7097 -0.8050 -0.2309
18251THY    CP339855   7.296   7.332   2.344 -0.6662 -0.0323  0.2802
18251THY    HP539856   7.371   7.371   2.415  1.6762 -2.3079  0.1994
18251THY    HP639857   7.252   7.413   2.285  2.7768 -1.1826  1.5091
18251THY    HP739858   7.357   7.288   2.265 -1.2095  0.2165 -0.9654
18251THY    CA339859   7.059   7.199   2.189 -0.6284 -0.2550  0.4303
18251THY    HA339860   7.048   7.307   2.193 -2.1875 -1.3537  0.3447
18251THY    CA439861   6.976   7.120   2.108 -0.5259 -0.1951  0.6257
18251THY    HA439862   6.908   7.172   2.042  0.9394 -1.0305  1.5640
18251THY    CA539863   6.993   6.975   2.109  0.3300  0.3037  0.4274
18251THY    CM139864   6.912   6.882   2.023 -0.8923 -0.3540 -0.1913
18251THY    HM139865   6.826   6.927   1.973 -0.0993 -0.6446  1.0561
18251THY    HM239866   6.863   6.804   2.081  0.5143  0.5644 -0.4348
18251THY    HM339867   6.978   6.829   1.953 -2.0704 -0.5296 -1.4849
18251THY    CA639868   7.076   6.919   2.209 -0.4691 -0.9130  0.3648
18251THY    HA639869   7.073   6.812   2.223  1.9707 -0.8933  0.2556
18252THY      O39870   7.860   6.595   4.738 -0.3855 -0.6904  0.6998
18252THY     HO39871   7.796   6.668   4.746 -2.2587 -1.3238 -0.8065
18252THY    CA139872   7.961   6.658   4.680  0.1927  0.0832 -0.3959
18252THY    CA239873   8.089   6.601   4.667  0.3134 -0.0793  0.0271
18252THY    CP139874   8.122   6.470   4.744 -0.8943 -0.3467  0.2545
18252THY    HP139875   8.052   6.446   4.825 -1.8644 -1.1966  0.1112
18252THY    CP239876   8.255   6.491   4.827 -1.0428  0.0383 -0.5054
18252THY    HP239877   8.290   6.594   4.819 -2.9332  0.9488  0.2457
18252THY    HP339878   8.339   6.425   4.802 -1.0584  1.4193 -1.0885
18252THY    HP439879   8.240   6.482   4.935  0.2639  0.1541 -1.7511
18252THY    CP339880   8.124   6.336   4.661  0.3230  0.2381 -0.3792
18252THY    HP539881   8.189   6.345   4.573  1.5741  1.1277 -0.5313
18252THY    HP639882   8.023   6.324   4.620  0.9808 -1.3120 -0.8924
18252THY    HP739883   8.150   6.249   4.723 -1.8028  0.6526 -0.7689
18252THY    CA339884   8.176   6.666   4.581 -0.0712  0.1824  0.1854
18252THY    HA339885   8.279   6.633   4.577 -0.1410  0.0258 -0.0159
18252THY    CA439886   8.143   6.793   4.525  0.3240  0.5305  0.3491
18252THY    HA439887   8.205   6.842   4.450  1.0822 -0.6179 -2.2315
18252THY    CA539888   8.018   6.848   4.542  0.5070 -0.9157 -0.5009
18252THY    CM139889   7.990   6.983   4.481 -0.0134  0.5881 -0.0426
18252THY    HM139890   7.932   7.040   4.555  0.3163  0.1752  0.8344
18252THY    HM239891   7.942   6.969   4.384 -0.3461  0.8211 -0.5847
18252THY    HM339892   8.088   7.032   4.472 -0.7964  0.1047  1.4858
18252THY    CA639893   7.929   6.782   4.618 -0.0410 -0.4684  0.1145
18252THY    HA639894   7.826   6.816   4.621 -0.2604 -0.7095 -0.5080
18253THY      O39895   4.749   0.696   7.093  0.1324 -0.1940 -0.1487
18253THY     HO39896   4.795   0.656   7.169  1.3387 -1.6503 -1.7145
18253THY    CA139897   4.640   0.623   7.068  0.5681 -0.4027  0.9101
18253THY    CA239898   4.550   0.664   6.968 -0.2625 -0.0326  0.5599
18253THY    CP139899   4.564   0.805   6.908 -0.6594  0.2174  0.3089
18253THY    HP139900   4.643   0.861   6.959 -0.3012 -0.4513  0.4176
18253THY    CP239901   4.444   0.891   6.912 -0.0290 -0.4219 -0.1886
18253THY    HP239902   4.430   0.928   7.015  0.9529 -0.8496  1.4769
18253THY    HP339903   4.351   0.843   6.880 -0.3185 -0.2830  0.2697
18253THY    HP439904   4.453   0.981   6.850  1.9586 -0.8126 -0.6142
18253THY    CP339905   4.611   0.787   6.760  0.0820 -0.1879  0.4772
18253THY    HP539906   4.533   0.734   6.704 -1.4935 -0.3243  2.7858
18253THY    HP639907   4.701   0.725   6.771 -0.9760 -1.0945 -1.2829
18253THY    HP739908   4.632   0.882   6.708 -0.3370 -0.7961  0.2459
18253THY    CA339909   4.448   0.573   6.916 -0.4750 -0.2972 -0.1823
18253THY    HA339910   4.378   0.597   6.837 -0.2029 -0.3971  0.2994
18253THY    CA439911   4.447   0.450   6.972  0.0426  0.3307  0.0459
18253THY    HA439912   4.383   0.373   6.931  0.5037 -0.7159  0.1987
18253THY    CA539913   4.528   0.415   7.086  0.6098 -0.1378  0.0151
18253THY    CM139914   4.524   0.279   7.142  0.5930  0.6965  0.2963
18253THY    HM139915   4.482   0.211   7.067  0.6033 -0.1186  1.1726
18253THY    HM239916   4.475   0.275   7.240  0.7362  0.7851  0.7325
18253THY    HM339917   4.626   0.244   7.162  0.6726  0.6304  0.4949
18253THY    CA639918   4.618   0.504   7.141 -0.6295  0.1090  0.7398
18253THY    HA639919   4.679   0.471   7.225 -2.2500  1.1301  0.2354
18254THY      O39920   4.059   7.229   1.923  0.0917 -1.0043  0.7720
18254THY     HO39921   4.069   7.231   1.826 -0.7005 -1.0843  1.2642
18254THY    CA139922   3.946   7.159   1.946  0.8097  0.1898 -0.4222
18254THY    CA239923   3.882   7.168   2.069 -0.0036 -0.2748 -0.4532
18254THY    CP139924   3.945   7.240   2.188 -0.4597 -0.0329 -0.1835
18254THY    HP139925   3.990   7.329   2.143 -0.6240 -0.7699 -0.4615
18254THY    CP239926   4.054   7.165   2.253 -1.0283 -0.0025  0.2647
18254THY    HP239927   4.027   7.063   2.280 -1.2262  2.1064  0.8196
18254THY    HP339928   4.102   7.215   2.338  0.9564 -1.3758  0.8694
18254THY    HP439929   4.131   7.153   2.176 -0.9346 -0.0286  0.9486
18254THY    CP339930   3.848   7.292   2.292 -0.4561  0.1280 -0.0951
18254THY    HP539931   3.795   7.217   2.352 -1.3213 -0.0885  0.3411
18254THY    HP639932   3.772   7.350   2.239  1.2116 -1.8710  0.3840
18254THY    HP739933   3.908   7.354   2.360 -1.6969  1.0160  0.1561
18254THY    CA339934   3.763   7.091   2.083  0.0187 -0.0143  0.2847
18254THY    HA339935   3.712   7.091   2.179 -1.3160 -0.6796 -0.8127
18254THY    CA439936   3.726   7.002   1.981  0.1560  0.4945 -0.0947
18254THY    HA439937   3.646   6.929   1.989  2.0702  1.1122 -2.2491
18254THY    CA539938   3.788   6.992   1.856  0.5716 -0.7523 -0.1985
18254THY    CM139939   3.737   6.898   1.751  0.4779  0.0952 -0.7108
18254THY    HM139940   3.631   6.911   1.728  0.3397  1.0194 -0.1223
18254THY    HM239941   3.745   6.799   1.798  0.7551  1.5332 -0.0381
18254THY    HM339942   3.797   6.896   1.659  0.4815  0.0961 -0.6624
18254THY    CA639943   3.896   7.076   1.844 -0.0521 -0.3919 -0.6461
18254THY    HA639944   3.945   7.075   1.747  1.5178  0.3656 -0.0651
18255THY      O39945   4.208   7.666   5.392 -0.2624  0.3360  0.3128
18255THY     HO39946   4.118   7.694   5.416  0.4849  1.2075  2.1649
18255THY    CA139947   4.245   7.579   5.489 -0.2712  0.6363  0.0220
18255THY    CA239948   4.356   7.491   5.475  0.1537 -0.1005  0.5352
18255THY    CP139949   4.427   7.485   5.339 -0.4139  0.5102  0.4855
18255THY    HP139950   4.429   7.581   5.285  0.8926  0.7261  0.6032
18255THY    CP239951   4.369   7.379   5.241  0.0994 -0.2661 -0.0569
18255THY    HP239952   4.394   7.274   5.262  2.4869  2.0263  0.8434
18255THY    HP339953   4.400   7.400   5.138  2.2969  0.0934 -1.2438
18255THY    HP439954   4.262   7.399   5.250  0.1369 -0.2139  0.1296
18255THY    CP339955   4.579   7.450   5.357 -0.4529 -0.0072  0.3582
18255THY    HP539956   4.593   7.355   5.410  1.4358  0.5362  0.8965
18255THY    HP639957   4.623   7.528   5.421  0.7380  0.6875 -0.8401
18255THY    HP739958   4.632   7.445   5.261 -1.0492 -0.4005  1.3396
18255THY    CA339959   4.371   7.398   5.584 -0.3575  0.5744  0.0936
18255THY    HA339960   4.449   7.323   5.582  0.1797 -0.7325  0.6628
18255THY    CA439961   4.269   7.392   5.684 -0.0581  0.6491  0.4579
18255THY    HA439962   4.273   7.324   5.769  0.6969 -1.6126 -2.5265
18255THY    CA539963   4.167   7.488   5.699  0.1839 -0.4717  0.3004
18255THY    CM139964   4.065   7.473   5.812 -0.0972 -0.1382 -0.7253
18255THY    HM139965   4.114   7.468   5.910  2.1483 -1.2154 -1.0772
18255THY    HM239966   4.026   7.372   5.794 -2.2296 -1.3742  0.2373
18255THY    HM339967   3.985   7.546   5.799 -1.9163  1.2268 -2.3566
18255THY    CA639968   4.160   7.579   5.596  0.0994  0.2314  0.1358
18255THY    HA639969   4.079   7.650   5.605 -1.7712 -1.3522 -1.6547
18256THY      O39970   5.130   7.049   5.827 -0.5882  0.2612 -0.1687
18256THY     HO39971   5.120   7.048   5.924  1.4751  0.5824  2.2667
18256THY    CA139972   5.162   7.172   5.779 -0.7229  0.3988 -0.1427
18256THY    CA239973   5.134   7.216   5.647 -0.2732 -0.1700  0.1139
18256THY    CP139974   5.067   7.115   5.550 -0.5156  0.5015  0.0715
18256THY    HP139975   5.046   7.018   5.597  1.5237  2.3498  0.4524
18256THY    CP239976   5.164   7.094   5.435 -0.1361 -0.5233 -0.0687
18256THY    HP239977   5.266   7.067   5.464 -0.4235 -0.4985 -1.1642
18256THY    HP339978   5.160   7.183   5.371 -3.5257 -0.4652 -0.0368
18256THY    HP439979   5.114   7.017   5.375  2.2798 -0.3518 -1.8853
18256THY    CP339980   4.930   7.165   5.502 -0.4484 -0.9758  0.0207
18256THY    HP539981   4.856   7.147   5.581  0.5206 -0.6733 -3.2267
18256THY    HP639982   4.908   7.109   5.411 -2.8785  1.6322 -3.7116
18256THY    HP739983   4.932   7.273   5.484 -1.0920  0.5364  0.3186
18256THY    CA339984   5.174   7.346   5.608 -0.8584 -0.4292  0.2191
18256THY    HA339985   5.152   7.388   5.510 -0.9140 -0.0191  1.1820
18256THY    CA439986   5.235   7.429   5.702  0.2051 -0.4263 -0.0211
18256THY    HA439987   5.253   7.533   5.678 -1.0296 -1.1439  0.0388
18256THY    CA539988   5.244   7.386   5.837  0.6857  0.4683 -0.4342
18256THY    CM139989   5.302   7.468   5.940  0.3604 -0.3764 -0.1972
18256THY    HM139990   5.407   7.437   5.941  0.5018  1.5355  0.2416
18256THY    HM239991   5.253   7.451   6.037 -0.3566 -0.1689  2.5157
18256THY    HM339992   5.306   7.577   5.934 -1.4258 -0.2941 -0.0993
18256THY    CA639993   5.212   7.259   5.874 -0.4986 -0.9683  0.3763
18256THY    HA639994   5.232   7.227   5.976 -0.0483 -1.1261  0.1450
18257THY      O39995   1.252   2.482   6.505  0.2203  0.0184  0.3454
18257THY     HO39996   1.336   2.435   6.516  1.0315 -1.5767  1.3111
18257THY    CA139997   1.276   2.612   6.538 -0.4884 -0.3741 -0.5489
18257THY    CA239998   1.182   2.699   6.615  0.2092  0.2283  0.6463
18257THY    CP139999   1.041   2.648   6.651 -0.1831  0.2459 -0.2748
18257THY    HP140000   1.059   2.550   6.697 -1.6415  0.1591 -0.6031
18257THY    CP240001   0.957   2.617   6.522 -0.0770 -0.4606  0.3295
18257THY    HP240002   1.025   2.564   6.454 -0.7205 -0.7666 -0.1198
18257THY    HP340003   0.917   2.711   6.481  0.4195 -0.3282  0.6033
18257THY    HP440004   0.873   2.555   6.554  0.4567  0.7915  0.2329
18257THY    CP340005   0.956   2.747   6.739 -0.7591 -0.5859  0.6359
18257THY    HP540006   0.860   2.693   6.747 -0.5153 -0.3462  0.2334
18257THY    HP640007   0.934   2.845   6.695 -2.5331 -1.2207 -0.0038
18257THY    HP740008   0.996   2.754   6.841  0.5925 -0.9297 -1.3651
18257THY    CA340009   1.229   2.814   6.661  0.0079  0.0074 -1.2345
18257THY    HA340010   1.159   2.885   6.705 -0.3661 -4.8558  1.9206
18257THY    CA440011   1.361   2.861   6.632  0.3003  0.0837  0.8534
18257THY    HA440012   1.390   2.957   6.674  0.0435 -0.6715  1.2648
18257THY    CA540013   1.445   2.785   6.550  0.6051 -0.1451 -0.4398
18257THY    CM140014   1.584   2.837   6.519 -0.0392  0.3406 -0.2307
18257THY    HM140015   1.576   2.942   6.487 -0.4747  1.1700 -0.0041
18257THY    HM240016   1.626   2.792   6.428  0.0920 -0.2794  1.0924
18257THY    HM340017   1.655   2.819   6.600  0.1357  0.1749 -0.2840
18257THY    CA640018   1.400   2.661   6.504 -0.6248 -0.1503 -0.2588
18257THY    HA640019   1.476   2.604   6.452  0.3131  0.3807  0.4908
18258THY      O40020   3.128   3.499   2.269  0.5797 -0.0387  0.1699
18258THY     HO40021   3.071   3.543   2.334 -2.6355 -2.7466  0.3822
18258THY    CA140022   3.250   3.545   2.295 -0.0177  0.4154  0.5481
18258THY    CA240023   3.342   3.578   2.198 -0.0825  0.6788 -0.1472
18258THY    CP140024   3.303   3.562   2.053  0.0942  0.1934  1.4322
18258THY    HP140025   3.199   3.534   2.032  0.5283 -0.7284  0.4416
18258THY    CP240026   3.377   3.445   1.976 -0.1027 -0.8649 -0.2162
18258THY    HP240027   3.354   3.430   1.870  2.0207 -1.3370 -0.4800
18258THY    HP340028   3.353   3.347   2.021 -1.9471  0.9607  0.9983
18258THY    HP440029   3.485   3.453   1.994 -0.4256  0.2045  2.9657
18258THY    CP340030   3.321   3.693   1.976 -0.6932 -0.2483 -0.2875
18258THY    HP540031   3.253   3.775   2.004 -0.0189 -1.1157  0.5895
18258THY    HP640032   3.300   3.678   1.870  0.3582 -0.3117 -1.3719
18258THY    HP740033   3.422   3.732   1.986 -1.2823  0.2828  1.1693
18258THY    CA340034   3.475   3.608   2.238  0.8238  0.4184  0.3384
18258THY    HA340035   3.545   3.626   2.157 -1.8517 -2.5114 -1.3848
18258THY    CA440036   3.510   3.620   2.371  0.0806  0.4893  0.3998
18258THY    HA440037   3.608   3.659   2.396 -0.5227  0.0699  2.2809
18258THY    CA540038   3.414   3.591   2.470  0.5553  0.2162  0.0683
18258THY    CM140039   3.440   3.627   2.615  0.3742  0.2748 -0.0363
18258THY    HM140040   3.418   3.733   2.632  0.6500 -0.6091  0.1676
18258THY    HM240041   3.543   3.622   2.652 -0.8027  4.2165  0.6340
18258THY    HM340042   3.371   3.565   2.673 -0.2739  1.4416  1.6682
18258THY    CA640043   3.287   3.546   2.435  0.0165 -0.1895  0.0549
18258THY    HA640044   3.223   3.522   2.520  1.5615  1.2599  0.8456
18259THY      O40045   4.979   5.237   4.186 -0.1798  0.4392 -0.3672
18259THY     HO40046   5.036   5.316   4.196  0.8843 -1.5928 -0.8157
18259THY    CA140047   5.029   5.178   4.074 -0.7425 -0.0766 -0.5088
18259THY    CA240048   4.946   5.145   3.963 -0.1391  0.6962 -0.3228
18259THY    CP140049   4.810   5.213   3.964  0.0131 -0.8174  1.0887
18259THY    HP140050   4.812   5.300   4.032  2.6095  1.1972 -0.3911
18259THY    CP240051   4.701   5.116   4.018  0.2707 -0.1270 -0.6595
18259THY    HP240052   4.611   5.178   4.030 -0.8128  0.8529 -2.3608
18259THY    HP340053   4.727   5.089   4.121 -0.8072 -0.1494 -1.8482
18259THY    HP440054   4.684   5.024   3.961 -1.1964  1.3771 -1.3688
18259THY    CP340055   4.763   5.259   3.832  0.0245  0.5868  0.2828
18259THY    HP540056   4.753   5.177   3.760 -0.0991 -0.8685  1.5093
18259THY    HP640057   4.822   5.339   3.784  2.3511 -0.6426 -2.0081
18259THY    HP740058   4.663   5.300   3.849 -1.3503 -3.0864 -1.1386
18259THY    CA340059   4.999   5.084   3.849  0.0657 -0.0425  0.6518
18259THY    HA340060   4.944   5.065   3.757  0.8542 -0.5810  0.9448
18259THY    CA440061   5.137   5.059   3.849 -0.0673 -0.4032 -0.4771
18259THY    HA440062   5.187   5.019   3.762 -0.1780 -1.4243  1.4852
18259THY    CA540063   5.219   5.096   3.954  0.4265 -0.3648  0.5405
18259THY    CM140064   5.361   5.057   3.941 -0.1478 -0.1650 -0.3898
18259THY    HM140065   5.394   4.995   4.025 -1.2203 -0.0598 -0.8331
18259THY    HM240066   5.413   5.152   3.955  0.6125  0.2051 -0.8490
18259THY    HM340067   5.393   5.011   3.847 -0.5941  0.5409 -2.2352
18259THY    CA640068   5.170   5.159   4.071  0.6570  0.2424  0.1546
18259THY    HA640069   5.241   5.181   4.151  0.2021  0.4840  0.7909
18260THY      O40070   5.320   3.798   2.994  0.2110  0.2616 -0.2736
18260THY     HO40071   5.266   3.779   3.074 -0.3848 -0.5084 -2.0806
18260THY    CA140072   5.447   3.804   3.040 -0.0852 -0.9948  0.1803
18260THY    CA240073   5.522   3.922   3.039 -0.1026 -0.1223 -0.1236
18260THY    CP140074   5.475   4.052   2.973  0.0860  0.5105  0.6446
18260THY    HP140075   5.373   4.037   2.935 -1.0616  2.9817  1.6757
18260THY    CP240076   5.567   4.094   2.853 -0.2273  0.3857  0.5900
18260THY    HP240077   5.665   4.129   2.885  0.2568 -0.3517 -0.0478
18260THY    HP340078   5.519   4.174   2.795 -3.0606  2.2742  0.4402
18260THY    HP440079   5.586   4.007   2.790  1.4663 -1.0635  1.9298
18260THY    CP340080   5.456   4.172   3.067 -0.0777  0.1250 -0.0222
18260THY    HP540081   5.556   4.203   3.099 -1.0090  2.6099  0.6176
18260THY    HP640082   5.392   4.149   3.152 -1.1527 -0.3953  0.9514
18260THY    HP740083   5.409   4.253   3.010  0.9581 -1.2542 -0.3415
18260THY    CA340084   5.651   3.921   3.086  0.5804 -0.1105 -1.0148
18260THY    HA340085   5.711   4.012   3.083 -2.0999  0.2177  0.8909
18260THY    CA440086   5.710   3.796   3.124  0.5705  0.2317 -0.3560
18260THY    HA440087   5.812   3.801   3.160 -0.0741  1.9708  2.8092
18260THY    CA540088   5.639   3.678   3.126 -0.0247  0.2881  0.0886
18260THY    CM140089   5.701   3.548   3.159  0.7107  0.9195 -0.6964
18260THY    HM140090   5.732   3.497   3.068 -2.5808 -0.5158 -0.3867
18260THY    HM240091   5.624   3.492   3.213  0.2239 -0.6368 -1.5654
18260THY    HM340092   5.795   3.555   3.216  0.6881  1.1129 -1.8451
18260THY    CA640093   5.501   3.687   3.095  0.1262 -0.2320 -0.0861
18260THY    HA640094   5.439   3.598   3.094  0.6912  0.4093 -0.4963
18261THY      O40095   7.860   4.185   6.659  0.3597  0.0254  0.3206
18261THY     HO40096   7.900   4.150   6.577  1.4881  0.2737  0.9802
18261THY    CA140097   7.927   4.302   6.667  0.5273 -0.2145  0.4246
18261THY    CA240098   7.921   4.383   6.773 -0.9961 -0.0892 -0.0156
18261THY    CP140099   7.823   4.349   6.883 -0.3118 -0.2496  0.9837
18261THY    HP140100   7.738   4.288   6.849  0.1276  1.1070 -0.4458
18261THY    CP240101   7.769   4.471   6.956  0.3524 -0.0714 -0.1765
18261THY    HP240102   7.745   4.552   6.885 -0.0723 -0.2385 -0.4457
18261THY    HP340103   7.840   4.505   7.032  0.2187  1.1740 -2.4817
18261THY    HP440104   7.676   4.433   6.998  0.7833 -0.0641 -1.2570
18261THY    CP340105   7.892   4.255   6.986  0.5884 -0.5349  0.2039
18261THY    HP540106   7.925   4.168   6.927 -1.4468 -1.7184  0.1571
18261THY    HP640107   7.825   4.218   7.065  1.0102 -1.3549 -2.5661
18261THY    HP740108   7.978   4.309   7.027 -0.6339 -0.9891  2.6317
18261THY    CA340109   8.010   4.490   6.791  0.1513  0.1405 -0.0392
18261THY    HA340110   7.996   4.553   6.878 -1.6069  2.7849 -3.7019
18261THY    CA440111   8.090   4.520   6.676 -0.4423 -0.5830  0.0838
18261THY    HA440112   8.153   4.609   6.674  2.0012 -0.6979 -1.5640
18261THY    CA540113   8.094   4.438   6.558  0.1883  0.2640 -0.2384
18261THY    CM140114   8.179   4.463   6.432 -0.2257  0.0591  0.4254
18261THY    HM140115   8.169   4.382   6.359  1.8486  1.3399 -1.0729
18261THY    HM240116   8.288   4.462   6.449  0.5267 -3.9157  0.3137
18261THY    HM340117   8.151   4.555   6.379  0.0932  0.3142  0.6772
18261THY    CA640118   8.015   4.320   6.559 -0.1158  0.2752  0.4657
18261THY    HA640119   8.014   4.255   6.472  0.9432 -0.2703  1.1528
18262THY      O40120   3.979   1.900   5.352 -0.3264  0.9290 -0.0044
18262THY     HO40121   3.884   1.899   5.334 -0.5089  0.9489  3.5579
18262THY    CA140122   4.042   1.926   5.236  0.4972  0.2016  0.5255
18262THY    CA240123   4.161   2.002   5.238  0.1137  0.3888  0.1322
18262THY    CP140124   4.231   2.034   5.365  0.0916 -0.3318  0.6291
18262THY    HP140125   4.168   2.023   5.454 -1.9254 -1.6701  0.8140
18262THY    CP240126   4.279   2.183   5.374 -0.0562 -0.5785 -0.0119
18262THY    HP240127   4.344   2.198   5.461  2.1411 -1.6259 -2.6696
18262THY    HP340128   4.190   2.244   5.389 -1.3081 -1.0076 -1.6679
18262THY    HP440129   4.327   2.224   5.284 -0.8513 -0.4824  1.1911
18262THY    CP340130   4.367   1.956   5.373  0.2066  0.2453 -0.3476
18262THY    HP540131   4.453   1.976   5.308 -1.2070 -1.7302 -0.3989
18262THY    HP640132   4.344   1.850   5.390 -0.8635  1.5415  0.0627
18262THY    HP740133   4.400   1.977   5.476 -0.6234  0.4036  0.2376
18262THY    CA340134   4.211   2.048   5.115  0.2880 -0.1537 -0.2342
18262THY    HA340135   4.303   2.106   5.108 -0.3352  1.7974  1.1139
18262THY    CA440136   4.146   2.014   4.992  0.2998  0.1260  0.1558
18262THY    HA440137   4.192   2.032   4.896  2.7337  0.6557 -2.5556
18262THY    CA540138   4.025   1.939   4.996  0.1479  0.4954 -0.5871
18262THY    CM140139   3.953   1.914   4.869  0.8542 -0.0898  0.3265
18262THY    HM140140   3.846   1.920   4.889  0.6632 -0.6495 -0.8326
18262THY    HM240141   3.951   1.809   4.837 -2.6253 -1.3913  0.6508
18262THY    HM340142   3.991   1.969   4.782  3.0285  0.6531  0.1239
18262THY    CA640143   3.969   1.899   5.117  0.3215 -0.0015 -0.0177
18262THY    HA640144   3.880   1.837   5.115  0.2055 -2.5636  0.1295
18263THY      O40145   6.841   3.069   3.320 -0.2258 -0.0452  0.2293
18263THY     HO40146   6.840   2.978   3.354 -1.1218  0.3734  0.3838
18263THY    CA140147   6.914   3.142   3.407 -0.0012 -0.0129  0.4782
18263THY    CA240148   6.993   3.247   3.364  0.1726  0.7286  0.7365
18263THY    CP140149   6.998   3.276   3.217  0.0557 -0.0801 -0.5105
18263THY    HP140150   6.908   3.242   3.164  0.9587 -1.1303 -1.3165
18263THY    CP240151   7.113   3.205   3.156 -0.7480  0.1227 -0.2987
18263THY    HP240152   7.207   3.251   3.189 -0.8549 -1.8168  1.4409
18263THY    HP340153   7.108   3.215   3.047 -0.8114  0.3098  2.4262
18263THY    HP440154   7.115   3.103   3.196 -1.4061 -1.1038 -0.8124
18263THY    CP340155   7.017   3.424   3.184 -0.0288  0.2984 -0.5446
18263THY    HP540156   6.934   3.485   3.222  0.2004  1.5082 -0.9697
18263THY    HP640157   7.018   3.438   3.075 -0.5040  0.2938 -0.5294
18263THY    HP740158   7.108   3.465   3.228  0.7515  0.0728 -1.9834
18263THY    CA340159   7.079   3.307   3.461  0.6878  0.4394  0.2563
18263THY    HA340160   7.153   3.380   3.428  2.4339  2.9289 -0.2654
18263THY    CA440161   7.067   3.276   3.597  0.4681  0.7434  0.2099
18263THY    HA440162   7.123   3.333   3.670  2.6922  0.2502 -1.2278
18263THY    CA540163   6.968   3.182   3.633  0.1409 -0.3954 -0.2997
18263THY    CM140164   6.932   3.167   3.777 -0.2168 -0.4426 -0.2011
18263THY    HM140165   7.023   3.166   3.837  1.3584 -2.7010  0.0061
18263THY    HM240166   6.861   3.083   3.786 -2.4359 -1.3602  1.4689
18263THY    HM340167   6.875   3.254   3.811 -1.1174 -1.4547 -0.3825
18263THY    CA640168   6.899   3.111   3.540 -0.7151 -0.3123  0.0069
18263THY    HA640169   6.839   3.031   3.583 -0.7849  1.3210  0.8842
18264THY      O40170   7.349   4.291   3.141  0.1150 -0.3947  0.6910
18264THY     HO40171   7.365   4.204   3.184  0.8775  1.2814  1.6086
18264THY    CA140172   7.323   4.269   3.011  0.0070 -0.1676  0.1053
18264THY    CA240173   7.253   4.368   2.943  0.8496 -0.6039  0.0206
18264THY    CP140174   7.188   4.491   3.015 -0.3662  0.0756 -0.7024
18264THY    HP140175   7.236   4.519   3.110  2.4313 -1.8709  1.8397
18264THY    CP240176   7.039   4.460   3.039 -0.4716  0.4266 -0.1192
18264THY    HP240177   6.997   4.550   3.087  0.1782 -1.6571  1.3629
18264THY    HP340178   7.039   4.372   3.104  1.3713 -0.2824 -0.6774
18264THY    HP440179   6.975   4.454   2.950 -0.1658 -0.1766  3.2417
18264THY    CP340180   7.200   4.623   2.925 -0.2799 -0.1258  0.1607
18264THY    HP540181   7.120   4.629   2.850 -0.3572 -0.1352 -0.8838
18264THY    HP640182   7.301   4.637   2.886  0.1219  0.6933 -0.3947
18264THY    HP740183   7.182   4.715   2.982  1.2828  0.3328  0.2109
18264THY    CA340184   7.221   4.348   2.805  0.1243 -0.1398  1.5457
18264THY    HA340185   7.162   4.418   2.747  1.7040 -0.3707  2.7351
18264THY    CA440186   7.268   4.230   2.737  0.4365  0.2433 -0.6735
18264THY    HA440187   7.230   4.208   2.638  1.8887 -1.1245  2.3635
18264THY    CA540188   7.342   4.134   2.809  0.4316  0.0612  0.4594
18264THY    CM140189   7.395   4.010   2.742  0.0771 -0.3285 -0.2899
18264THY    HM140190   7.326   3.936   2.785 -0.8104 -2.8957 -1.0694
18264THY    HM240191   7.500   4.003   2.774 -0.4660  1.4707 -0.8440
18264THY    HM340192   7.386   4.012   2.633 -1.6200 -0.2002  1.5082
18264THY    CA640193   7.373   4.156   2.945  0.2064 -0.0081 -0.5573
18264THY    HA640194   7.427   4.080   3.001 -0.0307  1.8230  0.5716
18265THY      O40195   4.302   4.590   5.157 -0.4828 -0.1253  0.0747
18265THY     HO40196   4.236   4.525   5.128  1.3411 -0.1025 -1.8982
18265THY    CA140197   4.387   4.592   5.053  0.2185 -0.0495 -0.0778
18265THY    CA240198   4.476   4.699   5.025  0.4565  1.0824  0.4764
18265THY    CP140199   4.475   4.815   5.118 -0.7615 -0.2998 -0.7398
18265THY    HP140200   4.432   4.793   5.216  0.7240  0.2125 -1.5211
18265THY    CP240201   4.406   4.944   5.065 -0.7604 -0.2427 -0.3893
18265THY    HP240202   4.424   4.971   4.960 -2.7425 -0.2123  1.3221
18265THY    HP340203   4.430   5.033   5.124 -1.3117 -1.3829  0.5419
18265THY    HP440204   4.298   4.930   5.079 -0.5771 -0.1498 -1.8084
18265THY    CP340205   4.616   4.854   5.158 -0.9736 -0.2018 -0.0471
18265THY    HP540206   4.692   4.865   5.079  2.0009  2.2815 -1.1855
18265THY    HP640207   4.655   4.775   5.222  0.7773 -1.0976  0.0444
18265THY    HP740208   4.619   4.947   5.216 -2.4697  0.7763 -0.5701
18265THY    CA340209   4.544   4.692   4.903  0.4947  0.1822  0.4582
18265THY    HA340210   4.602   4.779   4.872  1.4188 -0.6036 -0.4136
18265THY    CA440211   4.547   4.577   4.820  0.1033 -0.2472  0.1338
18265THY    HA440212   4.620   4.570   4.740  0.3051 -0.0437 -0.1157
18265THY    CA540213   4.461   4.471   4.854 -0.3563 -0.2425 -0.6642
18265THY    CM140214   4.459   4.340   4.784 -0.3877  0.0329  0.8810
18265THY    HM140215   4.359   4.296   4.784  0.0962  1.4518 -0.3249
18265THY    HM240216   4.521   4.261   4.827 -0.6616 -2.0493 -0.5353
18265THY    HM340217   4.479   4.348   4.677  0.9057  0.2058  0.3073
18265THY    CA640218   4.378   4.486   4.963  0.4414 -0.4884 -0.4261
18265THY    HA640219   4.319   4.396   4.984  2.2451 -1.9245 -2.0267
18266THY      O40220   7.935   4.022   6.432  0.2802  0.4500  0.2218
18266THY     HO40221   8.002   3.973   6.484 -0.1778  0.1068 -0.7920
18266THY    CA140222   7.912   3.952   6.328  0.0695 -0.1238  0.0068
18266THY    CA240223   7.832   3.996   6.226  0.9113 -0.5522 -0.1156
18266THY    CP140224   7.755   4.128   6.244 -0.1482 -0.1291  0.0372
18266THY    HP140225   7.751   4.151   6.351 -2.1222  0.1456 -1.2869
18266THY    CP240226   7.611   4.120   6.204  0.4498 -0.3274  0.3144
18266THY    HP240227   7.601   4.116   6.095  1.1435 -0.3923  0.1133
18266THY    HP340228   7.560   4.213   6.231  0.5837  0.9456  0.0289
18266THY    HP440229   7.575   4.027   6.250  0.4779 -0.5030  0.2156
18266THY    CP340230   7.822   4.236   6.163 -0.2070 -0.0588  0.0931
18266THY    HP540231   7.829   4.199   6.061 -0.5175 -0.1855  0.3823
18266THY    HP640232   7.919   4.245   6.215 -1.8584  3.1290  1.1953
18266THY    HP740233   7.780   4.335   6.184  0.6398  1.1913  0.2253
18266THY    CA340234   7.806   3.920   6.111 -0.1441 -0.8678 -0.0738
18266THY    HA340235   7.736   3.954   6.035  1.6544 -2.6288 -0.1779
18266THY    CA440236   7.871   3.801   6.100 -0.8208 -0.4874  0.3743
18266THY    HA440237   7.862   3.738   6.012  3.2183  0.1831 -1.4595
18266THY    CA540238   7.955   3.754   6.203  0.2601  0.2691 -0.0767
18266THY    CM140239   8.034   3.627   6.193 -0.7833 -0.4087  0.8769
18266THY    HM140240   8.128   3.619   6.248 -1.7768  1.1179 -1.1285
18266THY    HM240241   8.055   3.618   6.085 -0.1005 -0.2343  0.3055
18266THY    HM340242   7.978   3.539   6.228 -0.7491 -1.6883  0.3211
18266THY    CA640243   7.975   3.831   6.317 -0.6606  0.5113 -0.5152
18266THY    HA640244   8.039   3.798   6.398  1.9555 -1.1985  0.1238
18267THY      O40245   9.003   7.244   3.362 -1.0035  0.1090  0.2788
18267THY     HO40246   8.978   7.338   3.365  0.5771  0.6342  0.7131
18267THY    CA140247   9.137   7.236   3.382  0.4244 -0.1136 -0.2989
18267THY    CA240248   9.205   7.115   3.391 -0.1244  0.1535  0.4233
18267THY    CP140249   9.127   6.980   3.396  0.0173  0.2526  0.9228
18267THY    HP140250   9.032   6.988   3.342  0.1180 -0.5292 -2.0768
18267THY    CP240251   9.092   6.934   3.539 -0.2830  0.2542 -0.3776
18267THY    HP240252   9.032   7.007   3.595 -2.1450 -1.2222 -0.6801
18267THY    HP340253   9.182   6.912   3.597 -1.7988  2.0777 -2.2051
18267THY    HP440254   9.034   6.842   3.527 -0.3147 -1.3087 -0.1727
18267THY    CP340255   9.199   6.861   3.321  0.1393 -0.3341 -0.5544
18267THY    HP540256   9.206   6.888   3.215 -1.3308 -0.6901 -1.4735
18267THY    HP640257   9.134   6.773   3.322  1.4141 -1.9361 -1.5641
18267THY    HP740258   9.298   6.842   3.363  0.4369 -0.9752 -0.4426
18267THY    CA340259   9.342   7.113   3.398  0.4810 -0.2131 -0.0782
18267THY    HA340260   9.400   7.022   3.397  1.4306 -2.1161  0.4826
18267THY    CA440261   9.407   7.238   3.407 -0.2929 -0.8106 -0.4360
18267THY    HA440262   9.515   7.241   3.414 -0.3940  0.6938  0.3923
18267THY    CA540263   9.333   7.355   3.412 -0.0491  0.1836 -0.0176
18267THY    CM140264   9.397   7.485   3.431  0.1162  0.7202 -0.4414
18267THY    HM140265   9.322   7.564   3.417 -1.5127  0.2196 -1.9892
18267THY    HM240266   9.474   7.496   3.354 -0.6678 -0.1092 -0.6466
18267THY    HM340267   9.435   7.496   3.533  0.9313  0.1862  2.4653
18267THY    CA640268   9.198   7.354   3.396 -0.0286 -0.7215  1.0708
18267THY    HA640269   9.135   7.442   3.386  0.7649  3.6985  2.4118
18268THY      O40270   6.497   9.007   6.713  0.3223  0.4946 -0.0273
18268THY     HO40271   6.524   9.099   6.698 -0.1645  0.0216  0.0456
18268THY    CA140272   6.489   8.986   6.848  0.3334  0.4044  0.6584
18268THY    CA240273   6.473   8.852   6.897  0.4655 -0.6325  0.3510
18268THY    CP140274   6.484   8.732   6.801 -0.5935  0.1426 -0.0079
18268THY    HP140275   6.419   8.755   6.715 -0.7492  0.0018 -0.9321
18268THY    CP240276   6.441   8.595   6.864 -1.0256 -0.0345 -0.4269
18268THY    HP240277   6.514   8.571   6.942  1.1935 -0.8499  3.0179
18268THY    HP340278   6.442   8.516   6.788 -1.8765 -0.0662 -0.4168
18268THY    HP440279   6.340   8.611   6.905  0.9670  4.8806  1.7412
18268THY    CP340280   6.626   8.718   6.740 -0.4761 -0.1362 -0.3298
18268THY    HP540281   6.617   8.648   6.657 -0.3725  0.5178 -1.1317
18268THY    HP640282   6.701   8.678   6.809 -0.6680 -0.1755 -0.7672
18268THY    HP740283   6.681   8.803   6.698  1.0465 -2.1784 -2.2176
18268THY    CA340284   6.448   8.834   7.042 -0.3243  0.6542  0.4577
18268THY    HA340285   6.442   8.736   7.088 -2.0173 -1.2187 -0.3959
18268THY    CA440286   6.446   8.945   7.125 -0.1017 -0.1182 -0.1754
18268THY    HA440287   6.446   8.928   7.232  1.2789 -0.0762 -0.0097
18268THY    CA540288   6.475   9.073   7.073  0.1163  0.5003 -0.1739
18268THY    CM140289   6.482   9.181   7.183  0.2531 -0.1616 -0.0870
18268THY    HM140290   6.525   9.146   7.277  2.9236 -1.2242  0.1580
18268THY    HM240291   6.386   9.233   7.197 -0.2788  0.7151 -1.2710
18268THY    HM340292   6.553   9.255   7.144  0.5225 -0.2754 -0.4083
18268THY    CA640293   6.487   9.093   6.936 -0.3691 -0.1787 -1.1847
18268THY    HA640294   6.491   9.197   6.907 -1.7587 -1.1642 -1.3791
18269THY      O40295   3.019   4.130   5.735 -0.3940  0.3025  0.2177
18269THY     HO40296   2.987   4.207   5.684  0.3803 -0.0008  0.3485
18269THY    CA140297   2.926   4.094   5.824  0.2281  0.3229 -0.3254
18269THY    CA240298   2.936   3.986   5.914  0.2079 -0.3315  0.1300
18269THY    CP140299   3.071   3.910   5.911 -0.0461  0.0420 -0.1322
18269THY    HP140300   3.137   3.945   5.831 -0.0244  0.5214  0.9780
18269THY    CP240301   3.062   3.761   5.879 -0.1833 -0.5501 -0.0124
18269THY    HP240302   3.014   3.750   5.780  0.1342 -0.9409  1.8461
18269THY    HP340303   3.003   3.708   5.954  3.1103  1.9308 -0.4693
18269THY    HP440304   3.163   3.721   5.890 -0.0485 -2.0495 -0.1477
18269THY    CP340305   3.142   3.934   6.041  0.8335  0.2464 -0.4381
18269THY    HP540306   3.082   3.885   6.119  0.7830  0.2036 -0.4441
18269THY    HP640307   3.141   4.039   6.072  0.9648 -1.0976 -0.0296
18269THY    HP740308   3.247   3.901   6.046  0.5929  0.5682 -1.1988
18269THY    CA340309   2.829   3.948   6.005 -0.3295  0.2496 -0.0921
18269THY    HA340310   2.836   3.865   6.074 -1.6239  0.3148 -0.1758
18269THY    CA440311   2.717   4.028   6.005 -0.2640  0.4143 -0.8584
18269THY    HA440312   2.630   3.999   6.063  0.2343  0.5633 -2.1037
18269THY    CA540313   2.698   4.132   5.908 -0.5672  0.2535  0.1829
18269THY    CM140314   2.559   4.202   5.895 -0.1175  0.0141 -0.0158
18269THY    HM140315   2.523   4.169   5.797 -0.4806 -0.6351  2.1264
18269THY    HM240316   2.563   4.312   5.889 -0.2594 -0.2626 -0.0250
18269THY    HM340317   2.485   4.169   5.969 -0.3418 -0.6643 -1.0739
18269THY    CA640318   2.808   4.166   5.826  0.3846  0.4353  0.5170
18269THY    HA640319   2.786   4.242   5.751 -0.8555 -1.3936 -1.4966
18270THY      O40320   3.739   7.957   4.019  0.3020  0.0068 -0.6710
18270THY     HO40321   3.729   7.926   4.110 -1.2135  0.8930  2.0702
18270THY    CA140322   3.608   7.960   3.970 -0.5971  0.1826  0.2505
18270THY    CA240323   3.555   8.079   3.928 -0.2398  0.0299 -1.5384
18270THY    CP140324   3.632   8.210   3.926 -0.2912 -0.2169  0.4891
18270THY    HP140325   3.739   8.186   3.924 -0.5621 -2.0325 -0.7582
18270THY    CP240326   3.614   8.279   4.060 -0.5294 -0.8305 -0.1019
18270THY    HP240327   3.637   8.209   4.141  1.2161 -0.0321  1.3058
18270THY    HP340328   3.511   8.315   4.070 -1.4199 -0.3216 -2.6008
18270THY    HP440329   3.684   8.363   4.066 -2.0765 -1.0323  1.2413
18270THY    CP340330   3.596   8.310   3.816 -0.2135 -0.5438  0.2829
18270THY    HP540331   3.673   8.388   3.820  1.5894  3.1501 -1.4577
18270THY    HP640332   3.491   8.341   3.825  0.0903  2.8380  0.7099
18270THY    HP740333   3.614   8.261   3.719 -0.6079 -0.9275  0.8787
18270THY    CA340334   3.417   8.074   3.888  0.3760  0.2633  0.1346
18270THY    HA340335   3.363   8.161   3.850  1.4038  0.8699  1.0594
18270THY    CA440336   3.347   7.954   3.893  0.9081  0.0832  0.6301
18270THY    HA440337   3.244   7.955   3.858  1.1346 -0.6017  0.2808
18270THY    CA540338   3.406   7.830   3.937 -0.8725 -1.3868 -0.5067
18270THY    CM140339   3.324   7.709   3.961 -0.5046  0.4125 -0.2548
18270THY    HM140340   3.224   7.722   3.918 -0.1723  0.0931  1.3469
18270THY    HM240341   3.312   7.673   4.064 -0.7886  0.8169  0.9486
18270THY    HM340342   3.357   7.625   3.899 -0.1851 -1.5909  1.2945
18270THY    CA640343   3.540   7.838   3.978 -0.0682 -0.3104  0.2962
18270THY    HA640344   3.602   7.753   4.006 -0.8840  0.2485 -0.1297
18271THY      O40345   4.449   2.481   2.505 -0.2219 -0.1366  0.4758
18271THY     HO40346   4.490   2.403   2.546 -2.2373  0.5607 -0.2919
18271THY    CA140347   4.531   2.564   2.457 -0.3374 -0.4102  0.3318
18271THY    CA240348   4.529   2.602   2.315  0.9246 -0.3893  0.1491
18271THY    CP140349   4.426   2.552   2.214  0.1589  0.3457  0.2031
18271THY    HP140350   4.332   2.529   2.267 -0.5331 -1.3978 -1.2266
18271THY    CP240351   4.472   2.418   2.147  0.0532 -0.8756  0.3690
18271THY    HP240352   4.397   2.390   2.072 -0.7699 -0.7254  2.0069
18271THY    HP340353   4.473   2.343   2.227 -0.4194  0.8302  2.0916
18271THY    HP440354   4.571   2.423   2.102  0.3367 -0.3640 -0.4965
18271THY    CP340355   4.394   2.657   2.102  0.1063 -0.1207  0.0528
18271THY    HP540356   4.398   2.760   2.139  0.9366  0.0374 -0.0270
18271THY    HP640357   4.297   2.647   2.052  0.3321 -1.0445  2.0326
18271THY    HP740358   4.477   2.648   2.031 -0.7336 -1.4188  2.0205
18271THY    CA340359   4.634   2.686   2.273 -0.4715 -0.1717  0.1459
18271THY    HA340360   4.662   2.708   2.171 -0.5483 -0.5198 -1.2456
18271THY    CA440361   4.728   2.730   2.363  0.6726  0.3419 -0.4473
18271THY    HA440362   4.802   2.801   2.327  1.6410  1.1291 -1.0368
18271THY    CA540363   4.737   2.688   2.497  0.2749 -0.1025  0.0999
18271THY    CM140364   4.845   2.735   2.595  0.1760 -0.5931  0.4446
18271THY    HM140365   4.920   2.788   2.535 -0.4059  0.5668  2.6941
18271THY    HM240366   4.895   2.650   2.643  1.7565  0.2337  1.7975
18271THY    HM340367   4.805   2.789   2.682  1.2053  0.3590 -0.2986
18271THY    CA640368   4.639   2.602   2.543  0.3849  0.3281 -0.4318
18271THY    HA640369   4.634   2.577   2.649 -1.6337  0.6523  1.0377
18272THY      O40370   1.710   8.187   4.659  0.5612  0.2113  0.3160
18272THY     HO40371   1.619   8.219   4.647  0.1024  1.5722 -0.4126
18272THY    CA140372   1.791   8.274   4.597  0.1076 -1.0233 -0.3417
18272THY    CA240373   1.929   8.251   4.595  0.4420  0.0355  0.5948
18272THY    CP140374   1.997   8.121   4.643  0.0689 -0.1447 -0.3046
18272THY    HP140375   1.931   8.073   4.716  1.0257  1.0288  0.1219
18272THY    CP240376   2.128   8.154   4.725  0.5120  0.7130 -0.8008
18272THY    HP240377   2.209   8.180   4.656  0.0972 -0.1657 -1.7521
18272THY    HP340378   2.158   8.057   4.767 -2.3596 -1.4316 -2.8196
18272THY    HP440379   2.113   8.223   4.809  0.1173 -1.5299  2.0405
18272THY    CP340380   2.031   8.024   4.521 -0.3950 -0.1072  0.1971
18272THY    HP540381   2.073   7.930   4.560 -3.0344 -0.3479 -1.1706
18272THY    HP640382   2.096   8.065   4.443  0.3449  0.0897 -0.5736
18272THY    HP740383   1.943   7.990   4.465 -0.2923 -0.0403 -0.1876
18272THY    CA340384   2.007   8.358   4.543 -0.9158  0.8379 -0.3101
18272THY    HA340385   2.115   8.350   4.542 -0.9166  0.2179 -0.2856
18272THY    CA440386   1.949   8.474   4.488 -0.4515 -0.5055 -0.5485
18272THY    HA440387   2.013   8.552   4.446  3.5080  2.8115 -1.6835
18272THY    CA540388   1.809   8.489   4.485 -0.6434  0.7008  0.2177
18272THY    CM140389   1.743   8.612   4.422  0.2877 -0.2019 -0.2847
18272THY    HM140390   1.676   8.587   4.339  0.2002 -0.6462  1.3192
18272THY    HM240391   1.819   8.687   4.401  1.9781  4.1291 -0.4923
18272THY    HM340392   1.678   8.652   4.501  0.2270  0.4101 -1.5350
18272THY    CA640393   1.735   8.386   4.541 -0.4497 -0.2187  0.1111
18272THY    HA640394   1.627   8.402   4.546 -0.3923  0.9127  0.1927
18273THY      O40395   8.912   7.332   6.155  0.0235 -0.0412  0.0479
18273THY     HO40396   8.891   7.263   6.220 -0.4060  0.8241  0.9643
18273THY    CA140397   8.858   7.289   6.043 -0.1763 -0.4761  0.2764
18273THY    CA240398   8.899   7.335   5.911  0.5464  0.4437 -0.4784
18273THY    CP140399   9.010   7.442   5.884  0.3068 -1.2635 -0.3511
18273THY    HP140400   9.063   7.469   5.977  1.0642 -2.0143  0.8226
18273THY    CP240401   8.952   7.576   5.829 -0.4265  0.3600 -0.1554
18273THY    HP240402   8.981   7.587   5.724  0.8699  0.6343 -0.7696
18273THY    HP340403   9.001   7.661   5.878 -0.7889  0.7087 -0.1433
18273THY    HP440404   8.843   7.569   5.834 -0.2943  1.6918 -1.7953
18273THY    CP340405   9.125   7.404   5.791 -0.3086  0.5559  0.2918
18273THY    HP540406   9.089   7.353   5.702 -1.4540 -0.1019  2.1422
18273THY    HP640407   9.188   7.342   5.857  1.6676 -0.4896  1.0761
18273THY    HP740408   9.191   7.490   5.772  0.6886 -1.4823 -0.8480
18273THY    CA340409   8.835   7.284   5.802  0.4385  0.1994  0.6988
18273THY    HA340410   8.855   7.325   5.703 -0.7222 -0.5764 -0.5075
18273THY    CA440411   8.735   7.186   5.814 -0.1978 -0.5160 -0.4564
18273THY    HA440412   8.694   7.148   5.721  0.8169 -0.7566 -1.0081
18273THY    CA540413   8.689   7.144   5.933  0.6425 -0.8303  0.4647
18273THY    CM140414   8.570   7.060   5.940  0.5490 -0.3557 -0.0012
18273THY    HM140415   8.518   7.064   6.036  0.6277 -0.2029 -1.7815
18273THY    HM240416   8.597   6.957   5.914 -0.0788 -0.2655 -0.1952
18273THY    HM340417   8.500   7.089   5.860  2.1546 -1.9272 -0.2747
18273THY    CA640418   8.759   7.189   6.051  0.0809 -0.5041  0.3832
18273THY    HA640419   8.727   7.145   6.145 -0.2509 -0.6018  0.4193
18274THY      O40420   5.249   6.973   1.928  0.6908 -0.7883  0.6292
18274THY     HO40421   5.302   7.048   1.959 -0.1660 -0.3486  1.0713
18274THY    CA140422   5.213   6.905   2.042  0.3762  0.0662  0.5836
18274THY    CA240423   5.170   6.769   2.035  0.5296  0.1806 -0.0835
18274THY    CP140424   5.166   6.696   1.898  0.0966  0.6958 -0.0742
18274THY    HP140425   5.159   6.763   1.810 -1.3750 -0.8420 -2.1219
18274THY    CP240426   5.043   6.609   1.881 -0.8546 -0.0869  0.1861
18274THY    HP240427   5.031   6.548   1.790 -0.6419  1.1537 -1.7948
18274THY    HP340428   4.956   6.675   1.893 -0.0681 -2.2230  1.7416
18274THY    HP440429   5.056   6.535   1.961  1.7273  0.9270  1.5994
18274THY    CP340430   5.293   6.618   1.875 -0.0730  0.1931  0.4623
18274THY    HP540431   5.299   6.530   1.939  0.0119  0.5106  0.6948
18274THY    HP640432   5.393   6.663   1.879 -0.1288  0.3120  0.5795
18274THY    HP740433   5.278   6.575   1.776  0.6363  0.0795  0.4638
18274THY    CA340434   5.135   6.705   2.159 -0.3633  0.0783  0.5062
18274THY    HA340435   5.100   6.602   2.162 -0.3216 -0.8711  0.4563
18274THY    CA440436   5.132   6.787   2.272 -0.3834 -0.1215 -0.1026
18274THY    HA440437   5.112   6.739   2.367  0.2442 -1.1987 -2.6841
18274THY    CA540438   5.190   6.913   2.284  0.6643  0.6501 -1.2034
18274THY    CM140439   5.222   6.972   2.413  0.3238  0.2418 -0.1379
18274THY    HM140440   5.204   6.902   2.496  1.0672 -1.0009 -1.8867
18274THY    HM240441   5.156   7.055   2.439 -0.0522  1.0220 -0.6665
18274THY    HM340442   5.327   7.001   2.402  0.0961 -0.9475  0.2820
18274THY    CA640443   5.227   6.976   2.165  0.4308 -0.4807  1.1489
18274THY    HA640444   5.270   7.075   2.158  0.1847 -1.3719  1.1957
18275THY      O40445   1.869   8.198   4.285 -0.1076 -0.4397 -0.5834
18275THY     HO40446   1.904   8.234   4.368  2.2866 -1.0893 -1.1898
18275THY    CA140447   1.982   8.154   4.222 -0.5881 -0.2545 -0.5805
18275THY    CA240448   1.984   8.026   4.166  1.0955  0.3417 -0.2467
18275THY    CP140449   1.853   7.951   4.140  0.5131 -0.4055 -0.3454
18275THY    HP140450   1.767   8.017   4.153  0.8009 -0.0194 -0.0434
18275THY    CP240451   1.838   7.831   4.222  0.4453 -0.4525  0.3572
18275THY    HP240452   1.855   7.842   4.330 -3.6902  0.9349 -3.8078
18275THY    HP340453   1.900   7.748   4.187  0.1360 -2.6675  0.9963
18275THY    HP440454   1.730   7.812   4.225  0.4401  0.9497  0.5260
18275THY    CP340455   1.826   7.915   3.987 -0.1220  0.6032  0.0726
18275THY    HP540456   1.732   7.861   3.976 -0.6715  2.5633  0.5606
18275THY    HP640457   1.908   7.846   3.962 -0.1658  0.3249  0.1196
18275THY    HP740458   1.817   8.001   3.919  1.0997  0.1819 -0.1082
18275THY    CA340459   2.112   7.977   4.118  0.1852  0.2177 -0.7245
18275THY    HA340460   2.116   7.880   4.069  0.9093 -1.4892  0.1131
18275THY    CA440461   2.222   8.066   4.113 -0.1856  0.5919  0.6575
18275THY    HA440462   2.319   8.031   4.078 -1.2857 -0.5678 -1.3952
18275THY    CA540463   2.215   8.186   4.185  0.4767 -0.2234  0.5214
18275THY    CM140464   2.338   8.266   4.208  0.2672 -0.1036 -0.6681
18275THY    HM140465   2.372   8.309   4.113  3.4933  0.9270 -0.6811
18275THY    HM240466   2.423   8.209   4.247  2.0303 -1.5271  0.8439
18275THY    HM340467   2.308   8.346   4.277  1.1853  1.0132 -1.2600
18275THY    CA640468   2.095   8.232   4.229  0.4055 -0.1798  0.5619
18275THY    HA640469   2.088   8.330   4.275  1.8893 -0.4555  0.8256
18276THY      O40470   7.239   7.920   5.117  0.1264 -0.0979  0.4711
18276THY     HO40471   7.321   7.894   5.162 -0.6948  1.0186 -0.2936
18276THY    CA140472   7.140   7.932   5.212 -0.1481 -0.1959  0.8417
18276THY    CA240473   7.007   7.964   5.183 -0.1063  0.6282 -0.0144
18276THY    CP140474   6.964   7.978   5.029  0.0960 -0.3914  0.1913
18276THY    HP140475   7.039   8.015   4.958 -0.3132  0.0033  1.8498
18276THY    CP240476   6.837   8.062   5.009  0.3440  0.2304  0.6172
18276THY    HP240477   6.823   8.081   4.901  0.3299  0.3642  1.4139
18276THY    HP340478   6.835   8.160   5.057  1.3877  0.3184  0.6117
18276THY    HP440479   6.750   8.010   5.050 -0.0248  2.8709  3.0814
18276THY    CP340480   6.924   7.835   4.990 -0.0536  0.2060 -0.2688
18276THY    HP540481   6.876   7.785   5.075  3.3740  3.5541  1.5553
18276THY    HP640482   7.019   7.782   4.974  0.8162  1.0548  0.9565
18276THY    HP740483   6.871   7.839   4.895  1.8418 -0.8791  2.8631
18276THY    CA340484   6.922   7.992   5.289  0.3188 -0.4815  0.0166
18276THY    HA340485   6.819   8.017   5.265  0.2467  1.0702  1.3767
18276THY    CA440486   6.960   7.990   5.420  0.5556 -0.0612 -0.5713
18276THY    HA440487   6.879   8.006   5.491  0.0185 -1.0094  1.1930
18276THY    CA540488   7.096   7.965   5.447  0.3121  0.9550 -0.5196
18276THY    CM140489   7.142   7.960   5.586 -0.3535  0.5543 -0.3721
18276THY    HM140490   7.075   7.909   5.655  1.2384  1.1128 -1.7946
18276THY    HM240491   7.145   8.065   5.620  1.0098 -0.0887 -0.1778
18276THY    HM340492   7.240   7.912   5.599  0.1067 -0.4209  0.2700
18276THY    CA640493   7.188   7.936   5.344 -0.3083 -0.2252 -0.0535
18276THY    HA640494   7.291   7.919   5.374 -0.4944 -0.1043 -1.0624
18277THY      O40495   5.457   5.187   5.371  0.4135 -0.2106  0.4732
18277THY     HO40496   5.366   5.220   5.362 -0.0550  0.3381 -0.6237
18277THY    CA140497   5.534   5.227   5.264  0.0382 -0.3239 -0.1103
18277THY    CA240498   5.655   5.303   5.272 -0.0791  0.3680  0.0380
18277THY    CP140499   5.709   5.340   5.407  0.2822  0.6946  0.4517
18277THY    HP140500   5.662   5.266   5.473 -0.4356 -1.3777 -1.0581
18277THY    CP240501   5.644   5.468   5.450 -0.1743 -0.0248 -0.0001
18277THY    HP240502   5.690   5.547   5.390  1.3442 -1.8794 -2.1396
18277THY    HP340503   5.674   5.485   5.554 -1.4605  0.7126 -1.8359
18277THY    HP440504   5.535   5.460   5.459 -0.1796 -1.3602 -3.1239
18277THY    CP340505   5.867   5.329   5.421  0.0585  0.2401  0.1492
18277THY    HP540506   5.881   5.334   5.529  1.3740  0.0316  2.2361
18277THY    HP640507   5.921   5.414   5.377  0.7991  0.3714 -0.2466
18277THY    HP740508   5.908   5.242   5.368  0.4999 -0.8086  0.9666
18277THY    CA340509   5.716   5.354   5.155 -0.5145  0.5602  0.6518
18277THY    HA340510   5.790   5.432   5.172 -0.2634  1.1908  0.2842
18277THY    CA440511   5.662   5.310   5.032 -0.1644  0.4066 -0.6762
18277THY    HA440512   5.704   5.332   4.935 -0.2581  0.0005 -2.1772
18277THY    CA540513   5.551   5.223   5.027 -0.2211  0.4550  0.7678
18277THY    CM140514   5.500   5.165   4.896 -0.0627 -0.8772 -0.0112
18277THY    HM140515   5.524   5.058   4.886 -0.1269 -2.2012  0.0814
18277THY    HM240516   5.538   5.222   4.811  0.4531  0.0566  1.0645
18277THY    HM340517   5.390   5.165   4.891 -0.1609  0.2528 -1.7083
18277THY    CA640518   5.482   5.191   5.141  0.5054  0.7501 -0.0504
18277THY    HA640519   5.391   5.133   5.136  0.3301  0.0862  0.2726
18278THY      O40520   9.087   1.365   4.816  0.1292  0.3906  0.0866
18278THY     HO40521   9.091   1.281   4.767 -0.4214  1.2972 -0.4720
18278THY    CA140522   8.987   1.348   4.905  0.7448 -0.4828  0.1156
18278THY    CA240523   8.944   1.442   4.997  0.1454 -0.6798 -0.1498
18278THY    CP140524   9.010   1.582   5.001  0.3332  0.1205  0.2376
18278THY    HP140525   9.088   1.596   4.927 -0.4394 -0.1664  3.9935
18278THY    CP240526   9.062   1.621   5.135 -0.1431 -0.0252  0.3793
18278THY    HP240527   9.120   1.539   5.179 -0.1082  0.0343  0.4356
18278THY    HP340528   8.982   1.640   5.208  1.1797  1.2947  1.1197
18278THY    HP440529   9.118   1.712   5.112  2.7126  3.5048 -0.2648
18278THY    CP340530   8.913   1.688   4.948 -0.7913  0.0983  0.1399
18278THY    HP540531   8.908   1.663   4.841  1.9583 -0.1452  0.3195
18278THY    HP640532   8.955   1.788   4.962  0.5075 -1.2125 -0.1876
18278THY    HP740533   8.815   1.675   4.996 -0.3117  0.5024 -2.8117
18278THY    CA340534   8.841   1.410   5.088 -0.5331  0.6725 -1.0748
18278THY    HA340535   8.813   1.487   5.160 -1.4944 -1.0291  0.2152
18278THY    CA440536   8.776   1.289   5.086 -0.2125 -0.1079  0.7096
18278THY    HA440537   8.703   1.261   5.161  0.5837  0.8583  1.1473
18278THY    CA540538   8.822   1.193   4.993  0.6920 -0.3971 -0.0694
18278THY    CM140539   8.744   1.062   4.993 -0.4696 -0.0711 -0.3899
18278THY    HM140540   8.651   1.052   5.049  1.2785  3.0518 -0.3265
18278THY    HM240541   8.822   0.994   5.028  1.3101 -0.6362  1.2495
18278THY    HM340542   8.722   1.031   4.890 -2.9569  0.2380  0.2086
18278THY    CA640543   8.923   1.224   4.899 -0.2953 -0.8495  0.6952
18278THY    HA640544   8.958   1.141   4.839  1.5718  2.2500 -0.9338
18279THY      O40545   8.783   7.851   1.870 -0.0520 -0.1341  0.4024
18279THY     HO40546   8.770   7.754   1.866  0.3482 -1.5049  0.3828
18279THY    CA140547   8.824   7.881   1.998 -0.3466 -0.7852 -0.2345
18279THY    CA240548   8.833   8.017   2.041 -0.3537 -0.1240 -0.1292
18279THY    CP140549   8.815   8.123   1.932  0.0905  0.1684 -0.6142
18279THY    HP140550   8.754   8.084   1.850  0.3349  0.8174 -2.4836
18279THY    CP240551   8.951   8.161   1.877  0.3620 -0.5206  0.7162
18279THY    HP240552   8.994   8.078   1.820  0.7338  2.1989 -1.0751
18279THY    HP340553   9.015   8.183   1.963 -1.1502  0.8893 -0.1502
18279THY    HP440554   8.940   8.252   1.817 -2.1875  1.6568  2.0001
18279THY    CP340555   8.743   8.247   1.981  0.2760  0.0512  0.4189
18279THY    HP540556   8.818   8.319   2.018  1.1448 -2.4450  0.8995
18279THY    HP640557   8.672   8.213   2.056  1.4067  1.3281  0.7797
18279THY    HP740558   8.688   8.293   1.898 -0.4096 -0.0477 -0.5692
18279THY    CA340559   8.857   8.049   2.180 -0.2497 -0.4091 -0.5504
18279THY    HA340560   8.877   8.151   2.213  1.4816 -3.5059  0.2526
18279THY    CA440561   8.889   7.936   2.267  0.4581 -0.0251 -0.0960
18279THY    HA440562   8.905   7.958   2.373  0.1386  0.2446 -1.1179
18279THY    CA540563   8.867   7.808   2.228 -0.5216  0.2795 -0.8908
18279THY    CM140564   8.875   7.699   2.323 -0.2029 -0.1873  0.2970
18279THY    HM140565   8.953   7.720   2.398 -1.0052  0.1998  2.1579
18279THY    HM240566   8.894   7.602   2.277 -1.4839 -0.7156  0.2826
18279THY    HM340567   8.781   7.712   2.378 -0.2064  0.0372 -0.6428
18279THY    CA640568   8.832   7.784   2.094  0.2068 -0.6593  0.1492
18279THY    HA640569   8.814   7.680   2.067 -1.0203 -0.0826  0.1920
18280THY      O40570   6.446   7.818   7.733 -0.0901  0.0495 -0.3606
18280THY     HO40571   6.525   7.850   7.686  0.2441  0.1096 -1.0820
18280THY    CA140572   6.356   7.920   7.726  0.3214  0.0592 -0.3192
18280THY    CA240573   6.225   7.900   7.778 -0.1338 -0.7431 -0.4299
18280THY    CP140574   6.177   7.761   7.833  0.1161 -0.2776  0.1153
18280THY    HP140575   6.271   7.707   7.852  0.8052 -1.0599  1.0116
18280THY    CP240576   6.115   7.691   7.719  0.0798 -0.4513  0.1114
18280THY    HP240577   6.171   7.692   7.624 -2.5044 -2.0534 -0.0137
18280THY    HP340578   6.018   7.735   7.696  0.5187  0.1801  1.4309
18280THY    HP440579   6.101   7.586   7.750 -0.5854  0.7450  0.5423
18280THY    CP340580   6.084   7.757   7.950 -0.3370  0.1818  0.1867
18280THY    HP540581   6.104   7.839   8.021  2.5519 -0.8007  0.4480
18280THY    HP640582   6.087   7.656   7.992 -2.7717 -2.5176 -1.1419
18280THY    HP740583   5.979   7.771   7.921 -0.2503  0.6629  2.1682
18280THY    CA340584   6.136   8.008   7.780 -0.2262  0.2039 -0.0981
18280THY    HA340585   6.034   7.991   7.811  0.4234  2.7922  0.2535
18280THY    CA440586   6.178   8.130   7.735 -0.9912  0.0341  1.1456
18280THY    HA440587   6.106   8.209   7.717 -0.1133 -1.4928  1.6402
18280THY    CA540588   6.311   8.152   7.696 -0.0354 -0.2806  0.2438
18280THY    CM140589   6.364   8.285   7.643 -0.5536 -0.1287  0.0407
18280THY    HM140590   6.389   8.349   7.728 -1.5234  1.4311 -1.5587
18280THY    HM240591   6.294   8.345   7.583 -1.7814  0.6057 -0.6213
18280THY    HM340592   6.453   8.267   7.581  0.3743  0.6191  1.7849
18280THY    CA640593   6.400   8.043   7.683  0.3263 -0.1460  0.3331
18280THY    HA640594   6.501   8.056   7.647  0.1821 -0.8930 -0.5121
18281THY      O40595   4.346   8.813   6.852  0.2363  0.5366 -0.2939
18281THY     HO40596   4.412   8.883   6.837  0.1466  0.4490 -0.2272
18281THY    CA140597   4.228   8.878   6.857  0.9666  0.7009 -0.3030
18281THY    CA240598   4.112   8.814   6.906 -0.3158  0.4714  0.1353
18281THY    CP140599   4.127   8.674   6.965  0.2589  0.8098  0.2049
18281THY    HP140600   4.230   8.635   6.965  0.5824 -1.1113  0.9607
18281THY    CP240601   4.043   8.575   6.880 -0.3489 -0.8798  0.2725
18281THY    HP240602   4.055   8.587   6.771  0.0129 -1.1219 -1.9146
18281THY    HP340603   3.935   8.570   6.891 -0.2444 -0.3225 -2.2599
18281THY    HP440604   4.075   8.473   6.904 -1.1669 -2.0660 -0.2871
18281THY    CP340605   4.087   8.658   7.112  0.7591  0.3086 -0.6117
18281THY    HP540606   4.140   8.735   7.168  0.0519 -0.4510  0.4662
18281THY    HP640607   4.107   8.557   7.149  0.6957  1.4732 -0.2171
18281THY    HP740608   3.980   8.673   7.132  0.8479  0.3028  0.0309
18281THY    CA340609   3.985   8.878   6.900  0.7708  0.1016 -0.6754
18281THY    HA340610   3.893   8.827   6.928  1.0363  1.7642 -0.2974
18281THY    CA440611   3.980   9.008   6.852  0.4750  0.5632 -0.3571
18281THY    HA440612   3.882   9.052   6.836  0.4355  1.3893 -0.1209
18281THY    CA540613   4.096   9.080   6.822  0.7556 -0.4236  0.4725
18281THY    CM140614   4.095   9.225   6.786  0.0266  0.2636  0.3397
18281THY    HM140615   4.045   9.242   6.690  1.3279 -0.3970  0.5708
18281THY    HM240616   4.198   9.249   6.756  0.0965 -1.3031 -1.6581
18281THY    HM340617   4.066   9.282   6.875 -0.2205  0.5310 -0.1942
18281THY    CA640618   4.217   9.013   6.832 -0.8094  0.4584 -1.0184
18281THY    HA640619   4.312   9.059   6.804 -0.0792  0.7502 -2.2893
18282THY      O40620   4.639   1.135   2.890 -0.5798  0.3043  0.0872
18282THY     HO40621   4.591   1.181   2.819 -1.4150  0.7950 -0.0061
18282THY    CA140622   4.772   1.155   2.865  0.6250  0.4300  0.4452
18282THY    CA240623   4.857   1.193   2.973 -0.4504 -0.0071 -0.7756
18282THY    CP140624   4.812   1.181   3.120 -0.4866  0.0251  0.0284
18282THY    HP140625   4.709   1.142   3.125 -0.5939  0.3737  0.3427
18282THY    CP240626   4.821   1.320   3.184  0.3920 -0.0717 -0.0094
18282THY    HP240627   4.906   1.381   3.149 -0.1005 -0.6194  0.3709
18282THY    HP340628   4.832   1.295   3.290 -0.1987 -0.4101 -1.8348
18282THY    HP440629   4.729   1.373   3.158  0.5103  2.4111  1.5787
18282THY    CP340630   4.910   1.082   3.189  0.3315  0.3034  0.7070
18282THY    HP540631   5.011   1.123   3.192  0.8421  1.5709 -0.5940
18282THY    HP640632   4.916   0.988   3.133 -4.1973 -1.5959  1.2851
18282THY    HP740633   4.881   1.067   3.293 -0.8498  0.4544  3.4627
18282THY    CA340634   4.985   1.212   2.939 -0.0673  0.2407 -0.8805
18282THY    HA340635   5.067   1.243   3.003  1.1811 -1.5344 -0.3744
18282THY    CA440636   5.025   1.201   2.807 -0.2630 -0.0198  0.5809
18282THY    HA440637   5.129   1.224   2.785 -0.3278 -0.1640  0.7432
18282THY    CA540638   4.941   1.176   2.706 -0.1098  0.0699  0.1921
18282THY    CM140639   4.996   1.170   2.568  1.1445  0.0153  0.0488
18282THY    HM140640   4.926   1.220   2.501  0.4041  1.7831  1.5034
18282THY    HM240641   5.024   1.067   2.544 -1.0019  0.1033 -0.6189
18282THY    HM340642   5.090   1.225   2.557  0.6604  1.4555  1.2388
18282THY    CA640643   4.813   1.144   2.739 -0.5705  1.2783  0.3518
18282THY    HA640644   4.744   1.122   2.658 -0.5962  1.2842  0.4115
18283THY      O40645   9.026   5.151   3.211 -0.1545  0.3966 -0.4550
18283THY     HO40646   9.033   5.093   3.289  0.5399 -0.0578 -0.9996
18283THY    CA140647   8.899   5.164   3.165  0.3384 -1.1588  0.5119
18283THY    CA240648   8.861   5.242   3.056  1.0384 -0.7987 -0.3082
18283THY    CP140649   8.967   5.315   2.978  0.1950 -0.1409  0.1510
18283THY    HP140650   9.050   5.339   3.045 -0.8837  1.2276  0.2099
18283THY    CP240651   8.935   5.441   2.912  0.1858  0.1651 -0.6889
18283THY    HP240652   8.903   5.520   2.981  1.7367 -0.2994  0.4162
18283THY    HP340653   8.859   5.434   2.833  0.0639  0.0041  1.6042
18283THY    HP440654   9.026   5.477   2.862 -0.9151  0.3383  2.6846
18283THY    CP340655   9.019   5.218   2.873 -0.2015  0.5608 -0.2765
18283THY    HP540656   8.941   5.182   2.804 -0.7720  1.1900 -0.2828
18283THY    HP640657   9.051   5.133   2.933 -0.1104 -1.7303 -1.9606
18283THY    HP740658   9.103   5.255   2.813 -1.6912 -2.9858 -2.1067
18283THY    CA340659   8.731   5.256   3.020  0.0585  0.0941 -0.7632
18283THY    HA340660   8.707   5.316   2.933  1.5559  1.5163  2.1308
18283THY    CA440661   8.633   5.183   3.093 -0.2406 -0.5006  0.4754
18283THY    HA440662   8.528   5.188   3.066 -0.4938  0.2743 -0.4342
18283THY    CA540663   8.673   5.098   3.199  0.4538  0.2822 -0.2275
18283THY    CM140664   8.579   5.023   3.283  0.3427  0.3513  0.8433
18283THY    HM140665   8.627   4.995   3.377  1.4013  0.4328  2.7943
18283THY    HM240666   8.545   4.931   3.234 -0.6408  2.2733  0.1256
18283THY    HM340667   8.489   5.082   3.308 -0.6868  1.9625 -1.2784
18283THY    CA640668   8.808   5.091   3.238  0.8161  0.2521 -0.1502
18283THY    HA640669   8.836   5.033   3.325 -2.3098  0.2867 -1.8415
18284THY      O40670   3.342   1.864   6.364  0.6251 -0.2464 -0.4486
18284THY     HO40671   3.284   1.868   6.442  0.7639 -0.1867  0.9409
18284THY    CA140672   3.274   1.787   6.276 -0.0311 -0.7074 -0.0445
18284THY    CA240673   3.265   1.646   6.281  0.2522 -0.9179 -0.0891
18284THY    CP140674   3.339   1.571   6.398 -0.1318 -0.2149  0.5220
18284THY    HP140675   3.338   1.634   6.488 -3.7685  1.7385 -1.9341
18284THY    CP240676   3.475   1.542   6.339 -0.5484  0.8411 -0.5837
18284THY    HP240677   3.504   1.646   6.324  0.8837  0.3257 -1.0233
18284THY    HP340678   3.476   1.476   6.251 -0.6379  0.4124 -0.0161
18284THY    HP440679   3.534   1.515   6.428 -0.1167  0.6445 -0.2981
18284THY    CP340680   3.267   1.449   6.456 -0.4002  0.0033  0.2212
18284THY    HP540681   3.166   1.470   6.492 -1.1063  0.4103 -3.3207
18284THY    HP640682   3.319   1.390   6.532  0.3220 -1.4905 -1.1587
18284THY    HP740683   3.258   1.374   6.377  1.0932 -0.0301  0.0490
18284THY    CA340684   3.178   1.585   6.191 -0.8023 -0.3462  0.2349
18284THY    HA340685   3.171   1.476   6.191 -1.9074  0.4827  0.2966
18284THY    CA440686   3.113   1.659   6.091  0.2689  0.3447  0.0525
18284THY    HA440687   3.034   1.613   6.031 -0.4483  1.4147 -0.1456
18284THY    CA540688   3.139   1.795   6.070 -0.7005 -0.5652 -0.3307
18284THY    CM140689   3.085   1.868   5.951 -0.0960 -0.6558 -0.3205
18284THY    HM140690   2.978   1.891   5.962 -0.4212 -0.8358 -1.7018
18284THY    HM240691   3.092   1.805   5.862  0.2498  0.2514 -1.5959
18284THY    HM340692   3.160   1.945   5.927  0.9683 -0.1093 -1.1576
18284THY    CA640693   3.211   1.856   6.168  0.6323 -0.9006 -0.0835
18284THY    HA640694   3.224   1.964   6.170 -1.1636 -2.8395  0.2296
18285THY      O40695   2.496   0.777   6.258 -0.0267  0.1885 -0.2179
18285THY     HO40696   2.500   0.847   6.191  0.4683  2.6906  2.3317
18285THY    CA140697   2.411   0.813   6.360  0.3081  0.3031 -0.3828
18285THY    CA240698   2.438   0.791   6.496  0.4569 -1.2245  0.8578
18285THY    CP140699   2.570   0.729   6.539 -0.1302  0.0814  0.2357
18285THY    HP140700   2.631   0.687   6.457  0.5144  1.3225 -1.3533
18285THY    CP240701   2.555   0.601   6.626 -0.1106 -0.1767  0.1966
18285THY    HP240702   2.488   0.624   6.710 -1.3923 -1.2598  0.5442
18285THY    HP340703   2.656   0.581   6.663 -1.0637  1.4729 -1.9816
18285THY    HP440704   2.510   0.521   6.565 -1.0298  0.0024  0.5735
18285THY    CP340705   2.652   0.842   6.606 -0.4268  0.2411  0.1764
18285THY    HP540706   2.632   0.932   6.547 -0.3417 -2.3798 -1.4343
18285THY    HP640707   2.760   0.829   6.604 -0.5996 -0.9820 -1.2374
18285THY    HP740708   2.618   0.855   6.710 -0.7744  0.2391 -0.6631
18285THY    CA340709   2.332   0.804   6.596  0.3589  0.6687 -0.2868
18285THY    HA340710   2.343   0.788   6.703 -0.0596  0.6129 -0.9925
18285THY    CA440711   2.210   0.861   6.550  0.1691  0.2496  0.5629
18285THY    HA440712   2.134   0.891   6.621  0.1869  0.3177  0.4502
18285THY    CA540713   2.187   0.889   6.419 -0.1309  0.3017 -0.3125
18285THY    CM140714   2.056   0.957   6.385 -0.6040  0.7228  0.0379
18285THY    HM140715   2.062   1.025   6.299  0.4477  0.0350 -0.8930
18285THY    HM240716   2.009   1.006   6.471 -1.8482  0.2870 -0.3721
18285THY    HM340717   1.989   0.878   6.349  0.0511 -1.2523  0.3222
18285THY    CA640718   2.285   0.860   6.323 -0.7967  0.3070 -0.2159
18285THY    HA640719   2.273   0.865   6.216 -0.6782  0.2912 -0.2642
18286THY      O40720   6.848   5.215   2.880  0.8154  0.0205  0.2599
18286THY     HO40721   6.933   5.168   2.879 -0.0600  0.0812 -1.4026
18286THY    CA140722   6.768   5.151   2.978  0.7074 -0.7109 -0.0986
18286THY    CA240723   6.621   5.154   2.983 -0.1949 -0.0227  0.1104
18286THY    CP140724   6.539   5.245   2.886  0.1783  0.2824 -0.0475
18286THY    HP140725   6.595   5.336   2.860 -1.2886 -0.0660  0.7938
18286THY    CP240726   6.410   5.301   2.947 -0.5523  0.1731 -0.6078
18286THY    HP240727   6.332   5.225   2.952  0.4613 -0.3844 -1.7175
18286THY    HP340728   6.376   5.389   2.891  2.8003 -0.7065  0.2762
18286THY    HP440729   6.416   5.330   3.052 -2.2321  0.3191 -0.6669
18286THY    CP340730   6.515   5.169   2.754 -0.0019 -0.0120 -0.4295
18286THY    HP540731   6.471   5.237   2.680 -0.5099  1.9380  1.5183
18286THY    HP640732   6.446   5.086   2.771 -2.4784  2.0681  1.8263
18286THY    HP740733   6.611   5.134   2.715 -0.4103 -1.1364 -0.3375
18286THY    CA340734   6.556   5.084   3.087  0.2128  0.2515  0.5059
18286THY    HA340735   6.450   5.099   3.101 -0.1930 -0.3908 -1.4126
18286THY    CA440736   6.625   4.995   3.165  0.1348 -0.5638  0.6873
18286THY    HA440737   6.578   4.941   3.247 -0.2214 -1.1614  0.0854
18286THY    CA540738   6.762   4.993   3.156  0.1924  0.2456 -0.1092
18286THY    CM140739   6.835   4.890   3.244  0.2647 -0.4897 -0.2228
18286THY    HM140740   6.941   4.919   3.241 -0.3598 -1.5876  2.1842
18286THY    HM240741   6.811   4.791   3.203  1.0099 -2.1449  0.2494
18286THY    HM340742   6.814   4.895   3.351  0.5717 -0.4248 -0.2571
18286THY    CA640743   6.836   5.067   3.062  1.0759  0.0611 -0.2731
18286THY    HA640744   6.944   5.067   3.054  1.0449 -0.9643  1.8309
18287THY      O40745   8.065   5.235   7.541 -0.0547  0.3410 -0.2902
18287THY     HO40746   8.010   5.155   7.543 -1.1647  2.9474  0.4476
18287THY    CA140747   8.123   5.250   7.419  1.1487  0.6304  0.6880
18287THY    CA240748   8.235   5.326   7.401 -0.3495  0.5615 -0.1080
18287THY    CP140749   8.307   5.384   7.523 -0.1170 -0.1252  1.0322
18287THY    HP140750   8.244   5.402   7.610  0.4649  0.7990 -1.1276
18287THY    CP240751   8.374   5.519   7.497 -0.6014  0.0684 -0.2540
18287THY    HP240752   8.394   5.576   7.588 -0.7542 -0.2073  0.2477
18287THY    HP340753   8.309   5.589   7.441 -0.3765  1.1751  0.8774
18287THY    HP440754   8.463   5.517   7.433 -0.4597  0.2921 -1.5862
18287THY    CP340755   8.406   5.284   7.593 -0.0402  0.0599 -0.0390
18287THY    HP540756   8.352   5.192   7.618  1.0460 -0.7222 -0.9119
18287THY    HP640757   8.448   5.329   7.684 -1.4784  1.2409 -0.9881
18287THY    HP740758   8.493   5.269   7.529  0.8322  1.0185  0.7771
18287THY    CA340759   8.288   5.342   7.270  0.3883  0.1011  0.2750
18287THY    HA340760   8.379   5.400   7.258  1.6845 -0.1340 -1.7253
18287THY    CA440761   8.220   5.285   7.164  0.3604  0.1273 -0.4997
18287THY    HA440762   8.247   5.298   7.059  0.3716  0.1737 -0.1342
18287THY    CA540763   8.105   5.210   7.184  0.1029  0.4954 -0.2467
18287THY    CM140764   8.027   5.146   7.076  0.5070  0.3626 -0.1457
18287THY    HM140765   8.039   5.038   7.089 -2.1738  1.0219 -0.4332
18287THY    HM240766   8.047   5.174   6.972  0.1751 -0.6862 -3.4069
18287THY    HM340767   7.921   5.152   7.103  0.0222 -1.3419 -0.5465
18287THY    CA640768   8.060   5.190   7.313  0.7386 -0.8093 -0.5297
18287THY    HA640769   7.973   5.129   7.336  0.6317 -3.1050 -1.3159
18288THY      O40770   3.141   4.619   6.249 -0.3668  0.4419 -0.6457
18288THY     HO40771   3.098   4.664   6.323 -1.6125 -1.4676  1.5466
18288THY    CA140772   3.067   4.505   6.231 -0.3315  0.4741  0.4467
18288THY    CA240773   3.086   4.435   6.110 -0.7416 -0.4982  0.4029
18288THY    CP140774   3.200   4.473   6.015  0.4253 -0.9622  0.2979
18288THY    HP140775   3.212   4.582   6.018 -3.0293 -2.1281  0.8137
18288THY    CP240776   3.167   4.444   5.865  0.0024 -0.3650  0.3288
18288THY    HP240777   3.073   4.487   5.828  0.4212 -1.5559  0.2586
18288THY    HP340778   3.162   4.334   5.861  2.4636 -1.2557  0.1900
18288THY    HP440779   3.250   4.485   5.807  1.3134  1.3720  0.2371
18288THY    CP340780   3.325   4.398   6.061  0.1031 -0.0758  0.2324
18288THY    HP540781   3.348   4.437   6.161  0.5165 -0.0683 -0.0220
18288THY    HP640782   3.411   4.413   5.995 -0.1349 -0.5143 -0.2898
18288THY    HP740783   3.306   4.290   6.067  0.5774  0.7759  0.1857
18288THY    CA340784   3.018   4.314   6.094 -0.1997  0.4671  0.0427
18288THY    HA340785   3.020   4.267   5.996 -0.0160 -1.7896  4.2088
18288THY    CA440786   2.925   4.278   6.196 -0.8432 -0.2202 -0.1116
18288THY    HA440787   2.860   4.192   6.182 -3.1646 -0.9458  1.6403
18288THY    CA540788   2.916   4.350   6.314 -0.1428 -0.7642 -0.3414
18288THY    CM140789   2.819   4.311   6.417  0.7988  0.3213 -0.1004
18288THY    HM140790   2.733   4.378   6.405 -0.3764  2.0315 -1.2052
18288THY    HM240791   2.863   4.306   6.517 -0.3574  0.8133 -1.0736
18288THY    HM340792   2.771   4.214   6.397  0.3381  0.5706  0.0728
18288THY    CA640793   2.982   4.472   6.325  0.2560 -0.3894 -0.8477
18288THY    HA640794   2.956   4.525   6.416 -0.0342 -0.6136 -0.6006
18289THY      O40795   3.936   2.948   7.139 -0.1980 -0.1181 -0.2349
18289THY     HO40796   3.985   2.892   7.201  0.6225 -0.5758 -0.0451
18289THY    CA140797   4.033   3.018   7.072 -0.2601  0.5433 -0.4971
18289THY    CA240798   4.007   3.116   6.979  0.3271  0.4885  0.9065
18289THY    CP140799   3.859   3.127   6.931  0.0602 -0.6217  0.5310
18289THY    HP140800   3.789   3.066   6.989 -0.1422 -0.7509  0.6358
18289THY    CP240801   3.838   3.103   6.776 -0.3733 -0.4855  0.1283
18289THY    HP240802   3.900   3.165   6.712 -0.5281 -0.1604  0.6273
18289THY    HP340803   3.731   3.112   6.754 -0.4965 -0.3269 -0.7808
18289THY    HP440804   3.855   2.996   6.757  1.0737 -1.3119  0.4868
18289THY    CP340805   3.819   3.277   6.949 -0.5717  0.2222  0.4509
18289THY    HP540806   3.717   3.291   6.912 -0.9659  0.9526 -0.3805
18289THY    HP640807   3.883   3.347   6.894  0.2178 -0.9111 -1.0987
18289THY    HP740808   3.810   3.301   7.056 -1.2100  0.3518 -0.3462
18289THY    CA340809   4.111   3.195   6.923 -0.0775  0.6246 -0.0638
18289THY    HA340810   4.085   3.267   6.846 -1.8757  1.1824 -0.0762
18289THY    CA440811   4.241   3.183   6.977  0.4160 -0.0798  1.1709
18289THY    HA440812   4.328   3.238   6.940  0.4058 -1.5018  0.2840
18289THY    CA540813   4.268   3.085   7.075 -0.0023 -0.7110  0.2575
18289THY    CM140814   4.402   3.050   7.114 -0.7384 -0.4068  0.1266
18289THY    HM140815   4.407   3.032   7.222 -1.8956 -0.1145  1.3653
18289THY    HM240816   4.476   3.127   7.088 -1.4617 -0.6574  0.7541
18289THY    HM340817   4.445   2.969   7.056  1.3080 -1.3256  1.7764
18289THY    CA640818   4.162   2.997   7.118 -0.6198 -0.1320 -0.7628
18289THY    HA640819   4.180   2.909   7.179 -3.0241 -0.3866 -1.5185
18290THY      O40820   8.057   1.465   5.579 -0.1409 -0.2131 -0.2792
18290THY     HO40821   8.142   1.426   5.550 -0.5462  2.3392 -3.5587
18290THY    CA140822   7.967   1.457   5.481 -0.0932  0.5095 -0.1025
18290THY    CA240823   7.841   1.521   5.468 -0.0946 -0.3695  0.0557
18290THY    CP140824   7.806   1.626   5.579 -0.7090 -0.0134  0.0162
18290THY    HP140825   7.883   1.626   5.658 -0.2124 -0.4797 -1.4976
18290THY    CP240826   7.673   1.602   5.653 -0.0155 -0.3262 -0.1541
18290THY    HP240827   7.677   1.516   5.720  3.0031 -1.6475 -1.1859
18290THY    HP340828   7.592   1.584   5.581 -0.0305  0.1601 -2.3343
18290THY    HP440829   7.645   1.689   5.712 -0.7149  0.1399 -0.6813
18290THY    CP340830   7.812   1.770   5.526  0.5238  0.3759 -0.6929
18290THY    HP540831   7.757   1.849   5.578  2.1950  0.3479  0.5521
18290THY    HP640832   7.773   1.788   5.425  1.8887  0.1666  1.5135
18290THY    HP740833   7.918   1.794   5.511  1.0836  0.8390 -2.7233
18290THY    CA340834   7.757   1.505   5.357  0.0717 -0.3329 -0.4130
18290THY    HA340835   7.662   1.556   5.359  0.4344 -1.1949  0.3280
18290THY    CA440836   7.811   1.433   5.251 -0.1378  0.3574 -0.4162
18290THY    HA440837   7.757   1.416   5.158  0.8695 -0.0170 -1.7745
18290THY    CA540838   7.940   1.375   5.254 -0.0170  0.4691 -0.2093
18290THY    CM140839   7.991   1.291   5.145 -0.4004 -0.2575  0.9000
18290THY    HM140840   7.940   1.329   5.056 -0.0423 -0.8105  0.0957
18290THY    HM240841   7.946   1.193   5.166  1.0222 -0.5132  0.1630
18290THY    HM340842   8.098   1.267   5.149 -0.6837  1.0467 -0.2748
18290THY    CA640843   8.015   1.385   5.371  0.1312  0.4946 -0.1050
18290THY    HA640844   8.109   1.331   5.375 -0.1319  0.4657 -0.5782
18291THY      O40845   8.017   8.827   7.064 -0.1418  0.1840  0.1359
18291THY     HO40846   8.005   8.772   6.984  0.6555 -1.1853  1.8569
18291THY    CA140847   7.948   8.940   7.048  0.6004 -0.8563 -0.1020
18291THY    CA240848   7.965   9.049   7.141 -0.7225  0.2395  0.2621
18291THY    CP140849   8.072   9.045   7.243  0.3232 -0.9492  0.8392
18291THY    HP140850   8.159   9.007   7.188 -0.2225 -0.8383 -0.6272
18291THY    CP240851   8.047   8.955   7.362  0.5062  0.4226 -0.3658
18291THY    HP240852   8.056   8.852   7.327  1.6821 -1.4490  0.3263
18291THY    HP340853   7.944   8.977   7.394  0.3726 -0.9577  1.1450
18291THY    HP440854   8.117   8.972   7.445 -0.9411  1.4356  0.8963
18291THY    CP340855   8.113   9.185   7.300 -0.7373 -0.0200  0.7588
18291THY    HP540856   8.046   9.212   7.382 -2.3378 -0.4548 -1.5746
18291THY    HP640857   8.102   9.256   7.217  1.5633  0.0315  1.2326
18291THY    HP740858   8.214   9.186   7.342 -0.9336  0.5872 -0.9510
18291THY    CA340859   7.882   9.157   7.121 -0.5829 -0.4435 -0.6129
18291THY    HA340860   7.887   9.250   7.176 -0.8320 -1.4040 -0.0266
18291THY    CA440861   7.785   9.160   7.020  0.9093 -0.2088 -0.1305
18291THY    HA440862   7.715   9.243   7.014 -0.7446  0.5061 -1.4047
18291THY    CA540863   7.775   9.053   6.933  0.1647 -0.3708  0.3381
18291THY    CM140864   7.680   9.055   6.815  0.0346  0.8186  0.2405
18291THY    HM140865   7.638   8.959   6.784 -1.2628 -1.2479  1.4078
18291THY    HM240866   7.727   9.083   6.720  0.2436 -0.2357 -3.2542
18291THY    HM340867   7.595   9.122   6.836 -0.3580 -0.1871  0.0725
18291THY    CA640868   7.852   8.943   6.948  0.8745 -1.0866 -0.3899
18291THY    HA640869   7.855   8.858   6.880  2.0835 -1.8011  0.1957
18292THY      O40870   3.410   8.034   2.331  0.0389  0.9071  0.1661
18292THY     HO40871   3.504   8.051   2.316  0.6453  0.5918 -2.8358
18292THY    CA140872   3.382   7.916   2.274 -0.5960  0.3620 -0.2350
18292THY    CA240873   3.255   7.865   2.270 -0.5440 -0.9112  0.2357
18292THY    CP140874   3.140   7.940   2.328 -0.2289 -0.7041 -0.3744
18292THY    HP140875   3.169   8.039   2.365  0.1361 -0.9692 -0.3805
18292THY    CP240876   3.082   7.869   2.457  0.4262 -0.5321  0.3660
18292THY    HP240877   3.163   7.854   2.530 -0.7838  0.7624 -0.0636
18292THY    HP340878   3.036   7.773   2.433 -0.5036 -1.0277  0.9214
18292THY    HP440879   2.998   7.922   2.505  0.2969  0.7764 -0.9729
18292THY    CP340880   3.022   7.958   2.233  0.3096  0.2032 -0.4537
18292THY    HP540881   2.942   7.888   2.256  0.0015  1.7002  0.3404
18292THY    HP640882   3.068   7.958   2.134 -1.6931 -0.8030  0.9601
18292THY    HP740883   2.986   8.061   2.245  2.4433  1.5643  0.2234
18292THY    CA340884   3.221   7.753   2.197  0.2797 -0.9050 -0.3713
18292THY    HA340885   3.119   7.717   2.186 -0.2515 -1.5772  1.2553
18292THY    CA440886   3.331   7.678   2.154  0.7575  0.3987 -0.6082
18292THY    HA440887   3.309   7.585   2.101 -1.1970 -0.9712  0.5633
18292THY    CA540888   3.460   7.717   2.168  0.0075  0.0205 -0.0730
18292THY    CM140889   3.573   7.640   2.101  0.4411 -0.1118  0.1808
18292THY    HM140890   3.677   7.649   2.134  0.5302  0.5501 -2.4126
18292THY    HM240891   3.562   7.657   1.993  1.2858 -0.2380 -0.0143
18292THY    HM340892   3.557   7.532   2.112  2.4494 -1.6341 -0.3449
18292THY    CA640893   3.486   7.845   2.221 -0.2081  0.6639  0.2135
18292THY    HA640894   3.589   7.877   2.220 -0.1237  0.0358 -0.0616
18293THY      O40895   6.648   8.805   3.437  0.1724 -0.2052  0.0214
18293THY     HO40896   6.651   8.858   3.518 -0.3111 -2.3693  3.6600
18293THY    CA140897   6.781   8.789   3.408 -0.4044 -0.2523  0.4906
18293THY    CA240898   6.826   8.750   3.282  0.3279 -0.3385  0.0361
18293THY    CP140899   6.717   8.742   3.167  0.2618  0.4252  0.0969
18293THY    HP140900   6.616   8.774   3.196 -0.4123 -1.5571 -0.1162
18293THY    CP240901   6.702   8.590   3.114 -0.0868 -0.2886 -0.4902
18293THY    HP240902   6.654   8.538   3.198  0.6923  1.6741  1.7589
18293THY    HP340903   6.799   8.555   3.078  0.1305  0.1543 -0.3612
18293THY    HP440904   6.640   8.576   3.025 -0.1076 -0.1206 -1.5187
18293THY    CP340905   6.756   8.827   3.044  0.2089 -0.0083 -0.1130
18293THY    HP540906   6.856   8.800   3.007 -0.3265 -1.6613  0.0189
18293THY    HP640907   6.746   8.931   3.078  0.6267 -0.7003  0.1609
18293THY    HP740908   6.685   8.808   2.963 -0.5922 -0.1373  2.8865
18293THY    CA340909   6.968   8.738   3.264  0.0808  0.3061  0.5463
18293THY    HA340910   7.005   8.720   3.164 -0.4406  0.0777  0.7173
18293THY    CA440911   7.056   8.744   3.371  0.5404  0.0540 -0.0902
18293THY    HA440912   7.160   8.714   3.361 -0.3875 -2.1049 -3.0974
18293THY    CA540913   7.003   8.779   3.501 -0.3794  0.7077 -0.8379
18293THY    CM140914   7.093   8.761   3.625 -0.3808  0.0323 -0.1143
18293THY    HM140915   7.179   8.828   3.617  0.1103  2.0206 -0.4520
18293THY    HM240916   7.136   8.661   3.632 -1.1036  1.4709 -0.3465
18293THY    HM340917   7.036   8.796   3.712  0.2669  0.3054  0.2802
18293THY    CA640918   6.870   8.808   3.515  0.2792  0.0544  0.0624
18293THY    HA640919   6.839   8.834   3.616 -0.3902 -0.4194  1.1418
18294THY      O40920   1.990   9.323   4.013  0.2968 -0.2759 -0.0823
18294THY     HO40921   1.922   9.337   4.081  1.6858  1.3248 -0.7545
18294THY    CA140922   2.086   9.265   4.079  0.2890 -0.0314 -0.4635
18294THY    CA240923   2.200   9.214   4.017 -0.6013  0.6510 -0.0841
18294THY    CP140924   2.209   9.236   3.865  0.2521 -0.2943 -0.1206
18294THY    HP140925   2.165   9.330   3.830  0.1550 -0.1196 -0.1011
18294THY    CP240926   2.135   9.126   3.801 -0.6370 -0.2404  0.0996
18294THY    HP240927   2.145   9.147   3.694 -1.3392 -0.4387 -0.5576
18294THY    HP340928   2.028   9.129   3.826 -0.2159  1.7075  0.0685
18294THY    HP440929   2.177   9.026   3.819 -1.4122 -1.2698 -0.4302
18294THY    CP340930   2.358   9.242   3.824 -1.1288  1.2275  0.2969
18294THY    HP540931   2.355   9.261   3.716  0.3948  1.3473  1.3346
18294THY    HP640932   2.418   9.151   3.834  1.2337  0.2433  1.6396
18294THY    HP740933   2.426   9.320   3.861 -1.2182 -0.2195  1.1033
18294THY    CA340934   2.305   9.150   4.095 -0.0335  0.2909  0.3986
18294THY    HA340935   2.389   9.100   4.047  0.9637  3.2206 -0.9153
18294THY    CA440936   2.282   9.141   4.234 -1.5977  0.0596  0.2612
18294THY    HA440937   2.342   9.081   4.302 -0.8076 -1.0648 -0.2560
18294THY    CA540938   2.175   9.205   4.295  0.4739 -0.5852  0.2305
18294THY    CM140939   2.165   9.211   4.444 -0.2436  0.0688 -0.1605
18294THY    HM140940   2.074   9.157   4.473 -0.3010  1.6872  0.7220
18294THY    HM240941   2.150   9.315   4.477  0.2761  1.3223 -0.4699
18294THY    HM340942   2.246   9.154   4.491 -0.9424 -0.0814 -1.2985
18294THY    CA640943   2.073   9.265   4.215 -0.3469  0.3114  0.0862
18294THY    HA640944   1.989   9.316   4.261 -0.1123 -1.9357  2.7396
18295THY      O40945   8.230   5.807   4.732  0.1066  0.3479 -0.0625
18295THY     HO40946   8.222   5.732   4.794 -0.2133 -1.0507 -1.2152
18295THY    CA140947   8.219   5.743   4.613  0.4898  0.5815 -0.0499
18295THY    CA240948   8.158   5.806   4.497 -0.5438 -0.9006  0.5700
18295THY    CP140949   8.118   5.955   4.500 -0.2614  0.1172 -0.5421
18295THY    HP140950   8.130   6.002   4.599 -0.2525  0.0094 -0.3152
18295THY    CP240951   7.968   5.978   4.468  0.6013  0.3255 -0.1793
18295THY    HP240952   7.924   5.922   4.551 -0.1784 -0.3235 -0.5365
18295THY    HP340953   7.957   5.925   4.373 -1.3246 -0.2586  1.1701
18295THY    HP440954   7.938   6.082   4.450  1.4385 -5.3041 -0.5967
18295THY    CP340955   8.217   6.038   4.416  0.6667  0.6109  0.2366
18295THY    HP540956   8.306   6.056   4.477 -0.2557  1.0936  4.0342
18295THY    HP640957   8.167   6.130   4.386 -0.7483  0.3564 -0.5891
18295THY    HP740958   8.243   5.975   4.330 -2.5661  0.7284 -1.4667
18295THY    CA340959   8.139   5.726   4.386 -0.2117 -0.1206  0.1548
18295THY    HA340960   8.086   5.758   4.296  0.2775 -0.5547 -0.2372
18295THY    CA440961   8.178   5.595   4.386 -0.5222 -0.1386  1.3637
18295THY    HA440962   8.155   5.527   4.304  0.9305 -1.7367  2.6952
18295THY    CA540963   8.238   5.533   4.494  0.1535  0.1762 -1.0675
18295THY    CM140964   8.251   5.386   4.499  0.4699  0.3788 -0.3307
18295THY    HM140965   8.258   5.352   4.395 -0.8358  0.3105 -0.4542
18295THY    HM240966   8.157   5.342   4.534 -0.2156 -2.2462 -1.1501
18295THY    HM340967   8.337   5.358   4.561  0.1667  0.8851 -0.1587
18295THY    CA640968   8.253   5.610   4.607  0.0405 -0.1641 -0.3349
18295THY    HA640969   8.290   5.558   4.694 -1.3846  1.4769  1.2523
18296THY      O40970   6.323   9.041   3.539 -0.6750  0.2247 -0.0049
18296THY     HO40971   6.304   8.951   3.509  0.6750 -0.4797 -0.0750
18296THY    CA140972   6.226   9.082   3.626  0.7466  0.0631 -0.5033
18296THY    CA240973   6.090   9.039   3.614 -0.7617 -0.4465 -0.3975
18296THY    CP140974   6.043   8.945   3.507  0.1890  0.0417  0.0298
18296THY    HP140975   6.127   8.926   3.438  1.3568  1.1248  1.0857
18296THY    CP240976   5.940   9.017   3.422  0.1940  0.5797 -0.0508
18296THY    HP240977   5.950   8.985   3.318 -1.4941  0.0727  0.9337
18296THY    HP340978   5.967   9.123   3.410 -1.7523 -0.5389  0.3555
18296THY    HP440979   5.839   9.001   3.461  0.2144  0.0231 -1.6898
18296THY    CP340980   6.009   8.805   3.553  0.3721 -0.5953  0.4043
18296THY    HP540981   6.090   8.759   3.611  1.7176 -2.0025  0.8931
18296THY    HP640982   5.995   8.734   3.471  0.1077  1.0351 -1.5350
18296THY    HP740983   5.918   8.806   3.614  0.9454  0.2817  2.4413
18296THY    CA340984   6.008   9.096   3.713  0.0285  0.9972  0.5948
18296THY    HA340985   5.905   9.060   3.716  0.2921  0.1971 -0.2563
18296THY    CA440986   6.051   9.183   3.812 -0.8504 -0.3779 -0.1611
18296THY    HA440987   5.985   9.223   3.888 -0.1685 -0.0683  0.3905
18296THY    CA540988   6.183   9.212   3.825 -0.5185 -0.2283  0.4526
18296THY    CM140989   6.241   9.283   3.946  0.0913  0.1064  0.3981
18296THY    HM140990   6.348   9.304   3.942  1.1583 -0.7790 -4.1222
18296THY    HM240991   6.233   9.230   4.042 -0.6874 -0.2187 -0.1030
18296THY    HM340992   6.190   9.379   3.940 -1.7941 -0.1393 -0.5647
18296THY    CA640993   6.273   9.172   3.724  0.5844 -0.9837  0.6523
18296THY    HA640994   6.380   9.187   3.732  0.5531  1.0815  0.1001
18297THY      O40995   1.000   8.136   5.711  0.4435  0.4148  0.0333
18297THY     HO40996   0.949   8.156   5.791 -0.9888 -0.7573  1.3108
18297THY    CA140997   1.099   8.054   5.751 -0.9310 -0.2355 -0.0725
18297THY    CA240998   1.198   8.004   5.660  1.3956 -0.7300 -0.1272
18297THY    CP140999   1.204   8.060   5.525  0.3060  0.3265  0.1310
18297THY    HP141000   1.108   8.107   5.501  0.1226  0.0491 -0.3668
18297THY    CP241001   1.205   7.938   5.432 -0.5082 -0.4771  0.4067
18297THY    HP241002   1.174   7.972   5.332  0.4556 -0.8760  0.1574
18297THY    HP341003   1.125   7.870   5.463  0.3242  2.3498  0.6057
18297THY    HP441004   1.304   7.891   5.431 -1.1232  0.0107 -0.9397
18297THY    CP341005   1.323   8.142   5.497  0.6465  0.3368  0.5418
18297THY    HP541006   1.420   8.092   5.510  1.5087  0.6963  2.2081
18297THY    HP641007   1.321   8.241   5.544  3.2256 -0.4290  1.0535
18297THY    HP741008   1.322   8.171   5.392  2.8702  0.6193  1.9564
18297THY    CA341009   1.284   7.902   5.710 -0.6251 -0.1386 -0.3105
18297THY    HA341010   1.367   7.876   5.645  1.0101  2.1377 -1.1130
18297THY    CA441011   1.288   7.870   5.848  0.0429  0.2112 -0.0779
18297THY    HA441012   1.358   7.795   5.883  1.2247 -2.0673 -0.1294
18297THY    CA541013   1.191   7.926   5.932  0.0752 -0.0584 -0.9593
18297THY    CM141014   1.206   7.899   6.078  0.4895  0.3991 -0.4663
18297THY    HM141015   1.270   7.811   6.087  0.2276 -3.7520 -1.2659
18297THY    HM241016   1.116   7.864   6.129  0.4331  0.2528 -0.5377
18297THY    HM341017   1.251   7.982   6.133  1.7045 -0.0300 -0.8162
18297THY    CA641018   1.095   8.019   5.882 -0.2983 -0.1509  0.5339
18297THY    HA641019   1.026   8.062   5.954  0.1556  0.8135 -0.3145
18298THY      O41020   4.381   0.838   3.942 -0.1968 -0.3338 -0.1359
18298THY     HO41021   4.306   0.806   3.890 -0.3202 -0.2021 -0.0591
18298THY    CA141022   4.401   0.763   4.049 -0.0017  0.0980 -0.4528
18298THY    CA241023   4.509   0.788   4.133  0.8957 -0.2429  0.1356
18298THY    CP141024   4.612   0.897   4.102 -0.5883  1.0105 -0.2234
18298THY    HP141025   4.552   0.983   4.071 -0.2472  2.2576  0.5022
18298THY    CP241026   4.694   0.857   3.980  0.3985  0.1182  0.0260
18298THY    HP241027   4.733   0.942   3.923 -0.9251 -1.7347 -0.5504
18298THY    HP341028   4.631   0.801   3.909 -0.2405 -0.2461  1.1760
18298THY    HP441029   4.774   0.787   4.009 -0.5529 -0.7814 -1.4986
18298THY    CP341030   4.714   0.942   4.218  0.1204  0.4980  0.3840
18298THY    HP541031   4.653   0.954   4.308  1.5746  1.6181 -0.3019
18298THY    HP641032   4.759   1.037   4.186  0.9241 -0.6816 -0.3607
18298THY    HP741033   4.795   0.869   4.232  0.6198  1.6207  1.1235
18298THY    CA341034   4.510   0.712   4.249  0.1393 -0.1871 -0.2393
18298THY    HA341035   4.597   0.741   4.307 -0.7801 -0.2123  2.8522
18298THY    CA441036   4.422   0.609   4.273 -0.6714  0.0884  0.8610
18298THY    HA441037   4.423   0.547   4.363 -1.4698 -2.2521 -2.8857
18298THY    CA541038   4.327   0.578   4.182  0.6997  0.2516 -0.3793
18298THY    CM141039   4.233   0.460   4.195 -0.4910  0.0267 -0.3773
18298THY    HM141040   4.147   0.503   4.247  0.5292  1.1630  0.3540
18298THY    HM241041   4.281   0.376   4.246  1.4746 -1.0507  0.0240
18298THY    HM341042   4.195   0.420   4.100 -4.4180  0.1005  2.5594
18298THY    CA641043   4.309   0.657   4.070 -0.1172 -0.5370  0.1138
18298THY    HA641044   4.226   0.629   4.006  0.8972 -0.7178 -2.7930
18299THY      O41045   9.082   5.201   5.945 -0.6329  0.5856  0.7032
18299THY     HO41046   9.176   5.219   5.925 -0.4310  0.7530 -0.1235
18299THY    CA141047   9.090   5.067   5.927  0.1677  0.2276 -1.1166
18299THY    CA241048   9.013   4.981   6.008 -0.3431  0.0770 -0.0089
18299THY    CP141049   8.920   5.034   6.115 -0.6207  0.7246  0.3380
18299THY    HP141050   8.953   5.132   6.150 -1.1484 -1.4768  1.3721
18299THY    CP241051   8.906   4.952   6.242  0.2614  0.3514  0.0006
18299THY    HP241052   8.999   4.937   6.298  1.5689 -1.3356  1.3649
18299THY    HP341053   8.856   4.855   6.227  1.5685 -0.2188 -0.6159
18299THY    HP441054   8.842   5.011   6.307 -0.4595 -0.0250 -0.3587
18299THY    CP341055   8.787   5.061   6.054 -0.1523 -0.2831 -0.2012
18299THY    HP541056   8.787   5.142   5.980 -1.2518  0.0965  0.1651
18299THY    HP641057   8.712   5.086   6.130 -1.1673 -2.2416  3.3879
18299THY    HP741058   8.742   4.971   6.011 -1.7303  1.3032 -0.2146
18299THY    CA341059   9.022   4.840   5.980 -0.3991  0.8342 -0.0178
18299THY    HA341060   8.967   4.761   6.030 -0.8283  1.3529  0.6084
18299THY    CA441061   9.103   4.797   5.872  0.4232  0.1081  0.0105
18299THY    HA441062   9.112   4.693   5.839  0.1201 -2.6077  0.7522
18299THY    CA541063   9.173   4.884   5.789  0.3496  0.3386 -0.4890
18299THY    CM141064   9.231   4.842   5.656 -0.5066 -0.0688 -0.1147
18299THY    HM141065   9.181   4.889   5.571  0.8208  0.3093  2.1408
18299THY    HM241066   9.237   4.734   5.636 -0.7875  0.4818 -0.2398
18299THY    HM341067   9.330   4.884   5.634  0.2924 -2.7264 -3.0207
18299THY    CA641068   9.172   5.021   5.821  0.3607  0.6542  0.5523
18299THY    HA641069   9.227   5.098   5.767 -0.3738 -1.2054 -0.1732
18300THY      O41070   6.542   5.339   6.250  0.1621  0.0650  0.4168
18300THY     HO41071   6.490   5.351   6.331 -0.8683 -0.5288  0.0897
18300THY    CA141072   6.618   5.228   6.269  0.0202  0.7169  0.2325
18300THY    CA241073   6.687   5.167   6.160 -0.0637 -0.0086 -0.6254
18300THY    CP141074   6.707   5.243   6.031  0.3591 -0.3327  0.4822
18300THY    HP141075   6.665   5.343   6.044 -0.4636 -0.5472  0.1724
18300THY    CP241076   6.643   5.173   5.918  0.1902  0.4366 -0.3083
18300THY    HP241077   6.644   5.241   5.832 -3.3493 -0.0512 -0.6811
18300THY    HP341078   6.538   5.147   5.935  0.4194 -0.0139 -1.5689
18300THY    HP441079   6.692   5.080   5.889 -2.5864 -2.2196 -1.0963
18300THY    CP341080   6.852   5.273   6.006 -0.0587 -0.5323  0.5579
18300THY    HP541081   6.894   5.328   6.091  0.2125 -1.0664  1.1923
18300THY    HP641082   6.869   5.326   5.911  0.3151 -0.1316  1.1645
18300THY    HP741083   6.912   5.182   5.994  0.5161 -1.2117  1.0109
18300THY    CA341084   6.745   5.042   6.174  0.1103 -0.2911 -0.4259
18300THY    HA341085   6.797   5.000   6.088  0.6582 -0.5191  0.6832
18300THY    CA441086   6.740   4.976   6.294  0.4857 -0.0008  0.0591
18300THY    HA441087   6.788   4.880   6.307  0.8180  0.1195  0.2398
18300THY    CA541088   6.684   5.040   6.406 -0.7528  0.1498 -0.8090
18300THY    CM141089   6.672   4.957   6.527 -0.2177  0.5705 -0.0248
18300THY    HM141090   6.640   5.021   6.610 -2.9503 -1.7072  1.8150
18300THY    HM241091   6.765   4.902   6.547 -0.9117  0.8012 -1.1614
18300THY    HM341092   6.588   4.887   6.513  1.2371 -3.3303 -1.3092
18300THY    CA641093   6.618   5.162   6.389 -0.1819  0.9686  0.3240
18300THY    HA641094   6.569   5.209   6.474 -1.2653  0.0731  0.8407
18301THY      O41095   0.101   2.934   4.492  0.2965  0.1819  0.0652
18301THY     HO41096   0.031   2.928   4.560 -0.1647 -0.3777 -1.4691
18301THY    CA141097   0.217   2.951   4.562  0.4130  0.5670  0.0617
18301THY    CA241098   0.341   2.973   4.494 -0.3671  1.1451  0.0705
18301THY    CP141099   0.342   2.977   4.341  1.0043 -0.2342 -0.4007
18301THY    HP141100   0.254   3.032   4.306  1.6787  1.0224  1.6002
18301THY    CP241101   0.342   2.830   4.281  0.0457 -0.3829 -0.0442
18301THY    HP241102   0.437   2.776   4.292 -0.0696 -3.0181 -0.9442
18301THY    HP341103   0.321   2.820   4.174 -2.1057  0.0295 -0.4433
18301THY    HP441104   0.267   2.766   4.329 -1.1909  0.1842  1.7642
18301THY    CP341105   0.454   3.063   4.279  0.2598  0.1729 -0.8438
18301THY    HP541106   0.421   3.079   4.176 -1.7846  1.0085  0.9598
18301THY    HP641107   0.555   3.024   4.295  0.5737 -0.4062 -0.2953
18301THY    HP741108   0.453   3.165   4.319 -0.5479 -1.0742 -0.3398
18301THY    CA341109   0.455   3.006   4.565 -0.0501  0.1913 -0.2680
18301THY    HA341110   0.548   3.037   4.518 -0.8724  0.4566  2.9636
18301THY    CA441111   0.442   3.035   4.702  0.3633 -0.5252  0.4748
18301THY    HA441112   0.530   3.062   4.759  0.0754 -0.6686  1.7980
18301THY    CA541113   0.313   3.026   4.768 -0.3061 -0.2069 -0.0533
18301THY    CM141114   0.301   3.041   4.919  1.0707 -0.0940 -0.4498
18301THY    HM141115   0.401   3.035   4.964  1.2694 -0.6318 -1.5771
18301THY    HM241116   0.237   2.963   4.962 -0.9682 -0.9542  0.6725
18301THY    HM341117   0.267   3.143   4.939  0.9521  2.8601 -0.9873
18301THY    CA641118   0.200   2.979   4.698 -0.5120 -0.3215  0.1385
18301THY    HA641119   0.104   2.973   4.749  0.9101  2.7417  1.1725
18302THY      O41120   7.139   3.806   5.262  0.7272  0.0232  0.5207
18302THY     HO41121   7.159   3.838   5.352  2.7486  0.3632 -1.4605
18302THY    CA141122   7.131   3.674   5.275 -0.0881  0.1105 -0.0464
18302THY    CA241123   7.063   3.588   5.190  1.0396  0.8648 -0.4456
18302THY    CP141124   6.995   3.644   5.072  0.2478  0.0256 -0.0257
18302THY    HP141125   7.048   3.737   5.050  1.9211 -0.5434 -1.0696
18302THY    CP241126   6.853   3.683   5.105 -0.7195 -0.2701  0.2155
18302THY    HP241127   6.846   3.742   5.197 -0.8604 -0.1607  0.0298
18302THY    HP341128   6.803   3.587   5.124 -1.5402 -1.5183  0.3671
18302THY    HP441129   6.803   3.734   5.022  2.0597 -1.3061  1.4229
18302THY    CP341130   6.994   3.555   4.945 -0.5344  0.6150  0.2924
18302THY    HP541131   6.953   3.455   4.964 -0.4073  1.1361  0.3405
18302THY    HP641132   7.094   3.528   4.908 -1.0051  0.0129 -0.6969
18302THY    HP741133   6.950   3.610   4.861 -1.1191  1.6692  1.4737
18302THY    CA341134   7.042   3.451   5.225  0.4822 -0.4872  0.2764
18302THY    HA341135   6.973   3.396   5.163 -0.2079 -0.5293  1.1582
18302THY    CA441136   7.100   3.400   5.346  0.0789 -0.2159 -0.4962
18302THY    HA441137   7.089   3.298   5.382  2.1963 -0.8945 -1.0165
18302THY    CA541138   7.176   3.488   5.421 -0.0259 -0.3400  0.5216
18302THY    CM141139   7.228   3.447   5.556 -0.9895 -0.8723  0.2980
18302THY    HM141140   7.238   3.536   5.619  0.9678  1.3070 -1.3102
18302THY    HM241141   7.324   3.395   5.545 -1.3034 -0.2318 -0.4448
18302THY    HM341142   7.160   3.382   5.613 -0.7786 -0.3066  0.5618
18302THY    CA641143   7.196   3.619   5.385  0.2791  0.2568  0.0368
18302THY    HA641144   7.244   3.686   5.456  0.4945  0.1506 -0.0021
18303THY      O41145   3.255   0.770   4.476 -0.0658  0.4470  0.4888
18303THY     HO41146   3.317   0.698   4.499  0.3355  0.5932  0.8743
18303THY    CA141147   3.331   0.863   4.429 -0.7586  0.5170 -0.1527
18303THY    CA241148   3.293   0.947   4.320  0.2894  0.1449  0.1405
18303THY    CP141149   3.163   0.918   4.237  0.0739 -0.2993  0.3494
18303THY    HP141150   3.103   0.835   4.273 -0.3940  0.4244  0.9852
18303THY    CP241151   3.194   0.892   4.088  0.6456  0.2034 -0.0649
18303THY    HP241152   3.249   0.973   4.039 -2.2047 -0.2658  1.7527
18303THY    HP341153   3.102   0.881   4.029  0.3989  0.6034 -0.1955
18303THY    HP441154   3.257   0.803   4.085  0.9076 -4.4598  0.0586
18303THY    CP341155   3.063   1.035   4.243  0.0899 -0.0919 -0.6726
18303THY    HP541156   2.974   1.009   4.185  0.6077 -0.5707 -1.4010
18303THY    HP641157   3.108   1.121   4.192  0.3153  0.8717 -0.2019
18303THY    HP741158   3.033   1.070   4.343  1.4839  1.3576 -3.2835
18303THY    CA341159   3.391   1.042   4.273  0.7854 -0.0653  0.4470
18303THY    HA341160   3.362   1.120   4.204  0.8800  1.4144  1.8296
18303THY    CA441161   3.518   1.055   4.329  0.1335 -0.1565  0.4411
18303THY    HA441162   3.580   1.133   4.286 -1.0658  1.0898  2.1723
18303THY    CA541163   3.548   0.973   4.439 -0.2218  0.4503  0.1773
18303THY    CM141164   3.679   0.997   4.506 -0.0330 -0.1591  0.1406
18303THY    HM141165   3.741   0.908   4.489 -0.8384  3.3415 -1.2159
18303THY    HM241166   3.673   1.002   4.615  2.1859  0.2686 -3.2083
18303THY    HM341167   3.741   1.078   4.464  0.8204 -0.2856 -0.5649
18303THY    CA641168   3.458   0.875   4.487 -0.1255  0.2261 -0.7800
18303THY    HA641169   3.474   0.814   4.576 -1.1666  1.0721  0.1478
18304THY      O41170   8.487   4.606   5.975  0.1241  0.4671  0.6834
18304THY     HO41171   8.571   4.655   5.977  1.3199  1.9420 -1.2887
18304THY    CA141172   8.389   4.694   5.993 -0.1662  0.0103  0.0748
18304THY    CA241173   8.251   4.660   5.976 -0.2193 -0.0315  0.5167
18304THY    CP141174   8.201   4.519   5.934 -0.5540  0.1175 -0.0888
18304THY    HP141175   8.291   4.460   5.951  0.1467 -2.4201  0.1253
18304THY    CP241176   8.156   4.506   5.785 -0.1542 -0.0746  1.1320
18304THY    HP241177   8.241   4.521   5.717  0.7339  0.7500 -0.0087
18304THY    HP341178   8.088   4.585   5.752 -2.4477 -0.1901 -0.7806
18304THY    HP441179   8.100   4.413   5.769  0.7959  3.1536 -0.1371
18304THY    CP341180   8.092   4.473   6.033 -0.9747 -0.1777 -0.4183
18304THY    HP541181   8.123   4.482   6.138 -0.6130 -0.4684  2.7832
18304THY    HP641182   8.069   4.366   6.021  1.5565 -2.3250 -0.8053
18304THY    HP741183   7.997   4.527   6.026 -0.5365  0.3033  0.4379
18304THY    CA341184   8.155   4.760   5.997 -0.4670  0.0974 -0.6102
18304THY    HA341185   8.052   4.731   5.980 -0.4126 -0.2268 -0.6097
18304THY    CA441186   8.194   4.896   6.038  0.6567 -0.4033  0.2928
18304THY    HA441187   8.119   4.972   6.055  0.3414  0.3874 -0.1798
18304THY    CA541188   8.325   4.925   6.061 -0.3721 -0.0019 -0.1952
18304THY    CM141189   8.367   5.058   6.114 -0.2981 -0.2006  0.3508
18304THY    HM141190   8.304   5.139   6.077 -3.3625 -0.7340 -2.0597
18304THY    HM241191   8.462   5.091   6.071  1.1417 -0.0656 -3.1600
18304THY    HM341192   8.370   5.052   6.224 -0.8838 -0.2400 -1.3734
18304THY    CA641193   8.420   4.824   6.043  0.3998  0.0802  0.1106
18304THY    HA641194   8.526   4.848   6.045  0.9182 -0.3211 -1.9827
18305THY      O41195   0.607   6.777   3.861  0.2307  0.2232 -0.2965
18305THY     HO41196   0.559   6.772   3.776  0.5279 -0.0012  0.5967
18305THY    CA141197   0.557   6.889   3.909 -0.3476 -0.1078 -0.1458
18305THY    CA241198   0.501   6.881   4.037 -0.0993  0.3135 -0.6197
18305THY    CP141199   0.512   6.759   4.132  0.0449  0.4487 -0.4713
18305THY    HP141200   0.535   6.662   4.087  1.2101  1.6004 -0.7619
18305THY    CP241201   0.385   6.729   4.224 -0.0488  0.4047  0.0178
18305THY    HP241202   0.290   6.730   4.168  0.1651  0.0075  1.8160
18305THY    HP341203   0.372   6.810   4.296  0.9798 -0.2932  0.8352
18305THY    HP441204   0.389   6.639   4.286 -0.2977 -0.3088 -0.4928
18305THY    CP341205   0.631   6.772   4.228 -0.0449 -0.0057  0.2219
18305THY    HP541206   0.628   6.875   4.264 -0.9931  1.7082 -0.3637
18305THY    HP641207   0.722   6.732   4.183 -0.7396 -1.4541  0.2024
18305THY    HP741208   0.620   6.706   4.315 -0.2214  0.1181  0.4127
18305THY    CA341209   0.429   6.997   4.075  0.4395 -1.2745  0.3723
18305THY    HA341210   0.390   7.003   4.176 -0.2116 -1.4153 -1.0599
18305THY    CA441211   0.436   7.114   3.997 -0.1178 -0.8027  0.3502
18305THY    HA441212   0.390   7.202   4.040  0.1212  1.7981 -0.7034
18305THY    CA541213   0.486   7.115   3.871  0.0353  0.3631 -0.5018
18305THY    CM141214   0.466   7.235   3.779 -0.3236  0.9305  0.0705
18305THY    HM141215   0.437   7.199   3.680  1.1354  0.4294  0.2099
18305THY    HM241216   0.564   7.283   3.766 -0.3060 -2.1322 -0.6079
18305THY    HM341217   0.398   7.310   3.822  0.3644  1.1818  0.5623
18305THY    CA641218   0.551   7.003   3.826 -0.1639 -0.0104  0.5726
18305THY    HA641219   0.596   7.003   3.727  0.1764  0.1439  0.4162
18306THY      O41220   6.933   6.279   5.564  0.0679 -0.6034 -0.5112
18306THY     HO41221   6.919   6.211   5.632  1.0492  0.8108  0.6440
18306THY    CA141222   6.985   6.217   5.461  0.0778  0.6789 -0.4559
18306THY    CA241223   6.971   6.077   5.435  1.0249  0.1081  0.2582
18306THY    CP141224   6.893   5.994   5.531  0.0415 -0.2573  0.0219
18306THY    HP141225   6.840   6.059   5.602  2.8292  2.6228 -0.6027
18306THY    CP241226   6.975   5.912   5.623 -0.0607 -0.3670  0.2613
18306THY    HP241227   6.929   5.831   5.680 -0.2225  2.0510  1.9114
18306THY    HP341228   7.026   5.980   5.693 -1.7117  1.3440 -0.1705
18306THY    HP441229   7.053   5.864   5.563  0.2015  0.7109 -0.6969
18306THY    CP341230   6.793   5.913   5.456  0.2025  0.0304  0.2181
18306THY    HP541231   6.843   5.841   5.391  2.8992 -0.3708  2.2657
18306THY    HP641232   6.738   5.973   5.382  1.5564 -0.8721  0.3943
18306THY    HP741233   6.735   5.863   5.534  0.9549 -0.8549 -2.1892
18306THY    CA341234   7.040   6.014   5.332 -0.9463 -0.2961 -0.1481
18306THY    HA341235   7.039   5.907   5.312 -1.5129 -3.7483  0.3899
18306THY    CA441236   7.115   6.098   5.244 -0.1357  0.4330  0.5017
18306THY    HA441237   7.167   6.048   5.162 -0.9341  0.8089 -1.0169
18306THY    CA541238   7.125   6.235   5.268  0.0151 -0.0168  0.7293
18306THY    CM141239   7.208   6.324   5.176  0.2075 -0.2696 -0.1521
18306THY    HM141240   7.254   6.255   5.105  1.7266  0.3716  0.1735
18306THY    HM241241   7.283   6.379   5.234  0.2093 -0.1551 -0.2742
18306THY    HM341242   7.143   6.391   5.119 -1.1294  2.5816  1.1660
18306THY    CA641243   7.065   6.297   5.371  0.3126 -0.1171  1.2353
18306THY    HA641244   7.081   6.403   5.391  0.2420  3.1597  0.7177
18307THY      O41245   3.237   5.668   4.668  0.3653  0.2863 -0.5715
18307THY     HO41246   3.330   5.658   4.642  0.4065 -0.5485  1.4795
18307THY    CA141247   3.188   5.777   4.596 -0.3216 -0.0112 -0.5453
18307THY    CA241248   3.172   5.907   4.646 -0.3930 -0.5772 -0.4861
18307THY    CP141249   3.220   5.918   4.797  0.4607  0.0611 -1.2121
18307THY    HP141250   3.315   5.863   4.802 -0.0186 -2.0220 -2.3536
18307THY    CP241251   3.121   5.860   4.902 -0.1602 -0.2086 -0.0715
18307THY    HP241252   3.052   5.791   4.853  0.1573  2.0349 -2.1255
18307THY    HP341253   3.064   5.944   4.944  0.1711 -1.4551  0.8160
18307THY    HP441254   3.176   5.813   4.985  0.9065 -1.4784 -1.1422
18307THY    CP341255   3.251   6.064   4.835 -0.0254  0.3491  0.3747
18307THY    HP541256   3.314   6.100   4.753  0.3017  0.4824  0.1111
18307THY    HP641257   3.308   6.062   4.928  0.5198  0.0273 -1.8774
18307THY    HP741258   3.162   6.127   4.842 -1.3270  2.1943 -1.5362
18307THY    CA341259   3.141   6.014   4.566 -0.0220  0.5037 -0.6819
18307THY    HA341260   3.130   6.115   4.602 -0.7071 -0.5950 -0.3469
18307THY    CA441261   3.110   5.990   4.433 -0.1382  0.2048  0.0616
18307THY    HA441262   3.072   6.075   4.376  0.4003 -1.9328 -1.0635
18307THY    CA541263   3.116   5.862   4.382 -0.4071  0.1672 -0.0488
18307THY    CM141264   3.093   5.834   4.238  0.2465  0.5682 -0.1442
18307THY    HM141265   3.059   5.927   4.189  0.8815 -1.4556 -0.9206
18307THY    HM241266   3.012   5.763   4.217 -0.0296  1.5518 -0.1303
18307THY    HM341267   3.187   5.801   4.193 -1.3382 -2.6711 -0.7090
18307THY    CA641268   3.156   5.756   4.463  0.3211 -0.2441 -0.1184
18307THY    HA641269   3.183   5.662   4.416  2.2811 -2.9736  1.6538
18308THY      O41270   4.432   6.134   1.866 -0.8015  0.1589  0.3976
18308THY     HO41271   4.482   6.198   1.919  0.2387  0.2344 -0.4483
18308THY    CA141272   4.446   6.188   1.747 -0.7440  0.2320 -0.0623
18308THY    CA241273   4.362   6.164   1.646  0.5727 -0.2795  0.6494
18308THY    CP141274   4.255   6.052   1.665 -0.0449  0.3516 -0.5713
18308THY    HP141275   4.286   5.988   1.748  1.8634 -0.5482 -0.9113
18308THY    CP241276   4.262   5.954   1.543 -0.0247 -0.1049  0.6770
18308THY    HP241277   4.360   5.943   1.495  0.4713  1.2388 -1.3958
18308THY    HP341278   4.200   5.996   1.464 -0.7033 -1.1495 -2.0781
18308THY    HP441279   4.233   5.850   1.562  0.5108  0.8434  0.6856
18308THY    CP341280   4.107   6.103   1.673 -0.3963 -0.3001 -0.3691
18308THY    HP541281   4.065   6.141   1.579  0.6900  0.1020  2.0133
18308THY    HP641282   4.092   6.185   1.745 -1.4745  0.2119 -0.9994
18308THY    HP741283   4.047   6.021   1.715  1.8680  1.0789 -1.4244
18308THY    CA341284   4.359   6.247   1.533 -0.2900 -0.4532 -0.0366
18308THY    HA341285   4.279   6.240   1.460  0.3167 -1.1789  0.5018
18308THY    CA441286   4.451   6.352   1.522 -0.2674  0.0042  0.6720
18308THY    HA441287   4.440   6.426   1.443 -2.5303  0.4139  0.8617
18308THY    CA541288   4.550   6.370   1.625  0.2692  0.1518  0.4312
18308THY    CM141289   4.648   6.484   1.628  0.1258 -0.3418  0.1602
18308THY    HM141290   4.714   6.504   1.543  0.8231  0.2883  0.5667
18308THY    HM241291   4.721   6.475   1.708  0.4292 -0.5252  0.9512
18308THY    HM341292   4.590   6.574   1.650  0.4434  0.2979  0.2121
18308THY    CA641293   4.544   6.286   1.733 -0.1067 -0.1305 -0.1294
18308THY    HA641294   4.610   6.315   1.814 -0.2443 -0.8823  2.4791
18309THY      O41295   1.090   3.324   6.472  0.0625  0.4266  0.3575
18309THY     HO41296   1.141   3.244   6.456 -1.5823 -0.4552 -0.5797
18309THY    CA141297   1.084   3.343   6.603 -0.0020 -0.0891 -0.3794
18309THY    CA241298   1.042   3.459   6.667 -0.0598 -0.1396 -0.6721
18309THY    CP141299   1.011   3.583   6.590 -0.3720  0.3916 -0.5759
18309THY    HP141300   0.990   3.563   6.485  0.0657 -0.3990  2.5789
18309THY    CP241301   1.138   3.674   6.583  0.0161 -0.3324 -0.3650
18309THY    HP241302   1.181   3.713   6.676  1.6334 -2.2834  2.9253
18309THY    HP341303   1.095   3.755   6.524 -0.3592  0.6641  0.1804
18309THY    HP441304   1.226   3.628   6.535  0.8614  0.8268 -0.0128
18309THY    CP341305   0.877   3.656   6.638 -0.1855  0.9496  0.4988
18309THY    HP541306   0.789   3.592   6.623 -0.4779  1.4956  0.7710
18309THY    HP641307   0.863   3.746   6.575 -1.3706 -1.2388 -1.0957
18309THY    HP741308   0.886   3.690   6.741  0.8697  0.1664  2.8466
18309THY    CA341309   1.031   3.464   6.811  0.3105  0.1908 -0.4629
18309THY    HA341310   1.011   3.558   6.861 -0.3485  0.0234 -0.5032
18309THY    CA441311   1.051   3.344   6.877 -0.0406 -0.1905 -0.9765
18309THY    HA441312   1.051   3.350   6.986  2.3631  0.0215 -2.9729
18309THY    CA541313   1.100   3.235   6.816  0.2794 -0.4017  0.6064
18309THY    CM141314   1.133   3.113   6.897  0.1228  0.0521  0.1205
18309THY    HM141315   1.051   3.041   6.886  0.8157 -1.4940 -0.4728
18309THY    HM241316   1.167   3.150   6.994  1.0700 -0.9495  2.0542
18309THY    HM341317   1.222   3.056   6.868 -2.1583 -0.7833 -3.2765
18309THY    CA641318   1.117   3.232   6.676  0.2955  0.3819  0.7140
18309THY    HA641319   1.139   3.135   6.631 -0.8715  1.7023 -0.2050
18310THY      O41320   5.609   4.819   4.766  0.6657 -0.2169 -0.4737
18310THY     HO41321   5.687   4.844   4.714  0.1263 -0.4803  0.7296
18310THY    CA141322   5.508   4.829   4.675  1.4842 -0.8864  0.0824
18310THY    CA241323   5.371   4.798   4.712 -0.2120 -0.0629 -0.6065
18310THY    CP141324   5.324   4.771   4.860 -0.7604  0.2216 -0.1988
18310THY    HP141325   5.403   4.786   4.935 -0.2647 -0.3688  0.2320
18310THY    CP241326   5.270   4.630   4.881  0.3081 -0.3904  0.1593
18310THY    HP241327   5.281   4.592   4.983  0.7036 -0.9420 -1.2875
18310THY    HP341328   5.333   4.556   4.830 -1.2225 -0.3757 -1.2146
18310THY    HP441329   5.173   4.598   4.841  2.6559 -3.7358 -3.7395
18310THY    CP341330   5.217   4.860   4.899 -0.1268 -0.7178 -0.0922
18310THY    HP541331   5.249   4.963   4.883 -0.1656  0.6775  0.1559
18310THY    HP641332   5.184   4.849   5.003 -0.8586 -0.9511 -0.1580
18310THY    HP741333   5.124   4.843   4.845 -0.7696  0.1280  0.6378
18310THY    CA341334   5.277   4.788   4.606  0.7825  0.2013 -0.1434
18310THY    HA341335   5.172   4.769   4.626  0.4609  1.0524  2.2816
18310THY    CA441336   5.319   4.818   4.477 -0.0880 -0.0840 -0.1086
18310THY    HA441337   5.247   4.820   4.396  0.5814 -0.7008  2.0796
18310THY    CA541338   5.451   4.848   4.442 -0.1916  0.1767 -0.2217
18310THY    CM141339   5.482   4.881   4.297  0.1375  0.2081 -0.0690
18310THY    HM141340   5.493   4.791   4.235 -1.9963  0.7053 -0.7388
18310THY    HM241341   5.570   4.945   4.293  1.0701 -0.1376 -1.3264
18310THY    HM341342   5.395   4.932   4.254 -1.5237  3.0887 -0.2341
18310THY    CA641343   5.546   4.851   4.548 -0.1134  0.2540  0.2273
18310THY    HA641344   5.649   4.881   4.532  0.8530  0.8768 -2.4370
18311THY      O41345   6.928   0.635   5.961 -0.7170 -0.3087  0.2208
18311THY     HO41346   6.941   0.709   6.023  0.4498  1.0541 -1.0631
18311THY    CA141347   6.876   0.681   5.846 -0.3037 -0.1317  0.0638
18311THY    CA241348   6.850   0.589   5.740 -0.7041 -0.2252  0.2800
18311THY    CP141349   6.904   0.446   5.750 -0.2775  0.9458 -0.2172
18311THY    HP141350   6.951   0.419   5.845  0.1301  0.6006 -0.7702
18311THY    CP241351   7.014   0.419   5.642 -0.0911  0.2072  0.2391
18311THY    HP241352   7.053   0.317   5.647 -3.7013  1.4351 -1.2113
18311THY    HP341353   7.092   0.493   5.663 -1.4380  0.9292  1.4944
18311THY    HP441354   6.979   0.429   5.539 -1.0570  0.5977  1.0282
18311THY    CP341355   6.786   0.343   5.731 -1.3964  0.2192  0.1072
18311THY    HP541356   6.748   0.338   5.628  0.6197 -0.5640 -0.0030
18311THY    HP641357   6.703   0.375   5.795 -0.3877  1.4300  0.3890
18311THY    HP741358   6.816   0.243   5.766 -2.6681  2.0126  0.2979
18311THY    CA341359   6.781   0.638   5.629 -0.0286  0.0380  0.0549
18311THY    HA341360   6.762   0.575   5.543 -0.0901 -0.3767  0.6291
18311THY    CA441361   6.723   0.766   5.642 -0.1106 -0.4095  0.3573
18311THY    HA441362   6.656   0.809   5.568 -2.8380  0.9569 -1.2813
18311THY    CA541363   6.764   0.855   5.740  0.2439  0.9542 -0.1045
18311THY    CM141364   6.730   0.999   5.723 -0.3592  0.3531 -0.9956
18311THY    HM141365   6.809   1.042   5.661 -2.2147 -1.4684 -0.0669
18311THY    HM241366   6.717   1.056   5.816 -2.0675 -0.8053  0.6269
18311THY    HM341367   6.637   1.019   5.669 -0.0320  0.9204  2.8971
18311THY    CA641368   6.840   0.816   5.845 -0.3013 -0.1200 -0.1442
18311THY    HA641369   6.862   0.882   5.928 -1.0449  0.0265 -0.0743
18312THY      O41370   6.174   1.367   2.446 -0.6665  0.1518 -0.1869
18312THY     HO41371   6.207   1.423   2.374 -1.0305  0.1370  0.0072
18312THY    CA141372   6.280   1.341   2.527 -0.3514 -0.3632  1.0910
18312THY    CA241373   6.272   1.281   2.655  0.4757  0.2399 -1.0785
18312THY    CP141374   6.138   1.251   2.720 -0.6746  0.7252  0.0546
18312THY    HP141375   6.066   1.254   2.638  0.3188 -0.1560  0.4527
18312THY    CP241376   6.101   1.366   2.822  0.1710 -1.1467 -0.4830
18312THY    HP241377   6.115   1.467   2.782 -2.8422 -3.3647 -0.8027
18312THY    HP341378   6.174   1.351   2.903 -0.3592 -0.8457 -1.5820
18312THY    HP441379   5.999   1.353   2.862  0.1683 -1.7806 -3.0419
18312THY    CP341380   6.136   1.112   2.779 -0.0939 -0.5771 -0.3877
18312THY    HP541381   6.032   1.098   2.809  0.3130  2.7979  2.4316
18312THY    HP641382   6.206   1.111   2.863  1.2307 -1.6369 -1.5849
18312THY    HP741383   6.167   1.037   2.706  1.1523 -0.8284  0.3353
18312THY    CA341384   6.400   1.253   2.717  0.3614 -0.3822 -0.3468
18312THY    HA341385   6.404   1.204   2.814  1.1614 -0.4453 -0.4141
18312THY    CA441386   6.519   1.293   2.662 -0.3617  0.3768  0.3386
18312THY    HA441387   6.613   1.274   2.714  0.8252 -1.0035  2.1165
18312THY    CA541388   6.516   1.363   2.544  0.1171  0.3491 -0.0181
18312THY    CM141389   6.656   1.395   2.487 -0.2164  0.9102 -0.0339
18312THY    HM141390   6.655   1.504   2.478  1.5740  2.0515  0.1047
18312THY    HM241391   6.669   1.353   2.387  3.0371  0.7588  1.1007
18312THY    HM341392   6.722   1.362   2.568 -0.0428  0.5137 -0.6940
18312THY    CA641393   6.400   1.380   2.473  0.3655  0.5461 -0.3431
18312THY    HA641394   6.409   1.427   2.375  1.9504  1.7070  1.9213
18313THY      O41395   6.238   4.191   2.644 -0.1353 -0.1961  0.1763
18313THY     HO41396   6.191   4.108   2.625  2.0426 -0.0721 -1.1666
18313THY    CA141397   6.352   4.165   2.568  0.0362  0.1603 -0.5704
18313THY    CA241398   6.407   4.264   2.489  0.1172 -0.4254 -0.0293
18313THY    CP141399   6.350   4.405   2.490 -0.0190 -0.1433 -0.2022
18313THY    HP141400   6.266   4.418   2.560  0.9397  1.1029 -0.4337
18313THY    CP241401   6.296   4.423   2.348  0.2667  0.2086 -0.1811
18313THY    HP241402   6.374   4.406   2.272  0.2711  0.2241 -0.2338
18313THY    HP341403   6.259   4.525   2.331  1.6744 -0.1281  0.2963
18313THY    HP441404   6.224   4.352   2.305  1.3615 -3.1527  0.5375
18313THY    CP341405   6.449   4.519   2.511 -0.0158  0.3887  0.3980
18313THY    HP541406   6.398   4.614   2.491  0.9951  1.4296  1.1925
18313THY    HP641407   6.525   4.511   2.433  0.4348  0.9434 -1.3945
18313THY    HP741408   6.496   4.513   2.610 -0.2569  0.5922  1.7043
18313THY    CA341409   6.510   4.226   2.403 -0.0822 -0.0235 -0.2163
18313THY    HA341410   6.556   4.298   2.336 -0.0905  1.7900  1.5958
18313THY    CA441411   6.557   4.097   2.400  0.0412  0.8688  0.4281
18313THY    HA441412   6.646   4.074   2.343  0.4320  2.1149 -1.3840
18313THY    CA541413   6.493   3.998   2.477 -0.9445 -0.2216 -0.0157
18313THY    CM141414   6.556   3.860   2.469 -0.8950  0.0799 -0.7486
18313THY    HM141415   6.572   3.819   2.569  1.1988  1.5413  3.1382
18313THY    HM241416   6.651   3.859   2.414 -0.7675  0.3006 -1.5056
18313THY    HM341417   6.497   3.792   2.405  2.0874 -0.9692 -2.5657
18313THY    CA641418   6.393   4.030   2.567 -0.2673  0.6463 -0.3886
18313THY    HA641419   6.348   3.955   2.632  2.1732 -0.8425 -3.3686
18314THY      O41420   5.952   6.559   6.927 -0.4169 -0.6972 -0.2246
18314THY     HO41421   5.872   6.605   6.959 -1.2890 -4.8213  1.5061
18314THY    CA141422   5.975   6.463   7.025 -0.4851  0.6482 -1.0147
18314THY    CA241423   6.053   6.349   6.996 -0.2740  0.0942  0.0085
18314THY    CP141424   6.126   6.338   6.868 -0.7725  0.2236  0.1444
18314THY    HP141425   6.143   6.437   6.824 -0.6105 -0.0179  0.0104
18314THY    CP241426   6.051   6.255   6.762 -0.4035  0.1827 -0.1647
18314THY    HP241427   5.962   6.312   6.733  2.0909 -3.1908  2.4788
18314THY    HP341428   6.024   6.154   6.795 -0.0438 -2.0654 -1.0564
18314THY    HP441429   6.102   6.248   6.665 -0.2800  0.1663  0.8161
18314THY    CP341430   6.272   6.293   6.889 -0.9351  0.2504  0.1304
18314THY    HP541431   6.304   6.336   6.984 -1.5777  0.5987 -0.1443
18314THY    HP641432   6.341   6.316   6.807  0.1576  0.6069 -1.6357
18314THY    HP741433   6.281   6.184   6.896  1.6246  0.8691  0.3270
18314THY    CA341434   6.054   6.251   7.098  0.6064 -0.2446  0.7320
18314THY    HA341435   6.107   6.158   7.082 -0.8074  1.7353 -0.4938
18314THY    CA441436   5.965   6.264   7.212  0.1814  0.8489 -0.2557
18314THY    HA441437   5.957   6.178   7.278 -0.5760  0.6609 -0.3328
18314THY    CA541438   5.884   6.377   7.230  0.2387 -0.6352 -0.0326
18314THY    CM141439   5.799   6.384   7.348  0.2254  0.1244  0.5710
18314THY    HM141440   5.857   6.392   7.440 -0.7664  0.7234  1.0983
18314THY    HM241441   5.729   6.300   7.352 -0.0862 -0.1603  0.8136
18314THY    HM341442   5.740   6.476   7.348 -1.6362  1.9700 -0.5206
18314THY    CA641443   5.894   6.474   7.136  0.4545  0.3694 -0.4652
18314THY    HA641444   5.848   6.569   7.157 -2.4575  1.4373 -1.9978
18315THY      O41445   8.850   7.487   3.261  0.2450 -0.2434 -0.0488
18315THY     HO41446   8.765   7.467   3.304 -0.2607 -1.8297 -1.6821
18315THY    CA141447   8.894   7.592   3.334 -0.0740  0.1456 -0.6290
18315THY    CA241448   8.985   7.694   3.281  0.5212  0.6040  0.6158
18315THY    CP141449   9.010   7.696   3.129 -0.1917  0.9493  0.2033
18315THY    HP141450   8.939   7.636   3.071  0.7827 -1.6407  1.3605
18315THY    CP241451   9.146   7.636   3.099 -0.1019  0.4099  0.4884
18315THY    HP241452   9.220   7.699   3.149  0.8926 -0.2854 -0.0882
18315THY    HP341453   9.171   7.649   2.993 -2.7406 -0.3831 -0.2733
18315THY    HP441454   9.155   7.532   3.132  0.1828  1.5468  0.8604
18315THY    CP341455   8.986   7.831   3.063  0.5338 -0.3441  0.2431
18315THY    HP541456   8.883   7.860   3.089 -0.0968  0.2100 -2.2270
18315THY    HP641457   9.001   7.834   2.954  0.9170 -0.2778  1.0245
18315THY    HP741458   9.054   7.910   3.096  0.4506 -2.1942  1.1636
18315THY    CA341459   9.047   7.781   3.371  0.2904 -0.7752 -0.2466
18315THY    HA341460   9.123   7.855   3.348  1.1533  1.9005 -0.1980
18315THY    CA441461   9.008   7.777   3.507 -0.1579  0.9175 -0.3187
18315THY    HA441462   9.050   7.855   3.570  1.1913 -0.7201  0.3346
18315THY    CA541463   8.920   7.681   3.552  0.3276 -0.2161  0.0114
18315THY    CM141464   8.889   7.675   3.697  0.3534 -0.1139 -0.4777
18315THY    HM141465   8.976   7.697   3.760 -0.5276  1.2062 -0.6353
18315THY    HM241466   8.849   7.577   3.725  0.8370 -1.2028 -1.0088
18315THY    HM341467   8.811   7.748   3.722 -0.2775 -0.6362 -0.9556
18315THY    CA641468   8.869   7.585   3.471  0.1806 -0.4119 -0.2267
18315THY    HA641469   8.797   7.515   3.512 -1.1113 -0.0505  1.2495
18316THY      O41470   0.866   7.696   4.849 -0.5069 -0.2333 -0.5398
18316THY     HO41471   0.937   7.636   4.822 -0.5892 -0.0243 -0.7367
18316THY    CA141472   0.768   7.664   4.763  0.0691  0.9210  0.0610
18316THY    CA241473   0.643   7.739   4.752  0.0659 -0.0419  0.1586
18316THY    CP141474   0.607   7.851   4.850 -0.6816  0.8131  0.3940
18316THY    HP141475   0.683   7.862   4.929 -1.3169  1.8917 -2.2144
18316THY    CP241476   0.489   7.818   4.933 -0.2388  0.2022  0.1821
18316THY    HP241477   0.474   7.892   5.013 -0.8158  0.5201 -0.2624
18316THY    HP341478   0.505   7.730   4.996 -0.0044  0.5824  0.4947
18316THY    HP441479   0.395   7.799   4.879 -1.4505  2.5836 -1.0798
18316THY    CP341480   0.593   7.986   4.785  0.1726  0.1992 -0.3967
18316THY    HP541481   0.670   8.009   4.710  0.7930  0.3178 -2.0000
18316THY    HP641482   0.599   8.074   4.850 -1.5313 -0.0450 -0.0585
18316THY    HP741483   0.494   7.990   4.738  0.9624 -1.4978  0.5624
18316THY    CA341484   0.552   7.702   4.649 -0.9289  0.2345  0.2370
18316THY    HA341485   0.463   7.765   4.645 -0.5594 -0.2472  0.7389
18316THY    CA441486   0.586   7.596   4.563 -0.1816  0.2615 -0.3856
18316THY    HA441487   0.526   7.568   4.477 -0.6138  1.0381 -1.9829
18316THY    CA541488   0.708   7.530   4.558  0.0097 -0.3636 -0.4082
18316THY    CM141489   0.748   7.433   4.454 -0.0855  0.4725  0.0469
18316THY    HM141490   0.814   7.358   4.499  2.5578  0.0333  1.9799
18316THY    HM241491   0.804   7.479   4.372 -3.4135 -1.2768  1.3184
18316THY    HM341492   0.664   7.392   4.397 -0.4587  2.0561 -1.5083
18316THY    CA641493   0.797   7.567   4.664 -0.5442 -0.0183 -0.0987
18316THY    HA641494   0.893   7.518   4.661 -0.8033 -2.6417 -0.5725
18317THY      O41495   5.977   7.937   7.112 -0.3016  0.4700 -0.1022
18317THY     HO41496   6.042   7.953   7.042 -0.8699 -0.2418 -0.8220
18317THY    CA141497   5.984   8.041   7.204 -0.1141  0.8228 -0.3508
18317THY    CA241498   5.913   8.028   7.328 -0.7432 -0.6145 -0.1315
18317THY    CP141499   5.823   7.912   7.351 -0.0927 -0.7430  0.3651
18317THY    HP141500   5.825   7.845   7.265 -0.4270 -0.2766 -0.2572
18317THY    CP241501   5.680   7.962   7.364  0.6101  0.3604 -0.1341
18317THY    HP241502   5.645   8.003   7.459 -0.2644  0.5192 -1.2092
18317THY    HP341503   5.608   7.882   7.343 -0.8943  2.5082  0.5864
18317THY    HP441504   5.656   8.029   7.280 -0.8344  0.0789 -0.9680
18317THY    CP341505   5.868   7.826   7.478  0.3765  0.5174  0.8392
18317THY    HP541506   5.968   7.784   7.462  0.3798 -1.9944  1.6530
18317THY    HP641507   5.804   7.738   7.491  2.0813  1.7141 -0.2658
18317THY    HP741508   5.854   7.882   7.572 -0.0930  1.2160 -0.4181
18317THY    CA341509   5.933   8.132   7.427  0.4727 -0.2317 -0.6370
18317THY    HA341510   5.899   8.125   7.530  0.8314  0.0052  0.8614
18317THY    CA441511   6.011   8.245   7.392  0.1647 -0.6570 -0.4979
18317THY    HA441512   6.025   8.324   7.465 -2.4226 -1.7295  1.0912
18317THY    CA541513   6.076   8.253   7.269  0.3888  0.1231  0.2875
18317THY    CM141514   6.163   8.365   7.238  0.4747 -0.0380  0.0219
18317THY    HM141515   6.124   8.433   7.161  0.6068 -1.8503 -1.8592
18317THY    HM241516   6.254   8.336   7.183  0.9321 -1.9100  4.2075
18317THY    HM341517   6.190   8.436   7.317  1.0029  0.8654 -1.1541
18317THY    CA641518   6.054   8.155   7.169  0.5545 -0.2902  0.4929
18317THY    HA641519   6.100   8.166   7.071  0.6481 -0.5689 -1.9750
18318THY      O41520   1.853   4.981   4.547  0.6119 -0.1856 -0.0932
18318THY     HO41521   1.815   4.918   4.483  0.1388 -1.4932  1.4551
18318THY    CA141522   1.767   5.092   4.548 -0.3270  0.1602  0.6797
18318THY    CA241523   1.706   5.136   4.666 -0.4132  0.3533 -1.1792
18318THY    CP141524   1.736   5.074   4.801  0.3866 -0.3695  0.2890
18318THY    HP141525   1.804   4.988   4.798  1.0786  0.7923  0.7647
18318THY    CP241526   1.602   5.014   4.863 -0.1571 -0.3031 -0.4308
18318THY    HP241527   1.615   4.976   4.964  1.3805  0.1843  1.2430
18318THY    HP341528   1.580   4.931   4.794  1.8864 -0.8320 -0.5769
18318THY    HP441529   1.525   5.093   4.865  1.6520  0.3481  1.4116
18318THY    CP341530   1.784   5.180   4.899 -0.2013 -0.2574 -0.4798
18318THY    HP541531   1.709   5.259   4.910  2.0765 -2.4838  2.2538
18318THY    HP641532   1.876   5.229   4.863  0.3137  0.1229 -1.1513
18318THY    HP741533   1.808   5.130   4.993  0.9710  0.1267  0.7267
18318THY    CA341534   1.620   5.250   4.653 -0.7584  0.1103  0.0584
18318THY    HA341535   1.575   5.296   4.740 -1.1384 -0.1137  0.1172
18318THY    CA441536   1.601   5.315   4.531  0.7513 -1.1236  0.2296
18318THY    HA441537   1.539   5.402   4.517 -0.2088 -1.5822 -0.5037
18318THY    CA541538   1.657   5.258   4.418  0.1406 -0.0923 -0.4314
18318THY    CM141539   1.632   5.333   4.293  0.0869  0.0827  0.3962
18318THY    HM141540   1.529   5.369   4.293  0.2831  0.6221  0.9758
18318THY    HM241541   1.621   5.276   4.200 -0.3450  1.3823 -1.7649
18318THY    HM341542   1.705   5.415   4.282 -0.3595  0.5378  0.8586
18318THY    CA641543   1.737   5.146   4.423  0.4016  0.5110 -0.2771
18318THY    HA641544   1.774   5.105   4.329 -1.0178  0.1926 -0.8922
18319THY      O41545   5.038   7.261   1.977  0.4270 -0.2026  0.3520
18319THY     HO41546   5.124   7.306   1.980  0.2966 -1.9534  0.8230
18319THY    CA141547   4.961   7.289   2.089  0.6673 -0.3516  1.0095
18319THY    CA241548   4.870   7.193   2.137  0.4025  0.2186 -0.0134
18319THY    CP141549   4.868   7.052   2.074  0.4173  0.5670 -0.3563
18319THY    HP141550   4.959   7.020   2.022 -0.2050 -1.3323  0.7951
18319THY    CP241551   4.751   7.045   1.976  0.0140  1.1121  0.5930
18319THY    HP241552   4.653   7.072   2.017 -2.0626 -1.6147 -2.1974
18319THY    HP341553   4.726   6.945   1.940 -1.9052  0.9811  1.0853
18319THY    HP441554   4.758   7.120   1.896 -1.0364  0.7063  0.2636
18319THY    CP341555   4.842   6.940   2.185 -0.2245  0.2022 -0.0703
18319THY    HP541556   4.914   6.946   2.267 -0.6632  0.9411 -3.0922
18319THY    HP641557   4.864   6.840   2.147  1.2690  0.8493 -0.0121
18319THY    HP741558   4.746   6.944   2.237  0.5168  1.5243  3.2315
18319THY    CA341559   4.791   7.221   2.249  0.8300  0.0764  0.2495
18319THY    HA341560   4.720   7.152   2.291  0.5385 -0.0492  0.4715
18319THY    CA441561   4.801   7.350   2.313  0.3787  0.7917  0.4388
18319THY    HA441562   4.731   7.383   2.389  0.3881  0.8512  0.3216
18319THY    CA541563   4.895   7.441   2.260  0.3909  0.0576 -0.0004
18319THY    CM141564   4.913   7.577   2.322 -0.6715 -0.0344 -0.5240
18319THY    HM141565   5.020   7.597   2.335 -0.5285 -1.5771 -0.1126
18319THY    HM241566   4.856   7.588   2.415  1.7567  1.4928  0.0825
18319THY    HM341567   4.875   7.646   2.246  2.0305 -1.6801 -0.7112
18319THY    CA641568   4.975   7.409   2.153  0.4821 -0.3954 -0.1231
18319THY    HA641569   5.029   7.492   2.107  0.2042 -2.4441 -1.0068
18320THY      O41570   5.973   1.750   3.363 -0.0764 -0.5844  0.4091
18320THY     HO41571   5.910   1.687   3.325 -0.1615  1.2442 -0.6740
18320THY    CA141572   5.920   1.863   3.323 -0.1363 -0.5422 -0.3260
18320THY    CA241573   5.955   1.986   3.388  0.2292  0.6774 -0.2444
18320THY    CP141574   6.076   1.990   3.486  0.2366  1.0948  0.3959
18320THY    HP141575   6.138   1.900   3.479 -0.9273  1.5384 -0.4572
18320THY    CP241576   6.041   1.998   3.629 -0.4444 -0.0221 -0.4949
18320THY    HP241577   5.988   1.909   3.666  2.3181  5.2193 -0.3269
18320THY    HP341578   5.982   2.089   3.646  2.1732  1.8073  0.9697
18320THY    HP441579   6.131   2.000   3.692  1.1512 -2.2157  0.5270
18320THY    CP341580   6.161   2.116   3.453 -0.1516  0.5680  0.3113
18320THY    HP541581   6.241   2.133   3.525  0.7874 -0.7284  1.5992
18320THY    HP641582   6.111   2.212   3.464  0.5947 -0.4041  0.8286
18320THY    HP741583   6.193   2.106   3.349  0.4654  0.9356 -2.3595
18320THY    CA341584   5.887   2.103   3.340  0.5853  0.2164 -0.8270
18320THY    HA341585   5.919   2.196   3.385 -0.2642  2.6822 -1.6295
18320THY    CA441586   5.785   2.093   3.247 -0.3185  0.0933  0.1932
18320THY    HA441587   5.745   2.185   3.206 -0.1882 -0.9924 -0.2191
18320THY    CA541588   5.741   1.966   3.194 -0.4288  0.0136  0.5106
18320THY    CM141589   5.624   1.957   3.105  0.5260 -0.0187 -0.4335
18320THY    HM141590   5.609   1.867   3.044  2.0086 -2.3558  0.8117
18320THY    HM241591   5.611   2.036   3.031  2.0880  0.6820  0.5228
18320THY    HM341592   5.529   1.959   3.159 -1.0781 -2.6442  2.1764
18320THY    CA641593   5.813   1.853   3.230 -0.0713 -0.3220 -0.3399
18320THY    HA641594   5.798   1.760   3.177  1.4013  0.7357 -1.2252
18321THY      O41595   4.256   9.482   7.585  0.4151 -0.7806 -0.0260
18321THY     HO41596   4.197   9.549   7.547 -2.5782  1.4014 -1.2017
18321THY    CA141597   4.180   9.370   7.601 -0.4480 -0.4510  0.3857
18321THY    CA241598   4.237   9.268   7.681  0.0977  0.7525  0.5707
18321THY    CP141599   4.383   9.270   7.726  0.3139 -0.2707  0.1875
18321THY    HP141600   4.422   9.372   7.738  1.0138  0.6049 -0.1750
18321THY    CP241601   4.475   9.203   7.621  0.0093 -0.2007 -0.4244
18321THY    HP241602   4.583   9.200   7.640 -0.4691  2.9138 -0.8391
18321THY    HP341603   4.455   9.255   7.526  0.2117  0.2126  0.4151
18321THY    HP441604   4.447   9.098   7.613  0.5113  0.3886 -0.6062
18321THY    CP341605   4.409   9.210   7.858  0.6487  0.7400  0.1797
18321THY    HP541606   4.339   9.244   7.935 -1.2268 -0.0410 -1.6812
18321THY    HP641607   4.507   9.242   7.895  2.0320 -2.4850  0.0840
18321THY    HP741608   4.409   9.100   7.852  0.3078 -0.3360  0.2283
18321THY    CA341609   4.155   9.151   7.708 -0.0960 -0.5724 -0.4849
18321THY    HA341610   4.195   9.074   7.773 -1.3527 -0.1020 -0.7532
18321THY    CA441611   4.025   9.138   7.657 -0.4240 -0.7219  0.4628
18321THY    HA441612   3.964   9.051   7.678  0.4210  0.8059  0.1983
18321THY    CA541613   3.968   9.239   7.575 -0.1126 -0.2331 -0.8550
18321THY    CM141614   3.824   9.216   7.514 -1.0814 -0.2397  0.5690
18321THY    HM141615   3.748   9.204   7.592 -1.4593 -0.3255  2.0916
18321THY    HM241616   3.818   9.129   7.448 -1.3212 -1.2532  1.3321
18321THY    HM341617   3.797   9.308   7.460  0.0429 -1.6860  0.0886
18321THY    CA641618   4.047   9.358   7.554  0.0584 -0.8665 -0.8986
18321THY    HA641619   4.012   9.437   7.487  0.9336  0.8845  1.0502
18322THY      O41620   5.709   0.986   7.078  0.4290 -0.2566 -0.5594
18322THY     HO41621   5.636   1.025   7.027  0.0715  0.2322 -0.5818
18322THY    CA141622   5.817   1.061   7.081  0.1091 -0.1440  0.0321
18322THY    CA241623   5.926   1.020   7.156 -0.6410 -0.8223  0.7495
18322THY    CP141624   5.924   0.881   7.215  0.0557 -0.1704  0.1592
18322THY    HP141625   5.821   0.860   7.247 -0.3293 -1.4430 -0.0335
18322THY    CP241626   6.005   0.868   7.337 -0.5252  0.0122  0.2727
18322THY    HP241627   5.974   0.939   7.415  0.2337  0.4043  0.1899
18322THY    HP341628   6.111   0.881   7.315 -1.0938 -2.3660  1.2283
18322THY    HP441629   5.990   0.774   7.392  1.9941  0.5163  0.0908
18322THY    CP341630   5.963   0.765   7.115  0.1221 -0.4496 -0.1478
18322THY    HP541631   5.883   0.762   7.040 -0.5776  0.2872 -0.0213
18322THY    HP641632   5.973   0.677   7.180 -0.5639  0.5385  0.4869
18322THY    HP741633   6.067   0.782   7.082  0.5417  0.4676 -0.8306
18322THY    CA341634   6.040   1.104   7.167 -0.4232  0.8001 -0.3889
18322THY    HA341635   6.126   1.083   7.230 -0.9549  1.2564 -1.2344
18322THY    CA441636   6.041   1.223   7.095  0.3120  0.1897  0.3099
18322THY    HA441637   6.127   1.290   7.093  0.7071  0.3145 -0.1848
18322THY    CA541638   5.935   1.262   7.019  0.2762  0.1136  0.0439
18322THY    CM141639   5.931   1.395   6.952 -0.1287 -0.0540 -0.0123
18322THY    HM141640   5.843   1.407   6.888  1.8449 -2.4343  4.4024
18322THY    HM241641   6.008   1.410   6.876 -0.4694 -0.3234  0.4038
18322THY    HM341642   5.926   1.475   7.027 -2.0727 -1.4643  1.2854
18322THY    CA641643   5.822   1.179   7.004 -0.4805  0.3434  0.5826
18322THY    HA641644   5.746   1.198   6.928 -0.5943  0.0509 -0.9243
18323THY      O41645   0.689   0.549   4.830 -0.5110 -0.1862 -0.4914
18323THY     HO41646   0.593   0.565   4.823 -0.3425 -1.1986  0.1254
18323THY    CA141647   0.720   0.529   4.697  0.1045  0.5072  0.1936
18323THY    CA241648   0.854   0.530   4.648  0.0607 -0.4130  0.4177
18323THY    CP141649   0.966   0.561   4.747 -0.2378  0.1074 -0.4853
18323THY    HP141650   0.931   0.591   4.847 -0.0496  0.2624 -0.7790
18323THY    CP241651   1.046   0.685   4.705  0.4545 -0.9322  0.8438
18323THY    HP241652   1.099   0.658   4.614  2.6519  1.1130 -2.4927
18323THY    HP341653   1.129   0.698   4.777 -0.7586  0.5450  0.7019
18323THY    HP441654   0.986   0.776   4.696 -1.4682 -0.3210 -0.3132
18323THY    CP341655   1.040   0.429   4.774 -0.1278  0.2762 -0.7434
18323THY    HP541656   0.997   0.352   4.840  2.2055  0.9640 -1.5541
18323THY    HP641657   1.130   0.449   4.834  0.2868 -0.4705 -0.3512
18323THY    HP741658   1.066   0.370   4.686  0.0785  1.4454 -2.4942
18323THY    CA341659   0.874   0.501   4.517  0.0338  0.8462  0.0718
18323THY    HA341660   0.972   0.500   4.471 -1.7795 -3.6693  1.2590
18323THY    CA441661   0.767   0.458   4.435  0.3281 -0.3113  0.5535
18323THY    HA441662   0.781   0.433   4.331 -0.8790 -0.3664  0.0033
18323THY    CA541663   0.639   0.459   4.483 -0.0339  0.1677 -0.3213
18323THY    CM141664   0.523   0.441   4.393  0.0365  0.3058  0.2224
18323THY    HM141665   0.548   0.355   4.329  4.0934  0.6083  0.9788
18323THY    HM241666   0.515   0.537   4.340 -0.8490  2.7492  1.5735
18323THY    HM341667   0.424   0.427   4.439  0.2567  0.5383 -0.6161
18323THY    CA641668   0.614   0.498   4.614 -0.6943  0.7423 -0.7234
18323THY    HA641669   0.512   0.493   4.653 -0.7009  0.5816 -2.0389
18324THY      O41670   2.821   6.645   6.476 -0.1156  0.2124  0.0915
18324THY     HO41671   2.818   6.554   6.508 -0.5859  0.6373  0.2544
18324THY    CA141672   2.698   6.675   6.429  0.0437 -0.0950 -0.6305
18324THY    CA241673   2.640   6.808   6.445 -0.2818 -0.2983 -0.7296
18324THY    CP141674   2.697   6.925   6.531  0.4500  0.6960  0.8072
18324THY    HP141675   2.782   6.884   6.587  1.7275 -2.7344 -1.6983
18324THY    CP241676   2.593   6.998   6.625  0.8282  0.3493  0.3795
18324THY    HP241677   2.545   6.931   6.697  0.1992  0.3420  0.8184
18324THY    HP341678   2.510   7.047   6.573  1.5400 -1.3889 -0.1707
18324THY    HP441679   2.637   7.078   6.686 -1.7559 -0.4831  2.6013
18324THY    CP341680   2.768   7.026   6.437  0.2652 -0.4000  0.3629
18324THY    HP541681   2.827   6.977   6.359  1.5166 -0.9012  2.5058
18324THY    HP641682   2.825   7.086   6.509 -2.3136  2.4425 -0.3620
18324THY    HP741683   2.696   7.089   6.383  1.4227 -2.1628  0.2315
18324THY    CA341684   2.517   6.836   6.386  0.3581 -0.8575  0.6797
18324THY    HA341685   2.472   6.933   6.405  1.8789 -1.2196  1.4742
18324THY    CA441686   2.453   6.739   6.310  0.3646 -0.5137 -0.5124
18324THY    HA441687   2.349   6.752   6.280 -0.9828  2.8488 -2.1903
18324THY    CA541688   2.510   6.613   6.295  0.8042 -0.8220  0.3864
18324THY    CM141689   2.448   6.516   6.202 -0.3442  0.5012 -0.3006
18324THY    HM141690   2.508   6.507   6.111 -0.7158  0.0957  0.9797
18324THY    HM241691   2.352   6.559   6.172 -0.5498 -1.0014 -1.7137
18324THY    HM341692   2.441   6.418   6.251 -1.7796  1.7290  0.3585
18324THY    CA641693   2.634   6.579   6.345 -0.2270  0.1057  0.0408
18324THY    HA641694   2.684   6.483   6.327  2.1222  1.4893  0.9202
18325THY      O41695   3.429   3.038   3.664 -0.1342 -0.6093 -0.1762
18325THY     HO41696   3.430   3.135   3.662  0.1604  0.4014 -0.1470
18325THY    CA141697   3.560   3.000   3.639 -0.2433 -0.1499 -0.0284
18325THY    CA241698   3.593   2.865   3.611  0.0626  0.1566  0.1823
18325THY    CP141699   3.480   2.778   3.572  0.4148  0.3732  0.3812
18325THY    HP141700   3.392   2.833   3.536 -0.3599  1.8149  0.1312
18325THY    CP241701   3.450   2.693   3.690 -0.6357  0.1093 -0.1267
18325THY    HP241702   3.442   2.759   3.777  0.2253  0.0585  0.0508
18325THY    HP341703   3.529   2.623   3.719  0.6216  0.6582  1.4516
18325THY    HP441704   3.360   2.634   3.670  0.1561  1.3462 -1.8166
18325THY    CP341705   3.516   2.693   3.452 -0.0212  0.1040  0.3245
18325THY    HP541706   3.571   2.745   3.374 -0.1261  0.4296  0.9374
18325THY    HP641707   3.427   2.650   3.405  1.1352 -2.7206  0.7916
18325THY    HP741708   3.576   2.608   3.486  0.9156 -0.1128  0.8842
18325THY    CA341709   3.728   2.830   3.599  0.6402 -0.4042  0.1882
18325THY    HA341710   3.758   2.730   3.569  0.0123  0.8218 -0.3956
18325THY    CA441711   3.831   2.927   3.615  0.2806  0.3817 -0.3784
18325THY    HA441712   3.937   2.904   3.615  0.8812  1.2417  2.0141
18325THY    CA541713   3.795   3.061   3.647 -0.0815 -0.0823 -0.0252
18325THY    CM141714   3.894   3.165   3.679 -0.7277  0.0513  0.0108
18325THY    HM141715   3.995   3.143   3.643 -1.2021 -0.7158 -1.0511
18325THY    HM241716   3.914   3.169   3.787  1.5501 -0.2800 -0.8362
18325THY    HM341717   3.857   3.259   3.638 -1.4177 -0.5846 -0.5207
18325THY    CA641718   3.659   3.101   3.653 -0.3668  0.1581  0.2488
18325THY    HA641719   3.636   3.200   3.689  0.7248  3.3554 -0.5590
18326THY      O41720   9.213   0.887   5.656  0.3128 -0.2214 -0.0023
18326THY     HO41721   9.183   0.826   5.586  2.5627  0.6010 -2.2426
18326THY    CA141722   9.134   0.882   5.763  0.2954  0.6383  0.2330
18326THY    CA241723   9.160   0.955   5.877  0.1837 -0.3096  1.0387
18326THY    CP141724   9.280   1.050   5.888 -0.5201  0.2906 -0.0734
18326THY    HP141725   9.338   1.048   5.795  2.0145  1.7753 -1.0210
18326THY    CP241726   9.370   0.990   5.984 -0.4147  0.1479 -0.4567
18326THY    HP241727   9.402   0.895   5.940  3.0720 -1.1455  1.1595
18326THY    HP341728   9.329   0.961   6.082 -0.9787  0.3382  0.9203
18326THY    HP441729   9.463   1.045   6.001  0.4657 -2.3909 -1.0380
18326THY    CP341730   9.237   1.191   5.930  0.1378  0.2607 -0.5334
18326THY    HP541731   9.210   1.245   5.839  1.8472  0.8171  1.3802
18326THY    HP641732   9.317   1.248   5.977 -0.1397 -0.0385  0.1151
18326THY    HP741733   9.148   1.192   5.994 -0.5197 -0.6233  0.6672
18326THY    CA341734   9.079   0.925   5.991  0.2682  0.4597 -0.0775
18326THY    HA341735   9.092   0.968   6.090  0.0417  0.7343 -0.6341
18326THY    CA441736   8.979   0.828   5.984  0.6291 -0.0718  0.6817
18326THY    HA441737   8.917   0.808   6.071 -1.4782 -1.9224 -1.4631
18326THY    CA541738   8.950   0.759   5.865 -0.5035 -0.0214 -0.0386
18326THY    CM141739   8.844   0.648   5.859  0.0395  0.5319  0.2919
18326THY    HM141740   8.886   0.548   5.873 -0.0253  0.4096  0.2466
18326THY    HM241741   8.784   0.660   5.767  2.8345 -1.3492  0.7926
18326THY    HM341742   8.779   0.664   5.945  1.1904  1.6105 -0.6583
18326THY    CA641743   9.035   0.783   5.752 -0.0033 -0.0563 -0.6825
18326THY    HA641744   9.017   0.730   5.658  0.3647 -0.0605 -0.8055
18327THY      O41745   7.910   3.310   6.954  0.6113  0.1641  0.1145
18327THY     HO41746   7.917   3.330   7.049 -0.2870  0.1449  0.5508
18327THY    CA141747   7.838   3.199   6.948 -0.2261  0.3936  0.4604
18327THY    CA241748   7.797   3.143   6.825  0.5209 -0.1344 -0.1678
18327THY    CP141749   7.837   3.226   6.699 -0.1246  0.0340  0.0160
18327THY    HP141750   7.874   3.327   6.721  0.3242  2.5694 -0.6256
18327THY    CP241751   7.732   3.234   6.589 -0.4678 -0.3887  0.0450
18327THY    HP241752   7.763   3.300   6.507 -1.9657 -0.8573  0.2142
18327THY    HP341753   7.640   3.267   6.640  1.0606  1.0827  2.3091
18327THY    HP441754   7.707   3.135   6.548 -2.8045 -1.9344  1.1653
18327THY    CP341755   7.974   3.179   6.640  0.5844  0.3923  0.3715
18327THY    HP541756   8.052   3.172   6.716  0.5154  0.5031  0.7610
18327THY    HP641757   8.019   3.248   6.568  2.0822  0.1408 -0.8061
18327THY    HP741758   7.965   3.079   6.596 -2.4792  0.8355  0.3558
18327THY    CA341759   7.715   3.026   6.824 -0.3268  0.0706  1.2064
18327THY    HA341760   7.680   2.988   6.728 -0.0702  0.7721 -0.8956
18327THY    CA441761   7.686   2.966   6.944  0.5785 -0.5246  0.1182
18327THY    HA441762   7.627   2.874   6.944 -0.8315  0.0053  0.9894
18327THY    CA541763   7.726   3.018   7.065 -0.4006 -0.0022 -0.6290
18327THY    CM141764   7.687   2.953   7.199  0.3261 -0.2968  0.5263
18327THY    HM141765   7.768   2.949   7.272 -2.0505  2.5014 -0.5807
18327THY    HM241766   7.667   2.848   7.176  0.4022 -1.0193  0.6670
18327THY    HM341767   7.598   3.006   7.235  0.4783 -0.8845  1.1917
18327THY    CA641768   7.802   3.136   7.067 -0.3055 -0.0089 -0.4191
18327THY    HA641769   7.834   3.185   7.158 -2.6229  0.9121 -0.5254
18328THY      O41770   2.105   0.630   7.234  0.5134 -0.4188 -0.5669
18328THY     HO41771   2.118   0.538   7.206  3.1879 -0.3241 -0.2988
18328THY    CA141772   2.073   0.620   7.372 -0.8536 -0.4892  0.0735
18328THY    CA241773   2.103   0.716   7.467 -0.5118 -0.2112  0.3666
18328THY    CP141774   2.165   0.855   7.434  0.0995  0.5984 -0.0500
18328THY    HP141775   2.216   0.847   7.338  0.0020  0.5445 -0.0273
18328THY    CP241776   2.279   0.889   7.527  0.5729 -0.1017  0.3498
18328THY    HP241777   2.350   0.806   7.528  0.3700 -1.6107  0.1302
18328THY    HP341778   2.242   0.916   7.627  0.1040 -0.1738 -0.0035
18328THY    HP441779   2.324   0.980   7.487 -1.6029 -0.9770  1.1199
18328THY    CP341780   2.062   0.968   7.438  0.0123  0.4103  0.0667
18328THY    HP541781   2.107   1.057   7.393 -2.2934  0.2478  1.2014
18328THY    HP641782   2.024   0.994   7.537  0.7612  0.7743 -0.1950
18328THY    HP741783   1.980   0.927   7.377  0.3849 -0.7541  0.9849
18328THY    CA341784   2.064   0.688   7.601  0.1061  1.1738 -0.2701
18328THY    HA341785   2.076   0.767   7.674 -1.3932  1.5300 -0.3422
18328THY    CA441786   2.031   0.558   7.640 -0.7786  0.9754 -0.0523
18328THY    HA441787   2.008   0.530   7.742  0.7091  1.1771 -0.6107
18328THY    CA541788   2.011   0.464   7.543 -0.3171  0.2230  0.5482
18328THY    CM141789   1.983   0.318   7.580  0.6660  0.4259 -0.6995
18328THY    HM141790   1.879   0.313   7.616  0.6070  0.5031  0.6076
18328THY    HM241791   2.049   0.288   7.662  0.0528  0.6728 -1.3966
18328THY    HM341792   1.984   0.241   7.502 -0.8249  1.3391 -1.6890
18328THY    CA641793   2.024   0.491   7.412 -0.0703  0.7003 -0.0593
18328THY    HA641794   2.011   0.410   7.341  2.2150 -0.1272  0.2124
18329THY      O41795   0.967   0.366   7.176 -0.3933  0.3328 -0.1738
18329THY     HO41796   0.895   0.309   7.143  0.4030 -0.6901 -0.6269
18329THY    CA141797   0.954   0.483   7.109 -0.8990  0.3517  0.6739
18329THY    CA241798   1.054   0.581   7.114 -0.2254 -0.6742 -0.7778
18329THY    CP141799   1.185   0.551   7.197  0.8021  0.8394 -0.2237
18329THY    HP141800   1.177   0.457   7.252 -0.5031 -1.0241 -1.2867
18329THY    CP241801   1.205   0.659   7.307 -0.0084  0.4770 -0.1853
18329THY    HP241802   1.213   0.760   7.264  0.2483 -0.9072 -0.7664
18329THY    HP341803   1.289   0.640   7.374  1.2309 -1.5498 -2.4582
18329THY    HP441804   1.112   0.661   7.366  0.4067  1.1981 -1.3210
18329THY    CP341805   1.299   0.558   7.101  0.2989 -0.3423  0.7247
18329THY    HP541806   1.300   0.468   7.038  1.7470  0.2725  0.2961
18329THY    HP641807   1.390   0.557   7.161 -1.6116  2.7681 -1.3514
18329THY    HP741808   1.297   0.645   7.034  0.1139  0.3905  1.2883
18329THY    CA341809   1.034   0.699   7.050 -0.4091  0.2417 -0.5616
18329THY    HA341810   1.100   0.785   7.057 -0.8693 -2.2150  0.0554
18329THY    CA441811   0.913   0.723   6.978  0.1716 -0.1478 -0.1765
18329THY    HA441812   0.900   0.816   6.923  0.9200 -2.2212 -1.2375
18329THY    CA541813   0.808   0.628   6.985 -0.1151  0.5123  0.1617
18329THY    CM141814   0.676   0.656   6.912 -0.2848 -0.2151  0.0926
18329THY    HM141815   0.701   0.664   6.806 -1.6104 -0.4042  3.0959
18329THY    HM241816   0.631   0.751   6.941  2.9621  1.5182  1.2737
18329THY    HM341817   0.609   0.569   6.920  0.2261 -1.3591 -0.4196
18329THY    CA641818   0.831   0.511   7.050  0.1185  0.4171  0.0649
18329THY    HA641819   0.756   0.433   7.056 -0.0962 -0.7583  0.1631
18330THY      O41820   8.224   9.258   2.574 -0.1100  0.1294 -0.1015
18330THY     HO41821   8.246   9.352   2.558  0.2494  2.8018  0.3239
18330THY    CA141822   8.215   9.202   2.451 -0.2621  0.0697 -0.4490
18330THY    CA241823   8.214   9.063   2.432  0.4883  0.3413 -0.0172
18330THY    CP141824   8.204   8.967   2.553 -0.1342 -0.1087 -0.2893
18330THY    HP141825   8.238   9.023   2.640 -0.5225  0.8155 -1.4404
18330THY    CP241826   8.285   8.843   2.554  0.4415  0.2059 -0.2383
18330THY    HP241827   8.381   8.882   2.519 -0.3398  1.0390  2.7310
18330THY    HP341828   8.239   8.770   2.486 -1.4469  1.5384 -0.3499
18330THY    HP441829   8.298   8.791   2.649  2.0035  1.3029  1.9839
18330THY    CP341830   8.058   8.943   2.589  0.5465 -0.2202 -0.0486
18330THY    HP541831   8.050   8.877   2.675  2.0392 -0.4013 -0.4876
18330THY    HP641832   8.006   8.903   2.501  1.9682 -1.0535 -0.1226
18330THY    HP741833   8.008   9.036   2.621 -1.3973  0.1584 -1.1615
18330THY    CA341834   8.212   9.014   2.296  0.3572 -0.1245 -0.1012
18330THY    HA341835   8.204   8.906   2.289  3.1657  1.1674 -0.4780
18330THY    CA441836   8.227   9.108   2.192  0.1101  0.0275  0.4793
18330THY    HA441837   8.221   9.077   2.088  1.5093 -0.1032  0.5966
18330THY    CA541838   8.226   9.250   2.214 -0.0318  0.6997  0.1740
18330THY    CM141839   8.208   9.347   2.095 -1.0044  0.4375  0.5796
18330THY    HM141840   8.237   9.303   1.999  2.9419  1.6649  0.1791
18330THY    HM241841   8.277   9.430   2.111  0.2205  0.7249 -0.4632
18330THY    HM341842   8.103   9.377   2.082 -2.2807 -1.2082 -3.7884
18330THY    CA641843   8.229   9.292   2.344 -1.0571  0.2108  0.5239
18330THY    HA641844   8.240   9.400   2.352 -0.3624  0.4928  0.4378
18331THY      O41845   6.334   9.278   5.532  0.8109 -0.4560 -0.1493
18331THY     HO41846   6.361   9.363   5.492  1.1523  1.3433  0.6178
18331THY    CA141847   6.200   9.270   5.535 -0.0014 -0.1257 -0.0006
18331THY    CA241848   6.135   9.144   5.520 -0.7943 -0.0864 -0.1673
18331THY    CP141849   6.222   9.022   5.483 -0.1219  0.4233  0.3020
18331THY    HP141850   6.326   9.049   5.463  0.4926  2.6910 -0.1921
18331THY    CP241851   6.156   8.953   5.366  0.1080 -0.4990  0.0958
18331THY    HP241852   6.057   8.919   5.399  0.8863  0.9373 -0.9145
18331THY    HP341853   6.215   8.864   5.339 -0.2259 -1.2728  0.1061
18331THY    HP441854   6.151   9.021   5.281 -0.0305  0.2010  0.9710
18331THY    CP341855   6.230   8.920   5.601 -0.5531  0.1777  0.3222
18331THY    HP541856   6.132   8.872   5.615  0.0482  1.9824 -0.4495
18331THY    HP641857   6.258   8.980   5.688  1.2118 -1.3390  1.8461
18331THY    HP741858   6.300   8.836   5.590  1.1790  0.9332  1.6035
18331THY    CA341859   6.000   9.141   5.542  0.1843  0.4508  0.6920
18331THY    HA341860   5.948   9.046   5.533  1.6875 -1.6294  0.0030
18331THY    CA441861   5.933   9.254   5.591 -0.7669 -1.1245  0.4793
18331THY    HA441862   5.831   9.246   5.627 -0.1555  0.4386 -1.0165
18331THY    CA541863   6.003   9.366   5.618  0.0299 -0.4001 -0.3196
18331THY    CM141864   5.946   9.484   5.693  0.1416  0.5097  0.0960
18331THY    HM141865   5.876   9.454   5.772 -2.2146 -1.4244  0.1400
18331THY    HM241866   5.864   9.526   5.632  0.5851 -1.4176 -1.7002
18331THY    HM341867   6.021   9.553   5.734 -0.0979  0.1938  0.5487
18331THY    CA641868   6.135   9.378   5.590 -0.0368 -0.5888 -0.2330
18331THY    HA641869   6.194   9.464   5.622  1.9096  1.3435 -2.1624
18332THY      O41870   3.019   1.911   1.739 -0.1805  0.2927  0.1967
18332THY     HO41871   2.943   1.967   1.716 -0.1822  2.2335  1.0598
18332THY    CA141872   2.965   1.808   1.803  0.8308 -0.1418 -0.5868
18332THY    CA241873   3.049   1.717   1.872  0.4173  0.0101 -1.0781
18332THY    CP141874   3.206   1.737   1.884  0.5155 -0.9633  0.0543
18332THY    HP141875   3.233   1.836   1.845  2.0871  0.1252  0.1027
18332THY    CP241876   3.271   1.620   1.798  0.0295  0.2251 -0.3727
18332THY    HP241877   3.224   1.620   1.699 -1.6775  0.9864  0.1361
18332THY    HP341878   3.243   1.527   1.849  0.4888 -0.4987 -0.9132
18332THY    HP441879   3.380   1.626   1.787 -0.0375 -0.0557  0.3809
18332THY    CP341880   3.254   1.730   2.029  0.8395 -0.9599  0.3403
18332THY    HP541881   3.363   1.739   2.033  1.0567  3.2979 -1.7213
18332THY    HP641882   3.232   1.635   2.080 -2.9284 -0.8413  1.1037
18332THY    HP741883   3.215   1.809   2.095  0.3111 -0.2983 -0.4555
18332THY    CA341884   2.991   1.605   1.939 -0.7668  0.2218 -0.2881
18332THY    HA341885   3.051   1.535   1.997  1.0061 -0.9404  0.2036
18332THY    CA441886   2.858   1.580   1.917  0.0517 -0.1782  0.0614
18332THY    HA441887   2.814   1.508   1.986  2.0318  1.5484  0.3944
18332THY    CA541888   2.783   1.658   1.834  1.2464 -0.0888 -0.1082
18332THY    CM141889   2.630   1.646   1.834 -0.5092 -0.1135  0.6540
18332THY    HM141890   2.591   1.617   1.932 -1.9207 -0.9278 -0.3458
18332THY    HM241891   2.604   1.575   1.754 -0.2994 -0.1808  0.6538
18332THY    HM341892   2.586   1.745   1.815 -1.1665 -0.7643  0.2540
18332THY    CA641893   2.832   1.773   1.788 -0.1986 -0.5233 -0.5926
18332THY    HA641894   2.763   1.833   1.730  2.1386  0.4409  3.3620
18333THY      O41895   8.245   6.849   5.389 -0.0618 -0.4483 -0.1054
18333THY     HO41896   8.316   6.903   5.428  2.1596  0.6549 -3.4794
18333THY    CA141897   8.246   6.851   5.256 -0.5923 -0.2118  0.0769
18333THY    CA241898   8.169   6.762   5.181  0.4225  0.2238  0.7001
18333THY    CP141899   8.071   6.664   5.236  0.1916  0.1761  0.3970
18333THY    HP141900   8.073   6.667   5.346 -0.5310  0.2219 -0.2496
18333THY    CP241901   8.106   6.523   5.198 -0.4330 -0.4906 -0.4991
18333THY    HP241902   8.100   6.492   5.093 -0.4825 -0.6729  0.1182
18333THY    HP341903   8.037   6.451   5.244 -0.1894  0.0364 -0.3973
18333THY    HP441904   8.210   6.507   5.229 -0.3131  0.2812  1.4748
18333THY    CP341905   7.927   6.699   5.196  0.3247 -0.5120  0.3726
18333THY    HP541906   7.926   6.735   5.092  3.0964 -0.6738  0.1845
18333THY    HP641907   7.889   6.775   5.265  0.4901 -0.0020 -0.0048
18333THY    HP741908   7.858   6.613   5.198  0.7557 -1.1116  0.0012
18333THY    CA341909   8.175   6.773   5.042  0.3878 -0.3008 -0.3354
18333THY    HA341910   8.109   6.716   4.977 -2.0817  1.4013  0.4427
18333THY    CA441911   8.270   6.863   4.982 -0.1455  0.2156 -0.1989
18333THY    HA441912   8.255   6.889   4.878 -0.8195  0.2201 -0.5638
18333THY    CA541913   8.343   6.956   5.059 -0.4728  0.3809  0.0704
18333THY    CM141914   8.416   7.074   5.001 -0.2819  0.1914  0.5725
18333THY    HM141915   8.441   7.147   5.080  0.5341 -0.4096  0.9652
18333THY    HM241916   8.353   7.133   4.934  2.3722 -1.4174  1.7738
18333THY    HM341917   8.508   7.049   4.947  0.4474  0.7167  2.0070
18333THY    CA641918   8.326   6.946   5.196 -0.6188 -0.2808  0.6059
18333THY    HA641919   8.392   7.006   5.258 -0.4937  1.1348 -0.9011
18334THY      O41920   4.264   3.873   6.899 -0.2724 -0.0385 -0.4289
18334THY     HO41921   4.285   3.827   6.982  0.2939  0.2666  0.3716
18334THY    CA141922   4.338   3.795   6.813  0.8430 -0.0853 -0.0588
18334THY    CA241923   4.382   3.842   6.686  0.2892 -0.7146  0.2101
18334THY    CP141924   4.355   3.989   6.644  0.6429  0.8305  0.3197
18334THY    HP141925   4.323   4.049   6.731 -0.4946  1.4764 -1.1613
18334THY    CP241926   4.225   4.005   6.559  0.6747  1.2124 -0.0534
18334THY    HP241927   4.145   3.958   6.617 -0.0818  0.7502  0.6367
18334THY    HP341928   4.239   3.958   6.461 -0.9275  0.9693 -0.0825
18334THY    HP441929   4.181   4.104   6.544 -0.1995 -2.3134 -0.8323
18334THY    CP341930   4.477   4.063   6.575 -0.1724 -0.3582  0.0186
18334THY    HP541931   4.560   4.088   6.641 -0.2575 -0.5251  0.7515
18334THY    HP641932   4.433   4.159   6.545 -2.1354  0.8101 -0.4610
18334THY    HP741933   4.519   4.002   6.493  0.5461  1.0036 -1.3810
18334THY    CA341934   4.458   3.762   6.599  0.4070 -0.3345  0.5194
18334THY    HA341935   4.487   3.798   6.501  1.2467 -0.4199 -0.3452
18334THY    CA441936   4.486   3.633   6.649  0.5046 -0.1733  0.0124
18334THY    HA441937   4.533   3.562   6.582 -2.9218 -0.3842 -2.2693
18334THY    CA541938   4.443   3.589   6.774 -0.4243  0.2914  0.2746
18334THY    CM141939   4.476   3.448   6.810  1.0175  0.5454 -0.1297
18334THY    HM141940   4.455   3.445   6.917 -0.1864  0.3092 -1.5591
18334THY    HM241941   4.583   3.427   6.798  0.9115 -2.4821  0.5287
18334THY    HM341942   4.409   3.381   6.755  0.4626  1.0580 -0.0024
18334THY    CA641943   4.371   3.667   6.855 -0.5258  0.2389  0.4011
18334THY    HA641944   4.338   3.633   6.953  0.6266  0.9277  1.1777
18335THY      O41945   6.629   3.085   6.784 -0.6481 -0.5268  0.4913
18335THY     HO41946   6.557   3.019   6.790  0.2307  0.3381 -0.4221
18335THY    CA141947   6.729   3.048   6.864 -0.3799 -0.7197  0.4554
18335THY    CA241948   6.835   3.133   6.893 -0.4893 -0.1482  0.9891
18335THY    CP141949   6.836   3.275   6.837 -0.0804  0.5998  0.0764
18335THY    HP141950   6.735   3.295   6.798  0.6141 -1.2647  0.1208
18335THY    CP241951   6.936   3.283   6.727 -0.1954  0.2800 -0.5268
18335THY    HP241952   7.036   3.288   6.771 -0.9426  2.0861 -0.2945
18335THY    HP341953   6.920   3.377   6.673  0.6794 -1.7036 -1.4739
18335THY    HP441954   6.924   3.187   6.675  0.3912  2.2518 -1.7255
18335THY    CP341955   6.859   3.375   6.948  0.2871  0.2248  0.0669
18335THY    HP541956   6.787   3.365   7.031 -0.5672 -0.7527 -3.0560
18335THY    HP641957   6.859   3.478   6.912 -1.5318  0.8365  0.3143
18335THY    HP741958   6.955   3.364   7.001  0.7470 -0.7308 -0.5902
18335THY    CA341959   6.940   3.091   6.970 -0.3688 -0.0010  0.0003
18335THY    HA341960   7.009   3.167   7.005 -0.9332 -2.5637  1.8201
18335THY    CA441961   6.945   2.961   7.020 -0.1053  0.0717 -0.1160
18335THY    HA441962   7.029   2.945   7.087  2.0948 -1.6807  2.9675
18335THY    CA541963   6.848   2.873   6.982  0.2981  0.0069 -0.0214
18335THY    CM141964   6.850   2.730   7.035  1.0100  0.3444 -0.9845
18335THY    HM141965   6.951   2.706   7.069  1.5383  0.3078  1.0144
18335THY    HM241966   6.815   2.658   6.960 -0.3667  0.6200 -0.6407
18335THY    HM341967   6.786   2.717   7.123  2.2495  1.1854 -1.5312
18335THY    CA641968   6.741   2.917   6.904 -0.0661 -0.0286 -0.3271
18335THY    HA641969   6.664   2.849   6.869 -0.9732  0.7553  0.2879
18336THY      O41970   8.834   3.085   7.471  0.2960 -0.1915 -0.0216
18336THY     HO41971   8.861   3.028   7.397 -1.0064 -0.7641  0.0578
18336THY    CA141972   8.763   3.009   7.561  0.5988  0.7403  0.5099
18336THY    CA241973   8.679   3.060   7.659  0.0465  0.7824 -0.4410
18336THY    CP141974   8.665   3.210   7.673 -0.0217 -0.0296  0.4966
18336THY    HP141975   8.731   3.256   7.598 -0.3882  0.1000  1.2438
18336THY    CP241976   8.731   3.259   7.811  0.6941  0.5799 -0.7394
18336THY    HP241977   8.818   3.194   7.827  0.7849  1.6407 -0.3652
18336THY    HP341978   8.669   3.251   7.900  1.1622  1.2097  1.6815
18336THY    HP441979   8.752   3.366   7.798 -2.0753 -1.1422 -0.3168
18336THY    CP341980   8.522   3.271   7.641  0.0840  0.0700  0.2893
18336THY    HP541981   8.494   3.252   7.537  0.4751  0.2147 -1.2453
18336THY    HP641982   8.538   3.379   7.648 -1.1123 -0.4751  0.5115
18336THY    HP741983   8.451   3.247   7.721  2.4804  1.6554 -2.2892
18336THY    CA341984   8.610   2.977   7.752 -0.3785  0.0498 -0.4651
18336THY    HA341985   8.543   3.024   7.824  1.4482 -0.6902  3.6771
18336THY    CA441986   8.624   2.833   7.732  0.5147  0.1830 -0.3229
18336THY    HA441987   8.577   2.763   7.801 -2.6866 -1.4432  0.0300
18336THY    CA541988   8.699   2.783   7.628  0.3131  0.8487  0.1392
18336THY    CM141989   8.721   2.635   7.628 -0.0116  0.2491 -0.3034
18336THY    HM141990   8.625   2.583   7.631 -0.6987  0.7828  0.9259
18336THY    HM241991   8.756   2.600   7.726 -0.0779  0.2332 -0.4138
18336THY    HM341992   8.779   2.598   7.543 -0.7220  0.2366 -1.4185
18336THY    CA641993   8.768   2.871   7.548  0.3137 -0.0391 -0.3280
18336THY    HA641994   8.837   2.835   7.472 -0.0028 -0.3786 -0.2285
18337THY      O41995   1.613   3.902   5.025  0.5079  0.2111 -0.1406
18337THY     HO41996   1.538   3.945   4.978  0.6971 -2.4541 -2.4196
18337THY    CA141997   1.627   3.936   5.153  0.2083  0.1882  0.4650
18337THY    CA241998   1.707   3.860   5.241  0.0279  0.1796 -0.8612
18337THY    CP141999   1.776   3.741   5.190 -0.2147  0.3760  0.4358
18337THY    HP142000   1.741   3.710   5.091  2.7592 -0.2146 -1.4452
18337THY    CP242001   1.736   3.623   5.281  0.4285  0.1575  0.0510
18337THY    HP242002   1.797   3.613   5.371 -0.7261  1.1982  1.9146
18337THY    HP342003   1.750   3.526   5.231  0.4744 -0.3466  0.3132
18337THY    HP442004   1.629   3.632   5.305  0.7252  1.2500  0.9124
18337THY    CP342005   1.929   3.756   5.171  0.2173 -1.0809 -0.2019
18337THY    HP542006   1.953   3.838   5.103  2.8768  0.6968  0.6231
18337THY    HP642007   1.969   3.664   5.126  0.2723 -0.9636 -0.2357
18337THY    HP742008   1.973   3.764   5.271 -3.8684  0.8388  1.6635
18337THY    CA342009   1.722   3.906   5.374 -0.6036  0.1612 -1.2501
18337THY    HA342010   1.782   3.854   5.449  0.9341 -0.2865 -0.1787
18337THY    CA442011   1.654   4.020   5.418  0.6441  0.3999 -0.0521
18337THY    HA442012   1.667   4.058   5.519 -0.2296  0.0627  1.2167
18337THY    CA542013   1.585   4.098   5.320 -0.4394  0.3070 -0.4645
18337THY    CM142014   1.523   4.236   5.347 -0.1091  0.0359 -0.6380
18337THY    HM142015   1.535   4.292   5.254  4.0598  0.8367  0.1032
18337THY    HM242016   1.576   4.296   5.422  1.3546 -0.1595 -1.6401
18337THY    HM342017   1.419   4.233   5.382 -1.0377 -2.3812  0.4587
18337THY    CA642018   1.565   4.053   5.188  0.7047  0.3625  0.1584
18337THY    HA642019   1.514   4.114   5.114  2.5838  1.5202  3.3551
18338THY      O42020   7.184   3.944   5.490 -0.1695 -0.1244  0.0640
18338THY     HO42021   7.131   3.946   5.571  1.7441  1.1863 -0.4480
18338THY    CA142022   7.287   4.025   5.511 -0.3605  0.2090 -0.4836
18338THY    CA242023   7.312   4.151   5.447  0.0158 -0.3061  0.2281
18338THY    CP142024   7.203   4.203   5.344  0.4074  0.2523  0.1103
18338THY    HP142025   7.131   4.121   5.331  2.3634 -2.3444 -1.3657
18338THY    CP242026   7.260   4.213   5.199 -0.5147 -0.1672  0.2113
18338THY    HP242027   7.336   4.291   5.202  1.4446 -0.6089 -1.6001
18338THY    HP342028   7.176   4.232   5.131 -0.8781  0.3404  0.4615
18338THY    HP442029   7.313   4.122   5.170  1.0821  2.1553  0.3188
18338THY    CP342030   7.136   4.333   5.377 -0.4775  0.4584  0.0617
18338THY    HP542031   7.216   4.401   5.408 -0.5230 -1.2370  0.9465
18338THY    HP642032   7.070   4.314   5.462  0.7563  1.2548 -0.8817
18338THY    HP742033   7.074   4.376   5.297 -1.2964  2.1720  2.2955
18338THY    CA342034   7.429   4.228   5.478 -0.2150  0.2497  0.3926
18338THY    HA342035   7.432   4.330   5.439 -1.9161 -3.9828 -0.9403
18338THY    CA442036   7.534   4.165   5.549 -0.4250 -0.4190 -0.7843
18338THY    HA442037   7.629   4.215   5.567  1.1289 -2.6963 -2.6896
18338THY    CA542038   7.518   4.036   5.605  0.4852 -0.5576 -0.2354
18338THY    CM142039   7.631   3.968   5.686  0.1688  0.1480  0.0492
18338THY    HM142040   7.683   4.032   5.758 -0.5489 -0.1474  0.9905
18338THY    HM242041   7.707   3.918   5.624  1.6524  1.2851  0.8080
18338THY    HM342042   7.583   3.886   5.739  1.0121 -0.4149 -0.8263
18338THY    CA642043   7.393   3.968   5.580  0.8747 -0.6541 -0.6912
18338THY    HA642044   7.380   3.870   5.625  0.8204  0.5694 -0.1344
18339THY      O42045   2.711   2.493   5.119  0.6921  0.1674 -0.2190
18339THY     HO42046   2.743   2.407   5.152  2.6889 -0.6346  0.1516
18339THY    CA142047   2.582   2.493   5.145  0.0419 -0.1719  0.4015
18339THY    CA242048   2.503   2.610   5.132  0.6138  0.2111  0.2036
18339THY    CP142049   2.559   2.745   5.077 -0.2871 -0.2389  0.2633
18339THY    HP142050   2.669   2.746   5.078 -0.1358  1.6598 -2.9698
18339THY    CP242051   2.525   2.860   5.174 -0.6755  0.0616  0.4110
18339THY    HP242052   2.551   2.958   5.131 -0.3322  1.6922  1.0848
18339THY    HP342053   2.586   2.836   5.263  1.6173 -1.3635  0.6385
18339THY    HP442054   2.420   2.865   5.204 -0.6378  0.0100  2.2476
18339THY    CP342055   2.506   2.763   4.938 -0.0822  0.4831  0.9021
18339THY    HP542056   2.526   2.672   4.878  1.1026  1.4420  0.5112
18339THY    HP642057   2.559   2.837   4.878  2.1641 -0.1844 -1.1319
18339THY    HP742058   2.399   2.783   4.923  0.2115 -1.7496  1.1216
18339THY    CA342059   2.362   2.600   5.155  0.5035  0.7085  0.0960
18339THY    HA342060   2.291   2.683   5.159 -2.4232  3.3710 -2.2356
18339THY    CA442061   2.311   2.477   5.201  0.0815 -0.3683 -0.8725
18339THY    HA442062   2.207   2.473   5.233 -0.4705 -1.2083  3.2190
18339THY    CA542063   2.392   2.364   5.214 -0.5564  0.5902  0.0498
18339THY    CM142064   2.330   2.236   5.260 -0.0978 -0.5400 -0.4031
18339THY    HM142065   2.236   2.216   5.208  0.3949 -1.7287  0.2474
18339THY    HM242066   2.318   2.233   5.369 -0.4715 -0.5050  1.4555
18339THY    HM342067   2.394   2.154   5.225  2.5766  1.0566  0.8730
18339THY    CA642068   2.528   2.370   5.185  0.2000  0.1359  0.2632
18339THY    HA642069   2.588   2.282   5.206  0.4339 -0.0704  0.3721
18340THY      O42070   4.795   2.957   3.083  0.1957 -0.4531  0.5838
18340THY     HO42071   4.706   2.941   3.120  0.0972 -1.3974 -1.3094
18340THY    CA142072   4.829   2.836   3.017  0.4666 -0.5159  0.5830
18340THY    CA242073   4.956   2.812   2.956 -0.6426  0.3516 -0.0227
18340THY    CP142074   5.049   2.929   2.935 -0.3476  0.3091 -0.5629
18340THY    HP142075   5.029   3.010   3.007  1.4709  2.4148 -1.8605
18340THY    CP242076   5.027   2.984   2.794  0.1213  0.0900  0.0572
18340THY    HP242077   5.081   3.078   2.779  2.0341  2.4432 -0.5594
18340THY    HP342078   4.919   2.992   2.780  0.0690  0.9070  0.7906
18340THY    HP442079   5.074   2.912   2.725 -0.0045  0.6004 -0.5179
18340THY    CP342080   5.193   2.897   2.961 -0.5765  0.3628  0.1275
18340THY    HP542081   5.199   2.827   3.046  1.2256 -1.3620 -1.9729
18340THY    HP642082   5.245   2.992   2.979  1.6254 -0.6649 -0.8130
18340THY    HP742083   5.234   2.853   2.870 -2.0887  0.0027 -0.5881
18340THY    CA342084   4.989   2.688   2.900  0.1527 -0.0656  0.1505
18340THY    HA342085   5.088   2.686   2.855  0.1442 -0.0738 -0.5703
18340THY    CA442086   4.904   2.584   2.916  0.8764  0.2427 -0.3745
18340THY    HA442087   4.926   2.491   2.864  0.0006 -1.7943  0.4913
18340THY    CA542088   4.771   2.615   2.959  0.4869  0.3290  0.3613
18340THY    CM142089   4.668   2.509   2.949 -0.6293  0.6180  0.4116
18340THY    HM142090   4.708   2.407   2.956  1.1010  1.8847  1.1511
18340THY    HM242091   4.603   2.509   2.860  1.0327 -0.6500  0.4815
18340THY    HM342092   4.590   2.512   3.026 -1.8733 -0.6278  2.8729
18340THY    CA642093   4.733   2.734   3.014  0.2111  0.9889 -0.4424
18340THY    HA642094   4.639   2.744   3.066  0.4775  1.2469  0.8262
18341THY      O42095   1.891   4.915   6.361  0.5340 -0.0297 -0.0027
18341THY     HO42096   1.849   4.828   6.361  0.7751  1.1552 -0.1323
18341THY    CA142097   1.834   4.985   6.468 -0.2597  0.0110 -0.7357
18341THY    CA242098   1.799   5.123   6.465  0.7884 -0.6278  0.0999
18341THY    CP142099   1.839   5.206   6.345  0.7594 -0.1956  0.5011
18341THY    HP142100   1.940   5.175   6.312  1.9081  2.5354  1.0364
18341THY    CP242101   1.854   5.357   6.379 -0.7445 -0.6061  0.1459
18341THY    HP242102   1.912   5.349   6.471 -1.4620 -0.2283 -0.8454
18341THY    HP342103   1.755   5.401   6.397 -0.9608 -1.2678 -0.0592
18341THY    HP442104   1.914   5.415   6.307  0.2104 -0.7521 -0.9855
18341THY    CP342105   1.732   5.171   6.243  0.0655  0.5750 -0.8843
18341THY    HP542106   1.708   5.065   6.236 -1.5887  3.0415 -0.7630
18341THY    HP642107   1.761   5.210   6.145 -2.4324  0.1177  0.0545
18341THY    HP742108   1.633   5.207   6.276 -1.5435 -2.5627 -2.1284
18341THY    CA342109   1.727   5.176   6.577 -0.9424 -0.2964  0.1677
18341THY    HA342110   1.693   5.279   6.573 -1.2292  0.2043  0.0942
18341THY    CA442111   1.698   5.097   6.688 -0.3051  0.4231 -0.1453
18341THY    HA442112   1.634   5.130   6.769 -1.3995  0.5776 -2.4438
18341THY    CA542113   1.731   4.958   6.676  0.0205  0.1520  0.0568
18341THY    CM142114   1.700   4.868   6.793  0.6599 -0.4972 -0.7600
18341THY    HM142115   1.758   4.774   6.794  1.3274  0.1530 -0.3571
18341THY    HM242116   1.593   4.846   6.801  0.1407  2.2879  2.1362
18341THY    HM342117   1.730   4.921   6.884 -2.9706  0.2724  0.2617
18341THY    CA642118   1.799   4.906   6.569  0.4074 -0.0410 -0.2553
18341THY    HA642119   1.826   4.801   6.567  1.3613  1.8886 -0.1009
18342THY      O42120   4.548   2.258   2.613  0.0550  0.0547  0.0471
18342THY     HO42121   4.482   2.233   2.680  0.3101  0.4645  0.4553
18342THY    CA142122   4.682   2.230   2.650  0.2958  0.2226 -0.4080
18342THY    CA242123   4.790   2.236   2.565 -0.0081 -0.2543  0.4526
18342THY    CP142124   4.766   2.280   2.424 -0.0343  0.4544 -0.9048
18342THY    HP142125   4.671   2.336   2.425  0.4801 -1.6473  0.0768
18342THY    CP242126   4.738   2.173   2.326 -0.3043  0.1492  0.7062
18342THY    HP242127   4.713   2.214   2.227 -0.7979  0.8543  2.1651
18342THY    HP342128   4.647   2.123   2.362  0.1872  0.5317  0.0775
18342THY    HP442129   4.830   2.114   2.322  1.0174  1.5211  2.5862
18342THY    CP342130   4.866   2.388   2.368  0.0574 -0.1502 -0.5711
18342THY    HP542131   4.964   2.347   2.344  0.3726 -0.7040  0.4733
18342THY    HP642132   4.889   2.466   2.441 -0.6493 -1.3329  0.8085
18342THY    HP742133   4.838   2.427   2.269 -0.1578  0.1332  0.0103
18342THY    CA342134   4.918   2.209   2.610 -0.2845 -0.5551 -0.5008
18342THY    HA342135   5.002   2.211   2.541  0.7775  0.6268  2.6619
18342THY    CA442136   4.946   2.184   2.744  0.5003 -0.1801 -0.6044
18342THY    HA442137   5.045   2.171   2.787  0.5547 -0.4422 -1.1025
18342THY    CA542138   4.839   2.188   2.837  0.5638 -0.1603 -0.0467
18342THY    CM142139   4.859   2.163   2.986 -0.0190  0.4475  0.5130
18342THY    HM142140   4.895   2.255   3.032 -1.0763 -0.7896  1.5818
18342THY    HM242141   4.924   2.076   3.005  2.8631  0.0279  2.4319
18342THY    HM342142   4.767   2.133   3.037  0.2766  0.6426 -0.0929
18342THY    CA642143   4.711   2.222   2.789  0.6192 -0.5856 -0.0208
18342THY    HA642144   4.632   2.224   2.864  0.5606 -0.6468  1.6909
18343THY      O42145   1.374   6.517   5.757  0.3534  0.6982 -0.4774
18343THY     HO42146   1.359   6.424   5.732 -0.7696 -1.4717  0.2103
18343THY    CA142147   1.442   6.514   5.873  0.4784 -0.6811 -0.1012
18343THY    CA242148   1.363   6.492   5.995  0.0663  0.0555 -0.4854
18343THY    CP142149   1.210   6.461   5.999  0.0373 -0.6786  0.2310
18343THY    HP142150   1.173   6.438   5.898 -0.9840  0.0902 -1.7899
18343THY    CP242151   1.135   6.565   6.062  0.0196  0.3530  0.1105
18343THY    HP242152   1.028   6.541   6.058  0.0519  2.8632 -0.7303
18343THY    HP342153   1.148   6.658   6.005  1.1988 -1.4169 -1.0836
18343THY    HP442154   1.173   6.574   6.164 -0.8790  0.6872  0.1981
18343THY    CP342155   1.194   6.327   6.076  0.3072  0.1550 -0.0867
18343THY    HP542156   1.222   6.329   6.182 -3.6459  1.3255  1.1391
18343THY    HP642157   1.251   6.252   6.019  0.7223  2.6419 -1.7917
18343THY    HP742158   1.092   6.288   6.070  0.6978  1.4600 -1.4138
18343THY    CA342159   1.437   6.479   6.116  0.0100  0.0907 -0.5561
18343THY    HA342160   1.386   6.466   6.212 -0.5217  0.2678  2.2573
18343THY    CA442161   1.582   6.490   6.112 -0.2634 -0.1616 -0.0553
18343THY    HA442162   1.643   6.474   6.201  2.8239 -2.4954 -2.5227
18343THY    CA542163   1.652   6.516   5.996 -0.1604  0.1594  0.3488
18343THY    CM142164   1.798   6.521   5.990 -0.3931 -0.3677 -0.4792
18343THY    HM142165   1.831   6.597   5.918 -2.1530 -0.7090  0.0046
18343THY    HM242166   1.848   6.425   5.974  1.1963  0.0158  0.2466
18343THY    HM342167   1.836   6.555   6.087 -1.1577 -0.0259 -0.5830
18343THY    CA642168   1.581   6.524   5.872  0.1861 -0.1348 -1.0012
18343THY    HA642169   1.635   6.545   5.781  2.4265  1.5344  1.0525
18344THY      O42170   8.988   6.402   3.059  0.4238 -0.0050 -0.1669
18344THY     HO42171   8.966   6.353   3.141 -1.9929 -0.8426 -0.6477
18344THY    CA142172   8.962   6.535   3.085 -0.0942 -0.7300  0.3431
18344THY    CA242173   8.989   6.645   2.996  0.3264 -0.2258 -0.3373
18344THY    CP142174   9.051   6.620   2.863  0.2219  0.3902 -0.0074
18344THY    HP142175   9.089   6.518   2.854  0.3992  0.6007  0.0402
18344THY    CP242176   9.158   6.723   2.843  0.0143 -0.4612  0.5150
18344THY    HP242177   9.121   6.816   2.798  2.1877 -0.7064  1.3171
18344THY    HP342178   9.236   6.689   2.775 -0.0816 -1.3944  2.0345
18344THY    HP442179   9.213   6.751   2.934 -0.1808  0.1886 -1.0759
18344THY    CP342180   8.937   6.618   2.766  0.0306  0.2243 -0.1311
18344THY    HP542181   8.876   6.709   2.773 -0.8284  0.9110 -0.7423
18344THY    HP642182   8.865   6.535   2.779  1.6780  0.1171 -1.6359
18344THY    HP742183   8.973   6.608   2.663 -0.8990  0.0503 -2.7512
18344THY    CA342184   8.935   6.766   3.030  0.2419  0.4372  0.1842
18344THY    HA342185   8.938   6.849   2.960 -0.8316  0.8485  0.5806
18344THY    CA442186   8.877   6.793   3.156  0.3411 -0.0296 -0.0445
18344THY    HA442187   8.843   6.895   3.175  0.7288 -1.7735  0.4430
18344THY    CA542188   8.868   6.690   3.253  0.2907  0.3229  0.3372
18344THY    CM142189   8.791   6.708   3.382 -0.7377  0.3190  0.2621
18344THY    HM142190   8.683   6.710   3.366 -0.6461 -0.4131 -0.3872
18344THY    HM242191   8.813   6.808   3.423 -0.2184 -0.5847  0.5374
18344THY    HM342192   8.812   6.617   3.439  2.2339 -0.1619  0.5446
18344THY    CA642193   8.910   6.562   3.211  0.6790  0.2604  0.5136
18344THY    HA642194   8.891   6.471   3.267  0.0280 -2.0653 -0.8844
18345THY      O42195   6.351   0.783   7.051 -0.0467  0.1403  0.7434
18345THY     HO42196   6.321   0.720   6.983 -1.9403  2.3220 -0.8823
18345THY    CA142197   6.470   0.834   7.020 -0.2260 -1.0496  0.2167
18345THY    CA242198   6.521   0.947   7.079 -0.1978  0.3278 -0.0294
18345THY    CP142199   6.436   1.036   7.170  0.2217 -0.2483 -0.0681
18345THY    HP142200   6.335   0.996   7.180  0.7225  1.7972 -0.9542
18345THY    CP242201   6.422   1.190   7.135 -0.4686  0.0021  0.5029
18345THY    HP242202   6.379   1.196   7.035  0.2035 -0.3771 -0.5701
18345THY    HP342203   6.516   1.245   7.147 -0.8166  0.5361  0.9965
18345THY    HP442204   6.353   1.237   7.206 -0.4070  0.5668 -0.2379
18345THY    CP342205   6.471   1.018   7.317 -0.2488 -0.3175  0.3379
18345THY    HP542206   6.578   1.020   7.339 -0.4607  1.0253 -1.0061
18345THY    HP642207   6.446   0.915   7.347  2.6457  0.4174 -0.2250
18345THY    HP742208   6.407   1.085   7.376 -1.2705 -1.2520  0.2225
18345THY    CA342209   6.643   0.999   7.034  0.6631  0.2507  0.7711
18345THY    HA342210   6.690   1.091   7.068  0.7983  1.2738  0.3428
18345THY    CA442211   6.706   0.937   6.929  0.0797  0.1518  0.1534
18345THY    HA442212   6.795   0.973   6.879 -1.3588 -2.2302  0.7032
18345THY    CA542213   6.660   0.807   6.877 -0.3361 -0.7509  0.2231
18345THY    CM142214   6.737   0.715   6.780  0.8303  0.4709 -0.7144
18345THY    HM142215   6.799   0.636   6.824  1.1930  1.6574  0.2101
18345THY    HM242216   6.789   0.775   6.704  1.3458 -0.7393 -2.6033
18345THY    HM342217   6.668   0.657   6.718  1.8459 -0.8262 -0.5901
18345THY    CA642218   6.536   0.767   6.918 -0.4018  0.8671  0.1975
18345THY    HA642219   6.494   0.676   6.879 -1.6032  0.3838  0.9381
18346THY      O42220   8.369   7.867   4.323  0.1244 -0.6366  0.9331
18346THY     HO42221   8.455   7.841   4.285 -0.1068 -0.4625 -0.1254
18346THY    CA142222   8.273   7.844   4.238  0.1596 -0.3364 -0.1822
18346THY    CA242223   8.140   7.875   4.266  0.5834 -0.3267 -0.9203
18346THY    CP142224   8.093   7.923   4.404 -0.8990 -0.3973 -0.5537
18346THY    HP142225   8.165   7.914   4.486 -0.9632 -0.1562  0.9164
18346THY    CP242226   7.971   7.831   4.438 -0.0060  0.2454  0.0547
18346THY    HP242227   7.950   7.850   4.543  0.0863 -0.1830  2.9699
18346THY    HP342228   7.998   7.726   4.420  0.3467 -0.6267  0.2802
18346THY    HP442229   7.881   7.863   4.385  1.9886 -2.9864  0.8535
18346THY    CP342230   8.063   8.073   4.407  0.4026  0.0630  0.3933
18346THY    HP542231   8.145   8.127   4.359  0.3007 -1.2907 -0.6024
18346THY    HP642232   8.034   8.110   4.506  0.8653  0.4317 -0.2206
18346THY    HP742233   7.976   8.084   4.341  0.1905  0.4735  1.3393
18346THY    CA342234   8.043   7.875   4.160 -0.1525 -0.1533  1.2597
18346THY    HA342235   7.938   7.891   4.180 -0.5888 -0.4850 -0.8869
18346THY    CA442236   8.086   7.849   4.030  0.0716  0.0456 -0.4359
18346THY    HA442237   8.018   7.858   3.945 -1.0122  0.9694  0.4050
18346THY    CA542238   8.215   7.811   4.008 -0.5882 -0.0424  0.4135
18346THY    CM142239   8.246   7.765   3.873  0.9184 -0.5659 -0.1190
18346THY    HM142240   8.235   7.657   3.865  2.8257 -1.2853 -0.2975
18346THY    HM242241   8.351   7.786   3.850  1.0118 -1.9945 -1.9490
18346THY    HM342242   8.191   7.809   3.789  2.6198 -1.6980 -0.0651
18346THY    CA642243   8.309   7.807   4.110  0.5970  0.6099  0.6062
18346THY    HA642244   8.407   7.764   4.093  1.6035  0.2273  2.8717
18347THY      O42245   5.715   6.428   4.997  0.6765  0.4883  0.0468
18347THY     HO42246   5.720   6.524   5.013  0.0480 -0.8853  0.3327
18347THY    CA142247   5.774   6.377   5.106  0.5307 -0.1825  0.0286
18347THY    CA242248   5.763   6.244   5.145  0.6175 -0.2363  0.7835
18347THY    CP142249   5.655   6.159   5.065 -0.6415 -0.2337 -0.1343
18347THY    HP142250   5.653   6.197   4.962  0.3203  0.0857  0.8556
18347THY    CP242251   5.514   6.177   5.114  0.4786 -0.0619 -0.3891
18347THY    HP242252   5.448   6.115   5.051  0.2338  0.1692 -0.3677
18347THY    HP342253   5.493   6.282   5.094  2.5899 -1.4162 -0.1906
18347THY    HP442254   5.516   6.138   5.217  0.7595 -1.1237 -3.5262
18347THY    CP342255   5.694   6.012   5.064  0.0983 -0.2175  0.2408
18347THY    HP542256   5.620   5.975   4.993 -2.3010  2.3665 -0.2691
18347THY    HP642257   5.676   5.962   5.160 -2.5679  0.1961  1.7973
18347THY    HP742258   5.795   6.005   5.023  0.3145  0.5575 -2.0811
18347THY    CA342259   5.828   6.199   5.261  0.6676  0.2332 -0.2930
18347THY    HA342260   5.826   6.094   5.286  1.6260 -0.3507 -0.4595
18347THY    CA442261   5.915   6.287   5.329  0.7385  0.1108  0.0150
18347THY    HA442262   5.977   6.259   5.414 -2.3561  2.6766  0.3327
18347THY    CA542263   5.921   6.418   5.290  0.4098  0.4195 -0.1634
18347THY    CM142264   6.009   6.503   5.369 -0.3126  0.0722  0.1840
18347THY    HM142265   5.956   6.534   5.460  0.8452  0.8152  0.0371
18347THY    HM242266   6.043   6.592   5.315  1.1738  2.5081  1.1879
18347THY    HM342267   6.098   6.449   5.403  0.3499 -2.5226 -0.5401
18347THY    CA642268   5.849   6.467   5.183 -1.1276 -0.0782  0.3455
18347THY    HA642269   5.864   6.571   5.155  0.2671  0.7844  0.4083
18348THY      O42270   8.478   3.088   6.018  0.2744 -0.2116 -0.3119
18348THY     HO42271   8.535   3.132   6.084  0.6561 -1.3717  0.9853
18348THY    CA142272   8.357   3.148   6.028 -0.0083 -0.5453 -0.2415
18348THY    CA242273   8.272   3.186   5.920  0.2183  0.9125 -0.0649
18348THY    CP142274   8.323   3.155   5.780 -0.2005 -0.1686 -0.2204
18348THY    HP142275   8.373   3.059   5.760  1.9274 -0.4945  0.8979
18348THY    CP242276   8.435   3.255   5.743 -1.1455  0.4866 -1.1587
18348THY    HP242277   8.447   3.255   5.634  2.4061  0.7654 -1.0626
18348THY    HP342278   8.526   3.215   5.789  0.1118  0.3292  1.3568
18348THY    HP442279   8.409   3.358   5.770  0.4191 -0.1626 -0.5639
18348THY    CP342280   8.209   3.165   5.673  0.0535  0.7464 -0.0255
18348THY    HP542281   8.163   3.265   5.670 -0.5505  0.6791 -0.3028
18348THY    HP642282   8.130   3.091   5.690 -0.2058 -1.9671 -0.4891
18348THY    HP742283   8.245   3.144   5.572 -0.3886  0.1544  1.8190
18348THY    CA342284   8.159   3.269   5.952  0.1157  0.0340 -0.2912
18348THY    HA342285   8.098   3.309   5.871 -0.7084  0.5288 -0.5263
18348THY    CA442286   8.120   3.291   6.080  0.5750  0.1109  0.3195
18348THY    HA442287   8.027   3.344   6.097  0.2431  1.4498 -0.6403
18348THY    CA542288   8.193   3.238   6.193 -0.1626  0.2160  0.5529
18348THY    CM142289   8.142   3.240   6.331  0.2423 -0.4101 -0.2320
18348THY    HM142290   8.034   3.249   6.348  0.4035  0.9176 -0.4506
18348THY    HM242291   8.182   3.332   6.375  1.6828 -3.9578  0.9939
18348THY    HM342292   8.173   3.150   6.387 -1.1229  2.0735  0.7263
18348THY    CA642293   8.316   3.178   6.164 -0.1900 -1.4246  0.2921
18348THY    HA642294   8.384   3.167   6.247  0.6346 -2.2383 -1.0436
18349THY      O42295   2.231   5.087   6.195  0.6815  0.1512 -0.0613
18349THY     HO42296   2.182   5.013   6.235 -0.4895  0.1639  0.6892
18349THY    CA142297   2.238   5.173   6.297  0.1450 -0.0108 -0.4153
18349THY    CA242298   2.265   5.310   6.286  0.1740  0.6982  0.4833
18349THY    CP142299   2.313   5.366   6.147  0.7892 -0.9642 -0.3303
18349THY    HP142300   2.258   5.312   6.069 -0.6242 -0.3668  0.2139
18349THY    CP242301   2.463   5.322   6.142 -0.1837 -0.9278  0.3857
18349THY    HP242302   2.522   5.366   6.061  0.0086  1.1856  4.5030
18349THY    HP342303   2.464   5.213   6.129 -1.6426 -0.9234  0.3609
18349THY    HP442304   2.524   5.348   6.229  1.5637 -1.8856 -0.3283
18349THY    CP342305   2.309   5.513   6.123  0.3799  0.1671 -0.1871
18349THY    HP542306   2.397   5.564   6.164  1.3370 -0.7428 -1.0479
18349THY    HP642307   2.218   5.565   6.152 -0.3080 -0.3311 -1.0836
18349THY    HP742308   2.319   5.532   6.015 -1.9358  0.1223  1.0265
18349THY    CA342309   2.233   5.393   6.393  0.0371  0.4790 -0.2750
18349THY    HA342310   2.242   5.500   6.381  0.6621 -1.0473 -0.4753
18349THY    CA442311   2.187   5.336   6.513  0.0034  0.7060  0.1359
18349THY    HA442312   2.165   5.401   6.597 -2.2008  0.5584 -0.3224
18349THY    CA542313   2.158   5.206   6.525  0.0671 -0.1555  0.3544
18349THY    CM142314   2.118   5.142   6.661 -0.6366  0.0016 -0.5877
18349THY    HM142315   2.214   5.117   6.707  0.5453 -0.9041  1.9578
18349THY    HM242316   2.066   5.047   6.643  2.0656 -1.1963 -1.9585
18349THY    HM342317   2.065   5.213   6.726  2.4686  1.6140  0.4338
18349THY    CA642318   2.186   5.127   6.415 -0.6741 -0.2711  0.3025
18349THY    HA642319   2.153   5.024   6.423 -1.4629 -0.5348  0.5344
18350THY      O42320   8.736   4.691   5.928  0.1066  0.1461 -0.1458
18350THY     HO42321   8.759   4.754   5.857  0.6736 -0.4164 -0.9511
18350THY    CA142322   8.824   4.592   5.901  0.3119 -0.3486  0.2281
18350THY    CA242323   8.863   4.499   6.007  0.3170 -0.0527 -0.1792
18350THY    CP142324   8.801   4.504   6.149  0.0281  0.4319 -0.1234
18350THY    HP142325   8.742   4.595   6.163  0.1489  1.7848 -0.2439
18350THY    CP242326   8.920   4.527   6.237  0.0620 -0.6621 -0.5871
18350THY    HP242327   8.882   4.528   6.340  1.9449  0.1162 -2.0553
18350THY    HP342328   8.977   4.618   6.217  0.1405  1.6076 -0.0900
18350THY    HP442329   8.985   4.440   6.251  0.6698 -0.7174 -0.1469
18350THY    CP342330   8.721   4.375   6.186  0.2905  0.6392  0.1240
18350THY    HP542331   8.686   4.380   6.290 -2.2145 -0.1652  0.9302
18350THY    HP642332   8.789   4.289   6.187  0.2359 -0.3203  0.0641
18350THY    HP742333   8.639   4.339   6.123  0.1824  1.8216 -1.8431
18350THY    CA342334   8.957   4.403   5.975 -0.0908  0.2853  0.0073
18350THY    HA342335   8.995   4.337   6.053 -1.9393  2.3495  1.2170
18350THY    CA442336   9.010   4.401   5.845 -0.3853  0.1892  0.4978
18350THY    HA442337   9.093   4.334   5.826  0.1876  0.8017  1.0241
18350THY    CA542338   8.963   4.479   5.742  0.1459 -0.0479 -0.3031
18350THY    CM142339   9.014   4.465   5.600 -0.0720 -0.6796 -0.3681
18350THY    HM142340   8.966   4.379   5.550 -0.6565  2.0414 -1.7525
18350THY    HM242341   9.123   4.453   5.600  0.2327  0.3913  1.8646
18350THY    HM342342   8.991   4.556   5.543  1.5557 -1.3345 -0.3367
18350THY    CA642343   8.875   4.585   5.774  0.0009  0.2127 -0.2865
18350THY    HA642344   8.844   4.651   5.694 -1.3590  0.4916 -0.5544
18351THY      O42345   1.687   4.072   4.654  0.7052 -0.7400 -0.4322
18351THY     HO42346   1.730   4.028   4.729 -1.2851  0.7095 -0.0458
18351THY    CA142347   1.675   3.976   4.562 -0.2524  0.1999  0.0246
18351THY    CA242348   1.656   4.005   4.424 -0.1046 -0.0463 -0.2614
18351THY    CP142349   1.625   4.141   4.374  0.6023 -0.1770  0.2125
18351THY    HP142350   1.607   4.202   4.464 -2.4426  2.7536 -4.4217
18351THY    CP242351   1.482   4.145   4.306 -0.6741 -0.3870  0.1550
18351THY    HP242352   1.450   4.248   4.288 -2.3285  0.2638 -0.1980
18351THY    HP342353   1.414   4.105   4.383  0.5700  0.7403  0.1523
18351THY    HP442354   1.469   4.087   4.214 -1.9792  0.0282 -0.2547
18351THY    CP342355   1.734   4.214   4.293 -0.3591  0.4828  0.0777
18351THY    HP542356   1.724   4.195   4.186 -0.8414  0.8976 -2.3435
18351THY    HP642357   1.836   4.203   4.332 -1.3850  3.6881  0.7546
18351THY    HP742358   1.705   4.319   4.285  1.6320 -3.0813  0.5212
18351THY    CA342359   1.646   3.891   4.334 -0.1020  0.2509  0.1155
18351THY    HA342360   1.616   3.903   4.231 -0.4394  0.3256 -0.0668
18351THY    CA442361   1.681   3.765   4.382  0.3986 -0.0715 -0.1757
18351THY    HA442362   1.691   3.679   4.316  0.8239 -1.1281  0.6801
18351THY    CA542363   1.717   3.738   4.516 -0.6224  0.5558  0.3386
18351THY    CM142364   1.759   3.606   4.574  0.4577  0.5835  0.8332
18351THY    HM142365   1.851   3.620   4.632  2.4941 -2.0794 -0.5654
18351THY    HM242366   1.784   3.552   4.482 -1.8476 -0.0691  0.7658
18351THY    HM342367   1.683   3.557   4.635  2.5333  0.8585 -2.3111
18351THY    CA642368   1.705   3.845   4.604 -0.2686 -0.0826  0.5565
18351THY    HA642369   1.720   3.820   4.708 -1.6527 -0.2721 -1.2426
18352THY      O42370   7.406   7.448   6.273  0.1781 -0.0380 -0.2696
18352THY     HO42371   7.353   7.387   6.327  1.4043  0.6893 -0.7185
18352THY    CA142372   7.429   7.372   6.161  0.2031 -0.1993  0.0796
18352THY    CA242373   7.556   7.346   6.105  0.2000  0.0536  0.0776
18352THY    CP142374   7.674   7.393   6.192  0.8830  0.2728  0.3947
18352THY    HP142375   7.643   7.419   6.293  2.1075  0.2233  2.2006
18352THY    CP242376   7.720   7.523   6.137  0.2620 -0.3346 -0.2935
18352THY    HP242377   7.729   7.518   6.028 -1.4750 -0.4926 -0.2861
18352THY    HP342378   7.805   7.568   6.190  0.1511 -0.0255 -0.4417
18352THY    HP442379   7.640   7.596   6.151  1.1089 -0.9447  0.7784
18352THY    CP342380   7.779   7.281   6.203  0.3850  0.1296  0.5387
18352THY    HP542381   7.735   7.187   6.238 -2.0939 -0.0173  1.5548
18352THY    HP642382   7.853   7.300   6.282  1.1450 -0.0644 -1.3749
18352THY    HP742383   7.832   7.267   6.108 -0.2841 -0.3621  1.2502
18352THY    CA342384   7.568   7.283   5.985  0.0433  0.1730 -0.3012
18352THY    HA342385   7.665   7.276   5.937 -0.0275  0.1781 -1.4020
18352THY    CA442386   7.454   7.241   5.917  0.0641 -0.5571 -0.5965
18352THY    HA442387   7.453   7.199   5.817  1.8279 -0.2986 -1.3296
18352THY    CA542388   7.327   7.267   5.973  0.5566 -0.6462  0.7644
18352THY    CM142389   7.203   7.220   5.908  0.4518 -0.1129 -0.2492
18352THY    HM142390   7.210   7.213   5.799 -1.4928 -0.2780 -0.2974
18352THY    HM242391   7.118   7.287   5.930 -0.7933 -0.3295 -1.7208
18352THY    HM342392   7.174   7.118   5.937  0.1024  0.5326  0.0213
18352THY    CA642393   7.314   7.332   6.097  0.1849 -0.3606  0.3511
18352THY    HA642394   7.216   7.343   6.142  0.3837  0.8777 -2.1661
18353THY      O42395   5.396   7.454   5.226 -0.1820  0.0294 -1.0893
18353THY     HO42396   5.489   7.483   5.234 -0.1671 -1.9671 -0.4575
18353THY    CA142397   5.373   7.446   5.093  0.5085  1.0404  0.5045
18353THY    CA242398   5.237   7.433   5.049  0.7055  0.2162 -0.0290
18353THY    CP142399   5.120   7.435   5.156 -0.2575  0.4026 -0.1118
18353THY    HP142400   5.154   7.447   5.260 -0.2635  0.1982  2.0525
18353THY    CP242401   5.035   7.308   5.141  0.2928 -0.7067  0.1600
18353THY    HP242402   5.105   7.223   5.146 -0.9954 -2.0834 -1.0299
18353THY    HP342403   4.975   7.307   5.049 -2.6382  1.0777 -0.2427
18353THY    HP442404   4.952   7.296   5.212 -1.1111 -2.2430  0.4128
18353THY    CP342405   5.032   7.554   5.140  0.8826 -0.0395 -0.3272
18353THY    HP542406   4.980   7.561   5.044 -0.0795  0.5259  0.6025
18353THY    HP642407   5.092   7.645   5.134  0.1838  0.9398  0.2231
18353THY    HP742408   4.948   7.570   5.209  1.7150  1.1276 -0.8483
18353THY    CA342409   5.212   7.441   4.913  0.3592  0.2413 -0.4728
18353THY    HA342410   5.109   7.453   4.880  0.2297  0.8368  0.1021
18353THY    CA442411   5.316   7.441   4.822 -0.0695  0.1671  0.2409
18353THY    HA442412   5.303   7.443   4.715  0.6185  0.0902  1.6739
18353THY    CA542413   5.450   7.438   4.862  0.1809 -0.4931  0.9863
18353THY    CM142414   5.558   7.450   4.759 -0.3312 -0.3717 -0.3529
18353THY    HM142415   5.627   7.530   4.789 -0.2827 -0.9127 -0.1907
18353THY    HM242416   5.522   7.475   4.658 -0.1829 -0.2868  0.2277
18353THY    HM342417   5.617   7.359   4.755 -1.4860  1.4924 -1.2353
18353THY    CA642418   5.473   7.448   5.004 -1.1557  0.4406  0.3570
18353THY    HA642419   5.574   7.474   5.032 -0.4576 -1.8404  0.3450
18354THY      O42420   3.481   5.583   4.621  0.1459 -0.4421 -0.0849
18354THY     HO42421   3.445   5.493   4.629 -2.3858  3.4027  1.0160
18354THY    CA142422   3.588   5.588   4.538 -0.0232 -0.4752  0.8297
18354THY    CA242423   3.619   5.703   4.473  0.1740  0.1582  0.4861
18354THY    CP142424   3.550   5.833   4.514 -0.0591  0.2101 -0.6504
18354THY    HP142425   3.443   5.811   4.515  0.0142 -1.1753 -1.2129
18354THY    CP242426   3.548   5.932   4.396 -0.4264 -0.6095 -0.0491
18354THY    HP242427   3.487   6.022   4.408  0.7454  1.9603  0.4915
18354THY    HP342428   3.515   5.870   4.312  0.7744  0.0716 -1.6885
18354THY    HP442429   3.652   5.962   4.377 -0.6566  0.7172  1.7225
18354THY    CP342430   3.612   5.905   4.639  0.9112  0.3935  0.0511
18354THY    HP542431   3.633   5.836   4.722  2.7306  0.5057  0.6869
18354THY    HP642432   3.543   5.981   4.677  1.3674  1.1198  0.1175
18354THY    HP742433   3.715   5.936   4.614  0.8094  0.8221  0.7551
18354THY    CA342434   3.722   5.699   4.384 -0.5596 -0.0200 -0.2519
18354THY    HA342435   3.750   5.785   4.325 -0.7520  0.7027  0.3104
18354THY    CA442436   3.784   5.579   4.351 -0.6160  0.5511 -0.3122
18354THY    HA442437   3.864   5.587   4.279 -1.8130 -0.7417  0.4801
18354THY    CA542438   3.752   5.459   4.415 -0.6237  0.6745  0.1615
18354THY    CM142439   3.820   5.327   4.379  0.3471 -0.0438 -1.2543
18354THY    HM142440   3.770   5.247   4.435 -1.0118 -2.2744 -2.0817
18354THY    HM242441   3.927   5.332   4.401  0.6207 -1.1910 -1.6115
18354THY    HM342442   3.816   5.294   4.274  1.0757 -1.0191  1.5048
18354THY    CA642443   3.654   5.464   4.510  0.1014 -0.3578 -0.2083
18354THY    HA642444   3.614   5.380   4.565  1.2187 -0.3910 -0.7762
18355THY      O42445   1.374   2.493   7.431 -0.0910  0.4821 -0.1839
18355THY     HO42446   1.296   2.448   7.395  1.2117 -3.5038  0.3125
18355THY    CA142447   1.391   2.594   7.340 -0.1371 -0.9848  0.4652
18355THY    CA242448   1.517   2.640   7.304 -0.5308 -0.1938 -1.1027
18355THY    CP142449   1.649   2.581   7.362 -0.0908  0.1418  1.3744
18355THY    HP142450   1.624   2.525   7.453  0.3584 -0.0668  0.8153
18355THY    CP242451   1.757   2.686   7.394  0.0907  0.1118 -0.0584
18355THY    HP242452   1.801   2.725   7.302 -2.0730 -0.6591  0.7011
18355THY    HP342453   1.829   2.644   7.466 -1.9104  0.9520 -2.2691
18355THY    HP442454   1.711   2.772   7.445 -0.3839 -0.1661 -0.1486
18355THY    CP342455   1.721   2.476   7.256 -0.0187 -0.3982 -0.1603
18355THY    HP542456   1.791   2.403   7.299  0.3213  0.0416  0.4193
18355THY    HP642457   1.780   2.511   7.171  0.8980 -0.6256 -2.1101
18355THY    HP742458   1.638   2.409   7.231 -1.5676  2.9641  0.3094
18355THY    CA342459   1.526   2.746   7.218  0.7009 -0.1976 -0.4813
18355THY    HA342460   1.620   2.791   7.189  0.2541 -2.2734 -0.7479
18355THY    CA442461   1.408   2.800   7.162 -0.2805 -0.3410 -0.1448
18355THY    HA442462   1.405   2.882   7.091 -1.6341  0.8008  0.8632
18355THY    CA542463   1.282   2.752   7.196  0.2975  0.4102 -0.1925
18355THY    CM142464   1.150   2.800   7.136  0.1759  0.4655  0.1007
18355THY    HM142465   1.145   2.794   7.027  1.7729  0.4272 -1.1216
18355THY    HM242466   1.150   2.906   7.163  0.0166 -1.9436  0.7547
18355THY    HM342467   1.065   2.745   7.178  0.8321 -1.0676 -2.2269
18355THY    CA642468   1.278   2.648   7.288  0.5039  0.8717  1.1206
18355THY    HA642469   1.183   2.604   7.319 -0.0720 -1.6123  0.4598
18356THY      O42470   6.802   4.517   5.201 -0.0668  0.5724  0.5033
18356THY     HO42471   6.829   4.518   5.107  1.1817  0.8780 -0.7951
18356THY    CA142472   6.787   4.391   5.229  0.0169  0.2724  0.2279
18356THY    CA242473   6.711   4.344   5.333  0.3228 -0.1409 -0.2792
18356THY    CP142474   6.633   4.437   5.424 -0.4073 -0.4184 -0.9022
18356THY    HP142475   6.632   4.543   5.397 -0.3590 -2.5825 -1.4030
18356THY    CP242476   6.671   4.442   5.574  0.0277 -0.3071 -0.2616
18356THY    HP242477   6.616   4.511   5.638  2.0438  0.9215  0.2987
18356THY    HP342478   6.774   4.477   5.588  0.2849 -0.4638 -0.9412
18356THY    HP442479   6.655   4.343   5.617  1.0072 -1.2969 -0.8816
18356THY    CP342480   6.481   4.410   5.402 -0.1808  0.1489  0.8878
18356THY    HP542481   6.449   4.412   5.297 -0.6474  0.1701 -1.5357
18356THY    HP642482   6.421   4.478   5.463 -1.8514  1.1459 -1.3352
18356THY    HP742483   6.459   4.305   5.426 -2.5832 -0.8753  1.0796
18356THY    CA342484   6.697   4.206   5.352 -0.2041  0.1141  0.0534
18356THY    HA342485   6.627   4.164   5.424  1.0966  0.0280 -2.3955
18356THY    CA442486   6.769   4.119   5.274  0.0414  0.2748  0.5398
18356THY    HA442487   6.753   4.013   5.289 -0.9420  1.5429  0.8364
18356THY    CA542488   6.852   4.164   5.175 -0.9885  0.2168 -0.5514
18356THY    CM142489   6.937   4.059   5.102  0.3751  0.0324 -0.0012
18356THY    HM142490   6.992   4.107   5.020  0.8456  0.8139  0.8241
18356THY    HM242491   6.875   3.986   5.048 -0.9633  1.7639 -0.2004
18356THY    HM342492   7.012   4.004   5.158  0.6739 -0.2836  0.0819
18356THY    CA642493   6.858   4.300   5.147  0.0797  0.4634  0.6536
18356THY    HA642494   6.926   4.342   5.073  1.9353  1.1861 -0.9463
18357THY      O42495   7.050   1.078   4.136 -0.0662  0.2044 -0.0412
18357THY     HO42496   7.101   1.159   4.155 -1.0697 -0.7199  0.8554
18357THY    CA142497   7.125   0.969   4.166 -0.6333  0.5871 -0.0005
18357THY    CA242498   7.076   0.841   4.186  0.1366 -0.7332  0.1883
18357THY    CP142499   6.930   0.806   4.158  0.2100  0.2017 -0.3587
18357THY    HP142500   6.872   0.898   4.148  2.4115  1.5332  1.2534
18357THY    CP242501   6.862   0.724   4.271 -0.4202  0.4714 -0.4189
18357THY    HP242502   6.905   0.755   4.367 -1.4211  0.7034  0.2955
18357THY    HP342503   6.873   0.616   4.255  2.2230 -0.9340 -0.0017
18357THY    HP442504   6.753   0.741   4.270 -0.5618  1.5190 -1.1598
18357THY    CP342505   6.921   0.736   4.022 -0.2564 -0.4190 -0.0124
18357THY    HP542506   6.974   0.640   4.030  2.0548  0.2951  1.2372
18357THY    HP642507   6.963   0.792   3.937 -1.4446 -0.2489  1.1756
18357THY    HP742508   6.814   0.722   4.005 -0.5569 -1.5494  2.9417
18357THY    CA342509   7.165   0.737   4.232  0.3008 -0.5402 -0.8180
18357THY    HA342510   7.136   0.633   4.242  0.1689 -0.8945 -0.8188
18357THY    CA442511   7.297   0.772   4.258 -0.6454  0.5201  0.9312
18357THY    HA442512   7.364   0.697   4.300 -2.1361  1.7359  0.2172
18357THY    CA542513   7.348   0.898   4.230 -0.6010  0.1591 -0.1723
18357THY    CM142514   7.497   0.923   4.240  0.0213  0.6906  0.2850
18357THY    HM142515   7.529   0.920   4.345  2.3112  0.0715  1.1022
18357THY    HM242516   7.512   1.022   4.196  1.3123  1.4208  0.4291
18357THY    HM342517   7.549   0.844   4.185 -2.7023 -0.5902 -0.7626
18357THY    CA642518   7.258   0.997   4.185 -0.5379  0.6198  0.0365
18357THY    HA642519   7.295   1.096   4.163 -0.0385 -1.0363 -0.4841
18358THY      O42520   8.585   0.802   7.079  0.1995  0.0272  0.6509
18358THY     HO42521   8.595   0.842   7.167 -0.1956  0.1443  0.4985
18358THY    CA142522   8.529   0.902   7.010 -0.2999 -0.5318 -0.3627
18358THY    CA242523   8.444   0.884   6.902 -0.2199 -0.1117  0.7211
18358THY    CP142524   8.385   0.739   6.858  0.4927 -0.4224  0.5735
18358THY    HP142525   8.410   0.654   6.922  1.3357 -1.6355 -0.1166
18358THY    CP242526   8.447   0.696   6.719 -0.1653  0.5061  0.0961
18358THY    HP242527   8.423   0.771   6.643 -0.1809 -0.1737 -0.5846
18358THY    HP342528   8.402   0.599   6.692  0.4542  0.6232 -0.2318
18358THY    HP442529   8.555   0.685   6.733 -0.2991  0.8476 -0.8712
18358THY    CP342530   8.233   0.737   6.858  0.5458  0.2479 -0.0839
18358THY    HP542531   8.192   0.815   6.793  0.2775 -0.5615 -0.8869
18358THY    HP642532   8.194   0.734   6.960 -2.0162 -0.6792 -2.4119
18358THY    HP742533   8.193   0.644   6.816  0.1595  1.4554 -0.4811
18358THY    CA342534   8.402   0.995   6.834 -0.0831  0.3720  0.1602
18358THY    HA342535   8.325   0.988   6.757  1.9755 -1.6340 -2.0636
18358THY    CA442536   8.457   1.125   6.863 -0.1069 -0.4623  0.3741
18358THY    HA442537   8.437   1.214   6.805  0.4568  0.1215  0.8974
18358THY    CA542538   8.541   1.137   6.971 -0.7808 -0.3461  0.4919
18358THY    CM142539   8.610   1.266   7.000  0.5363  0.1238  0.6103
18358THY    HM142540   8.669   1.255   7.092 -0.1755  0.7153  1.5403
18358THY    HM242541   8.554   1.360   6.993  0.3845 -1.0236  0.4413
18358THY    HM342542   8.696   1.272   6.932  1.7786  1.4676 -1.0605
18358THY    CA642543   8.571   1.026   7.049  0.0796  0.1890  0.9365
18358THY    HA642544   8.643   1.034   7.130  0.0631  0.2177  0.7894
18359THY      O42545   7.358   0.950   4.604  0.4284  0.0189  0.2433
18359THY     HO42546   7.350   0.903   4.519  2.7458  0.1329 -0.5109
18359THY    CA142547   7.243   1.022   4.630 -0.1968 -0.2163 -0.0366
18359THY    CA242548   7.245   1.105   4.741  0.1704 -0.5111 -0.2214
18359THY    CP142549   7.369   1.115   4.833  0.6674  0.0511  0.0872
18359THY    HP142550   7.432   1.026   4.820 -0.3967 -2.4719 -0.3826
18359THY    CP242551   7.330   1.117   4.982  0.5423 -0.4741 -0.6642
18359THY    HP242552   7.420   1.100   5.041 -1.2044  2.4504 -0.3413
18359THY    HP342553   7.264   1.038   5.018  0.2457  2.9579  0.9844
18359THY    HP442554   7.274   1.210   4.998  0.3880 -4.9365  0.2305
18359THY    CP342555   7.458   1.243   4.806  0.2376  0.1266 -0.3262
18359THY    HP542556   7.540   1.248   4.878 -1.2137  1.7686  1.8565
18359THY    HP642557   7.407   1.339   4.825  1.0127 -1.2675  0.3876
18359THY    HP742558   7.488   1.238   4.700  2.3471  0.4813  2.3795
18359THY    CA342559   7.127   1.186   4.760  0.0574  0.0133  0.5217
18359THY    HA342560   7.115   1.254   4.844 -3.0136  1.2517 -1.3510
18359THY    CA442561   7.017   1.170   4.672  0.0978 -0.0994 -0.2968
18359THY    HA442562   6.928   1.232   4.675  0.2998 -1.7932  0.1431
18359THY    CA542563   7.020   1.080   4.566  0.3312 -0.9168  0.4207
18359THY    CM142564   6.901   1.074   4.477  0.3219 -0.7915  0.2319
18359THY    HM142565   6.815   1.125   4.521  0.5439 -0.0668 -0.0063
18359THY    HM242566   6.897   0.967   4.454 -0.3405 -0.2880  0.1471
18359THY    HM342567   6.925   1.126   4.384 -0.0510 -0.3521  1.2028
18359THY    CA642568   7.134   1.009   4.544 -0.6298 -0.5337  0.3358
18359THY    HA642569   7.140   0.941   4.459  0.1432  0.6648 -1.1659
18360THY      O42570   7.542   2.183   4.780  0.0360  0.2493  0.0399
18360THY     HO42571   7.639   2.177   4.780  0.3060 -1.9490  2.4232
18360THY    CA142572   7.506   2.307   4.743 -0.5752  0.1635  0.3504
18360THY    CA242573   7.379   2.352   4.755  0.3240  0.2792 -0.4933
18360THY    CP142574   7.277   2.272   4.840 -0.4637  0.0485  0.3974
18360THY    HP142575   7.282   2.170   4.799  1.2113  0.0453  0.4451
18360THY    CP242576   7.132   2.317   4.823  0.6305 -0.0828  0.4366
18360THY    HP242577   7.111   2.306   4.716 -1.0225  0.1256  1.3108
18360THY    HP342578   7.109   2.417   4.862 -1.3723 -0.0810  0.0012
18360THY    HP442579   7.070   2.243   4.874 -1.7448 -1.4230  1.4041
18360THY    CP342580   7.312   2.276   4.990 -0.4025  0.2024  0.5999
18360THY    HP542581   7.408   2.227   5.011 -0.8790 -2.0990 -1.5366
18360THY    HP642582   7.237   2.233   5.058  1.2477  1.8302  0.1534
18360THY    HP742583   7.310   2.379   5.027 -2.6737  0.3408  0.5640
18360THY    CA342584   7.350   2.477   4.700  0.2917  0.3581  0.7829
18360THY    HA342585   7.254   2.526   4.710 -1.5823 -1.4571 -2.1811
18360THY    CA442586   7.454   2.552   4.637 -0.1750 -0.5188 -0.1829
18360THY    HA442587   7.441   2.652   4.596 -1.0480 -0.4711 -0.2703
18360THY    CA542588   7.581   2.502   4.623  0.7152 -0.3646  0.4925
18360THY    CM142589   7.686   2.568   4.554 -0.8522  0.8169  0.1822
18360THY    HM142590   7.737   2.494   4.492 -1.5393 -1.9591  1.8822
18360THY    HM242591   7.774   2.602   4.611 -0.9947  0.8981  0.4253
18360THY    HM342592   7.645   2.644   4.487  0.7325 -0.5710 -0.1311
18360THY    CA642593   7.602   2.377   4.675  0.2415  0.1062 -0.5212
18360THY    HA642594   7.699   2.332   4.653 -0.8083 -2.1731 -1.8450
18361THY      O42595   2.260   5.705   6.989 -0.2830 -0.0840  0.2485
18361THY     HO42596   2.189   5.769   7.003 -0.4431 -1.0786  0.3097
18361THY    CA142597   2.254   5.615   7.098  0.0431 -0.0958  0.2292
18361THY    CA242598   2.338   5.507   7.108  0.1033 -0.0950  0.5069
18361THY    CP142599   2.441   5.482   6.992 -0.2525 -0.9965 -0.2282
18361THY    HP142600   2.444   5.573   6.931  0.3271  0.8734  1.0595
18361THY    CP242601   2.409   5.364   6.891 -0.2719 -0.4597 -0.3125
18361THY    HP242602   2.335   5.390   6.815  0.3468 -1.0894 -0.3623
18361THY    HP342603   2.364   5.279   6.944 -3.1119 -0.5325  1.0329
18361THY    HP442604   2.498   5.341   6.831 -0.5738 -1.3160  0.6724
18361THY    CP342605   2.581   5.452   7.052 -0.6037 -0.2220  0.2255
18361THY    HP542606   2.580   5.357   7.107  0.5306  1.5011  1.1528
18361THY    HP642607   2.602   5.527   7.130  0.7723 -2.2207  2.0431
18361THY    HP742608   2.670   5.444   6.988  0.0893  0.6629  0.6795
18361THY    CA342609   2.333   5.425   7.220  0.2607 -0.1455  0.4792
18361THY    HA342610   2.404   5.344   7.231  1.5103  0.9035  1.6747
18361THY    CA442611   2.230   5.442   7.314  0.9793  0.2721 -0.4855
18361THY    HA442612   2.218   5.373   7.397  3.6179  1.5228  0.4151
18361THY    CA542613   2.140   5.543   7.296  0.6271  0.6586 -0.1492
18361THY    CM142614   2.029   5.560   7.395 -0.6830 -0.9725  0.3596
18361THY    HM142615   2.078   5.614   7.477  0.2990 -0.3157 -1.4816
18361THY    HM242616   1.990   5.464   7.428  1.6146 -0.0052 -0.3052
18361THY    HM342617   1.950   5.623   7.352  1.1489 -0.0791  3.5276
18361THY    CA642618   2.156   5.636   7.195 -0.5256 -0.8530 -0.1936
18361THY    HA642619   2.085   5.716   7.176 -1.6800 -1.7799 -1.3930
18362THY      O42620   7.217   0.515   6.156  0.0140 -0.2109 -1.0549
18362THY     HO42621   7.132   0.471   6.140  0.5422  0.1049 -2.2268
18362THY    CA142622   7.303   0.423   6.113 -0.6119  0.8607  0.0483
18362THY    CA242623   7.404   0.374   6.196  0.6217  0.2018 -0.5698
18362THY    CP142624   7.422   0.438   6.335 -0.4755 -0.3745 -0.0690
18362THY    HP142625   7.393   0.543   6.337 -3.1589 -1.0364 -0.7246
18362THY    CP242626   7.567   0.442   6.374 -0.7813  0.0013 -0.6939
18362THY    HP242627   7.611   0.344   6.395  2.1450  1.6795  0.8398
18362THY    HP342628   7.573   0.512   6.458 -0.7824 -0.8086  0.2998
18362THY    HP442629   7.630   0.488   6.297 -1.4762  0.0615  0.4170
18362THY    CP342630   7.337   0.356   6.442  0.3562 -0.0756  0.1518
18362THY    HP542631   7.367   0.251   6.452 -0.7127 -0.2129 -0.1782
18362THY    HP642632   7.233   0.346   6.409  0.8833 -1.8353  0.1323
18362THY    HP742633   7.338   0.401   6.542 -1.0556 -0.3795  0.8994
18362THY    CA342634   7.469   0.258   6.162 -0.2358  0.0072 -0.1573
18362THY    HA342635   7.557   0.228   6.218  0.5071 -1.0270  0.0477
18362THY    CA442636   7.437   0.192   6.044  0.9100  0.6060  0.8972
18362THY    HA442637   7.480   0.095   6.021  0.1120 -0.4571  0.7851
18362THY    CA542638   7.331   0.245   5.962  0.3438 -0.9766  0.1480
18362THY    CM142639   7.279   0.158   5.854  0.2313  0.2688  0.0766
18362THY    HM142640   7.366   0.119   5.800  0.6705  1.6614 -0.9593
18362THY    HM242641   7.209   0.216   5.793 -0.2300  0.5468 -0.1790
18362THY    HM342642   7.226   0.073   5.899 -0.4670 -0.8227 -0.0745
18362THY    CA642643   7.264   0.359   5.996  0.4841 -0.4464  0.3431
18362THY    HA642644   7.170   0.382   5.946 -1.6486  1.9092 -2.4047
18363THY      O42645   6.623   6.860   2.551 -0.3483  0.7234  0.1642
18363THY     HO42646   6.662   6.787   2.501 -2.7930 -2.1648  0.6314
18363THY    CA142647   6.567   6.803   2.661  0.2577  0.0869  0.2433
18363THY    CA242648   6.477   6.877   2.740  0.8218  0.2851 -0.1581
18363THY    CP142649   6.426   7.017   2.688 -0.2800 -0.2069 -0.2214
18363THY    HP142650   6.461   7.031   2.585  0.6665 -0.1029 -1.6618
18363THY    CP242651   6.485   7.137   2.769 -0.0362 -0.6588  0.8419
18363THY    HP242652   6.466   7.132   2.877  1.7154 -0.3742 -0.5824
18363THY    HP342653   6.448   7.236   2.743  0.9824 -1.0493  1.1245
18363THY    HP442654   6.594   7.143   2.767  0.1965 -0.7331 -1.8909
18363THY    CP342655   6.267   7.024   2.690  0.1332 -0.3972 -0.5090
18363THY    HP542656   6.234   7.117   2.643 -0.1595  1.5262  0.3876
18363THY    HP642657   6.231   7.020   2.793  0.1870 -0.1948  2.2601
18363THY    HP742658   6.216   6.941   2.640 -0.5424  1.4424 -1.2569
18363THY    CA342659   6.428   6.829   2.864  0.7616 -0.4104 -0.1971
18363THY    HA342660   6.341   6.874   2.912  1.0190 -0.6400  0.5530
18363THY    CA442661   6.465   6.694   2.898  0.0824 -0.1264 -0.3330
18363THY    HA442662   6.414   6.641   2.978  0.1830  0.0021 -0.2355
18363THY    CA542663   6.560   6.629   2.824 -0.3002 -0.0896  0.3839
18363THY    CM142664   6.600   6.484   2.863 -0.1264 -0.0524 -0.1556
18363THY    HM142665   6.692   6.473   2.921  0.2962 -0.8024 -0.5955
18363THY    HM242666   6.610   6.427   2.771 -3.0573 -1.8156  1.8672
18363THY    HM342667   6.524   6.442   2.931  0.7584  0.7236 -0.5368
18363THY    CA642668   6.615   6.684   2.707 -0.0203 -0.4374  0.7131
18363THY    HA642669   6.691   6.627   2.655  0.8320  2.5884 -1.1561
18364THY      O42670   5.053   4.589   2.309 -0.5290 -0.3541 -0.5684
18364THY     HO42671   4.969   4.637   2.300  0.7408  0.8428  2.0878
18364THY    CA142672   5.144   4.671   2.258  0.8875  0.4645  0.0070
18364THY    CA242673   5.276   4.637   2.251 -0.0611 -0.0484  0.0115
18364THY    CP142674   5.313   4.490   2.279  0.8778  0.1020 -0.2170
18364THY    HP142675   5.240   4.437   2.340 -0.8227 -0.8990  0.8691
18364THY    CP242676   5.443   4.479   2.359 -1.0924  0.8201 -0.2995
18364THY    HP242677   5.411   4.525   2.453 -0.6244  1.8214 -1.9201
18364THY    HP342678   5.524   4.523   2.300 -1.5897 -0.4606 -1.0261
18364THY    HP442679   5.471   4.375   2.381 -0.5710  0.0817 -0.3248
18364THY    CP342680   5.317   4.403   2.158 -0.6474  0.0468  0.0865
18364THY    HP542681   5.327   4.296   2.182 -2.9880 -1.6347 -0.5959
18364THY    HP642682   5.385   4.444   2.082 -2.7474 -1.1063  1.5838
18364THY    HP742683   5.216   4.386   2.119  0.4070 -2.4483 -0.9916
18364THY    CA342684   5.365   4.728   2.202 -0.8065  0.5688 -0.3325
18364THY    HA342685   5.469   4.704   2.186 -0.6714  2.4717 -1.1049
18364THY    CA442686   5.335   4.859   2.171 -0.0519 -0.5340  0.0750
18364THY    HA442687   5.418   4.922   2.139 -0.6238 -1.8796  0.1850
18364THY    CA542688   5.206   4.896   2.194  0.6871  0.1257 -0.4468
18364THY    CM142689   5.161   5.036   2.177  1.1608  0.2936  0.1253
18364THY    HM142690   5.085   5.040   2.098  0.4522  1.0173  3.1482
18364THY    HM242691   5.238   5.102   2.137 -1.2774 -1.8007  1.8881
18364THY    HM342692   5.117   5.078   2.268  2.8249  2.6828 -2.9153
18364THY    CA642693   5.105   4.801   2.219 -0.2793 -0.5882 -0.1190
18364THY    HA642694   5.004   4.840   2.233  0.3073 -0.8721  1.5914
18365THY      O42695   0.303   8.198   4.673  0.2457 -0.5159 -0.0870
18365THY     HO42696   0.274   8.147   4.750 -0.6702 -0.1150  0.9875
18365THY    CA142697   0.240   8.317   4.679  0.3977  0.6235  0.2513
18365THY    CA242698   0.198   8.386   4.564  0.0408  0.3294 -0.5906
18365THY    CP142699   0.225   8.326   4.427  0.4612  0.0075  0.0848
18365THY    HP142700   0.287   8.236   4.435  2.0711 -0.4624  1.1060
18365THY    CP242701   0.299   8.429   4.345  0.4107 -0.1296 -0.2700
18365THY    HP242702   0.229   8.494   4.291 -0.1388 -0.2841 -0.9687
18365THY    HP342703   0.371   8.382   4.277  3.1270  1.7487  0.9430
18365THY    HP442704   0.357   8.497   4.407 -0.2181  2.6455 -2.1045
18365THY    CP342705   0.089   8.293   4.361 -0.1068  0.5816 -0.2391
18365THY    HP542706   0.111   8.238   4.268  1.4045 -0.4067  1.8611
18365THY    HP642707   0.029   8.378   4.326 -0.8584  2.4580  0.0341
18365THY    HP742708   0.033   8.234   4.434 -2.1972  0.1658  1.1416
18365THY    CA342709   0.132   8.515   4.577 -0.1829  0.2338 -0.0141
18365THY    HA342710   0.103   8.559   4.483 -2.1888  0.3967 -0.8702
18365THY    CA442711   0.107   8.571   4.698 -0.5718 -0.5190 -0.1782
18365THY    HA442712   0.054   8.666   4.706 -2.6474 -1.2918 -1.2284
18365THY    CA542713   0.154   8.500   4.812  0.0597  0.1436 -0.2808
18365THY    CM142714   0.137   8.564   4.944 -0.5901  0.4105 -0.3046
18365THY    HM142715   0.181   8.506   5.025 -0.4114  1.4297  1.2086
18365THY    HM242716   0.032   8.553   4.974 -0.8078  0.5573  1.7727
18365THY    HM342717   0.160   8.671   4.948  0.1308 -1.1229 -0.3641
18365THY    CA642718   0.205   8.368   4.800  0.3594  0.0015  0.2604
18365THY    HA642719   0.243   8.318   4.888  0.5776  0.1104  0.6098
18366THY      O42720   7.986   3.128   2.167 -0.1953 -0.1220 -0.2191
18366THY     HO42721   8.015   3.211   2.124  0.9763  0.4734 -0.3165
18366THY    CA142722   8.009   3.036   2.078  0.6620  0.2523 -0.1668
18366THY    CA242723   7.945   2.903   2.085  0.5577  0.4529  0.0956
18366THY    CP142724   7.854   2.868   2.199  0.1028  0.1762  0.2954
18366THY    HP142725   7.848   2.958   2.262 -1.6213  0.8000 -0.2119
18366THY    CP242726   7.918   2.750   2.274  0.3213 -0.0858  0.0545
18366THY    HP242727   7.893   2.654   2.227 -0.0740 -2.5039  1.2699
18366THY    HP342728   7.869   2.743   2.372 -0.4309 -0.4297  0.3355
18366THY    HP442729   8.026   2.763   2.280  0.1994 -0.7329  1.5632
18366THY    CP342730   7.706   2.833   2.153 -0.0706  0.1188 -0.3488
18366THY    HP542731   7.701   2.724   2.149 -1.7060  2.2114 -0.4238
18366THY    HP642732   7.676   2.871   2.055 -0.7119 -0.0778 -1.3288
18366THY    HP742733   7.636   2.878   2.224  0.8330  0.8666 -0.0892
18366THY    CA342734   7.960   2.813   1.976  0.0253 -0.8998 -0.3733
18366THY    HA342735   7.911   2.717   1.964  2.1000 -3.8375 -1.1925
18366THY    CA442736   8.043   2.846   1.873  0.0822 -0.4946 -0.1347
18366THY    HA442737   8.065   2.782   1.789  0.7860  0.5445 -1.3046
18366THY    CA542738   8.105   2.977   1.870  0.7394 -0.0790  0.2107
18366THY    CM142739   8.188   3.016   1.747  1.0598  0.2627 -0.8583
18366THY    HM142740   8.276   3.079   1.766  1.1113  0.3733 -0.9659
18366THY    HM242741   8.124   3.073   1.678  1.5073  1.5415  1.3044
18366THY    HM342742   8.226   2.926   1.698  0.9497 -0.2649 -0.6257
18366THY    CA642743   8.080   3.072   1.967 -0.8465  0.5744 -0.3151
18366THY    HA642744   8.124   3.171   1.962  0.1918  1.2582 -0.7231
18367THY      O42745   6.857   2.795   2.280 -0.3295 -0.5871  0.0237
18367THY     HO42746   6.829   2.846   2.357  0.6577  1.1202 -1.8810
18367THY    CA142747   6.864   2.889   2.180  0.2889 -0.3404 -0.5177
18367THY    CA242748   6.872   2.854   2.046  0.0646 -0.2262  0.2454
18367THY    CP142749   6.867   2.709   1.998 -0.4238 -0.7136 -0.0873
18367THY    HP142750   6.843   2.645   2.084 -0.4206  0.3444  1.2887
18367THY    CP242751   7.004   2.662   1.948  0.9026  0.3601 -0.6338
18367THY    HP242752   7.089   2.712   1.995  0.6898  1.4030 -1.2075
18367THY    HP342753   7.007   2.669   1.839 -0.7534  0.2710 -0.8632
18367THY    HP442754   7.011   2.560   1.988  2.0971  2.3136  0.1563
18367THY    CP342755   6.761   2.667   1.902  0.6737 -0.8430  0.2000
18367THY    HP542756   6.783   2.569   1.858  0.1008 -1.7837  0.4830
18367THY    HP642757   6.745   2.745   1.827  1.3058  0.2771  1.4357
18367THY    HP742758   6.673   2.649   1.965  1.3890  0.0880 -0.1288
18367THY    CA342759   6.892   2.956   1.954 -0.1402 -0.5211  0.0839
18367THY    HA342760   6.901   2.928   1.849  1.0926 -0.4514  0.1839
18367THY    CA442761   6.909   3.089   1.998 -0.3964  0.1076 -0.7883
18367THY    HA442762   6.942   3.164   1.927  0.4991  1.4136  0.0977
18367THY    CA542763   6.914   3.119   2.133 -0.2668  0.6667 -0.2787
18367THY    CM142764   6.937   3.263   2.176 -0.2057 -0.1557  0.1095
18367THY    HM142765   6.960   3.329   2.091 -3.6047 -2.1588 -1.0455
18367THY    HM242766   7.012   3.280   2.255 -0.6340  0.6816 -1.6387
18367THY    HM342767   6.837   3.291   2.210 -0.0023  3.3857 -2.7968
18367THY    CA642768   6.887   3.015   2.224 -0.7924 -0.6066 -0.1291
18367THY    HA642769   6.870   3.033   2.329 -0.3641 -0.8247  1.7305
18368THY      O42770   6.436   5.438   6.484 -0.7416  0.1932  0.7584
18368THY     HO42771   6.519   5.429   6.533  1.5345 -3.4163 -0.2062
18368THY    CA142772   6.372   5.553   6.523  0.8565 -0.1110 -0.1858
18368THY    CA242773   6.254   5.591   6.462 -0.0854  0.1767 -0.8760
18368THY    CP142774   6.188   5.498   6.353 -0.1703 -0.4651 -0.5271
18368THY    HP142775   6.256   5.423   6.312  1.4376  2.0120 -0.5326
18368THY    CP242776   6.118   5.561   6.226 -0.0383  0.2567 -0.0172
18368THY    HP242777   6.181   5.625   6.164 -2.4566 -2.0857  0.2603
18368THY    HP342778   6.027   5.620   6.243  0.3738 -1.4177  1.1707
18368THY    HP442779   6.105   5.473   6.164  3.1264 -2.5718  1.2966
18368THY    CP342780   6.092   5.397   6.427  0.3355  0.2853 -0.0362
18368THY    HP542781   6.059   5.320   6.356 -2.4800  0.7151  0.6436
18368THY    HP642782   5.999   5.441   6.465 -0.2405 -0.4616 -0.5880
18368THY    HP742783   6.147   5.352   6.511 -0.2535  1.1900  0.8796
18368THY    CA342784   6.197   5.717   6.495 -0.2443 -0.6867 -0.8268
18368THY    HA342785   6.110   5.752   6.439 -0.8777 -0.6324 -2.2466
18368THY    CA442786   6.257   5.796   6.600 -0.5116 -0.5342 -0.3261
18368THY    HA442787   6.212   5.889   6.632  1.2808  0.1735  0.3431
18368THY    CA542788   6.378   5.762   6.655 -0.6904 -0.2406  1.0617
18368THY    CM142789   6.455   5.850   6.750  0.1085 -0.4035 -0.4133
18368THY    HM142790   6.550   5.888   6.710  1.9568  2.6983 -1.3997
18368THY    HM242791   6.460   5.794   6.845 -0.6135 -0.2975 -0.3102
18368THY    HM342792   6.404   5.939   6.787  0.7758  0.4745 -0.3785
18368THY    CA642793   6.434   5.639   6.615  0.2413 -0.5704  0.1502
18368THY    HA642794   6.528   5.615   6.665 -0.4391  2.2143  2.7657
18369THY      O42795   0.893   5.181   6.301 -0.0421 -0.5813 -0.4113
18369THY     HO42796   0.874   5.229   6.219 -1.6437 -0.0499 -0.0849
18369THY    CA142797   1.021   5.148   6.299 -0.2239  0.2473  0.1018
18369THY    CA242798   1.090   5.093   6.407  0.3025  0.6466  0.5510
18369THY    CP142799   1.009   5.052   6.532  0.1508 -0.2747 -0.1810
18369THY    HP142800   0.953   5.137   6.572  0.3315  1.5008 -0.8503
18369THY    CP242801   1.093   5.015   6.657  0.2695 -0.6130  0.4192
18369THY    HP242802   1.133   4.914   6.642 -1.0190 -2.0712  0.1068
18369THY    HP342803   1.022   5.021   6.740  0.5907  0.0121 -2.7444
18369THY    HP442804   1.174   5.083   6.688  1.2293 -0.6135 -0.6930
18369THY    CP342805   0.921   4.929   6.508 -0.1603 -0.0180  0.0535
18369THY    HP542806   0.980   4.839   6.490  0.5394 -0.0556  0.5165
18369THY    HP642807   0.853   4.943   6.422 -1.6680  1.3604  1.7507
18369THY    HP742808   0.864   4.919   6.601  1.3328  0.9033 -0.2186
18369THY    CA342809   1.230   5.081   6.393 -0.1243  0.3699 -0.3557
18369THY    HA342810   1.288   5.052   6.481 -0.3241  0.9631  0.9264
18369THY    CA442811   1.303   5.109   6.272  0.3274  0.3607  0.0937
18369THY    HA442812   1.409   5.085   6.264  0.3855 -2.9250  0.9901
18369THY    CA542813   1.225   5.151   6.171  0.1373  0.6136 -0.2942
18369THY    CM142814   1.285   5.159   6.025  0.2331  0.0466 -0.1516
18369THY    HM142815   1.279   5.261   5.986  0.2536 -0.0666 -0.1929
18369THY    HM242816   1.221   5.112   5.949 -0.5715 -1.1819  2.6831
18369THY    HM342817   1.387   5.120   6.016 -0.4397 -1.0671 -1.7925
18369THY    CA642818   1.086   5.167   6.182 -0.9627  0.0667 -0.9938
18369THY    HA642819   1.039   5.179   6.085  1.1307 -0.8867  0.0868
18370THY      O42820   0.655   8.915   6.653 -0.4299 -0.7607 -0.0356
18370THY     HO42821   0.562   8.906   6.682  0.2580  1.9650  0.6455
18370THY    CA142822   0.722   8.978   6.752  0.3409  0.3671  0.3843
18370THY    CA242823   0.848   8.931   6.795  0.5525  0.1809  0.2750
18370THY    CP142824   0.914   8.801   6.745  0.0806 -0.6082 -0.1796
18370THY    HP142825   0.864   8.760   6.656  1.7438 -1.0485 -1.3036
18370THY    CP242826   0.895   8.686   6.837  0.4620  0.0467  0.1872
18370THY    HP242827   0.934   8.592   6.797 -0.6429 -0.4083 -0.0978
18370THY    HP342828   0.789   8.672   6.862  0.3247 -0.9767 -0.7909
18370THY    HP442829   0.950   8.712   6.928  0.6075 -0.8557  3.3934
18370THY    CP342830   1.060   8.822   6.707 -0.2616 -0.3550  0.1573
18370THY    HP542831   1.124   8.848   6.792 -2.1991  1.3576 -0.4653
18370THY    HP642832   1.076   8.895   6.626  1.1876 -0.5573 -0.3363
18370THY    HP742833   1.102   8.732   6.659 -0.6052  0.2283 -0.3258
18370THY    CA342834   0.898   8.996   6.906  0.1014 -0.9334 -0.2572
18370THY    HA342835   0.991   8.961   6.951  0.2856 -0.1009  1.2182
18370THY    CA442836   0.846   9.116   6.948  0.3118  0.6988 -0.9833
18370THY    HA442837   0.892   9.180   7.022 -0.8401  0.2413  0.4362
18370THY    CA542838   0.726   9.171   6.893  0.2474  0.0042  0.8254
18370THY    CM142839   0.671   9.309   6.924  0.2488 -0.4836 -0.2785
18370THY    HM142840   0.751   9.361   6.978  2.2459 -1.8558 -1.7758
18370THY    HM242841   0.575   9.299   6.977  0.2426 -0.4160  0.1230
18370THY    HM342842   0.649   9.364   6.832 -2.2622 -0.9965 -1.9503
18370THY    CA642843   0.662   9.093   6.795  0.1228 -0.2391  0.2733
18370THY    HA642844   0.571   9.128   6.748 -0.9239  2.6249  1.7032
18371THY      O42845   2.492   8.368   6.661  0.1661 -0.2089 -0.0975
18371THY     HO42846   2.480   8.272   6.671 -4.6503  0.3960  0.3523
18371THY    CA142847   2.610   8.401   6.722  0.2340  0.0369  0.0793
18371THY    CA242848   2.642   8.540   6.740  0.4744  0.3711 -0.0187
18371THY    CP142849   2.541   8.648   6.697 -0.3638  0.2650  0.7703
18371THY    HP142850   2.476   8.613   6.617 -1.8106  1.0310  1.6396
18371THY    CP242851   2.622   8.764   6.649 -0.5991  0.1816 -0.5988
18371THY    HP242852   2.558   8.834   6.593 -0.2585  1.3729  0.7111
18371THY    HP342853   2.699   8.731   6.578  0.4906  1.1620 -0.1838
18371THY    HP442854   2.680   8.816   6.725 -0.8344  0.2593 -0.4510
18371THY    CP342855   2.444   8.700   6.803 -0.3801  0.3457 -0.0079
18371THY    HP542856   2.503   8.770   6.864 -0.5692 -0.1064  0.5461
18371THY    HP642857   2.403   8.625   6.872  0.0919 -2.8257 -3.4693
18371THY    HP742858   2.364   8.757   6.756  1.3583 -2.4387  0.3003
18371THY    CA342859   2.769   8.570   6.795  0.3294  0.4818 -0.6992
18371THY    HA342860   2.809   8.670   6.814 -1.9229 -0.3720  0.4365
18371THY    CA442861   2.843   8.465   6.858  0.7055  0.0815  0.5788
18371THY    HA442862   2.921   8.492   6.929  1.8166 -0.4074 -1.1333
18371THY    CA542863   2.801   8.327   6.842 -0.0316 -0.2357  0.1552
18371THY    CM142864   2.886   8.213   6.905 -0.1471  0.1917  0.2781
18371THY    HM142865   2.831   8.148   6.974 -0.1232 -1.3661 -1.4879
18371THY    HM242866   2.974   8.248   6.960  0.2606  0.4671 -1.1274
18371THY    HM342867   2.923   8.153   6.820  0.2008  0.0138  0.7401
18371THY    CA642868   2.690   8.295   6.770  0.4490 -0.1232 -0.1477
18371THY    HA642869   2.664   8.191   6.751 -0.1475  1.2637 -0.2767
18372THY      O42870   7.057   7.711   5.915 -0.2017 -0.1225 -0.3128
18372THY     HO42871   7.072   7.643   5.847  2.4211 -0.3629  0.4158
18372THY    CA142872   7.036   7.646   6.032  0.8286  0.2368  0.0908
18372THY    CA242873   7.102   7.682   6.146 -0.2371 -0.1508  0.0776
18372THY    CP142874   7.203   7.795   6.139 -0.0805 -0.4687  0.1177
18372THY    HP142875   7.224   7.834   6.038 -0.8273 -0.2414  1.1350
18372THY    CP242876   7.340   7.759   6.181 -0.1200  0.2535  0.0364
18372THY    HP242877   7.420   7.831   6.160  0.5948  0.8286 -0.5736
18372THY    HP342878   7.371   7.676   6.115  0.4331 -1.3302  1.4533
18372THY    HP442879   7.350   7.726   6.285  1.0658  0.2554  0.3378
18372THY    CP342880   7.160   7.919   6.217 -0.5232 -0.0213 -0.1641
18372THY    HP542881   7.224   8.007   6.203  0.4174 -1.0328 -0.9750
18372THY    HP642882   7.165   7.883   6.321  0.9606  0.7553  2.0473
18372THY    HP742883   7.058   7.948   6.190 -0.6571 -3.4664 -3.1242
18372THY    CA342884   7.101   7.591   6.256  0.6663 -0.1906 -0.2416
18372THY    HA342885   7.167   7.614   6.339  0.0942  1.2182 -3.2066
18372THY    CA442886   7.019   7.472   6.252  0.6326  0.4026 -0.5447
18372THY    HA442887   7.008   7.399   6.331  0.3109 -0.0828 -1.0263
18372THY    CA542888   6.952   7.440   6.132  0.2058 -0.4285  0.4351
18372THY    CM142889   6.898   7.302   6.115  0.2226  0.1104 -0.6328
18372THY    HM142890   6.900   7.257   6.015 -1.4566  0.8040 -2.4124
18372THY    HM242891   6.798   7.299   6.161 -1.5992 -3.4296  0.2397
18372THY    HM342892   6.962   7.227   6.164  0.9972 -2.3316 -1.6636
18372THY    CA642893   6.968   7.523   6.020  0.1393 -0.0599  0.2106
18372THY    HA642894   6.927   7.488   5.926  0.2300  0.0938 -0.3143
18373THY      O42895   4.439   8.489   6.822  0.8851 -0.2567 -0.6611
18373THY     HO42896   4.408   8.573   6.785 -0.9095  1.4991 -0.4871
18373THY    CA142897   4.396   8.396   6.725  0.0112 -0.7973 -0.3628
18373THY    CA242898   4.391   8.256   6.758 -0.6220 -0.2353 -0.6867
18373THY    CP142899   4.457   8.214   6.892  0.2076  0.9725  0.1361
18373THY    HP142900   4.464   8.302   6.958  1.3207  0.1130  0.7094
18373THY    CP242901   4.598   8.171   6.867 -0.0338 -0.2970 -0.3008
18373THY    HP242902   4.598   8.071   6.823  1.8819  0.1483 -0.5331
18373THY    HP342903   4.653   8.173   6.962 -0.2511 -0.1797  0.5924
18373THY    HP442904   4.640   8.240   6.794  0.6272 -1.1069 -1.5218
18373THY    CP342905   4.371   8.111   6.965  0.0583  0.6290  0.0894
18373THY    HP542906   4.389   8.008   6.933  2.2926 -0.8842  0.8757
18373THY    HP642907   4.265   8.138   6.959  0.3454 -2.5658  0.9467
18373THY    HP742908   4.390   8.127   7.072  0.6976  0.5522 -0.1041
18373THY    CA342909   4.332   8.165   6.671  0.4193 -0.4786  0.0753
18373THY    HA342910   4.330   8.059   6.694  0.5964 -0.2978  0.1087
18373THY    CA442911   4.275   8.217   6.556 -0.1354  0.1247 -0.9625
18373THY    HA442912   4.221   8.146   6.495  1.7816  1.3453 -3.6597
18373THY    CA542913   4.278   8.351   6.520  0.0618 -0.1232  0.1370
18373THY    CM142914   4.199   8.405   6.396  0.3456 -0.6574  0.7317
18373THY    HM142915   4.268   8.467   6.339  1.5121 -1.5124 -1.2528
18373THY    HM242916   4.118   8.474   6.424 -1.3642 -1.0868 -1.0229
18373THY    HM342917   4.160   8.318   6.342  0.0437  1.4936 -0.5418
18373THY    CA642918   4.341   8.441   6.608 -0.1836 -0.3122 -0.5849
18373THY    HA642919   4.338   8.547   6.584  4.5805  0.9408  0.0532
18374THY      O42920   1.897   7.317   3.201  1.0867 -0.8177  0.5903
18374THY     HO42921   1.933   7.244   3.254  2.4780 -0.2626  1.6322
18374THY    CA142922   1.973   7.343   3.094  0.3529  0.4807  0.0837
18374THY    CA242923   1.974   7.463   3.023 -0.3386 -0.4212  0.1690
18374THY    CP142924   1.916   7.592   3.087 -0.1179  0.2144  0.9307
18374THY    HP142925   1.892   7.581   3.193 -0.8978 -0.0624 -0.2228
18374THY    CP242926   1.778   7.623   3.018 -0.0345 -0.9257 -1.0166
18374THY    HP242927   1.733   7.711   3.064 -1.7654 -0.2456 -2.2004
18374THY    HP342928   1.713   7.536   3.033 -0.5923 -0.0207 -0.4541
18374THY    HP442929   1.782   7.637   2.909 -1.0058 -0.9114 -0.5438
18374THY    CP342930   2.009   7.720   3.081 -1.0291  0.1463  0.1067
18374THY    HP542931   1.969   7.810   3.128 -0.4912 -0.7142  0.8165
18374THY    HP642932   2.042   7.749   2.980  2.7597  1.3677  0.4897
18374THY    HP742933   2.101   7.705   3.138  0.1952 -1.3431  1.5795
18374THY    CA342934   2.050   7.473   2.905  0.1165 -0.0099 -0.1290
18374THY    HA342935   2.059   7.569   2.855 -0.6626  0.2887  0.1082
18374THY    CA442936   2.110   7.365   2.857  0.4220  0.1418  0.2914
18374THY    HA442937   2.170   7.362   2.767  0.2186  0.0219 -1.4188
18374THY    CA542938   2.101   7.247   2.923  0.9585  0.1582  0.3907
18374THY    CM142939   2.170   7.124   2.869 -0.4067  0.3058 -0.4349
18374THY    HM142940   2.202   7.064   2.955 -2.4011  1.8303  0.5637
18374THY    HM242941   2.259   7.157   2.813 -0.0286  1.5806  0.8280
18374THY    HM342942   2.103   7.062   2.808 -0.1373  1.1045 -1.5492
18374THY    CA642943   2.037   7.233   3.041  0.4991 -0.3637  0.8713
18374THY    HA642944   2.030   7.136   3.090 -0.1857 -0.7439  0.7198
18375THY      O42945   3.803   6.337   3.870 -0.1464 -0.3164 -1.0416
18375THY     HO42946   3.863   6.297   3.805  1.9483  1.2021 -0.5071
18375THY    CA142947   3.876   6.444   3.924 -0.4284 -0.2334  0.1606
18375THY    CA242948   3.813   6.535   4.013  0.0932  0.0895  0.3797
18375THY    CP142949   3.669   6.510   4.070  0.0955 -0.3440  0.7788
18375THY    HP142950   3.635   6.410   4.044 -1.7691 -2.0624  1.7838
18375THY    CP242951   3.579   6.611   4.004 -0.4362 -0.2535 -0.6686
18375THY    HP242952   3.580   6.591   3.896  0.8869  0.0025 -2.2073
18375THY    HP342953   3.615   6.714   4.017  0.0631 -0.3152 -0.8359
18375THY    HP442954   3.476   6.609   4.041 -0.8863 -1.3273  0.6205
18375THY    CP342955   3.648   6.521   4.224  0.0870 -0.0043 -0.2436
18375THY    HP542956   3.543   6.497   4.242  0.5375 -0.4547 -2.8478
18375THY    HP642957   3.685   6.620   4.253  0.0647  1.6593 -0.6937
18375THY    HP742958   3.709   6.450   4.281 -1.2733 -1.3800 -2.6453
18375THY    CA342959   3.890   6.642   4.057  0.3707  0.8267  0.1727
18375THY    HA342960   3.848   6.716   4.124 -0.6985  1.3433 -0.8551
18375THY    CA442961   4.026   6.661   4.023 -0.3016  0.2832  1.2138
18375THY    HA442962   4.088   6.738   4.066  1.5549 -1.0349  0.5384
18375THY    CA542963   4.078   6.573   3.921 -0.7844  1.4839  0.9848
18375THY    CM142964   4.217   6.593   3.874 -0.3824 -0.0723 -0.3848
18375THY    HM142965   4.203   6.659   3.788  0.1700 -1.7297 -2.3190
18375THY    HM242966   4.256   6.496   3.842 -1.6362 -2.3798 -0.2035
18375THY    HM342967   4.273   6.638   3.956  0.7828 -2.4695  2.9065
18375THY    CA642968   4.002   6.475   3.868  0.7018  0.2138  0.1421
18375THY    HA642969   4.040   6.399   3.801 -2.1496 -0.1585 -1.0809
18376THY      O42970   2.396   4.160   3.001 -0.0017 -0.5621 -0.4631
18376THY     HO42971   2.457   4.234   3.021  0.7838  0.1627 -1.2793
18376THY    CA142972   2.467   4.046   3.033 -0.1160  0.2026 -0.4866
18376THY    CA242973   2.417   3.918   3.019  0.0803 -0.4791  0.1283
18376THY    CP142974   2.280   3.897   2.969  0.5263 -0.3565  0.7791
18376THY    HP142975   2.231   3.992   2.944  2.4450  0.9824  2.2086
18376THY    CP242976   2.195   3.828   3.075  0.2592  0.4662  0.1643
18376THY    HP242977   2.208   3.721   3.054 -1.2709  2.6195 -0.5323
18376THY    HP342978   2.089   3.852   3.062  0.4617 -0.0655  0.7897
18376THY    HP442979   2.228   3.860   3.175 -0.6032  1.1122 -0.8852
18376THY    CP342980   2.279   3.819   2.836 -0.2273  0.1929 -0.1156
18376THY    HP542981   2.203   3.867   2.772  0.9190  0.3145  1.9368
18376THY    HP642982   2.251   3.714   2.852 -0.4743 -0.8527 -0.2269
18376THY    HP742983   2.373   3.829   2.780  0.7862  1.3593 -2.3580
18376THY    CA342984   2.507   3.812   3.049  0.6418  0.3273  0.1892
18376THY    HA342985   2.470   3.710   3.042  0.8308 -0.3582  0.1586
18376THY    CA442986   2.637   3.843   3.094 -0.6406 -0.6504 -0.5477
18376THY    HA442987   2.715   3.775   3.127 -0.0915 -1.0232 -0.1181
18376THY    CA542988   2.681   3.977   3.102  0.4415 -0.3095  0.2589
18376THY    CM142989   2.822   4.017   3.141  0.0094  0.1516 -0.1639
18376THY    HM142990   2.888   4.027   3.054 -0.7634 -0.9519 -3.4006
18376THY    HM242991   2.865   3.935   3.200  0.8616 -1.0327 -0.6006
18376THY    HM342992   2.821   4.108   3.202 -0.0395  0.6092 -0.4658
18376THY    CA642993   2.597   4.075   3.064 -0.2016 -0.2281 -0.4070
18376THY    HA642994   2.633   4.177   3.063 -3.0544 -0.1650  0.6839
18377THY      O42995   3.600   1.765   3.671  0.4301 -0.3469  0.1203
18377THY     HO42996   3.549   1.838   3.711  0.7789 -0.9345  0.6972
18377THY    CA142997   3.634   1.799   3.546 -0.2104 -0.3644  0.2106
18377THY    CA242998   3.703   1.705   3.464  0.0685  0.3939 -0.0962
18377THY    CP142999   3.738   1.566   3.500 -0.0201  0.2453  0.5337
18377THY    HP143000   3.700   1.528   3.596  1.1495 -0.4288 -2.6310
18377THY    CP243001   3.892   1.552   3.500 -0.0184 -0.0474  0.1508
18377THY    HP243002   3.929   1.589   3.404 -1.8639 -0.8800 -0.0602
18377THY    HP343003   3.915   1.445   3.516 -1.1800  1.3122  0.0788
18377THY    HP443004   3.942   1.609   3.579  1.2552 -0.7139  0.0010
18377THY    CP343005   3.674   1.465   3.406  0.5898  0.4414 -0.8046
18377THY    HP543006   3.675   1.363   3.446  1.8837 -0.9742 -1.3816
18377THY    HP643007   3.722   1.451   3.309 -0.2409  0.1336 -1.5468
18377THY    HP743008   3.570   1.488   3.384  1.0301 -0.9981 -0.0818
18377THY    CA343009   3.722   1.745   3.328 -0.7716 -0.1982 -0.6871
18377THY    HA343010   3.777   1.678   3.262  0.5794  0.7071 -0.5084
18377THY    CA443011   3.674   1.862   3.276 -0.6348 -0.9145  0.1220
18377THY    HA443012   3.698   1.897   3.176  0.9780 -0.7839 -0.5024
18377THY    CA543013   3.608   1.951   3.358 -0.4966 -0.4448 -0.4793
18377THY    CM143014   3.561   2.076   3.304 -0.4654 -0.0182 -0.0401
18377THY    HM143015   3.482   2.054   3.231 -0.4559  0.4244 -1.6188
18377THY    HM243016   3.639   2.127   3.246  0.2305  0.7889 -0.1714
18377THY    HM343017   3.515   2.144   3.376  2.0328  0.5444  1.1810
18377THY    CA643018   3.590   1.922   3.494 -0.1369 -0.1078 -0.2819
18377THY    HA643019   3.538   1.994   3.556 -0.3532 -0.2857 -0.2847
18378THY      O43020   1.076   7.919   3.004 -0.0062 -0.1583  0.2005
18378THY     HO43021   1.006   7.860   3.038  2.6533  3.3961 -1.2929
18378THY    CA143022   1.157   7.944   3.106  0.2201 -0.4450  0.4353
18378THY    CA243023   1.298   7.938   3.100 -0.0110 -0.9271 -0.2301
18378THY    CP143024   1.368   7.895   2.971  0.2436  0.3791  0.0578
18378THY    HP143025   1.290   7.897   2.893  0.2665  0.3265 -0.7875
18378THY    CP243026   1.430   7.748   2.978 -0.3277  0.3625 -0.2792
18378THY    HP243027   1.339   7.690   2.998 -2.0938  1.3297  2.6165
18378THY    HP343028   1.509   7.729   3.051 -0.2975  0.3137 -0.3417
18378THY    HP443029   1.485   7.724   2.886 -0.3681 -0.0289  1.0609
18378THY    CP343030   1.480   7.996   2.935  0.1392  0.2369  0.3293
18378THY    HP543031   1.566   8.003   3.002 -0.5998  1.0333  2.5789
18378THY    HP643032   1.443   8.099   2.931 -0.8689 -0.5694 -0.0476
18378THY    HP743033   1.519   7.970   2.835  0.6884  0.9454 -1.7313
18378THY    CA343034   1.364   7.972   3.219 -0.1948 -0.3132 -0.6501
18378THY    HA343035   1.472   7.961   3.229  0.1166  0.5561  2.3729
18378THY    CA443036   1.293   8.020   3.338 -1.0657  0.7176 -0.5435
18378THY    HA443037   1.356   8.047   3.422  1.5258 -1.4549  0.5814
18378THY    CA543038   1.157   8.020   3.339  0.3318  0.3095 -0.3509
18378THY    CM143039   1.079   8.064   3.460 -0.5897  0.3522 -0.5006
18378THY    HM143040   1.095   7.997   3.545 -1.1476  0.8074 -0.0642
18378THY    HM243041   0.972   8.065   3.436 -0.4284 -0.4331  0.7200
18378THY    HM343042   1.118   8.163   3.487  0.0624 -2.6452  0.1699
18378THY    CA643043   1.090   7.989   3.224  0.0794  0.2834  0.1212
18378THY    HA643044   0.982   7.990   3.229  0.0498 -0.0044 -0.5775
18379THY      O43045   6.924   2.744   2.646 -0.4284 -0.3018 -0.1565
18379THY     HO43046   7.001   2.789   2.607 -1.1156 -1.5100  0.0073
18379THY    CA143047   6.946   2.606   2.670  0.2250  0.1019 -0.0853
18379THY    CA243048   6.831   2.519   2.681  0.7995 -0.6000 -0.0564
18379THY    CP143049   6.688   2.578   2.655  0.5132 -0.1932 -0.1517
18379THY    HP143050   6.684   2.670   2.715  1.9321 -0.0287 -0.1708
18379THY    CP243051   6.572   2.485   2.713 -0.1921  0.4176  0.2145
18379THY    HP243052   6.481   2.545   2.703  0.0235  0.0285  0.4774
18379THY    HP343053   6.582   2.461   2.820 -0.9200 -0.0221 -2.3314
18379THY    HP443054   6.561   2.391   2.658 -1.5304  0.6985  0.1813
18379THY    CP343055   6.681   2.606   2.500 -0.3704 -0.2280  1.0225
18379THY    HP543056   6.587   2.654   2.468 -0.0450  1.3845  2.8860
18379THY    HP643057   6.680   2.509   2.451 -2.0036  0.1482  0.8175
18379THY    HP743058   6.765   2.671   2.472  0.0632 -0.1165  0.5169
18379THY    CA343059   6.859   2.381   2.709 -0.4718  0.2711  0.5065
18379THY    HA343060   6.772   2.317   2.718 -0.8994  0.5834  1.1251
18379THY    CA443061   6.996   2.333   2.713  0.2079 -0.1193  0.1018
18379THY    HA443062   7.025   2.228   2.715 -1.6261  0.8126 -0.4114
18379THY    CA543063   7.100   2.426   2.711 -0.0112  1.4096 -0.2203
18379THY    CM143064   7.242   2.373   2.726  0.1888  0.0636 -0.0562
18379THY    HM143065   7.267   2.302   2.647 -0.3919 -1.2996  1.2019
18379THY    HM243066   7.265   2.328   2.824 -0.8265 -0.7035 -2.3584
18379THY    HM343067   7.314   2.454   2.708 -0.1212 -2.3669 -0.2404
18379THY    CA643068   7.081   2.564   2.688 -0.1497 -0.0477 -1.0489
18379THY    HA643069   7.158   2.639   2.681 -2.6450 -3.8627  1.5542
18380THY      O43070   7.252   7.336   6.474  0.0245  0.2584 -0.1305
18380THY     HO43071   7.279   7.408   6.533 -2.2418  0.7832  0.3581
18380THY    CA143072   7.341   7.228   6.479  0.2762  0.1485  0.2706
18380THY    CA243073   7.310   7.104   6.436 -0.3167 -0.1210 -0.2258
18380THY    CP143074   7.162   7.087   6.388 -0.1151  0.2818 -0.2444
18380THY    HP143075   7.122   7.174   6.334 -1.5781 -1.8706 -2.1365
18380THY    CP243076   7.053   7.074   6.497 -0.0886 -0.1814 -0.2772
18380THY    HP243077   7.036   7.167   6.553 -1.6822 -0.6132 -0.2708
18380THY    HP343078   7.078   6.996   6.570 -1.0744  1.2582  0.7160
18380THY    HP443079   6.952   7.058   6.456 -0.7007  1.4192 -0.6721
18380THY    CP343080   7.139   6.966   6.291 -0.0969 -0.1854 -0.4733
18380THY    HP543081   7.179   6.871   6.330  0.6108 -0.3490 -0.2516
18380THY    HP643082   7.203   6.971   6.203  0.3255  0.1684  0.5368
18380THY    HP743083   7.032   6.960   6.270 -0.6513  2.1431  0.1228
18380THY    CA343084   7.402   7.000   6.449  0.2190 -0.1485  0.5562
18380THY    HA343085   7.388   6.895   6.424  0.9325 -1.4936  0.7678
18380THY    CA443086   7.524   7.026   6.506 -0.1615 -0.7526  0.3583
18380THY    HA443087   7.588   6.942   6.527  0.2802 -1.2721  0.5612
18380THY    CA543088   7.560   7.152   6.544  0.1605  0.7215  0.1032
18380THY    CM143089   7.693   7.167   6.614  0.2795  0.0260  0.2064
18380THY    HM143090   7.701   7.092   6.694 -0.6418  2.4580  2.4954
18380THY    HM243091   7.701   7.266   6.663  2.6402 -1.5360  0.8676
18380THY    HM343092   7.773   7.164   6.540  1.3629  1.1242  1.0971
18380THY    CA643093   7.469   7.255   6.533 -0.4899  0.2286 -0.3685
18380THY    HA643094   7.491   7.345   6.590 -1.2040  0.1978 -0.1629
18381THY      O43095   1.491   2.929   4.207 -0.3758  0.8907 -0.1238
18381THY     HO43096   1.446   2.975   4.134  0.0277 -0.9941 -2.5194
18381THY    CA143097   1.512   3.014   4.304  0.1424  0.6129  0.5642
18381THY    CA243098   1.565   2.970   4.428  0.6980  0.2165  0.5396
18381THY    CP143099   1.593   2.823   4.449  0.5161  0.1138 -0.6512
18381THY    HP143100   1.543   2.759   4.375 -1.1278  1.2175 -0.7013
18381THY    CP243101   1.536   2.777   4.580  0.2754  0.0464  0.4820
18381THY    HP243102   1.585   2.805   4.674 -0.4886  1.3262 -2.1064
18381THY    HP343103   1.526   2.668   4.591 -1.0737  0.9307  0.6639
18381THY    HP443104   1.439   2.825   4.601  1.0468  2.8946  0.9786
18381THY    CP343105   1.741   2.790   4.448 -0.0498  0.2665  0.0492
18381THY    HP543106   1.779   2.826   4.352 -0.0782  1.0847  2.4529
18381THY    HP643107   1.773   2.685   4.443  0.0982  0.4399  0.0840
18381THY    HP743108   1.798   2.848   4.522  1.7501 -2.2254  1.6631
18381THY    CA343109   1.590   3.063   4.529 -0.3576  0.0580 -0.1891
18381THY    HA343110   1.644   3.035   4.619  0.0916 -0.6210 -1.5758
18381THY    CA443111   1.572   3.200   4.505  0.1716  0.0659  0.7148
18381THY    HA443112   1.597   3.275   4.580  0.9111 -0.3253  0.8693
18381THY    CA543113   1.530   3.241   4.378  0.3952  0.0089  0.1132
18381THY    CM143114   1.481   3.378   4.358  0.0560  0.0107 -0.4207
18381THY    HM143115   1.526   3.410   4.263 -0.2381 -0.4844 -1.4311
18381THY    HM243116   1.503   3.453   4.434  0.3879 -0.5425  0.0497
18381THY    HM343117   1.373   3.380   4.341 -0.0340  0.5941 -0.0821
18381THY    CA643118   1.493   3.147   4.279 -0.3959 -0.7304 -0.3199
18381THY    HA643119   1.463   3.190   4.184  0.9207 -0.7205  0.7183
18382THY      O43120   6.690   8.325   4.184 -1.3033  0.2986  0.1522
18382THY     HO43121   6.677   8.228   4.185  1.7940 -0.1637 -0.3920
18382THY    CA143122   6.824   8.328   4.155 -0.3850 -0.4077  0.5115
18382THY    CA243123   6.887   8.450   4.123  0.3714 -0.2062  0.2191
18382THY    CP143124   6.812   8.586   4.091  0.1536 -0.3909  0.9528
18382THY    HP143125   6.706   8.568   4.114  0.3667  0.0663  0.2340
18382THY    CP243126   6.834   8.620   3.947  0.2136 -0.0143 -0.4303
18382THY    HP243127   6.776   8.555   3.880 -1.1305  0.9727 -0.3008
18382THY    HP343128   6.940   8.611   3.921  0.4126  0.6108  0.0463
18382THY    HP443129   6.793   8.718   3.920 -0.2220  1.5154 -0.1729
18382THY    CP343130   6.861   8.703   4.181 -1.1490  0.1578  0.0508
18382THY    HP543131   6.785   8.781   4.167  0.8476 -0.4320  1.9862
18382THY    HP643132   6.958   8.740   4.148 -1.4859  0.0167  0.8405
18382THY    HP743133   6.867   8.682   4.288  2.5763  0.1783  0.7119
18382THY    CA343134   7.031   8.440   4.115 -1.0064 -0.3364  0.1258
18382THY    HA343135   7.089   8.526   4.082 -0.2257  1.1944  0.2271
18382THY    CA443136   7.102   8.322   4.149 -0.0532 -0.4690  0.4636
18382THY    HA443137   7.210   8.310   4.142 -0.1322 -1.2752  0.1385
18382THY    CA543138   7.027   8.208   4.178  0.1875 -0.3208  0.8449
18382THY    CM143139   7.105   8.083   4.219 -0.1538 -0.0362 -0.1803
18382THY    HM143140   7.123   8.020   4.131 -1.1465 -1.0642  0.9539
18382THY    HM243141   7.053   8.023   4.295 -0.0878  1.3610  1.4535
18382THY    HM343142   7.207   8.111   4.248 -0.0294 -0.1828 -0.4720
18382THY    CA643143   6.891   8.211   4.180  0.1900  0.7523 -0.0996
18382THY    HA643144   6.833   8.122   4.201 -0.1613 -1.5536 -0.4808
18383THY      O43145   4.268   1.176   4.743 -0.1918  0.7302 -0.3941
18383THY     HO43146   4.332   1.180   4.671 -3.6070 -2.6498 -0.5070
18383THY    CA143147   4.187   1.080   4.704 -0.0010  0.5269  0.0129
18383THY    CA243148   4.050   1.077   4.739 -0.3033 -0.5070  0.0098
18383THY    CP143149   3.992   1.179   4.832  0.4191 -0.9048 -0.0442
18383THY    HP143150   4.061   1.262   4.852 -1.1998 -0.1798  1.1810
18383THY    CP243151   3.956   1.108   4.963  0.0390  0.0791 -0.5894
18383THY    HP243152   4.026   1.029   4.992  1.0674 -0.1286  0.2211
18383THY    HP343153   3.864   1.052   4.948  0.3299 -0.2646 -0.9828
18383THY    HP443154   3.947   1.185   5.041  0.2195 -0.4240 -0.0549
18383THY    CP343155   3.866   1.249   4.770  0.6210  0.0309 -0.0151
18383THY    HP543156   3.897   1.287   4.671  2.7341  1.2285  1.6102
18383THY    HP643157   3.845   1.336   4.834 -0.2446  0.7772 -0.7552
18383THY    HP743158   3.778   1.184   4.763 -0.3796 -0.0683  1.2851
18383THY    CA343159   3.978   0.967   4.694 -0.2408 -0.0753 -0.0836
18383THY    HA343160   3.876   0.959   4.731 -0.2874  0.1229  1.2544
18383THY    CA443161   4.041   0.875   4.611 -0.3013 -0.1905  0.4776
18383THY    HA443162   3.973   0.801   4.571 -2.3813 -0.2669  2.3165
18383THY    CA543163   4.176   0.880   4.574  0.0466 -0.8222 -0.3660
18383THY    CM143164   4.230   0.782   4.482  0.6936  0.0133  0.7016
18383THY    HM143165   4.257   0.690   4.535 -0.6305  0.0879  0.3365
18383THY    HM243166   4.319   0.824   4.433  1.0455 -0.7838 -0.8866
18383THY    HM343167   4.167   0.757   4.396 -0.2175  1.0353 -0.6794
18383THY    CA643168   4.258   0.976   4.631  0.1221 -0.4700 -0.0262
18383THY    HA643169   4.366   0.977   4.619  0.0744 -0.9037 -0.1995
18384THY      O43170   1.609   5.571   6.498  0.0096  0.1993 -0.1207
18384THY     HO43171   1.600   5.572   6.594 -1.0150  0.1134  0.9917
18384THY    CA143172   1.493   5.522   6.444  0.1620 -0.1139 -0.8769
18384THY    CA243173   1.478   5.502   6.303  0.5890  0.1201 -0.1383
18384THY    CP143174   1.578   5.554   6.199  0.1937 -0.4971  0.8534
18384THY    HP143175   1.678   5.563   6.244 -0.5267  1.2901  0.4321
18384THY    CP243176   1.545   5.692   6.147  0.5568  0.2348  0.3796
18384THY    HP243177   1.445   5.681   6.103  0.1061  1.3160  0.0413
18384THY    HP343178   1.620   5.722   6.073  2.8227  1.0175 -2.8161
18384THY    HP443179   1.541   5.763   6.230 -0.7764  0.6351 -0.1257
18384THY    CP343180   1.605   5.454   6.091 -0.1143  0.5543  0.0954
18384THY    HP543181   1.587   5.349   6.115  0.6546 -0.8017 -0.3844
18384THY    HP643182   1.709   5.464   6.056  0.1744  1.0869 -0.8495
18384THY    HP743183   1.542   5.481   6.005  1.2027 -0.2221  0.8130
18384THY    CA343184   1.349   5.462   6.258 -0.2756 -0.0866  0.2634
18384THY    HA343185   1.315   5.456   6.155 -4.2537  1.1426 -1.7784
18384THY    CA443186   1.244   5.439   6.347  0.6632  0.4689  0.2825
18384THY    HA443187   1.148   5.418   6.301 -0.0187  1.2802  1.4923
18384THY    CA543188   1.263   5.449   6.485  0.9626  0.2177  0.2011
18384THY    CM143189   1.150   5.419   6.578 -0.2772 -0.3116  0.3627
18384THY    HM143190   1.153   5.310   6.587  0.3775 -1.2337  0.2989
18384THY    HM243191   1.049   5.437   6.538 -0.2116 -0.5012  0.2989
18384THY    HM343192   1.149   5.479   6.671  0.7955 -0.9862  1.4726
18384THY    CA643193   1.391   5.493   6.532  0.3290 -0.8414 -0.1606
18384THY    HA643194   1.419   5.506   6.636  0.8564 -1.1328  1.2407
18385THY      O43195   5.325   6.015   6.735  0.2612 -0.3361 -0.4627
18385THY     HO43196   5.326   6.110   6.714  0.6719 -0.2146 -0.4401
18385THY    CA143197   5.194   5.981   6.735 -0.3348  0.1056 -0.7141
18385THY    CA243198   5.132   5.948   6.854 -0.5597 -1.1206 -0.3704
18385THY    CP143199   5.210   5.960   6.987 -0.5738 -0.1922 -0.6581
18385THY    HP143200   5.318   5.951   6.971 -0.0966  1.3992  1.2980
18385THY    CP243201   5.183   5.859   7.092  0.0843 -0.1534  0.0969
18385THY    HP243202   5.080   5.870   7.125  0.0394  0.7014 -2.2805
18385THY    HP343203   5.242   5.882   7.181 -0.2728  0.2257 -0.4367
18385THY    HP443204   5.208   5.756   7.063  0.8142  1.9168 -0.3549
18385THY    CP343205   5.175   6.097   7.044  0.6659 -0.0354  0.9350
18385THY    HP543206   5.241   6.124   7.127 -0.4975  0.3725  2.7360
18385THY    HP643207   5.069   6.083   7.069 -0.1296 -3.3151  0.1834
18385THY    HP743208   5.181   6.178   6.969  0.8420  1.4672  2.3707
18385THY    CA343209   4.999   5.925   6.862  1.2576  0.7081 -0.0542
18385THY    HA343210   4.955   5.910   6.961  2.4749  1.4489  1.0647
18385THY    CA443211   4.921   5.919   6.744 -0.1212 -0.4241  0.5320
18385THY    HA443212   4.815   5.899   6.752 -0.2329  1.0457  1.5376
18385THY    CA543213   4.980   5.949   6.619 -0.8611 -0.2037  0.1250
18385THY    CM143214   4.903   5.950   6.487  0.4058  0.2421  0.3542
18385THY    HM143215   4.960   5.966   6.395 -1.0036 -0.7326  0.0038
18385THY    HM243216   4.820   6.021   6.497  1.2574 -0.7200  1.5260
18385THY    HM343217   4.855   5.853   6.470 -0.4945 -0.9490  0.9752
18385THY    CA643218   5.120   5.976   6.618  0.7867  0.7503 -0.2697
18385THY    HA643219   5.157   5.995   6.518 -0.0366  0.6771  1.0161
18386THY      O43220   6.348   5.914   4.846 -0.9199 -0.3437 -0.0310
18386THY     HO43221   6.417   5.871   4.793  0.7483  0.1666  1.8663
18386THY    CA143222   6.371   6.047   4.831 -0.4661 -0.3364  0.4948
18386THY    CA243223   6.284   6.148   4.869  0.2170 -0.3156 -0.5778
18386THY    CP143224   6.155   6.101   4.928  0.1234 -0.1769 -0.7295
18386THY    HP143225   6.132   6.000   4.892  1.0278 -0.8584 -0.7129
18386THY    CP243226   6.037   6.190   4.886  0.6112 -0.4809  0.0944
18386THY    HP243227   6.031   6.284   4.941  0.2400 -0.1480 -0.1217
18386THY    HP343228   5.943   6.137   4.903  0.4227  1.4667  0.9615
18386THY    HP443229   6.041   6.208   4.778  1.5827 -0.4972 -0.1409
18386THY    CP343230   6.171   6.095   5.084  0.1976  0.0091  1.0235
18386THY    HP543231   6.236   6.008   5.098 -3.1705 -3.1725 -2.4342
18386THY    HP643232   6.084   6.066   5.145  0.3995 -0.1928 -0.0603
18386THY    HP743233   6.213   6.190   5.117  0.3603 -0.7707  1.2341
18386THY    CA343234   6.319   6.282   4.854  0.1904 -0.4982 -0.3256
18386THY    HA343235   6.255   6.362   4.891  0.6021 -0.6181  0.0649
18386THY    CA443236   6.447   6.319   4.818  0.4690  0.6678 -0.0575
18386THY    HA443237   6.488   6.419   4.808  1.9478  2.0394 -0.4755
18386THY    CA543238   6.531   6.220   4.770 -0.2162 -0.5437  0.3580
18386THY    CM143239   6.671   6.266   4.733 -0.0002  0.2786  0.3359
18386THY    HM143240   6.699   6.355   4.790  0.8654 -1.1311  0.9872
18386THY    HM243241   6.687   6.300   4.630 -0.9077 -0.1328 -0.4235
18386THY    HM343242   6.741   6.183   4.743 -1.5576 -1.9269 -1.3653
18386THY    CA643243   6.497   6.084   4.784  0.3722 -0.2161 -0.2681
18386THY    HA643244   6.575   6.011   4.764 -0.3810 -0.0708 -1.1294
18387THY      O43245   4.169   6.129   7.874  0.0147 -0.2501 -0.3436
18387THY     HO43246   4.080   6.155   7.846 -0.3504  1.2033  0.0760
18387THY    CA143247   4.246   6.101   7.769 -0.0480  0.1589  0.4614
18387THY    CA243248   4.357   6.012   7.770 -0.1699 -0.1305 -0.2253
18387THY    CP143249   4.383   5.940   7.910  1.1197  0.9663 -0.7067
18387THY    HP143250   4.320   5.990   7.985 -0.9327 -2.0023  1.4708
18387THY    CP243251   4.534   5.957   7.944  0.4252  0.0475 -0.3876
18387THY    HP243252   4.555   5.909   8.040 -3.7891  1.5071  0.2022
18387THY    HP343253   4.556   6.064   7.950  0.1387 -1.7537 -0.2010
18387THY    HP443254   4.584   5.915   7.856  0.9328  0.2788 -0.2713
18387THY    CP343255   4.341   5.795   7.908  0.3806  0.5147  0.5127
18387THY    HP543256   4.426   5.742   7.865 -0.0078  0.8325 -0.3918
18387THY    HP643257   4.243   5.783   7.861 -0.6622  2.6695  0.0336
18387THY    HP743258   4.329   5.749   8.007  0.8951 -0.6123 -2.1654
18387THY    CA343259   4.429   5.993   7.653  0.3204 -0.2461  0.2651
18387THY    HA343260   4.509   5.919   7.647  0.9097 -0.0257  0.8712
18387THY    CA443261   4.382   6.048   7.534 -0.1836 -0.7354 -0.4283
18387THY    HA443262   4.423   6.026   7.436 -0.5865 -1.0733  0.2939
18387THY    CA543263   4.277   6.134   7.530  0.0164 -0.3070  0.3613
18387THY    CM143264   4.225   6.186   7.399  0.3600  0.2521  0.2859
18387THY    HM143265   4.275   6.141   7.312  3.2833  1.4429  1.0003
18387THY    HM243266   4.242   6.294   7.387  1.7984  0.2728  0.0757
18387THY    HM343267   4.117   6.168   7.397  0.4387 -1.4757 -0.1423
18387THY    CA643268   4.210   6.163   7.652 -0.9727  0.1438 -1.0132
18387THY    HA643269   4.131   6.237   7.646  0.1550 -0.1149  0.2159
18388THY      O43270   4.706   1.220   4.766  0.3067  0.2475 -0.7050
18388THY     HO43271   4.671   1.158   4.832 -3.1335 -0.2745  0.4757
18388THY    CA143272   4.763   1.140   4.684  0.2266 -0.1087  0.0365
18388THY    CA243273   4.860   1.177   4.595 -0.9173 -0.7037  0.2068
18388THY    CP143274   4.933   1.307   4.594  0.2454  0.5829 -0.5405
18388THY    HP143275   4.893   1.366   4.677  0.2024 -1.3082  2.3309
18388THY    CP243276   4.913   1.374   4.462  0.3453 -0.2227  1.0105
18388THY    HP243277   4.970   1.467   4.471  1.7530 -0.5660  0.2219
18388THY    HP343278   4.808   1.380   4.433  0.6645 -1.8283 -0.2923
18388THY    HP443279   4.964   1.328   4.376 -0.8327  0.1771 -1.1625
18388THY    CP343280   5.078   1.301   4.635 -0.6057  0.1174  0.0729
18388THY    HP543281   5.098   1.233   4.719  0.7000  1.4718  2.0361
18388THY    HP643282   5.114   1.397   4.673  0.1966  2.4940 -1.0888
18388THY    HP743283   5.141   1.276   4.549  0.3111  1.5530 -3.1734
18388THY    CA343284   4.911   1.079   4.502 -0.1232  0.0660  0.2182
18388THY    HA343285   4.982   1.106   4.425  0.8373  1.2513  1.1775
18388THY    CA443286   4.866   0.947   4.512  0.2503 -0.3573 -0.2226
18388THY    HA443287   4.911   0.870   4.450  1.6138 -3.1840  2.5936
18388THY    CA543288   4.777   0.911   4.604  0.4512  0.3154  0.4222
18388THY    CM143289   4.718   0.772   4.613 -0.1387  0.3526 -0.0882
18388THY    HM143290   4.610   0.777   4.593 -0.2500  0.7843 -0.6228
18388THY    HM243291   4.738   0.726   4.711 -2.0283 -0.0822 -2.0375
18388THY    HM343292   4.754   0.711   4.530 -0.0847  1.5176 -1.7030
18388THY    CA643293   4.722   1.007   4.688 -0.3726  0.1800 -0.1481
18388THY    HA643294   4.629   0.992   4.742 -1.0227 -0.0140  2.5175
18389THY      O43295   1.148   8.529   1.978 -0.1233 -0.0620 -0.0459
18389THY     HO43296   1.121   8.506   2.069  1.7480  0.3736 -0.7390
18389THY    CA143297   1.248   8.618   1.982  0.0948  0.0937 -0.1318
18389THY    CA243298   1.317   8.661   1.866 -0.6228  0.4742  0.2200
18389THY    CP143299   1.301   8.587   1.730  0.8494 -0.5976 -0.4043
18389THY    HP143300   1.237   8.499   1.742  1.3013  0.5333 -0.6057
18389THY    CP243301   1.427   8.526   1.675 -0.6993  0.0947  0.7007
18389THY    HP243302   1.471   8.603   1.611 -0.2040 -0.4788 -0.0480
18389THY    HP343303   1.399   8.448   1.603  0.2938  1.1528 -0.6795
18389THY    HP443304   1.508   8.484   1.736 -0.8610  0.3177  0.7081
18389THY    CP343305   1.239   8.689   1.631 -0.6729 -1.0933 -0.0487
18389THY    HP543306   1.154   8.729   1.688  0.5074  2.9400 -2.6498
18389THY    HP643307   1.209   8.650   1.533  1.0809 -2.3130  1.5031
18389THY    HP743308   1.305   8.776   1.622  0.2143  1.9531 -0.2565
18389THY    CA343309   1.408   8.763   1.877 -0.0673 -0.4487  0.1207
18389THY    HA343310   1.461   8.785   1.785  0.8923 -0.2569 -1.2357
18389THY    CA443311   1.427   8.839   1.996 -0.1755  0.3145  0.3019
18389THY    HA443312   1.493   8.925   2.001  2.5327 -1.3016 -1.5140
18389THY    CA543313   1.344   8.806   2.103  0.3000 -0.2968 -0.0776
18389THY    CM143314   1.357   8.887   2.234  0.0523  0.1810 -0.1522
18389THY    HM143315   1.461   8.902   2.264 -0.1534  0.4230  0.9072
18389THY    HM243316   1.311   8.831   2.317  0.6700  0.6011 -0.0475
18389THY    HM343317   1.311   8.985   2.217 -1.2916 -0.3856 -0.8485
18389THY    CA643318   1.255   8.696   2.098  0.1830  0.4449 -0.5055
18389THY    HA643319   1.190   8.680   2.183 -0.7277  0.4854  2.7029
18390THY      O43320   4.481   2.059   4.830  0.2556  0.1679 -0.1413
18390THY     HO43321   4.452   1.975   4.870  0.0746  0.2602 -0.0329
18390THY    CA143322   4.593   2.096   4.896  0.4281 -0.4437  0.8711
18390THY    CA243323   4.665   2.202   4.851 -0.1092  0.1207 -0.1433
18390THY    CP143324   4.651   2.264   4.715  0.1715  0.4824 -0.1854
18390THY    HP143325   4.570   2.201   4.676 -1.0096  2.0170  0.3234
18390THY    CP243326   4.780   2.246   4.634 -0.2414 -0.0789  0.0416
18390THY    HP243327   4.769   2.281   4.531  0.5476 -0.3942 -0.6093
18390THY    HP343328   4.807   2.140   4.630  1.4508 -1.1120  0.4683
18390THY    HP443329   4.866   2.299   4.676 -0.9933  0.5904  0.7629
18390THY    CP343330   4.609   2.411   4.712 -0.1510 -0.5493  0.2378
18390THY    HP543331   4.508   2.429   4.751  0.9823  2.2331  1.1978
18390THY    HP643332   4.622   2.446   4.609 -0.3425  0.2136  2.8111
18390THY    HP743333   4.684   2.470   4.766 -0.3403 -0.4350  0.3782
18390THY    CA343334   4.784   2.237   4.928 -0.5121  0.1897  0.5717
18390THY    HA343335   4.867   2.300   4.897  0.1027  0.2752 -0.1746
18390THY    CA443336   4.809   2.169   5.048  1.1208  0.8634  0.3422
18390THY    HA443337   4.895   2.204   5.105  2.4645 -1.9273  1.9281
18390THY    CA543338   4.721   2.083   5.108  0.1616  0.6546 -0.8437
18390THY    CM143339   4.755   2.021   5.247 -0.0556  0.6312  0.0364
18390THY    HM143340   4.691   2.074   5.319 -0.7838 -0.7611  1.1444
18390THY    HM243341   4.860   2.029   5.276  0.2900 -0.3718 -0.6215
18390THY    HM343342   4.726   1.916   5.255 -1.7613  4.5515  0.6104
18390THY    CA643343   4.612   2.045   5.027  0.6522 -0.0873 -0.1751
18390THY    HA643344   4.549   1.967   5.068  0.2371  0.9556  0.6810
18391THY      O43345   1.185   1.246   6.623 -0.2427 -0.3612  0.1392
18391THY     HO43346   1.203   1.325   6.569 -0.8241 -0.5200  0.1749
18391THY    CA143347   1.226   1.275   6.749  0.7921  0.4394  0.1228
18391THY    CA243348   1.292   1.194   6.840  0.4399  0.7356  0.2505
18391THY    CP143349   1.318   1.051   6.784 -0.4565 -0.3055  0.0394
18391THY    HP143350   1.321   1.051   6.675 -1.6305 -0.3516  0.8210
18391THY    CP243351   1.204   0.959   6.841 -1.3289  0.3055  0.2960
18391THY    HP243352   1.200   0.978   6.949  0.1505  0.5144 -0.4101
18391THY    HP343353   1.232   0.853   6.829 -0.1789  0.5440  0.5516
18391THY    HP443354   1.116   0.992   6.784 -0.8543 -0.0977  0.8931
18391THY    CP343355   1.452   0.987   6.837 -0.1091  0.6668 -0.2416
18391THY    HP543356   1.539   1.048   6.809 -0.1769 -1.1527 -0.9106
18391THY    HP643357   1.469   0.886   6.798 -1.1018  0.1794 -0.2325
18391THY    HP743358   1.452   0.986   6.946 -1.1658  0.6747 -0.6180
18391THY    CA343359   1.337   1.244   6.964 -0.3937  0.1735 -0.0472
18391THY    HA343360   1.394   1.187   7.037 -0.0078 -1.6283 -2.0915
18391THY    CA443361   1.303   1.376   7.005  0.3131 -0.3402 -0.0025
18391THY    HA443362   1.334   1.412   7.102 -1.4017  0.2696 -0.0933
18391THY    CA543363   1.233   1.457   6.911  0.0242 -0.3986  0.3798
18391THY    CM143364   1.197   1.595   6.954  0.0830  0.8111 -0.1462
18391THY    HM143365   1.186   1.603   7.063  1.8160  1.0334 -0.4032
18391THY    HM243366   1.117   1.638   6.893  1.4220 -0.3841  0.7280
18391THY    HM343367   1.283   1.656   6.925  0.3883  0.7367 -0.6104
18391THY    CA643368   1.192   1.405   6.786 -0.6391  0.5349 -0.1055
18391THY    HA643369   1.139   1.467   6.714 -0.7371 -0.0602 -0.8686
18392THY      O43370   8.705   4.103   2.273 -0.0640 -1.0256  0.0571
18392THY     HO43371   8.736   4.028   2.326 -1.3315 -0.9904 -0.4671
18392THY    CA143372   8.613   4.169   2.341  0.2350 -0.2766 -0.2950
18392THY    CA243373   8.600   4.308   2.327  0.2757 -0.7594 -0.1653
18392THY    CP143374   8.662   4.398   2.211 -0.0949 -0.3531  0.0793
18392THY    HP143375   8.726   4.336   2.147  0.7082  1.4187 -0.9940
18392THY    CP243376   8.765   4.498   2.273  0.5156  0.3779 -0.7325
18392THY    HP243377   8.716   4.589   2.310  1.2115 -0.8627  0.1700
18392THY    HP343378   8.829   4.535   2.193 -2.4755 -2.0282 -0.3716
18392THY    HP443379   8.818   4.438   2.348 -0.3721  1.2795 -0.4377
18392THY    CP343380   8.551   4.473   2.134 -0.0675  0.0805  0.2597
18392THY    HP543381   8.471   4.403   2.105  0.3613 -1.3046  0.3248
18392THY    HP643382   8.602   4.516   2.047 -0.3951 -0.8964 -1.2211
18392THY    HP743383   8.497   4.547   2.194 -1.4375 -0.5938 -0.1541
18392THY    CA343384   8.521   4.370   2.428  0.4982 -0.6416 -0.3673
18392THY    HA343385   8.506   4.476   2.443  0.7622  0.5627 -0.4903
18392THY    CA443386   8.445   4.288   2.523  0.3818  1.1997 -0.8983
18392THY    HA443387   8.373   4.348   2.578  0.6072 -0.0794  0.6268
18392THY    CA543388   8.450   4.151   2.518  0.7035 -0.2344 -0.0862
18392THY    CM143389   8.373   4.061   2.607 -0.2358 -0.4331  0.0855
18392THY    HM143390   8.360   3.971   2.546  0.6009 -2.0991  1.0440
18392THY    HM243391   8.279   4.104   2.642  0.5350  1.5859  0.2457
18392THY    HM343392   8.422   4.042   2.703 -1.1290 -0.0826 -0.4898
18392THY    CA643393   8.543   4.094   2.436  0.1255  0.3281 -0.5854
18392THY    HA643394   8.553   3.986   2.441 -1.2686  1.6132 -0.6786
18393THY      O43395   6.060   3.787   2.958  0.8831 -0.5125 -0.0384
18393THY     HO43396   6.006   3.810   3.036  2.8537  0.8189  0.4339
18393THY    CA143397   6.118   3.674   3.003 -1.5601 -0.1318 -0.7299
18393THY    CA243398   6.193   3.597   2.915 -0.0068 -0.3686 -0.8034
18393THY    CP143399   6.212   3.634   2.768  0.3539 -0.1958  0.3042
18393THY    HP143400   6.163   3.725   2.732 -0.4019 -0.2993 -0.1357
18393THY    CP243401   6.173   3.510   2.677  0.2218 -0.6308  0.4688
18393THY    HP243402   6.244   3.427   2.674 -1.6134 -0.3266 -1.1822
18393THY    HP343403   6.133   3.531   2.577  0.5928 -0.5556  1.5751
18393THY    HP443404   6.093   3.457   2.730  1.4806 -0.0061 -0.8734
18393THY    CP343405   6.355   3.668   2.742 -0.0505  0.3707 -0.2566
18393THY    HP543406   6.372   3.700   2.638  3.5309  0.8474 -0.1133
18393THY    HP643407   6.407   3.572   2.750 -1.4535 -0.8394 -1.1612
18393THY    HP743408   6.398   3.748   2.803 -0.9065  1.5469 -0.6794
18393THY    CA343409   6.261   3.482   2.963 -0.7246 -0.8180  0.1833
18393THY    HA343410   6.322   3.421   2.898  0.1925 -0.5446  0.7789
18393THY    CA443411   6.254   3.457   3.102 -0.3521 -0.1662 -0.1280
18393THY    HA443412   6.310   3.377   3.149 -0.8899  1.0025  0.1659
18393THY    CA543413   6.177   3.540   3.192 -0.0194  0.6077 -0.0142
18393THY    CM143414   6.177   3.508   3.336  0.1237 -0.3284 -0.3708
18393THY    HM143415   6.119   3.581   3.394 -1.7734 -0.1281 -1.9570
18393THY    HM243416   6.277   3.491   3.376  0.2248 -0.3547  0.1447
18393THY    HM343417   6.117   3.417   3.340 -0.0602  0.0423 -0.2363
18393THY    CA643418   6.113   3.651   3.143 -0.6138 -0.1802  0.0547
18393THY    HA643419   6.061   3.720   3.209  0.3575 -0.7183  1.3419
18394THY      O43420   0.779   4.102   3.120 -0.1061 -0.0620  0.5210
18394THY     HO43421   0.843   4.132   3.185 -0.0675 -0.2555  0.8593
18394THY    CA143422   0.655   4.072   3.166  0.3832 -0.0009 -0.7951
18394THY    CA243423   0.544   4.053   3.077  0.5154  0.1537  0.2597
18394THY    CP143424   0.565   4.073   2.926 -0.3558  0.3445  0.1730
18394THY    HP143425   0.644   4.146   2.903  1.7329  0.5161 -1.9086
18394THY    CP243426   0.433   4.125   2.864  0.1799 -0.2128 -0.4942
18394THY    HP243427   0.452   4.157   2.761  1.8601  0.3558  0.4675
18394THY    HP343428   0.387   4.212   2.913 -1.0646  0.2962 -1.4076
18394THY    HP443429   0.354   4.049   2.858 -0.1655 -0.5471 -0.1090
18394THY    CP343430   0.615   3.940   2.862  0.0929 -0.0089  0.5312
18394THY    HP543431   0.657   3.957   2.761  2.2269  1.0794  2.3280
18394THY    HP643432   0.541   3.860   2.857 -1.1253 -3.3456  1.6994
18394THY    HP743433   0.699   3.901   2.922 -0.4742 -0.6337 -1.8009
18394THY    CA343434   0.422   4.011   3.136 -0.6505 -0.0438  0.0323
18394THY    HA343435   0.341   3.985   3.068 -0.4119 -1.0862  1.8462
18394THY    CA443436   0.411   3.995   3.276  0.4533 -0.2619 -0.0230
18394THY    HA443437   0.317   3.962   3.319  0.3474 -0.9723 -0.6757
18394THY    CA543438   0.518   4.022   3.356 -0.7629 -0.2254 -0.0682
18394THY    CM143439   0.512   4.013   3.514 -0.3083  0.1258 -0.4179
18394THY    HM143440   0.508   4.117   3.548 -1.6962  0.9494 -0.7058
18394THY    HM243441   0.596   3.957   3.558 -0.9688  1.4679 -0.4067
18394THY    HM343442   0.420   3.964   3.547 -1.4561 -0.7210  1.0839
18394THY    CA643443   0.640   4.060   3.301  0.2861 -0.0132  0.5584
18394THY    HA643444   0.729   4.077   3.362 -0.1377  0.7589  0.0534
18395THY      O43445   9.088   2.284   6.477 -0.3771  0.5259 -0.0075
18395THY     HO43446   9.067   2.192   6.454 -3.9197 -2.2159  1.2133
18395THY    CA143447   9.022   2.367   6.392  0.8245 -0.3871  0.2037
18395THY    CA243448   8.994   2.501   6.439  0.3086 -0.1327  0.0499
18395THY    CP143449   9.044   2.543   6.574 -0.0425 -0.1113  0.2755
18395THY    HP143450   9.143   2.504   6.597 -0.5629  1.1253 -0.3781
18395THY    CP243451   8.936   2.488   6.673 -0.2258 -0.7622  0.4257
18395THY    HP243452   8.910   2.383   6.655 -0.7764 -0.0761  0.4392
18395THY    HP343453   8.841   2.542   6.670 -1.3923 -2.3054 -1.5763
18395THY    HP443454   8.983   2.486   6.773 -0.7769 -0.5025 -0.7884
18395THY    CP343455   9.035   2.689   6.601  0.0861 -0.0504 -0.2701
18395THY    HP543456   9.088   2.702   6.696 -1.4219  0.8948 -0.6599
18395THY    HP643457   8.933   2.729   6.613  1.0539 -2.0947  3.1607
18395THY    HP743458   9.079   2.733   6.511 -1.4670 -1.2710 -1.1113
18395THY    CA343459   8.908   2.581   6.363 -0.3419 -0.2154 -1.0597
18395THY    HA343460   8.870   2.677   6.397 -0.5512 -2.5011 -0.2647
18395THY    CA443461   8.877   2.535   6.231  0.1093 -0.5063  0.0493
18395THY    HA443462   8.829   2.605   6.163  2.8651 -2.3503  0.3310
18395THY    CA543463   8.912   2.410   6.184  0.1168 -0.5597 -0.7596
18395THY    CM143464   8.861   2.366   6.054  0.7888  0.2093  0.3980
18395THY    HM143465   8.943   2.339   5.987  0.0456 -1.0747  1.2344
18395THY    HM243466   8.801   2.442   6.004 -0.3291  2.6831  1.2454
18395THY    HM343467   8.799   2.277   6.064  3.1953 -0.8415 -1.5267
18395THY    CA643468   8.973   2.317   6.272 -0.0911  0.4716  0.3850
18395THY    HA643469   8.987   2.218   6.230  1.5428 -0.3156  0.9150
18396THY      O43470   6.889   2.732   3.927 -0.1063  0.3082 -0.0800
18396THY     HO43471   6.946   2.739   3.849  1.9773  1.7644 -0.0357
18396THY    CA143472   6.918   2.838   4.010 -0.6467  0.0489 -0.3185
18396THY    CA243473   6.833   2.867   4.116  0.1760  0.7947  0.7093
18396THY    CP143474   6.717   2.777   4.157  0.1096  0.1676 -0.6335
18396THY    HP143475   6.721   2.686   4.096  0.3783  1.2775 -1.3813
18396THY    CP243476   6.588   2.846   4.115  0.6553 -0.0676  0.3530
18396THY    HP243477   6.610   2.917   4.035  1.9076 -0.7774 -0.7691
18396THY    HP343478   6.543   2.899   4.200 -0.7304  0.6885 -1.8527
18396THY    HP443479   6.524   2.764   4.079 -0.7380 -0.0435  1.4027
18396THY    CP343480   6.708   2.733   4.310 -0.8098  0.7578  0.2344
18396THY    HP543481   6.806   2.690   4.332 -0.2573 -0.6503  0.6935
18396THY    HP643482   6.627   2.659   4.317 -1.1446 -1.5445  0.2947
18396THY    HP743483   6.690   2.823   4.371 -0.3286 -0.8990  1.5196
18396THY    CA343484   6.867   2.978   4.199  0.6222 -0.0987  0.5560
18396THY    HA343485   6.795   3.006   4.276 -0.9908 -0.8133 -1.3509
18396THY    CA443486   6.982   3.053   4.172 -0.9286  0.3435  0.0966
18396THY    HA443487   7.018   3.137   4.230  2.9495 -1.1946 -0.3231
18396THY    CA543488   7.062   3.018   4.060 -0.3159 -0.2689  0.2072
18396THY    CM143489   7.186   3.091   4.025  0.8736 -0.5771  0.0609
18396THY    HM143490   7.195   3.092   3.916 -1.2845 -0.7797  0.6617
18396THY    HM243491   7.273   3.042   4.071  0.1218 -1.4494 -2.2273
18396THY    HM343492   7.176   3.193   4.063  1.1457  1.8704 -0.7512
18396THY    CA643493   7.033   2.910   3.977  0.5169 -0.2308 -1.1539
18396THY    HA643494   7.103   2.882   3.900  0.5011 -0.4038 -0.7288
18397THY      O43495   5.977   1.816   6.733 -0.2004  0.7609 -0.0658
18397THY     HO43496   6.049   1.854   6.679 -0.1627  1.5582  1.0648
18397THY    CA143497   5.860   1.867   6.694  0.6764  0.1110 -0.0700
18397THY    CA243498   5.742   1.859   6.778 -0.3586  0.5521  0.1923
18397THY    CP143499   5.747   1.813   6.927  0.3644  1.3524 -0.4179
18397THY    HP143500   5.853   1.785   6.934  1.0678 -1.9888  0.9717
18397THY    CP243501   5.657   1.685   6.948 -0.1463  0.2367 -0.4219
18397THY    HP243502   5.663   1.653   7.053 -2.2452  0.8538  1.0086
18397THY    HP343503   5.682   1.602   6.881 -2.1152 -1.4734  0.2629
18397THY    HP443504   5.556   1.715   6.917  0.0618 -0.9829 -0.9286
18397THY    CP343505   5.718   1.921   7.029 -1.1631  0.4855  0.4953
18397THY    HP543506   5.757   1.886   7.125  0.3471 -0.5735 -0.9086
18397THY    HP643507   5.611   1.920   7.049 -1.0550  1.0880  0.9197
18397THY    HP743508   5.743   2.021   6.992 -2.9860  2.4596  1.7515
18397THY    CA343509   5.623   1.921   6.728  0.0797  0.8508  0.9477
18397THY    HA343510   5.533   1.932   6.787 -0.4150  0.1709  0.6524
18397THY    CA443511   5.613   1.940   6.588  0.0133 -0.1300  0.3513
18397THY    HA443512   5.520   1.974   6.543  0.8503 -0.7748  1.9055
18397THY    CA543513   5.726   1.931   6.509  0.2951 -1.1526 -0.2290
18397THY    CM143514   5.735   1.959   6.359  0.3156  0.7573 -0.6759
18397THY    HM143515   5.636   1.986   6.320  0.2651  1.6698  0.5297
18397THY    HM243516   5.765   1.866   6.309 -1.1054  0.6763 -1.1138
18397THY    HM343517   5.795   2.046   6.332  0.9296  1.8275 -0.7434
18397THY    CA643518   5.847   1.904   6.565  0.7451 -0.6493  0.3807
18397THY    HA643519   5.930   1.913   6.495  1.3997  0.3897  3.3837
18398THY      O43520   3.735   1.779   7.604  0.1135 -0.0921 -0.1753
18398THY     HO43521   3.746   1.692   7.563 -2.5827 -0.3476 -0.4843
18398THY    CA143522   3.700   1.759   7.732 -0.1697  0.3598  0.5186
18398THY    CA243523   3.731   1.856   7.829 -0.4795  0.1004 -0.9332
18398THY    CP143524   3.805   1.990   7.786 -0.1703  0.0381  0.7344
18398THY    HP143525   3.801   2.004   7.678 -0.4446  0.1559  1.5731
18398THY    CP243526   3.953   1.977   7.831 -0.4834  0.2201  0.3370
18398THY    HP243527   3.996   1.894   7.773 -0.7396 -1.1019  1.0982
18398THY    HP343528   3.967   1.955   7.937  2.8840 -0.3419 -0.7632
18398THY    HP443529   4.009   2.066   7.802  0.1189 -0.0456 -0.1203
18398THY    CP343530   3.738   2.112   7.856  0.1463  0.1620 -0.0196
18398THY    HP543531   3.744   2.117   7.965 -0.2617  0.1549  0.6758
18398THY    HP643532   3.630   2.112   7.839  0.2444 -1.0819 -2.5182
18398THY    HP743533   3.784   2.202   7.814 -1.1481  1.4371  1.2739
18398THY    CA343534   3.686   1.840   7.959 -0.2446  0.4169  0.0927
18398THY    HA343535   3.709   1.915   8.034 -1.2176 -0.3767  1.2344
18398THY    CA443536   3.610   1.725   7.987  0.2523 -0.4631 -0.2175
18398THY    HA443537   3.575   1.711   8.089 -0.3953 -0.6701 -0.1337
18398THY    CA543538   3.571   1.634   7.890 -0.2833 -0.5492 -0.6434
18398THY    CM143539   3.482   1.512   7.918 -0.1978  0.3613  0.6568
18398THY    HM143540   3.399   1.521   7.847  0.0432  0.3025  3.1656
18398THY    HM243541   3.438   1.513   8.018  1.1720  0.9950 -0.1928
18398THY    HM343542   3.535   1.416   7.914 -0.7888 -0.5084  0.3567
18398THY    CA643543   3.625   1.649   7.767 -0.3951 -1.1294  0.0860
18398THY    HA643544   3.602   1.572   7.694 -1.8669  1.1502 -1.7624
18399THY      O43545   3.662   6.937   4.621 -0.1917 -0.0260  0.4473
18399THY     HO43546   3.688   6.935   4.714  1.1748 -0.3546  1.2508
18399THY    CA143547   3.688   7.063   4.581  0.0539  0.0824  0.4186
18399THY    CA243548   3.669   7.098   4.441  0.3612 -0.4009  0.0391
18399THY    CP143549   3.627   6.995   4.336  0.0219  0.4544  0.5587
18399THY    HP143550   3.619   6.896   4.383  0.4543  0.4417  0.5192
18399THY    CP243551   3.735   6.985   4.224  0.0052  0.4124 -0.7508
18399THY    HP243552   3.837   6.970   4.260  0.4398 -1.2986 -2.2557
18399THY    HP343553   3.740   7.073   4.159 -0.6303  1.0321 -0.2452
18399THY    HP443554   3.718   6.901   4.155  2.3915  1.9909 -2.6877
18399THY    CP343555   3.494   7.025   4.258  0.0661  0.5511  0.4848
18399THY    HP543556   3.401   7.028   4.316 -0.2751  0.0107  2.7681
18399THY    HP643557   3.474   6.951   4.180 -0.1086  1.2882 -0.2485
18399THY    HP743558   3.506   7.121   4.206 -2.1522  1.8326  1.5565
18399THY    CA343559   3.686   7.236   4.412 -0.0742  0.3235 -0.2007
18399THY    HA343560   3.672   7.280   4.313 -0.0682  0.4432  0.0704
18399THY    CA443561   3.724   7.322   4.514  0.5534 -0.4939 -0.2573
18399THY    HA443562   3.726   7.428   4.492 -0.0694 -1.5941 -0.4567
18399THY    CA543563   3.758   7.278   4.645 -0.1339  0.4980 -0.1938
18399THY    CM143564   3.809   7.374   4.743 -0.3465  0.1830 -0.0107
18399THY    HM143565   3.879   7.451   4.710  0.2675 -0.1129 -0.6817
18399THY    HM243566   3.841   7.330   4.838 -1.3236  0.8923  0.7612
18399THY    HM343567   3.725   7.437   4.772  0.3496  2.1062  0.0826
18399THY    CA643568   3.734   7.153   4.679  0.5256 -0.0796 -0.1980
18399THY    HA643569   3.763   7.119   4.778  1.6556 -0.5878 -0.7746
18400THY      O43570   8.875   1.492   3.002  0.0636  0.0262  0.1522
18400THY     HO43571   8.885   1.396   2.995 -1.5595  0.0546 -0.0452
18400THY    CA143572   8.899   1.516   3.132  0.1966  0.1437 -0.0663
18400THY    CA243573   8.862   1.636   3.192 -0.2391 -0.0301 -0.3461
18400THY    CP143574   8.780   1.745   3.120 -0.3174  0.2223 -0.0650
18400THY    HP143575   8.809   1.724   3.016  1.1742  0.1788  1.8961
18400THY    CP243576   8.821   1.892   3.144 -0.3482  0.6570  0.1606
18400THY    HP243577   8.805   1.916   3.250 -2.9227  0.0301  1.6418
18400THY    HP343578   8.752   1.954   3.086  1.4433 -0.6350  1.0257
18400THY    HP443579   8.918   1.918   3.099  0.0371  0.7091 -1.1160
18400THY    CP343580   8.629   1.734   3.136  0.2451  0.3683 -0.7571
18400THY    HP543581   8.606   1.727   3.243 -0.8265  0.5583  3.2235
18400THY    HP643582   8.594   1.643   3.086 -3.7978  1.8059 -0.2191
18400THY    HP743583   8.574   1.820   3.095  1.9547 -0.5806 -0.0692
18400THY    CA343584   8.892   1.655   3.333 -0.0997 -0.1350  0.3903
18400THY    HA343585   8.848   1.744   3.379  2.8005 -2.7207  3.4274
18400THY    CA443586   8.972   1.556   3.400 -0.6837  0.0961  0.2231
18400THY    HA443587   8.996   1.566   3.506 -1.2207  0.3059 -0.5223
18400THY    CA543588   9.005   1.441   3.339  0.0515  0.0447  0.0912
18400THY    CM143589   9.060   1.318   3.407 -0.8432 -0.6397 -0.5620
18400THY    HM143590   8.988   1.236   3.397 -1.0943 -1.3187 -0.2681
18400THY    HM243591   9.075   1.319   3.516  0.8401 -0.7313  3.7248
18400THY    HM343592   9.161   1.306   3.366  0.9921  2.5996  2.0795
18400THY    CA643593   8.969   1.418   3.204  0.1849 -1.1926  0.0302
18400THY    HA643594   9.006   1.328   3.157 -0.4660 -1.1057 -0.2824
18401THY      O43595   5.458   5.146   7.151  0.1598 -0.5714 -0.6183
18401THY     HO43596   5.472   5.175   7.243 -2.9605 -0.2034  0.0510
18401THY    CA143597   5.566   5.084   7.093  0.5358 -0.2365  0.7708
18401THY    CA243598   5.574   5.062   6.953  0.0991  0.6322  0.1388
18401THY    CP143599   5.459   5.092   6.857 -0.4791  0.5584 -0.3534
18401THY    HP143600   5.376   5.142   6.908 -1.5566 -2.2454  0.9272
18401THY    CP243601   5.403   4.970   6.787 -0.0774  0.6752 -0.4077
18401THY    HP243602   5.360   4.897   6.857 -1.3390  1.5914  1.1405
18401THY    HP343603   5.485   4.924   6.730  1.7347  0.6119  2.6470
18401THY    HP443604   5.323   4.994   6.716 -0.1250  0.8149 -0.1455
18401THY    CP343605   5.502   5.199   6.747 -0.1408  0.3887 -0.1920
18401THY    HP543606   5.583   5.157   6.687 -0.3270 -0.7410  0.9979
18401THY    HP643607   5.539   5.288   6.799  1.4397 -0.6852 -0.1912
18401THY    HP743608   5.426   5.231   6.675 -0.3268  1.1291  1.1113
18401THY    CA343609   5.691   4.995   6.911  0.9677  1.5835 -0.3020
18401THY    HA343610   5.700   4.974   6.805  0.3541  1.5834 -0.6076
18401THY    CA443611   5.790   4.947   6.998 -0.0207  0.3792 -0.0545
18401THY    HA443612   5.881   4.897   6.966 -0.9295  2.0568 -3.0604
18401THY    CA543613   5.771   4.975   7.132  0.0659  0.8201  0.5306
18401THY    CM143614   5.880   4.939   7.229 -0.4910  0.2472  0.3138
18401THY    HM143615   5.858   4.844   7.279 -2.8592 -0.5509  0.3706
18401THY    HM243616   5.894   5.021   7.301 -1.2494 -1.1525  1.7245
18401THY    HM343617   5.970   4.924   7.170 -0.6465  0.1446 -0.2423
18401THY    CA643618   5.653   5.034   7.182 -0.4253 -0.3821 -0.1909
18401THY    HA643619   5.638   5.042   7.290 -1.2748 -0.3357 -1.9729
18402THY      O43620   8.857   5.218   4.901 -0.2327 -0.7755 -0.9063
18402THY     HO43621   8.835   5.245   4.991  0.8250 -0.8333  0.1940
18402THY    CA143622   8.741   5.175   4.849  0.1177 -0.1787 -0.5030
18402THY    CA243623   8.719   5.154   4.713  0.6031 -0.4800  0.0700
18402THY    CP143624   8.829   5.169   4.608 -0.4967  0.7586 -0.2684
18402THY    HP143625   8.912   5.219   4.658  0.2121  0.3032 -0.9648
18402THY    CP243626   8.782   5.261   4.489  0.5511  0.1557 -0.3673
18402THY    HP243627   8.864   5.293   4.425  0.3653  0.8444  1.6104
18402THY    HP343628   8.727   5.348   4.526 -1.0662  0.9002 -1.6400
18402THY    HP443629   8.708   5.217   4.421  1.4133 -2.6117  2.1280
18402THY    CP343630   8.874   5.038   4.553 -0.3154  0.1166 -0.8696
18402THY    HP543631   8.955   5.066   4.484 -1.3642 -0.5148  0.7660
18402THY    HP643632   8.792   4.989   4.499 -1.9092  1.0557  0.6471
18402THY    HP743633   8.911   4.969   4.630  0.7891 -0.9665 -1.5388
18402THY    CA343634   8.590   5.102   4.674  0.0365 -0.4436  0.7066
18402THY    HA343635   8.572   5.079   4.569  2.0213 -1.2608  2.4696
18402THY    CA443636   8.494   5.081   4.777  0.3399  0.0359  0.1326
18402THY    HA443637   8.396   5.043   4.750 -0.0763  1.2482  0.2976
18402THY    CA543638   8.520   5.100   4.910 -0.3655 -0.4994 -0.1517
18402THY    CM143639   8.436   5.053   5.021 -0.3605  0.1160 -0.5726
18402THY    HM143640   8.386   5.136   5.073  2.9466  2.6871  0.0347
18402THY    HM243641   8.499   4.999   5.093  1.7684 -3.3474 -3.0741
18402THY    HM343642   8.356   4.988   4.982 -2.8633 -0.1656  2.4177
18402THY    CA643643   8.647   5.147   4.945  0.7659 -0.2981  0.2022
18402THY    HA643644   8.679   5.140   5.049  0.1254 -0.1631 -0.9116
18403THY      O43645   8.353   3.349   4.755 -0.7452  0.3249  0.2702
18403THY     HO43646   8.388   3.364   4.844 -0.6060  0.1309  1.1872
18403THY    CA143647   8.276   3.461   4.728  0.1851  0.1075 -0.9020
18403THY    CA243648   8.257   3.516   4.598 -0.1671 -0.1970 -0.3076
18403THY    CP143649   8.316   3.447   4.481 -0.1409  0.9715 -0.2426
18403THY    HP143650   8.383   3.378   4.533  2.0385  1.0795  1.8171
18403THY    CP243651   8.395   3.530   4.387  0.2065  0.1180 -0.4558
18403THY    HP243652   8.341   3.609   4.332  1.7947  0.5592  1.0073
18403THY    HP343653   8.444   3.464   4.314  0.1140  0.2884 -0.7115
18403THY    HP443654   8.467   3.592   4.442 -0.3708 -0.1336  0.4614
18403THY    CP343655   8.221   3.357   4.394 -0.6643 -0.5251 -0.3181
18403THY    HP543656   8.263   3.304   4.308 -1.4114 -1.6141  0.8088
18403THY    HP643657   8.137   3.418   4.357  1.1169 -1.5730  1.6445
18403THY    HP743658   8.189   3.283   4.468  0.1482  0.2645  0.1031
18403THY    CA343659   8.192   3.643   4.581 -0.7577 -0.8935 -0.4719
18403THY    HA343660   8.173   3.693   4.487  0.9144 -0.5347  0.9510
18403THY    CA443661   8.147   3.706   4.701  0.4291 -0.0009  0.1600
18403THY    HA443662   8.101   3.804   4.696  0.5856 -1.3066  0.1857
18403THY    CA543663   8.172   3.649   4.827 -0.0486 -0.3841  0.5106
18403THY    CM143664   8.125   3.721   4.941  0.8131  0.0959 -0.0690
18403THY    HM143665   8.212   3.737   5.006  1.8717 -1.5109  1.0759
18403THY    HM243666   8.047   3.671   5.000  0.7870 -0.7631 -1.0717
18403THY    HM343667   8.086   3.821   4.919 -2.8158  1.8040 -0.9402
18403THY    CA643668   8.234   3.530   4.842  0.3970  0.1951  0.3193
18403THY    HA643669   8.257   3.493   4.941  1.6665 -0.0062  0.5207
18404THY      O43670   4.069   1.149   3.461  0.7885  0.1890 -0.2898
18404THY     HO43671   4.129   1.191   3.524  0.0076 -0.0071  1.1844
18404THY    CA143672   4.066   1.223   3.350  0.3950 -0.1021  0.1088
18404THY    CA243673   3.976   1.196   3.245  0.0876 -0.1727  0.2243
18404THY    CP143674   3.883   1.083   3.257  0.0176  0.4543 -0.5344
18404THY    HP143675   3.872   1.043   3.359 -0.5371  1.5670  2.2557
18404THY    CP243676   3.942   0.968   3.172 -0.1955 -0.5501  0.0095
18404THY    HP243677   3.878   0.879   3.179 -0.9534  0.5935  0.6278
18404THY    HP343678   4.036   0.935   3.218  0.1265 -1.6752 -0.6791
18404THY    HP443679   3.953   0.999   3.067  1.6402 -0.6372 -0.7887
18404THY    CP343680   3.745   1.128   3.207 -0.0258 -0.4371  0.0274
18404THY    HP543681   3.746   1.146   3.099  1.8732 -0.1961  1.7511
18404THY    HP643682   3.712   1.217   3.262  1.7107 -1.6672  1.5180
18404THY    HP743683   3.669   1.049   3.214  1.2442 -0.0426 -1.1918
18404THY    CA343684   3.988   1.277   3.132 -0.4822 -0.5895  0.8258
18404THY    HA343685   3.924   1.258   3.047 -0.4266 -0.2904 -0.8872
18404THY    CA443686   4.063   1.397   3.130  0.2006  0.5489 -0.6123
18404THY    HA443687   4.056   1.474   3.054  0.3461 -0.2492 -1.3683
18404THY    CA543688   4.145   1.425   3.241  0.6307 -0.2639  0.2867
18404THY    CM143689   4.207   1.556   3.256  0.6149  0.2061 -0.3012
18404THY    HM143690   4.201   1.586   3.362  1.3573  0.7508 -1.9463
18404THY    HM243691   4.143   1.626   3.201  0.4391 -0.4187 -0.9520
18404THY    HM343692   4.309   1.557   3.215  0.0094 -1.3601  1.1590
18404THY    CA643693   4.140   1.338   3.351  0.0353  0.2327  0.7134
18404THY    HA643694   4.184   1.368   3.445  0.1770 -0.0826  1.5190
18405THY      O43695   8.140   5.903   7.326 -0.1658 -0.3511  0.3882
18405THY     HO43696   8.073   5.925   7.393  0.3548 -1.0616  5.0191
18405THY    CA143697   8.075   5.921   7.207  1.0829 -0.5837 -0.5001
18405THY    CA243698   8.026   5.810   7.136  0.5251  1.1528 -0.2276
18405THY    CP143699   8.074   5.669   7.161  0.7684  0.4006 -0.5863
18405THY    HP143700   8.123   5.667   7.259  1.5652  0.0760  1.1484
18405THY    CP243701   8.193   5.641   7.073  0.7523  0.0180 -0.0789
18405THY    HP243702   8.161   5.663   6.970 -2.3076  0.2893 -2.6042
18405THY    HP343703   8.225   5.537   7.088  0.4026 -0.2233 -0.2224
18405THY    HP443704   8.284   5.693   7.106  1.8612 -1.1003 -1.2308
18405THY    CP343705   7.956   5.569   7.153  0.2860 -0.2466 -0.0367
18405THY    HP543706   7.864   5.605   7.201  1.0335 -0.6957  2.7816
18405THY    HP643707   7.982   5.479   7.209 -0.8727 -0.3193 -0.4301
18405THY    HP743708   7.944   5.547   7.047  1.8171 -0.0110 -2.2640
18405THY    CA343709   7.948   5.837   7.020  0.2525  0.8299  0.1371
18405THY    HA343710   7.909   5.755   6.960 -3.3601 -2.0648  3.6013
18405THY    CA443711   7.912   5.967   6.986 -0.7809  0.4307 -0.5535
18405THY    HA443712   7.846   5.983   6.901  0.7325 -0.6879 -0.0071
18405THY    CA543713   7.950   6.074   7.059 -0.0780 -0.0213  0.9298
18405THY    CM143714   7.905   6.202   7.018  0.1037 -0.2856 -0.3176
18405THY    HM143715   7.982   6.256   6.961 -0.1853  1.2596  1.8667
18405THY    HM243716   7.861   6.252   7.105  0.4644  0.3447 -1.0728
18405THY    HM343717   7.822   6.189   6.947  1.3135 -1.3900 -2.3693
18405THY    CA643718   8.030   6.054   7.174 -0.4907 -0.2135  0.5048
18405THY    HA643719   8.059   6.136   7.240  0.4502 -0.7518  0.6219
18406THY      O43720   7.574   5.001   3.951 -0.1413 -0.0719  0.1100
18406THY     HO43721   7.503   5.027   3.890  0.5218 -0.5747  0.7882
18406THY    CA143722   7.525   4.887   3.999  0.4664  0.1452  0.7440
18406THY    CA243723   7.605   4.805   4.077 -0.0184  0.8033 -0.4237
18406THY    CP143724   7.747   4.848   4.120 -0.2465 -0.0193  0.3671
18406THY    HP143725   7.775   4.944   4.075 -0.1355  0.0019  0.3448
18406THY    CP243726   7.859   4.746   4.065 -0.0314  0.2771 -0.0222
18406THY    HP243727   7.843   4.645   4.102 -2.3262 -0.0093  0.1900
18406THY    HP343728   7.957   4.781   4.099 -0.1359  0.6768 -0.1206
18406THY    HP443729   7.853   4.755   3.956 -2.3601  0.3768  0.2681
18406THY    CP343730   7.761   4.865   4.270 -0.4432  0.9052 -0.3862
18406THY    HP543731   7.862   4.847   4.308  0.7868 -1.8797  0.1875
18406THY    HP643732   7.684   4.808   4.324 -2.3875 -0.7665  0.5186
18406THY    HP743733   7.735   4.971   4.283  0.8122 -1.0710  0.2062
18406THY    CA343734   7.554   4.683   4.129  0.2511  0.5620  0.0821
18406THY    HA343735   7.615   4.624   4.197  0.0842  2.0296  1.5081
18406THY    CA443736   7.426   4.643   4.081 -0.4860 -0.1941  0.5956
18406THY    HA443737   7.395   4.543   4.109  1.1999 -0.2426  0.0315
18406THY    CA543738   7.349   4.727   4.003 -0.3682  0.1593 -0.3340
18406THY    CM143739   7.221   4.694   3.951 -0.5595  0.0084 -0.0994
18406THY    HM143740   7.144   4.690   4.029  0.3635  0.9456 -0.0010
18406THY    HM243741   7.240   4.605   3.889  1.0397 -1.1342  0.9683
18406THY    HM343742   7.169   4.764   3.885 -0.1477 -1.9853 -1.5470
18406THY    CA643743   7.391   4.852   3.964 -0.4083  0.0047 -0.2719
18406THY    HA643744   7.326   4.914   3.902 -2.5802 -0.1214 -2.5297
18407THY      O43745   4.216   4.209   5.396  0.4570 -0.0918  0.4782
18407THY     HO43746   4.185   4.293   5.434  1.1609  2.6216 -0.3824
18407THY    CA143747   4.348   4.210   5.426 -0.1030 -0.1617  0.2077
18407THY    CA243748   4.443   4.145   5.341  0.2893  0.4750 -0.1211
18407THY    CP143749   4.396   4.068   5.212 -0.2212 -0.0978 -0.3314
18407THY    HP143750   4.290   4.088   5.197 -0.5183  1.7529 -0.3492
18407THY    CP243751   4.415   3.917   5.234  0.4411 -0.4957  0.6050
18407THY    HP243752   4.521   3.894   5.248  0.7793  0.4109  2.5355
18407THY    HP343753   4.383   3.860   5.146 -2.3484  0.8927 -0.1418
18407THY    HP443754   4.353   3.880   5.316 -1.9074 -1.2195  2.6274
18407THY    CP343755   4.483   4.117   5.088 -0.1501  0.1576 -0.3778
18407THY    HP543756   4.577   4.062   5.086  0.0406  0.9254 -0.0860
18407THY    HP643757   4.506   4.223   5.099 -2.4543  0.4069  0.1483
18407THY    HP743758   4.426   4.092   4.997  0.3896 -0.1337 -0.5513
18407THY    CA343759   4.582   4.163   5.373 -0.3925  0.9055  0.1384
18407THY    HA343760   4.666   4.128   5.313  0.5406  1.3635  1.5127
18407THY    CA443761   4.617   4.239   5.482 -0.0298 -0.7020 -0.0992
18407THY    HA443762   4.719   4.228   5.516 -0.0252 -0.7871 -0.3321
18407THY    CA543763   4.521   4.294   5.566 -0.6260  0.4590  0.7790
18407THY    CM143764   4.569   4.394   5.671 -0.0517  0.3438  0.2000
18407THY    HM143765   4.501   4.473   5.703  0.5014 -0.1600  0.9008
18407THY    HM243766   4.653   4.455   5.635  0.0675  3.0997  1.8189
18407THY    HM343767   4.600   4.338   5.760 -1.2017  0.4454 -0.3028
18407THY    CA643768   4.388   4.275   5.541  0.0932 -0.5371  0.1316
18407THY    HA643769   4.323   4.323   5.613  0.7182  0.0687  0.0874
18408THY      O43770   8.715   4.035   3.438  1.1571 -0.5543  0.6236
18408THY     HO43771   8.795   4.081   3.470  0.1453  2.0552  0.7816
18408THY    CA143772   8.696   4.057   3.306 -0.1041 -0.3749 -0.6775
18408THY    CA243773   8.598   3.993   3.224  0.0252  0.3227 -0.7019
18408THY    CP143774   8.504   3.910   3.285  0.5860 -0.3294  0.2559
18408THY    HP143775   8.504   3.939   3.391  1.9850  0.0956 -1.0832
18408THY    CP243776   8.555   3.763   3.292 -0.2128  0.2110 -0.0486
18408THY    HP243777   8.652   3.759   3.342 -0.4878  0.7602  0.0049
18408THY    HP343778   8.562   3.719   3.192  0.0975  0.6690 -1.0693
18408THY    HP443779   8.476   3.703   3.339 -3.0564 -2.5885  1.2025
18408THY    CP343780   8.350   3.929   3.242 -0.1138 -0.1394 -0.3756
18408THY    HP543781   8.289   3.871   3.313  2.8352  2.4813 -0.5268
18408THY    HP643782   8.337   3.892   3.140 -0.3331  0.1466 -1.0920
18408THY    HP743783   8.321   4.035   3.253 -0.6166 -2.0134 -0.2880
18408THY    CA343784   8.587   4.035   3.090  0.4503 -0.2605  0.3277
18408THY    HA343785   8.512   3.991   3.025  0.4564  1.3933 -2.3426
18408THY    CA443786   8.683   4.123   3.030  0.6626 -0.1075 -0.3945
18408THY    HA443787   8.673   4.155   2.926 -0.6920 -0.0710 -0.6228
18408THY    CA543788   8.779   4.183   3.116 -0.1119  0.7166 -0.2304
18408THY    CM143789   8.891   4.262   3.051  0.7706 -0.5111  0.4058
18408THY    HM143790   8.945   4.312   3.133 -2.1394 -0.0235  3.0656
18408THY    HM243791   8.853   4.350   2.998  0.8266 -1.4816 -0.1469
18408THY    HM343792   8.952   4.194   2.990 -0.9608  1.7785 -3.5244
18408THY    CA643793   8.783   4.149   3.254 -0.3891 -0.4510  0.8393
18408THY    HA643794   8.864   4.193   3.312  0.8913 -1.4060 -0.1554
18409THY      O43795   4.707   0.996   6.109  0.1797  0.6272 -0.4120
18409THY     HO43796   4.766   0.921   6.125  2.2029 -1.9536  0.4659
18409THY    CA143797   4.631   0.966   5.999 -0.1113  0.0209  0.1810
18409THY    CA243798   4.607   1.059   5.892 -0.2832  0.0344  0.3238
18409THY    CP143799   4.684   1.191   5.881  1.0953  0.3512 -0.2795
18409THY    HP143800   4.765   1.197   5.954  0.1705  1.2713  2.2008
18409THY    CP243801   4.590   1.317   5.911  0.5954  0.5216 -0.1763
18409THY    HP243802   4.527   1.356   5.830  1.8458 -0.2489  0.3124
18409THY    HP343803   4.664   1.398   5.914  2.1629 -1.5870 -1.3941
18409THY    HP443804   4.532   1.312   6.004  0.3060  0.3684  0.3304
18409THY    CP343805   4.733   1.210   5.748 -0.3742  0.3025  0.2393
18409THY    HP543806   4.660   1.237   5.671 -0.3689  0.4678  0.7419
18409THY    HP643807   4.807   1.135   5.721  0.8690  1.7620  0.8712
18409THY    HP743808   4.810   1.286   5.766  0.4472  1.3530 -0.7953
18409THY    CA343809   4.504   1.032   5.799  0.6836 -0.2618  0.7359
18409THY    HA343810   4.497   1.096   5.713  3.6796 -0.0807  1.4665
18409THY    CA443811   4.437   0.913   5.808  0.1097  0.2952  0.2281
18409THY    HA443812   4.378   0.875   5.725  0.0411  0.3835  0.1433
18409THY    CA543813   4.484   0.815   5.896 -0.1493  0.9066  0.3515
18409THY    CM143814   4.411   0.677   5.894 -0.0089  0.4326 -0.2484
18409THY    HM143815   4.330   0.681   5.820  1.2108 -0.9185  2.4777
18409THY    HM243816   4.373   0.665   5.996  1.1646  1.0133  0.7825
18409THY    HM343817   4.480   0.595   5.871 -0.4545 -1.2924 -0.1798
18409THY    CA643818   4.570   0.846   5.998 -0.3108  0.3159  0.3906
18409THY    HA643819   4.587   0.777   6.081  1.5655  2.4107  3.1436
18410THY      O43820   4.975   1.931   4.978  0.4044 -0.2220 -0.1612
18410THY     HO43821   4.931   2.016   4.963 -1.2447 -0.1381 -0.9570
18410THY    CA143822   4.922   1.832   4.903 -0.5100  0.3807 -0.1643
18410THY    CA243823   4.957   1.693   4.922  0.1930 -0.2023 -0.1866
18410THY    CP143824   5.047   1.649   5.029 -0.2957  0.9203  0.0620
18410THY    HP143825   5.114   1.729   5.063  1.3979 -1.2364 -0.3375
18410THY    CP243826   5.140   1.534   4.986  0.0329  0.4947 -0.2214
18410THY    HP243827   5.192   1.553   4.892 -1.3002 -0.3496 -0.6122
18410THY    HP343828   5.082   1.441   4.976  1.6885 -2.1978 -1.0775
18410THY    HP443829   5.220   1.511   5.057  1.6456 -1.3168 -0.4149
18410THY    CP343830   4.975   1.601   5.153  0.2736 -0.0492  0.6409
18410THY    HP543831   4.912   1.514   5.131  1.6828  2.3499 -1.0974
18410THY    HP643832   4.913   1.680   5.198 -0.7050  0.4054 -0.3666
18410THY    HP743833   5.043   1.578   5.235 -1.9927  1.9801  0.7892
18410THY    CA343834   4.889   1.599   4.847  0.8840 -0.2933 -0.2771
18410THY    HA343835   4.905   1.492   4.861 -0.9095 -1.8913 -0.7994
18410THY    CA443836   4.802   1.628   4.743  0.0096 -0.1210 -0.8186
18410THY    HA443837   4.754   1.547   4.689 -1.0713  0.8851 -0.8765
18410THY    CA543838   4.756   1.762   4.734  0.5529  0.3488  0.1961
18410THY    CM143839   4.638   1.795   4.645 -0.4426 -0.2211 -0.4351
18410THY    HM143840   4.558   1.817   4.717 -2.1444 -0.5759 -4.6005
18410THY    HM243841   4.600   1.713   4.583  1.5726 -1.3265 -0.6047
18410THY    HM343842   4.656   1.884   4.584 -5.0334 -0.8198  0.3046
18410THY    CA643843   4.824   1.865   4.810  0.1337 -0.3077 -0.2807
18410THY    HA643844   4.795   1.967   4.788 -0.4057 -0.7103 -0.5184
18411THY      O43845   0.547   5.511   5.072 -0.0553 -0.4648 -0.0041
18411THY     HO43846   0.554   5.598   5.029 -0.7225 -0.7155 -0.0662
18411THY    CA143847   0.666   5.499   5.132  0.8190  0.4220 -0.0284
18411THY    CA243848   0.705   5.378   5.197  0.5032  0.9949 -0.3735
18411THY    CP143849   0.603   5.263   5.210  0.5282  0.8131 -0.1353
18411THY    HP143850   0.513   5.266   5.148 -0.4271  2.0581 -1.8590
18411THY    CP243851   0.551   5.253   5.354  0.1546 -0.1530 -0.2610
18411THY    HP243852   0.640   5.241   5.417 -0.3859  0.5690 -0.5336
18411THY    HP343853   0.485   5.167   5.371  0.5346 -0.3029 -0.5837
18411THY    HP443854   0.505   5.343   5.396  2.4214  0.1035  0.8456
18411THY    CP343855   0.671   5.134   5.167  0.5422  0.0081 -0.4665
18411THY    HP543856   0.610   5.047   5.196  0.9054  0.1249 -0.6880
18411THY    HP643857   0.773   5.122   5.206  0.2889  1.0488  0.5991
18411THY    HP743858   0.671   5.136   5.058 -1.9236 -0.0251  0.5261
18411THY    CA343859   0.824   5.373   5.261  0.6013 -0.7880 -0.1530
18411THY    HA343860   0.842   5.300   5.339  1.0982  2.2102  2.9280
18411THY    CA443861   0.918   5.476   5.251  0.0309  0.0115 -0.7271
18411THY    HA443862   1.014   5.473   5.301  0.3936 -0.5143  0.9116
18411THY    CA543863   0.886   5.596   5.181  0.6128 -0.2133  1.0124
18411THY    CM143864   0.978   5.713   5.164  0.4785 -0.4816  0.0859
18411THY    HM143865   1.006   5.741   5.267 -0.1586  0.9664 -3.8603
18411THY    HM243866   0.935   5.802   5.118  1.0730  0.2967  0.8028
18411THY    HM343867   1.069   5.688   5.108 -0.0719 -0.8298 -1.2535
18411THY    CA643868   0.758   5.604   5.120  0.6042  0.9138 -0.5745
18411THY    HA643869   0.738   5.694   5.062 -1.3255 -0.1446 -1.6312
18412THY      O43870   4.989   4.378   2.481 -0.2937 -0.2221 -0.2673
18412THY     HO43871   5.016   4.446   2.417 -0.5520 -1.5696 -1.3812
18412THY    CA143872   5.029   4.259   2.431 -0.8185 -0.8915  0.0608
18412THY    CA243873   5.074   4.161   2.524 -0.2832  0.2265 -0.1407
18412THY    CP143874   5.086   4.191   2.667  0.0341 -0.4685  0.4533
18412THY    HP143875   5.018   4.272   2.697  0.5100 -0.7183  0.9599
18412THY    CP243876   5.232   4.252   2.692  0.7145  0.3398  1.1543
18412THY    HP243877   5.243   4.273   2.799 -2.7690  1.8702 -3.2411
18412THY    HP343878   5.252   4.335   2.624  0.3509 -0.5809  0.5027
18412THY    HP443879   5.304   4.173   2.669  0.5321  0.5975  0.9110
18412THY    CP343880   5.051   4.072   2.760 -0.1871  0.0424  0.0943
18412THY    HP543881   5.079   4.110   2.858 -1.4706  0.0040  1.2443
18412THY    HP643882   5.114   3.983   2.751 -1.8275  0.0930 -1.1276
18412THY    HP743883   4.947   4.036   2.755 -0.1747 -1.6411  0.1936
18412THY    CA343884   5.118   4.040   2.473 -0.7715 -0.2909  0.1324
18412THY    HA343885   5.158   3.956   2.529 -1.0130 -1.9881 -1.1768
18412THY    CA443886   5.123   4.025   2.325  0.1263  0.0675 -0.6773
18412THY    HA443887   5.167   3.936   2.280 -1.2837 -0.7130 -1.0030
18412THY    CA543888   5.075   4.129   2.247  0.1753 -0.1451  0.7036
18412THY    CM143889   5.083   4.122   2.096 -0.8324 -0.4756 -0.5247
18412THY    HM143890   4.993   4.063   2.070 -0.4437  0.0528 -1.3713
18412THY    HM243891   5.167   4.052   2.085  0.2921  2.5614  0.1982
18412THY    HM343892   5.097   4.217   2.043 -1.5158  2.2019  1.1607
18412THY    CA643893   5.024   4.244   2.303 -0.0373  0.3964 -0.3911
18412THY    HA643894   5.001   4.322   2.231  1.2312 -1.2663 -1.4651
18413THY      O43895   1.846   9.119   6.379  0.2457 -0.2179  0.1070
18413THY     HO43896   1.789   9.065   6.437 -1.3862  0.1156  2.0442
18413THY    CA143897   1.764   9.220   6.336  0.4421 -0.5989 -0.2790
18413THY    CA243898   1.751   9.253   6.202  0.2418  0.5045  0.2321
18413THY    CP143899   1.824   9.177   6.092  0.1249  0.6875  0.2184
18413THY    HP143900   1.915   9.136   6.138  1.1599 -2.0747 -0.7995
18413THY    CP243901   1.884   9.262   5.981  0.0437 -0.4807 -0.2806
18413THY    HP243902   1.935   9.355   6.009 -0.7763 -1.0922  0.3683
18413THY    HP343903   1.796   9.314   5.941 -1.2426  4.4796  1.9355
18413THY    HP443904   1.944   9.202   5.912 -1.2280 -0.3369 -1.7717
18413THY    CP343905   1.741   9.065   6.028 -0.4430 -0.3314 -0.6267
18413THY    HP543906   1.708   9.012   6.118  2.5722  1.1438 -0.1703
18413THY    HP643907   1.798   8.998   5.963  0.4749  0.6139 -0.7793
18413THY    HP743908   1.656   9.100   5.968  1.4353 -2.5414  0.4036
18413THY    CA343909   1.653   9.340   6.162  0.9975  0.2378  0.0242
18413THY    HA343910   1.634   9.356   6.056  0.9559 -0.1532 -2.2926
18413THY    CA443911   1.575   9.406   6.256  0.3024 -0.2517  0.1737
18413THY    HA443912   1.499   9.477   6.224 -0.9781 -0.1689 -1.1156
18413THY    CA543913   1.580   9.378   6.388  0.6723 -0.4924  0.2334
18413THY    CM143914   1.488   9.454   6.487  0.1199 -0.5760 -0.3214
18413THY    HM143915   1.417   9.512   6.427  1.0506 -2.1596 -0.7467
18413THY    HM243916   1.542   9.525   6.550  1.1984 -2.9928  1.1416
18413THY    HM343917   1.442   9.384   6.557  0.5554  0.5119  0.4535
18413THY    CA643918   1.676   9.282   6.430  0.0540 -0.1382  0.0900
18413THY    HA643919   1.678   9.263   6.537  0.2870  0.4359  3.0262
18414THY      O43920   4.455   8.064   2.536 -0.2520 -0.1661 -0.2532
18414THY     HO43921   4.449   7.972   2.568  4.5826 -1.3412 -1.2569
18414THY    CA143922   4.530   8.116   2.632 -0.0285 -0.1164  0.2814
18414THY    CA243923   4.524   8.248   2.675  0.3880  0.2951  0.3893
18414THY    CP143924   4.410   8.334   2.611  0.0556 -0.6341 -0.3853
18414THY    HP143925   4.395   8.296   2.510 -0.7196  0.1818 -2.3909
18414THY    CP243926   4.445   8.473   2.583 -0.3551 -0.0776 -0.7353
18414THY    HP243927   4.362   8.526   2.536 -0.8976 -0.0503 -1.5479
18414THY    HP343928   4.541   8.472   2.529  0.7771  1.8749 -1.5679
18414THY    HP443929   4.463   8.513   2.683 -0.3809  0.1018 -1.1751
18414THY    CP343930   4.292   8.311   2.697 -0.0257 -0.1479 -0.5681
18414THY    HP543931   4.221   8.395   2.696 -2.3382  1.5260 -2.3488
18414THY    HP643932   4.325   8.303   2.801  0.1614 -0.3064 -2.1895
18414THY    HP743933   4.231   8.223   2.672 -1.7520 -0.9773  0.8018
18414THY    CA343934   4.621   8.289   2.766  0.3526  0.4035 -0.0224
18414THY    HA343935   4.607   8.394   2.792 -1.6408  0.8855 -0.3682
18414THY    CA443936   4.715   8.203   2.818 -0.0334  0.3650 -0.8725
18414THY    HA443937   4.794   8.222   2.891 -0.0584  0.6935 -1.9725
18414THY    CA543938   4.716   8.072   2.775  0.2689  0.6913 -0.4178
18414THY    CM143939   4.811   7.974   2.824  0.4062 -0.3200  0.1048
18414THY    HM143940   4.856   8.001   2.920 -1.6437  0.8185 -0.3276
18414THY    HM243941   4.903   7.966   2.765 -0.1908 -0.9732 -3.0188
18414THY    HM343942   4.765   7.875   2.834 -0.4293  1.5256  0.6335
18414THY    CA643943   4.626   8.032   2.680 -0.5574 -0.0612 -0.2308
18414THY    HA643944   4.650   7.932   2.646 -1.8177  1.0749 -0.9435
18415THY      O43945   9.100   9.270   3.812  0.2658 -0.1779  0.3376
18415THY     HO43946   9.101   9.295   3.718  1.0469  0.7601  4.5099
18415THY    CA143947   8.998   9.174   3.821 -0.5218  0.3837  0.4731
18415THY    CA243948   8.961   9.119   3.944  0.7351  1.2912  0.7206
18415THY    CP143949   9.019   9.147   4.084 -0.6103 -0.2484 -0.1446
18415THY    HP143950   9.037   9.255   4.090  1.8631 -1.1764 -0.4385
18415THY    CP243951   9.162   9.082   4.113 -0.8429 -0.4702  0.2532
18415THY    HP243952   9.142   8.976   4.130 -0.7646 -0.4947  0.2342
18415THY    HP343953   9.203   9.118   4.208  0.1584 -0.0389 -1.9173
18415THY    HP443954   9.232   9.087   4.028  1.3891  1.1547 -1.4544
18415THY    CP343955   8.932   9.115   4.200 -0.6908  0.1901 -0.7449
18415THY    HP543956   8.978   9.163   4.286  0.8677  0.0742 -1.9497
18415THY    HP643957   8.931   9.008   4.223  0.0324 -1.7587 -1.2184
18415THY    HP743958   8.831   9.153   4.181 -0.0281  0.1085  1.0444
18415THY    CA343959   8.858   9.023   3.937 -0.0443  0.5143  0.2941
18415THY    HA343960   8.828   8.965   4.024  1.7887  1.8480  1.2179
18415THY    CA443961   8.811   8.975   3.815  0.0344 -0.4088 -0.9100
18415THY    HA443962   8.738   8.895   3.814  1.0778  0.0759 -1.8877
18415THY    CA543963   8.851   9.031   3.696  0.4345  0.3263  0.2174
18415THY    CM143964   8.790   8.990   3.566 -0.1423  0.2042  0.3518
18415THY    HM143965   8.847   8.923   3.501  0.7447 -1.8044  2.8590
18415THY    HM243966   8.804   9.083   3.509 -1.4923  0.4921  0.7547
18415THY    HM343967   8.680   8.988   3.562 -0.1320 -2.5725  1.0478
18415THY    CA643968   8.945   9.136   3.698 -0.0561  0.3101  0.3915
18415THY    HA643969   8.988   9.167   3.603 -1.8672 -0.6911  0.0271
18416THY      O43970   3.111   5.126   3.715 -0.7442  0.3210 -0.0351
18416THY     HO43971   3.022   5.126   3.753 -1.1259 -0.5128  1.0934
18416THY    CA143972   3.149   4.998   3.692 -0.4527 -0.2387 -0.6967
18416THY    CA243973   3.281   4.960   3.680 -0.5018 -0.0997  0.5615
18416THY    CP143974   3.389   5.065   3.679 -0.4684  0.0184  0.2116
18416THY    HP143975   3.351   5.168   3.678 -0.9464 -0.3099  0.0374
18416THY    CP243976   3.483   5.049   3.554 -0.3440 -0.1877 -0.0281
18416THY    HP243977   3.561   5.124   3.571  0.0827  0.4615 -0.6015
18416THY    HP343978   3.422   5.085   3.471  0.8977 -0.4416  1.5584
18416THY    HP443979   3.531   4.952   3.534  1.0688 -1.9659  1.0010
18416THY    CP343980   3.469   5.049   3.808  0.0603  0.0483 -0.0104
18416THY    HP543981   3.517   4.951   3.822 -0.9551  0.0506 -0.5152
18416THY    HP643982   3.407   5.073   3.895 -0.1883  0.3898 -1.7730
18416THY    HP743983   3.545   5.127   3.819  1.0991  4.2308 -1.3765
18416THY    CA343984   3.308   4.822   3.674 -0.1247  0.0453  0.5064
18416THY    HA343985   3.410   4.784   3.680  0.5972  1.0040  2.4264
18416THY    CA443986   3.193   4.737   3.666  0.2564  0.8157  0.7862
18416THY    HA443987   3.201   4.628   3.660 -1.9697 -2.6634  0.6691
18416THY    CA543988   3.066   4.779   3.673  0.0363 -0.4860 -0.0410
18416THY    CM143989   2.946   4.681   3.674  0.4357  0.4326 -0.1108
18416THY    HM143990   2.849   4.726   3.696  0.3303  0.2516 -0.2477
18416THY    HM243991   2.961   4.599   3.745  1.4961 -0.7633 -0.9995
18416THY    HM343992   2.939   4.642   3.572  0.1156 -0.3633  1.9177
18416THY    CA643993   3.044   4.913   3.690 -0.2786  0.0748  0.1559
18416THY    HA643994   2.941   4.946   3.692 -0.2252 -0.9207  0.4031
18417THY      O43995   7.306   6.911   2.665 -0.3327 -0.8626 -0.1552
18417THY     HO43996   7.268   6.934   2.579 -3.3058 -0.7974 -3.8236
18417THY    CA143997   7.211   6.916   2.765  0.3036  0.1884  0.6581
18417THY    CA243998   7.247   6.904   2.900  0.1994  0.4714 -0.1149
18417THY    CP143999   7.393   6.868   2.933  0.2032 -0.4288  0.0270
18417THY    HP144000   7.437   6.801   2.859  0.6254 -0.1946  0.0440
18417THY    CP244001   7.418   6.803   3.078 -0.6934  0.3108 -0.3533
18417THY    HP244002   7.404   6.883   3.152  0.0538  0.5931 -0.4803
18417THY    HP344003   7.522   6.770   3.089  0.5596 -1.8074  2.4919
18417THY    HP444004   7.348   6.725   3.110  1.3560  4.3614 -0.8133
18417THY    CP344005   7.475   7.004   2.935  0.0695 -0.2854  0.1683
18417THY    HP544006   7.464   7.072   2.850 -1.3787  0.8669  1.4634
18417THY    HP644007   7.581   6.986   2.957 -0.3627  1.2571 -0.6267
18417THY    HP744008   7.434   7.062   3.019  1.5051  2.6471 -2.7570
18417THY    CA344009   7.154   6.929   3.003  0.2841  0.6854 -0.3368
18417THY    HA344010   7.179   6.933   3.108 -0.2551  0.7853  0.6124
18417THY    CA444011   7.023   6.961   2.964  0.0478 -0.0980 -1.0691
18417THY    HA444012   6.954   6.982   3.045 -0.6343 -1.3600  2.2234
18417THY    CA544013   6.978   6.961   2.830  0.2982  0.1637  0.1167
18417THY    CM144014   6.838   7.007   2.804 -0.3021 -0.0215  0.3333
18417THY    HM144015   6.792   7.068   2.883 -0.4288  0.6257 -0.5778
18417THY    HM244016   6.763   6.928   2.787  0.4080 -0.8462 -0.1776
18417THY    HM344017   6.847   7.075   2.718 -2.5061  1.6637  2.9499
18417THY    CA644018   7.076   6.940   2.735 -0.6235 -0.0610 -0.5487
18417THY    HA644019   7.046   6.957   2.633 -1.0402  0.2458  0.6508
18418THY      O44020   2.153   5.602   1.788  0.3673  0.1669  0.8306
18418THY     HO44021   2.224   5.565   1.844 -2.2208  2.7748 -0.6345
18418THY    CA144022   2.070   5.667   1.866  0.8326  0.0264  0.1998
18418THY    CA244023   1.937   5.679   1.826 -1.0238  0.5886  0.4980
18418THY    CP144024   1.884   5.611   1.700 -0.0559  0.2242  0.6230
18418THY    HP144025   1.962   5.594   1.625 -0.9298 -0.3020 -1.3911
18418THY    CP244026   1.772   5.694   1.625  0.0927 -0.0080 -0.0564
18418THY    HP244027   1.733   5.635   1.541  0.8292  1.3380 -2.6142
18418THY    HP344028   1.813   5.783   1.574 -0.5674  0.5189  0.5635
18418THY    HP444029   1.693   5.739   1.686  1.4910  0.8236  1.3720
18418THY    CP344030   1.832   5.472   1.734  0.3040  0.7321 -0.5016
18418THY    HP544031   1.904   5.407   1.787  0.9807 -0.6132 -0.8917
18418THY    HP644032   1.812   5.429   1.635  0.6393  0.3391  0.2296
18418THY    HP744033   1.736   5.469   1.787 -0.1088 -0.0240 -1.0904
18418THY    CA344034   1.855   5.744   1.922 -0.0069  0.3303 -0.1217
18418THY    HA344035   1.749   5.762   1.903 -0.1114  0.7924 -0.2401
18418THY    CA444036   1.911   5.812   2.033 -0.1172  0.1675  0.4405
18418THY    HA444037   1.837   5.855   2.100 -2.0391  0.4429 -2.9200
18418THY    CA544038   2.052   5.806   2.068 -0.5159  1.3184 -0.1664
18418THY    CM144039   2.111   5.876   2.187  0.3732  0.1545 -0.4753
18418THY    HM144040   2.133   5.981   2.165  0.3710 -0.1306 -0.5340
18418THY    HM244041   2.200   5.832   2.232  0.0795  2.8543  1.4228
18418THY    HM344042   2.046   5.881   2.275 -0.2025 -0.3154  0.9979
18418THY    CA644043   2.126   5.730   1.973 -0.4599  0.4326 -0.3890
18418THY    HA644044   2.232   5.711   1.992 -0.1416 -0.6591  0.1933
18419THY      O44045   8.271   4.484   4.897  0.6506  0.1472 -0.4091
18419THY     HO44046   8.235   4.573   4.913 -0.5984 -0.9736 -0.6706
18419THY    CA144047   8.406   4.494   4.904 -0.0557  0.0146 -0.3297
18419THY    CA244048   8.494   4.378   4.894 -0.8506  0.0851 -0.6712
18419THY    CP144049   8.428   4.246   4.864 -0.2580 -0.8322  0.0201
18419THY    HP144050   8.319   4.256   4.866 -0.1999  1.9901  1.3435
18419THY    CP244051   8.455   4.150   4.984 -0.7617  0.2566 -0.2940
18419THY    HP244052   8.560   4.132   5.007 -0.0394 -0.3211  2.7218
18419THY    HP344053   8.412   4.050   4.966 -0.0281  3.1207 -1.2317
18419THY    HP444054   8.408   4.186   5.076  0.6241  0.5874  0.7167
18419THY    CP344055   8.490   4.172   4.736  0.2236  0.0413  0.3274
18419THY    HP544056   8.476   4.235   4.647 -3.0047  0.4682  0.4038
18419THY    HP644057   8.446   4.073   4.722  1.1017 -0.0502 -0.0574
18419THY    HP744058   8.595   4.146   4.751 -0.6432  2.9623 -1.9375
18419THY    CA344059   8.633   4.398   4.906  0.1716  0.5811 -0.4332
18419THY    HA344060   8.693   4.308   4.897  0.9703 -2.0081  0.2799
18419THY    CA444061   8.679   4.527   4.932  0.2386  0.1949  0.0692
18419THY    HA444062   8.784   4.530   4.959  0.0333  1.0778 -0.1409
18419THY    CA544063   8.595   4.638   4.944  0.4235  0.0955 -0.2354
18419THY    CM144064   8.654   4.760   4.991 -1.6101 -0.4287  0.3833
18419THY    HM144065   8.677   4.830   4.910  0.8442  0.2625  0.4895
18419THY    HM244066   8.748   4.739   5.044 -2.6234  0.8137 -1.2461
18419THY    HM344067   8.592   4.811   5.065 -2.0724  0.2385 -1.0930
18419THY    CA644068   8.460   4.617   4.935  1.0380  0.0842  0.1613
18419THY    HA644069   8.388   4.698   4.939 -0.5803  2.0730 -1.2536
18420THY      O44070   6.457   5.931   2.252 -0.3937  0.0229  0.3580
18420THY     HO44071   6.393   5.880   2.305 -1.3411 -1.2708  0.1495
18420THY    CA144072   6.570   5.864   2.252 -0.7271  1.1344 -1.1308
18420THY    CA244073   6.698   5.923   2.270 -0.2534 -0.4926  0.7417
18420THY    CP144074   6.713   6.074   2.284  0.0612 -0.2608 -0.6205
18420THY    HP144075   6.632   6.117   2.224  0.8289 -0.8662  0.0305
18420THY    CP244076   6.824   6.133   2.214 -0.3398  0.5771  0.1488
18420THY    HP244077   6.912   6.113   2.277 -0.7753  0.8463 -0.9638
18420THY    HP344078   6.821   6.243   2.213  2.6472 -0.8904  0.3142
18420THY    HP444079   6.832   6.096   2.111 -0.0432 -0.1521  2.1079
18420THY    CP344080   6.703   6.136   2.424  0.1991  0.4136 -0.5467
18420THY    HP544081   6.714   6.244   2.415  2.5731  1.6850 -0.5997
18420THY    HP644082   6.780   6.093   2.490  0.6300  0.5659  0.4443
18420THY    HP744083   6.607   6.110   2.470  1.2610  2.7203 -0.6880
18420THY    CA344084   6.814   5.835   2.251  0.2866  0.1122  0.5477
18420THY    HA344085   6.917   5.869   2.250 -0.2407 -2.4750  2.3746
18420THY    CA444086   6.791   5.698   2.235 -0.0212  0.0637 -0.2410
18420THY    HA444087   6.875   5.633   2.215  0.5220 -1.0618  0.7646
18420THY    CA544088   6.665   5.644   2.236 -0.3445 -0.2038  0.4574
18420THY    CM144089   6.651   5.497   2.211  0.4409 -0.2467  0.1876
18420THY    HM144090   6.746   5.443   2.217  0.8550 -0.8489  0.8356
18420THY    HM244091   6.617   5.477   2.109  1.3212 -0.5378  0.1230
18420THY    HM344092   6.579   5.449   2.279 -0.3326 -0.4082  1.0925
18420THY    CA644093   6.558   5.728   2.241  0.2649  0.7996  0.5319
18420THY    HA644094   6.467   5.673   2.219  2.2405 -0.5150 -2.4851
18421THY      O44095   1.644   1.102   3.973 -0.2590  0.1050  0.1428
18421THY     HO44096   1.637   1.082   4.068 -3.9037 -0.0343  0.0652
18421THY    CA144097   1.752   1.185   3.955 -0.5120 -0.0741  1.0174
18421THY    CA244098   1.795   1.238   3.831  0.0102 -0.6344  0.7773
18421THY    CP144099   1.699   1.231   3.705 -0.3334  0.0457 -0.0969
18421THY    HP144100   1.605   1.185   3.738 -0.6230  0.2934  0.6547
18421THY    CP244101   1.771   1.147   3.602  0.2785  0.0388 -0.1512
18421THY    HP244102   1.845   1.214   3.558 -0.3503 -0.1343  0.4460
18421THY    HP344103   1.717   1.118   3.511  2.3612 -0.6740 -2.0314
18421THY    HP444104   1.811   1.062   3.658  0.3569 -1.2729 -1.0089
18421THY    CP344105   1.667   1.363   3.636  0.3065 -0.3774  0.2999
18421THY    HP544106   1.636   1.344   3.533  2.6853 -0.6834 -2.5258
18421THY    HP644107   1.753   1.430   3.649  1.9176 -1.0906 -1.5539
18421THY    HP744108   1.578   1.414   3.677 -0.0493  1.1250 -1.4211
18421THY    CA344109   1.921   1.306   3.823 -0.6661 -0.4989  0.1073
18421THY    HA344110   1.958   1.351   3.731  1.6288  1.5994  2.8604
18421THY    CA444111   1.996   1.320   3.947  0.0344 -0.1546  0.1826
18421THY    HA444112   2.089   1.375   3.958  0.0666  1.7274 -0.1815
18421THY    CA544113   1.956   1.251   4.063  0.1756 -0.0504 -0.3070
18421THY    CM144114   2.025   1.250   4.188 -0.3797 -0.1823  0.0441
18421THY    HM144115   2.120   1.306   4.190 -0.6035 -0.0943  0.4252
18421THY    HM244116   2.044   1.151   4.231  1.1224 -0.2369  0.2755
18421THY    HM344117   1.976   1.301   4.272 -0.5283 -0.4885  0.4063
18421THY    CA644118   1.837   1.180   4.063  0.4907 -0.4012 -0.4607
18421THY    HA644119   1.800   1.129   4.151 -2.7418 -1.7511 -0.6970
18422THY      O44120   7.575   0.631   7.124  0.5197  0.1666 -0.4610
18422THY     HO44121   7.577   0.573   7.202  0.0319  0.5421  0.0172
18422THY    CA144122   7.537   0.554   7.015 -1.0420 -0.0079 -0.2783
18422THY    CA244123   7.616   0.554   6.896  0.1582 -0.4032  0.0205
18422THY    CP144124   7.717   0.660   6.865 -0.3050  0.2661 -0.4378
18422THY    HP144125   7.735   0.716   6.958 -4.7971  1.4978 -0.5989
18422THY    CP244126   7.653   0.757   6.770 -0.3514  0.2853  0.2497
18422THY    HP244127   7.557   0.793   6.808 -2.2546 -2.6277 -1.4144
18422THY    HP344128   7.641   0.701   6.677  0.8634  0.7923 -0.9321
18422THY    HP444129   7.715   0.846   6.757 -2.5001  2.3800  2.1930
18422THY    CP344130   7.856   0.615   6.808  0.2943  0.4888  0.6376
18422THY    HP544131   7.932   0.694   6.810 -0.5582  4.0804  1.5776
18422THY    HP644132   7.844   0.570   6.709 -0.2006  0.8726 -0.0912
18422THY    HP744133   7.901   0.529   6.859  2.1176 -0.4910  0.9580
18422THY    CA344134   7.590   0.459   6.795  0.1267  0.1630  0.2497
18422THY    HA344135   7.633   0.461   6.696 -1.8040 -0.7419 -0.9480
18422THY    CA444136   7.499   0.363   6.815 -0.1765 -0.0637 -0.0641
18422THY    HA444137   7.488   0.291   6.735  2.0237 -0.1060 -0.4178
18422THY    CA544138   7.411   0.363   6.929 -0.5144  0.0402  0.6757
18422THY    CM144139   7.300   0.262   6.936  0.3058  0.4446  0.2095
18422THY    HM144140   7.343   0.162   6.918 -1.6117  1.0903 -0.7754
18422THY    HM244141   7.218   0.279   6.865 -1.7341  2.0573 -2.2603
18422THY    HM344142   7.256   0.259   7.036 -2.4846 -0.6725  0.4262
18422THY    CA644143   7.435   0.463   7.028  0.2846 -1.0428 -0.2791
18422THY    HA644144   7.381   0.454   7.122  3.0093  0.5377 -1.4246
18423THY      O44145   3.699   5.100   2.689 -0.2618  0.0624  0.3894
18423THY     HO44146   3.743   5.048   2.619 -1.0311 -0.7628  0.8264
18423THY    CA144147   3.800   5.123   2.782  0.5625  0.2515 -0.6242
18423THY    CA244148   3.813   5.250   2.849 -0.0426 -0.9578  0.4295
18423THY    CP144149   3.703   5.362   2.836  0.5638  0.1691  0.4720
18423THY    HP144150   3.627   5.315   2.771 -0.6713  1.7472  0.1696
18423THY    CP244151   3.757   5.474   2.751  0.3368 -0.1256 -0.7128
18423THY    HP244152   3.689   5.560   2.750  0.8503 -0.3505 -0.2988
18423THY    HP344153   3.768   5.440   2.647 -1.4018  0.1860 -2.3435
18423THY    HP444154   3.854   5.496   2.798  0.4794  1.4016 -4.0182
18423THY    CP344155   3.637   5.397   2.965  0.6058  1.0059 -0.2806
18423THY    HP544156   3.599   5.310   3.019 -0.1743  0.1725 -0.4852
18423THY    HP644157   3.552   5.466   2.961 -0.0561  2.3899 -0.9749
18423THY    HP744158   3.707   5.445   3.033  0.0248  0.3755  1.5310
18423THY    CA344159   3.924   5.269   2.933 -0.3563 -0.3425  0.0956
18423THY    HA344160   3.942   5.368   2.974  1.6310 -2.3314  0.6327
18423THY    CA444161   4.016   5.165   2.941 -0.7166 -0.1648  0.6351
18423THY    HA444162   4.109   5.176   2.997 -0.8027  0.0313  0.3819
18423THY    CA544163   4.006   5.047   2.873 -0.6427 -0.1799 -0.5543
18423THY    CM144164   4.100   4.928   2.896 -0.2156 -0.6553 -0.2142
18423THY    HM144165   4.042   4.837   2.883 -1.9565  1.0842  0.5917
18423THY    HM244166   4.151   4.918   2.992  0.9421 -1.2935 -0.7217
18423THY    HM344167   4.186   4.927   2.827  1.5238  1.3414  1.0881
18423THY    CA644168   3.899   5.028   2.789 -0.0944 -0.3685  0.1436
18423THY    HA644169   3.881   4.930   2.747 -1.4973  1.1454 -0.2816
18424THY      O44170   1.661   6.618   2.401 -0.6622  0.3232  0.9585
18424THY     HO44171   1.719   6.621   2.478  0.9761 -0.8498  0.9287
18424THY    CA144172   1.545   6.686   2.424  0.3324  0.4331  0.4536
18424THY    CA244173   1.415   6.620   2.406  0.2054 -0.6329 -0.8873
18424THY    CP144174   1.405   6.485   2.338  0.0169  0.5928  0.6051
18424THY    HP144175   1.494   6.437   2.381  0.7900 -0.2174  1.2577
18424THY    CP244176   1.429   6.503   2.182 -0.1131  1.1676 -0.5359
18424THY    HP244177   1.332   6.496   2.131  0.7248 -0.4017 -1.4086
18424THY    HP344178   1.476   6.410   2.148 -0.6031  3.2238 -1.5945
18424THY    HP444179   1.491   6.590   2.157 -1.1369  0.7533  0.0810
18424THY    CP344180   1.272   6.403   2.356  0.0600  0.3348 -0.0022
18424THY    HP544181   1.276   6.306   2.307  1.0366  0.4470 -0.0294
18424THY    HP644182   1.191   6.455   2.303  0.7275  0.7083  1.4732
18424THY    HP744183   1.260   6.387   2.464  0.9018  0.1265 -2.3371
18424THY    CA344184   1.300   6.696   2.441  0.3583  0.2180 -0.1980
18424THY    HA344185   1.201   6.652   2.438  0.4413  1.8453 -0.5875
18424THY    CA444186   1.317   6.820   2.491  0.5453  0.5265 -0.7772
18424THY    HA444187   1.230   6.878   2.520  1.5966 -0.0986  1.2182
18424THY    CA544188   1.440   6.888   2.504 -0.3832  0.4563  0.2768
18424THY    CM144189   1.453   7.028   2.558  0.2096 -0.8270  0.4489
18424THY    HM144190   1.467   7.094   2.472 -0.3713  0.6878  2.6527
18424THY    HM244191   1.544   7.031   2.619 -1.0712  1.3965 -1.7098
18424THY    HM344192   1.370   7.060   2.622  1.1907  0.7447 -0.0506
18424THY    CA644193   1.554   6.817   2.468  0.4887  1.0087  0.5426
18424THY    HA644194   1.653   6.861   2.475  1.6183 -0.2355 -1.6736
18425THY      O44195   1.177   7.314   1.687 -0.1816 -0.0122  0.6697
18425THY     HO44196   1.263   7.268   1.676  0.1668  2.0426  0.7516
18425THY    CA144197   1.203   7.443   1.725 -0.2163  0.6253 -0.3047
18425THY    CA244198   1.099   7.523   1.767  0.0927  0.2286 -0.2304
18425THY    CP144199   0.954   7.473   1.768  0.4637  0.1191  0.2282
18425THY    HP144200   0.934   7.380   1.714  0.5610  0.5815 -0.0636
18425THY    CP244201   0.857   7.582   1.726  0.0394  0.7143  0.1425
18425THY    HP244202   0.868   7.583   1.617  2.5824  0.9075 -0.2350
18425THY    HP344203   0.858   7.676   1.784  0.3496  2.4889 -0.9104
18425THY    HP444204   0.758   7.536   1.731  0.3187 -0.2565 -0.5954
18425THY    CP344205   0.920   7.431   1.911  0.1176  0.2665 -0.3723
18425THY    HP544206   1.004   7.377   1.954  2.1480 -3.0004 -0.0453
18425THY    HP644207   0.837   7.359   1.912 -0.2172  3.1001 -0.0554
18425THY    HP744208   0.901   7.521   1.971  0.3298  0.8657 -0.7241
18425THY    CA344209   1.128   7.646   1.831  0.2014  0.6488 -0.3252
18425THY    HA344210   1.054   7.691   1.897  0.4221 -0.1190  1.2057
18425THY    CA444211   1.258   7.690   1.828  0.0855 -1.0244  0.0397
18425THY    HA444212   1.288   7.783   1.876  2.6531  1.6695 -1.9773
18425THY    CA544213   1.360   7.612   1.774 -0.8017  0.0645  0.5568
18425THY    CM144214   1.501   7.665   1.786 -0.3537 -0.3615  0.5512
18425THY    HM144215   1.567   7.635   1.704  2.1495  1.5816  0.3976
18425THY    HM244216   1.530   7.606   1.874 -1.7118 -0.6106 -0.5490
18425THY    HM344217   1.502   7.773   1.802 -3.4470  3.2029  0.2274
18425THY    CA644218   1.334   7.483   1.729  0.1955 -0.1414  0.1001
18425THY    HA644219   1.409   7.422   1.680 -0.0623  0.2330 -0.5303
18426THY      O44220   0.717   5.654   7.412  0.1804  0.1918 -0.2321
18426THY     HO44221   0.741   5.629   7.321  2.1984  1.2770 -2.7271
18426THY    CA144222   0.695   5.787   7.415  1.2617 -0.1014  0.4321
18426THY    CA244223   0.664   5.853   7.528 -0.2529  0.1114  0.0755
18426THY    CP144224   0.667   5.788   7.668 -0.5216  1.3325 -0.4189
18426THY    HP144225   0.733   5.701   7.662  0.0504 -0.0217  0.0907
18426THY    CP244226   0.536   5.748   7.722 -0.0309 -0.2773  0.8391
18426THY    HP244227   0.491   5.671   7.658 -0.9397  2.5352 -1.1051
18426THY    HP344228   0.474   5.838   7.735  1.9249 -1.6781  2.4709
18426THY    HP444229   0.556   5.711   7.823 -0.8494 -1.1613 -2.2799
18426THY    CP344230   0.731   5.886   7.773  0.2900 -0.3748  0.8531
18426THY    HP544231   0.840   5.880   7.759  0.2770 -0.5422  1.0096
18426THY    HP644232   0.708   5.859   7.877 -0.1928 -0.0485  2.4251
18426THY    HP744233   0.685   5.985   7.772 -1.1681 -1.2692  0.1982
18426THY    CA344234   0.615   5.988   7.508  0.2385  0.4160  0.0512
18426THY    HA344235   0.570   6.037   7.594 -1.5867 -0.4994  0.0412
18426THY    CA444236   0.628   6.054   7.383 -0.2121 -0.2129  0.4791
18426THY    HA444237   0.606   6.160   7.372  2.2312  1.0465  1.2046
18426THY    CA544238   0.670   5.982   7.274 -0.1146 -0.4222  0.2203
18426THY    CM144239   0.662   6.037   7.132  0.7967 -0.0811  0.4974
18426THY    HM144240   0.750   5.993   7.084 -0.8571 -3.8200  0.7930
18426THY    HM244241   0.685   6.144   7.140  0.7113 -1.3856  0.6314
18426THY    HM344242   0.573   6.015   7.072  0.1204  1.3471 -0.8246
18426THY    CA644243   0.696   5.849   7.290 -0.6814 -0.5264 -0.1721
18426THY    HA644244   0.715   5.790   7.201  0.8690 -0.6898  0.5163
18427THY      O44245   7.466   2.584   3.787 -0.3240 -0.2107  0.8874
18427THY     HO44246   7.407   2.560   3.861 -0.0163 -0.3625 -0.4339
18427THY    CA144247   7.558   2.488   3.767  0.0514 -0.7908  0.7538
18427THY    CA244248   7.635   2.474   3.645 -0.0031  0.2304 -0.1880
18427THY    CP144249   7.617   2.572   3.531 -0.8351  0.2720  0.0127
18427THY    HP144250   7.521   2.624   3.543  0.4879  0.1385  2.6826
18427THY    CP244251   7.611   2.508   3.394 -0.1221 -0.0162 -0.6625
18427THY    HP244252   7.522   2.445   3.399 -0.0521  2.0072 -0.6404
18427THY    HP344253   7.702   2.456   3.360 -0.5421 -1.0287 -0.7669
18427THY    HP444254   7.592   2.588   3.321 -1.4092  0.0814 -0.8726
18427THY    CP344255   7.728   2.689   3.523  0.5069 -0.5502  0.2471
18427THY    HP544256   7.686   2.776   3.471 -0.0967  0.2871  0.4633
18427THY    HP644257   7.820   2.651   3.477  0.0151 -0.8901 -0.5600
18427THY    HP744258   7.754   2.722   3.624 -1.6140  0.3163 -0.6234
18427THY    CA344259   7.713   2.365   3.634 -0.4683  0.6592  0.2513
18427THY    HA344260   7.758   2.340   3.538 -1.1169  0.6752 -1.0549
18427THY    CA444261   7.740   2.277   3.743  0.2069  0.9441  0.3403
18427THY    HA444262   7.807   2.192   3.733  1.0178 -0.0469  1.0599
18427THY    CA544263   7.670   2.295   3.862 -0.4454  0.2749  0.3450
18427THY    CM144264   7.670   2.194   3.982  0.2798  0.6478  0.0165
18427THY    HM144265   7.643   2.098   3.937 -0.0472  2.6828 -0.9029
18427THY    HM244266   7.601   2.230   4.059  1.1148  1.3606  0.1280
18427THY    HM344267   7.769   2.166   4.021  0.3592  0.1036 -0.4773
18427THY    CA644268   7.576   2.394   3.871 -0.0680 -0.6002 -0.0200
18427THY    HA644269   7.519   2.406   3.962 -1.2984 -1.5729  2.3014
18428THY      O44270   6.888   1.288   7.562 -0.3647  0.2520 -0.0172
18428THY     HO44271   6.904   1.333   7.646  0.3802 -0.4651  1.1118
18428THY    CA144272   6.986   1.340   7.482 -0.1665  0.4171  0.3520
18428THY    CA244273   7.098   1.264   7.433  0.2930 -1.0656 -0.1919
18428THY    CP144274   7.106   1.113   7.484  0.0451  0.1987  1.0213
18428THY    HP144275   7.016   1.079   7.537 -0.3863 -1.0265  0.1692
18428THY    CP244276   7.228   1.109   7.581  0.5122 -0.2696 -0.5031
18428THY    HP244277   7.217   1.174   7.669 -1.3861 -0.3499 -0.6538
18428THY    HP344278   7.317   1.147   7.531  1.1905  0.3699 -1.2059
18428THY    HP444279   7.249   1.009   7.620  2.7249  0.8087  0.3207
18428THY    CP344280   7.137   1.021   7.366  0.0690  0.2109 -0.6649
18428THY    HP544281   7.055   1.023   7.293 -0.8465  1.1412  2.9556
18428THY    HP644282   7.146   0.919   7.406  2.6434  1.1173 -0.1555
18428THY    HP744283   7.237   1.037   7.326  0.9973  2.6664  0.1782
18428THY    CA344284   7.194   1.331   7.352  0.0955  0.3653 -0.5733
18428THY    HA344285   7.277   1.271   7.315 -0.1302  0.2763 -0.8301
18428THY    CA444286   7.176   1.465   7.313  0.2363  0.5974  0.2205
18428THY    HA444287   7.246   1.517   7.247 -1.5855 -0.1049  1.9443
18428THY    CA544288   7.067   1.540   7.360 -0.5120  0.8342  0.3052
18428THY    CM144289   7.043   1.674   7.315  0.5873 -0.5021 -1.0455
18428THY    HM144290   6.986   1.726   7.393  1.5701 -1.0566  0.9920
18428THY    HM244291   6.986   1.676   7.221 -0.6620  0.0847 -3.9064
18428THY    HM344292   7.133   1.736   7.310 -0.4433  2.3590  0.9128
18428THY    CA644293   6.969   1.472   7.435 -0.1454 -0.5511 -0.5243
18428THY    HA644294   6.884   1.530   7.469  0.4454  2.8406 -1.4060
18429THY      O44295   7.839   1.474   3.544  0.5846  0.3192  0.0574
18429THY     HO44296   7.825   1.518   3.459  1.1637  0.4524  0.5063
18429THY    CA144297   7.744   1.539   3.631 -0.9188  0.4996  0.2756
18429THY    CA244298   7.692   1.476   3.743 -0.2005 -0.2693 -0.1206
18429THY    CP144299   7.707   1.322   3.763  0.6881  0.8132  1.0928
18429THY    HP144300   7.743   1.284   3.667 -1.0056  0.6414 -0.1855
18429THY    CP244301   7.581   1.249   3.802  0.1695  0.2474  0.3226
18429THY    HP244302   7.507   1.264   3.722  0.0731  0.4011  0.6869
18429THY    HP344303   7.532   1.278   3.895  0.0279 -0.2980  1.9224
18429THY    HP444304   7.616   1.145   3.806  1.0788 -0.8409  0.5587
18429THY    CP344305   7.824   1.291   3.863 -0.6392 -1.1823 -0.0804
18429THY    HP544306   7.783   1.294   3.964  2.2565  0.1367 -1.3030
18429THY    HP644307   7.909   1.360   3.854  0.7546 -1.3946 -1.7557
18429THY    HP744308   7.868   1.191   3.859  0.6446  0.4112  0.3846
18429THY    CA344309   7.603   1.547   3.823 -0.8309 -0.4977  0.3581
18429THY    HA344310   7.555   1.493   3.904 -0.0904 -0.4266 -0.2090
18429THY    CA444311   7.572   1.675   3.784  0.2647 -0.2190 -0.3188
18429THY    HA444312   7.497   1.722   3.847 -0.5250  2.1163 -4.2246
18429THY    CA544313   7.625   1.740   3.677  0.6435  0.1104 -0.3400
18429THY    CM144314   7.616   1.889   3.649 -0.5352 -0.1365 -1.4970
18429THY    HM144315   7.657   1.946   3.733  0.2541 -0.8904 -0.9301
18429THY    HM244316   7.513   1.927   3.644  0.8225 -2.1062  2.4445
18429THY    HM344317   7.662   1.917   3.554 -1.8725 -0.5760 -0.7318
18429THY    CA644318   7.715   1.671   3.600  0.3264  0.1230  0.5519
18429THY    HA644319   7.755   1.710   3.507 -0.7036 -1.6341 -2.2903
18430THY      O44320   6.370   7.318   6.341  0.2265 -0.1746  0.1827
18430THY     HO44321   6.338   7.296   6.252 -1.9578  0.5509  0.1921
18430THY    CA144322   6.464   7.409   6.308  0.0658  0.5214  0.0316
18430THY    CA244323   6.573   7.430   6.392  0.6490  0.2381  0.5713
18430THY    CP144324   6.595   7.350   6.526 -0.2938 -0.2817  0.0056
18430THY    HP144325   6.531   7.263   6.545  0.0239  1.1165  0.0477
18430THY    CP244326   6.565   7.447   6.639 -0.0325 -0.1408 -0.2396
18430THY    HP244327   6.579   7.410   6.741 -0.0377  0.1706  0.6035
18430THY    HP344328   6.462   7.484   6.629  0.2427  2.6909  1.6111
18430THY    HP444329   6.627   7.537   6.630  3.6430 -0.0685 -2.5540
18430THY    CP344330   6.745   7.295   6.542  0.2343 -0.1549  1.1617
18430THY    HP544331   6.780   7.243   6.452  2.6635  0.6251  1.3201
18430THY    HP644332   6.742   7.228   6.629 -3.9174  0.9155  2.4273
18430THY    HP744333   6.815   7.374   6.571  0.6965  2.3924 -0.1041
18430THY    CA344334   6.670   7.523   6.351 -0.4927 -0.1755 -0.3512
18430THY    HA344335   6.755   7.537   6.418 -0.0242 -0.2932 -2.3650
18430THY    CA444336   6.650   7.590   6.233  0.0088 -0.3147  0.0994
18430THY    HA444337   6.721   7.667   6.207  2.9987  0.3993 -2.2312
18430THY    CA544338   6.543   7.573   6.154  0.3033 -0.1600  0.0846
18430THY    CM144339   6.511   7.655   6.031 -0.5711 -0.0620 -0.1709
18430THY    HM144340   6.434   7.611   5.966 -1.2847 -0.0054  0.9539
18430THY    HM244341   6.603   7.648   5.972 -1.0907 -1.2407  2.0575
18430THY    HM344342   6.485   7.760   6.050  0.9416 -0.5464  0.3153
18430THY    CA644343   6.451   7.473   6.186  0.2963 -0.1389  0.1885
18430THY    HA644344   6.365   7.447   6.124 -0.2355  0.8118 -0.3805
18431THY      O44345   9.163   8.523   2.146 -0.4372  0.2650  0.1310
18431THY     HO44346   9.230   8.516   2.216  1.0050 -1.1806 -1.7250
18431THY    CA144347   9.202   8.632   2.064 -0.4603 -1.0669 -0.8586
18431THY    CA244348   9.124   8.676   1.959 -0.1336 -0.2283 -0.2863
18431THY    CP144349   9.005   8.593   1.918  0.8226  0.2159  0.3990
18431THY    HP144350   8.987   8.501   1.975  1.0909  0.1884  0.3301
18431THY    CP244351   9.012   8.554   1.768 -0.1272  0.9378 -0.1083
18431THY    HP244352   8.920   8.504   1.737  1.2952 -1.8995 -1.1812
18431THY    HP344353   9.088   8.480   1.739  1.1759 -0.9017  1.8418
18431THY    HP444354   9.031   8.638   1.700 -1.2043  1.8971  0.9697
18431THY    CP344355   8.873   8.665   1.935  0.3585 -0.1289  0.2984
18431THY    HP544356   8.871   8.766   1.892  0.1997 -0.7268  0.0484
18431THY    HP644357   8.850   8.680   2.041  0.0711 -0.2655  0.8418
18431THY    HP744358   8.789   8.610   1.893 -0.2252  1.5640 -0.1700
18431THY    CA344359   9.156   8.794   1.911  0.3176 -0.4456  0.5979
18431THY    HA344360   9.095   8.833   1.830 -1.1290 -0.3077 -1.2413
18431THY    CA444361   9.268   8.863   1.958 -0.3173  0.0641 -0.0175
18431THY    HA444362   9.289   8.958   1.909 -0.4125  0.5261  0.2506
18431THY    CA544363   9.347   8.820   2.063 -1.0337  0.0554 -0.3696
18431THY    CM144364   9.443   8.900   2.138 -0.1940  0.6577 -0.8214
18431THY    HM144365   9.540   8.850   2.134  0.6497  0.3184  0.7587
18431THY    HM244366   9.412   8.924   2.240  0.3144  0.9668 -1.4632
18431THY    HM344367   9.466   8.995   2.088 -1.0191  1.2763 -0.2815
18431THY    CA644368   9.311   8.700   2.114  0.0712 -0.7989 -0.1041
18431THY    HA644369   9.355   8.677   2.211  0.6234 -0.2004  2.9314
18432THY      O44370   5.101   4.135   5.398 -0.5412  0.2613 -0.1906
18432THY     HO44371   5.149   4.198   5.454  1.0820  0.0793 -1.2010
18432THY    CA144372   5.000   4.092   5.476  0.0467  0.0946  1.4083
18432THY    CA244373   4.918   3.988   5.432 -0.7826 -0.3605  0.8254
18432THY    CP144374   4.954   3.915   5.296  0.5637  0.1956 -0.0656
18432THY    HP144375   4.977   3.988   5.218 -0.9950 -1.7022 -1.5121
18432THY    CP244376   4.833   3.842   5.240 -0.2976 -0.0423  0.0092
18432THY    HP244377   4.828   3.739   5.279 -2.4957  1.3823  0.5895
18432THY    HP344378   4.852   3.834   5.132 -0.2152 -0.1414  1.3214
18432THY    HP444379   4.745   3.906   5.256 -0.8694 -1.6921 -0.3024
18432THY    CP344380   5.071   3.812   5.321 -0.0028 -0.5692  0.5617
18432THY    HP544381   5.164   3.861   5.353  0.3503 -0.4300 -0.1777
18432THY    HP644382   5.102   3.744   5.241 -0.4036 -0.1063 -0.1868
18432THY    HP744383   5.041   3.744   5.402 -2.2615 -0.7714  1.2474
18432THY    CA344384   4.826   3.935   5.534  0.0351 -0.0633  0.9641
18432THY    HA344385   4.753   3.858   5.508  0.4129 -0.4535  0.7349
18432THY    CA444386   4.814   3.987   5.661 -0.3831  0.1577 -1.0886
18432THY    HA444387   4.733   3.954   5.725 -0.0052  0.7299 -0.9135
18432THY    CA544388   4.898   4.087   5.694 -0.1995 -0.3418 -0.4471
18432THY    CM144389   4.881   4.137   5.836 -0.1147  0.0406  0.3685
18432THY    HM144390   4.786   4.109   5.884  1.1490  2.6670  0.2871
18432THY    HM244391   4.891   4.245   5.848 -0.1505  1.0870  0.2642
18432THY    HM344392   4.956   4.088   5.900  0.8727 -1.1797  0.2187
18432THY    CA644393   4.992   4.141   5.607 -0.3423  0.5052  0.2812
18432THY    HA644394   5.045   4.229   5.643 -0.4523  1.3007  0.0265
18433THY      O44395   7.512   4.948   6.381  0.4670 -0.3355  0.0589
18433THY     HO44396   7.595   4.901   6.400  0.2076 -0.2572 -0.3727
18433THY    CA144397   7.417   4.911   6.475  0.4460 -0.5169 -0.4872
18433THY    CA244398   7.275   4.924   6.453  0.2124 -0.0333 -0.0976
18433THY    CP144399   7.221   4.983   6.325  0.6333 -0.1728  0.1893
18433THY    HP144400   7.292   5.040   6.265  0.3268 -0.9639 -0.2556
18433THY    CP244401   7.115   5.087   6.360 -0.2912  0.4420  0.3123
18433THY    HP244402   7.088   5.116   6.258 -1.3102 -0.0114 -1.9778
18433THY    HP344403   7.165   5.166   6.418  1.2381  1.3979 -1.2701
18433THY    HP444404   7.026   5.058   6.417 -1.1306  0.3845  2.5963
18433THY    CP344405   7.163   4.874   6.238  0.2997 -0.3148 -0.5547
18433THY    HP544406   7.150   4.910   6.135  1.0213  0.0259  0.7189
18433THY    HP644407   7.069   4.837   6.282  0.0083 -0.2379  0.2606
18433THY    HP744408   7.225   4.783   6.232 -1.6841 -0.8354 -1.9550
18433THY    CA344409   7.189   4.870   6.549  0.1548  0.4413 -0.5118
18433THY    HA344410   7.084   4.888   6.530  0.3858 -1.5759 -0.9443
18433THY    CA444411   7.242   4.822   6.667  0.3458  0.3319  1.1649
18433THY    HA444412   7.169   4.800   6.744 -1.1712 -1.6421 -1.2779
18433THY    CA544413   7.376   4.822   6.688 -0.0939 -0.1130  0.2296
18433THY    CM144414   7.435   4.763   6.812  0.7338  0.3593 -0.6118
18433THY    HM144415   7.544   4.754   6.800  0.7236 -0.8492  0.5310
18433THY    HM244416   7.381   4.669   6.829  0.2077  0.9312 -0.2152
18433THY    HM344417   7.420   4.829   6.898 -1.2663  1.9904 -3.0184
18433THY    CA644418   7.466   4.867   6.593  0.0450  0.1948 -0.0845
18433THY    HA644419   7.574   4.868   6.608 -0.0050  0.6175 -0.5178
18434THY      O44420   2.945   6.473   3.649 -0.4655  0.1367 -0.6988
18434THY     HO44421   2.886   6.440   3.719 -1.4574  0.0775  0.8372
18434THY    CA144422   3.024   6.371   3.617  0.7385 -0.0974 -0.0067
18434THY    CA244423   3.104   6.374   3.506 -0.5638  0.1523 -0.4023
18434THY    CP144424   3.119   6.496   3.410  0.3924  0.1633 -0.0592
18434THY    HP144425   3.049   6.566   3.458 -0.6890  2.6608 -2.6965
18434THY    CP244426   3.067   6.465   3.270  0.0501 -0.1970 -0.5699
18434THY    HP244427   3.125   6.386   3.222  2.2899  0.4707  0.5981
18434THY    HP344428   3.088   6.560   3.218  0.7543  0.4693 -0.3555
18434THY    HP444429   2.962   6.434   3.262  0.3922 -1.7464 -1.4357
18434THY    CP344430   3.256   6.551   3.415 -0.6200 -0.2498  0.0273
18434THY    HP544431   3.326   6.478   3.374  1.7565 -0.3533  2.2140
18434THY    HP644432   3.284   6.593   3.513 -0.3045 -0.7650  1.0673
18434THY    HP744433   3.275   6.628   3.340 -0.3112 -1.2075 -0.9626
18434THY    CA344434   3.178   6.253   3.490  0.0538 -0.2078 -0.0299
18434THY    HA344435   3.244   6.246   3.404 -0.3814 -0.5932  0.4771
18434THY    CA444436   3.169   6.154   3.584  0.2809 -0.0093  0.6987
18434THY    HA444437   3.244   6.076   3.592 -0.0150  0.8488  0.4801
18434THY    CA544438   3.093   6.157   3.698 -0.1093  0.4096  0.0512
18434THY    CM144439   3.106   6.053   3.808  0.3214  0.2211 -1.1281
18434THY    HM144440   3.186   5.980   3.790  0.5634  0.1208 -0.8409
18434THY    HM244441   3.008   6.008   3.829 -1.1693  0.0816  1.8483
18434THY    HM344442   3.142   6.106   3.896  0.4201 -0.7118  0.4009
18434THY    CA644443   3.012   6.265   3.713 -0.2000  0.6506  0.4156
18434THY    HA644444   2.954   6.273   3.804 -1.9561 -0.4233  0.6529
18435THY      O44445   1.819   1.825   1.907 -0.3718  0.1146  0.2038
18435THY     HO44446   1.857   1.757   1.964  1.8764 -2.2180 -0.6883
18435THY    CA144447   1.923   1.910   1.869 -0.2867  0.0685  0.6182
18435THY    CA244448   1.902   1.999   1.765  0.1035 -0.5767 -0.1749
18435THY    CP144449   1.770   2.030   1.700  0.5212  1.1076  0.7883
18435THY    HP144450   1.692   1.970   1.749 -0.3199  0.2044  1.1080
18435THY    CP244451   1.766   1.986   1.554 -0.1787 -0.5291 -0.3481
18435THY    HP244452   1.689   2.040   1.497  0.9552 -1.0385  0.7915
18435THY    HP344453   1.758   1.878   1.538 -0.3071 -0.4696 -0.3464
18435THY    HP444454   1.860   2.013   1.503 -0.2982 -0.0881  0.9964
18435THY    CP344455   1.720   2.173   1.720  1.0302  0.1632  0.3555
18435THY    HP544456   1.703   2.190   1.827  0.1974  0.2115 -0.6945
18435THY    HP644457   1.629   2.190   1.662  0.7841  0.3160 -0.4341
18435THY    HP744458   1.788   2.249   1.679  1.7206 -1.8985 -1.2832
18435THY    CA344459   2.014   2.081   1.731  0.2723  0.4135  0.2970
18435THY    HA344460   2.007   2.160   1.657  0.1864 -1.6287 -1.5391
18435THY    CA444461   2.135   2.077   1.795 -1.1574 -0.2879 -0.1528
18435THY    HA444462   2.216   2.147   1.774 -1.4398 -1.5679 -0.1819
18435THY    CA544463   2.146   1.993   1.901  0.2921 -0.1570  0.4500
18435THY    CM144464   2.271   1.992   1.990  0.0168  0.1450  0.7807
18435THY    HM144465   2.245   2.017   2.093  0.6078  0.8473 -1.3358
18435THY    HM244466   2.352   2.053   1.947  1.7580  1.2115 -0.6900
18435THY    HM344467   2.310   1.890   1.986 -0.8342 -0.3500  0.4624
18435THY    CA644468   2.039   1.924   1.947 -0.7553 -0.0301  0.0427
18435THY    HA644469   2.051   1.872   2.041 -2.0500  1.2338  1.9387
18436THY      O44470   3.074   7.067   2.435 -0.0123  0.7667 -0.3289
18436THY     HO44471   3.125   7.139   2.476 -2.5669 -0.8186  2.6710
18436THY    CA144472   2.983   7.135   2.363  0.2567 -0.6722 -0.1706
18436THY    CA244473   2.866   7.067   2.325 -0.2092  0.4030  0.2260
18436THY    CP144474   2.857   6.915   2.332  0.0509  0.5535  0.7955
18436THY    HP144475   2.954   6.871   2.360  1.3874 -4.0692  0.2651
18436THY    CP244476   2.838   6.847   2.196 -0.3716 -0.0493 -0.0167
18436THY    HP244477   2.733   6.859   2.169 -0.7884  1.7658  0.7797
18436THY    HP344478   2.860   6.740   2.209  0.6488 -0.5855  0.1141
18436THY    HP444479   2.911   6.892   2.129  1.3980  2.5479  1.2492
18436THY    CP344480   2.762   6.880   2.444 -0.3041 -0.4027  0.7242
18436THY    HP544481   2.659   6.910   2.421 -0.9905 -0.8832 -1.7816
18436THY    HP644482   2.795   6.913   2.543 -0.8976 -0.8817  2.9408
18436THY    HP744483   2.752   6.771   2.453  3.0970 -0.4335  0.3282
18436THY    CA344484   2.761   7.145   2.268  0.3895  0.0421  0.6637
18436THY    HA344485   2.681   7.095   2.215  1.6541 -3.6964  2.2355
18436THY    CA444486   2.778   7.285   2.242  0.6454  0.4256  0.0048
18436THY    HA444487   2.693   7.342   2.206  0.6518 -2.9882 -1.8750
18436THY    CA544488   2.896   7.350   2.279 -0.2406 -0.4986  0.4910
18436THY    CM144489   2.920   7.495   2.268  0.6313  0.2743 -0.4427
18436THY    HM144490   2.922   7.544   2.366  1.7872  0.1179 -0.1511
18436THY    HM244491   2.832   7.535   2.215  0.7185  0.3724 -0.1119
18436THY    HM344492   3.005   7.516   2.202 -1.1067 -1.9394  0.1567
18436THY    CA644493   2.996   7.273   2.340 -0.1519 -0.5474 -0.2053
18436THY    HA644494   3.085   7.320   2.379  0.5265 -1.2078 -0.9036
18437THY      O44495   3.032   6.802   6.411  0.0676 -0.0736 -0.0659
18437THY     HO44496   2.957   6.744   6.433 -1.6714 -0.4963  1.8728
18437THY    CA144497   3.147   6.750   6.443 -0.2976  0.2284 -0.6400
18437THY    CA244498   3.229   6.795   6.543  0.5347 -0.0797 -0.2954
18437THY    CP144499   3.189   6.930   6.610 -0.4369  0.6220 -0.5703
18437THY    HP144500   3.080   6.935   6.625 -0.5872 -0.0934 -1.3946
18437THY    CP244501   3.235   7.053   6.528  0.2018 -0.0703 -0.4202
18437THY    HP244502   3.330   7.038   6.476  0.4276 -0.9649  3.2138
18437THY    HP344503   3.236   7.144   6.589  0.1120  0.5246 -0.8144
18437THY    HP444504   3.154   7.079   6.459  1.0496 -0.2108  2.2015
18437THY    CP344505   3.253   6.951   6.743 -0.2969  0.4319  0.2140
18437THY    HP544506   3.238   6.860   6.801  1.5711 -1.7652 -1.6121
18437THY    HP644507   3.199   7.038   6.783  0.2072  0.1930  0.6469
18437THY    HP744508   3.361   6.969   6.736 -0.2680  1.9280  0.8256
18437THY    CA344509   3.335   6.715   6.587  1.1281  0.9862  0.6915
18437THY    HA344510   3.402   6.752   6.664  1.6649  0.3254  1.0997
18437THY    CA444511   3.355   6.591   6.525 -0.0898  0.3905  0.2138
18437THY    HA444512   3.438   6.527   6.555  0.7471  0.1486  1.1685
18437THY    CA544513   3.277   6.553   6.412 -0.0963 -0.0557  0.2727
18437THY    CM144514   3.306   6.433   6.324  0.5057 -0.4267  0.1157
18437THY    HM144515   3.212   6.395   6.283 -0.1973  1.2195 -0.0007
18437THY    HM244516   3.368   6.353   6.365  0.4360 -4.2706 -2.1548
18437THY    HM344517   3.360   6.467   6.235  1.3739 -0.6559 -1.7737
18437THY    CA644518   3.173   6.631   6.376 -0.9976  0.5546 -0.0931
18437THY    HA644519   3.107   6.593   6.299 -2.0346 -0.3485  3.2620
18438THY      O44520   3.890   2.189   1.550  0.1717 -0.3603  0.0844
18438THY     HO44521   3.875   2.094   1.532 -2.5103 -0.6605  0.5056
18438THY    CA144522   3.836   2.209   1.672 -0.4241  0.3030  0.3397
18438THY    CA244523   3.791   2.334   1.713 -0.8643 -0.7247 -0.0902
18438THY    CP144524   3.774   2.443   1.608  0.3062  0.4182 -0.4428
18438THY    HP144525   3.826   2.439   1.512 -0.4382 -0.1308  1.6563
18438THY    CP244526   3.832   2.574   1.660 -0.3830 -0.1652  0.3463
18438THY    HP244527   3.837   2.648   1.579  1.8771  3.3545  4.5416
18438THY    HP344528   3.932   2.554   1.702  0.4347 -2.6870 -1.3923
18438THY    HP444529   3.778   2.616   1.746  0.7944  1.0648 -0.5716
18438THY    CP344530   3.621   2.471   1.576 -0.1120  0.7907 -0.5647
18438THY    HP544531   3.614   2.499   1.470 -0.8427  0.8426 -0.5248
18438THY    HP644532   3.583   2.568   1.612 -3.2718 -0.5243 -1.1823
18438THY    HP744533   3.557   2.389   1.609 -1.7433 -1.3560 -0.2415
18438THY    CA344534   3.749   2.354   1.845  0.0649 -0.3849 -0.1962
18438THY    HA344535   3.709   2.449   1.880 -1.0910 -1.6811 -0.1764
18438THY    CA444536   3.755   2.247   1.935 -0.2099  0.4145  0.3186
18438THY    HA444537   3.713   2.254   2.034  1.4393  1.0959  1.3338
18438THY    CA544538   3.803   2.124   1.893 -0.7604 -1.1657  0.6130
18438THY    CM144539   3.813   2.003   1.979 -0.2325 -0.4039 -0.5170
18438THY    HM144540   3.715   1.987   2.025 -0.6058 -1.3589 -1.0325
18438THY    HM244541   3.876   2.024   2.067 -0.7886 -0.2545  0.5319
18438THY    HM344542   3.852   1.913   1.930  0.6943  1.1986 -1.0336
18438THY    CA644543   3.844   2.108   1.765  0.6117  0.0667  0.7966
18438THY    HA644544   3.872   2.009   1.731 -1.7071  0.7659 -0.1562
18439THY      O44545   8.855   1.550   1.840 -0.4117  0.0781  0.3496
18439THY     HO44546   8.904   1.513   1.915 -1.3207 -0.3145 -1.7996
18439THY    CA144547   8.951   1.614   1.759 -0.0392  0.9089  0.5065
18439THY    CA244548   8.929   1.735   1.690 -0.1665 -0.3630 -0.4674
18439THY    CP144549   8.795   1.803   1.708 -0.3601  0.0963 -0.4386
18439THY    HP144550   8.713   1.759   1.766  0.3666  2.0209  0.6335
18439THY    CP244551   8.737   1.820   1.570  0.5911  0.0007 -0.0571
18439THY    HP244552   8.638   1.865   1.562 -0.5284 -3.3860 -2.7138
18439THY    HP344553   8.739   1.723   1.519 -0.3236 -2.0886  0.9698
18439THY    HP444554   8.809   1.885   1.519 -0.7109  2.1187  3.2960
18439THY    CP344555   8.813   1.938   1.772  0.5441  0.2308 -0.9140
18439THY    HP544556   8.711   1.971   1.798  0.6718 -0.1741 -0.1775
18439THY    HP644557   8.865   2.012   1.709  2.0499  1.2443 -1.0695
18439THY    HP744558   8.866   1.941   1.868  0.2730  0.3823  1.8002
18439THY    CA344559   9.028   1.783   1.603  0.5388  0.4008 -0.3795
18439THY    HA344560   9.016   1.877   1.548  1.1083  1.4240  0.3073
18439THY    CA444561   9.150   1.716   1.590  0.9460 -0.0438 -0.2464
18439THY    HA444562   9.229   1.753   1.526 -0.2240 -0.7651  1.1179
18439THY    CA544563   9.165   1.597   1.662 -0.7131  0.8815 -0.5918
18439THY    CM144564   9.298   1.518   1.643  0.3985 -0.8425 -0.6333
18439THY    HM144565   9.377   1.568   1.699 -1.9437  2.6103 -0.4225
18439THY    HM244566   9.311   1.523   1.534 -0.7683 -0.9796 -0.0467
18439THY    HM344567   9.288   1.421   1.693 -2.1616  2.1821  0.9813
18439THY    CA644568   9.067   1.543   1.734  0.7380 -0.0997 -0.3666
18439THY    HA644569   9.083   1.445   1.777  0.0253  0.5910 -0.1857
18440THY      O44570   3.894   0.950   2.248  0.0718 -0.7117  0.1123
18440THY     HO44571   3.938   0.864   2.254 -0.0715 -0.7155  0.0386
18440THY    CA144572   3.765   0.916   2.249  0.1176  0.3859 -0.1475
18440THY    CA244573   3.658   1.007   2.265 -0.3577  0.3411  0.1105
18440THY    CP144574   3.678   1.162   2.271 -0.0530  0.4542 -0.3771
18440THY    HP144575   3.774   1.196   2.231 -0.9036  0.0546  1.7504
18440THY    CP244576   3.659   1.225   2.408  0.3974 -0.2669 -0.7967
18440THY    HP244577   3.699   1.162   2.488 -1.0357 -1.5139 -3.4731
18440THY    HP344578   3.553   1.208   2.430  0.3111 -0.0261 -0.0128
18440THY    HP444579   3.667   1.334   2.417  1.1037  1.0347 -0.9318
18440THY    CP344580   3.580   1.238   2.184  0.8437  1.3152  0.2934
18440THY    HP544581   3.481   1.250   2.229 -0.3627 -1.0270 -0.1144
18440THY    HP644582   3.572   1.180   2.091  0.1229  2.4597 -1.5212
18440THY    HP744583   3.618   1.339   2.162 -1.1098  1.7949  1.1962
18440THY    CA344584   3.525   0.950   2.273 -0.2517  0.0523 -0.2533
18440THY    HA344585   3.445   1.022   2.285  0.2621 -1.8748  0.7142
18440THY    CA444586   3.503   0.814   2.256 -0.8001 -0.8061 -0.2282
18440THY    HA444587   3.399   0.784   2.263 -1.0084  0.5841  0.7135
18440THY    CA544588   3.607   0.726   2.236 -0.1690 -0.4646 -0.6226
18440THY    CM144589   3.584   0.573   2.224  0.3716 -0.4165 -0.3022
18440THY    HM144590   3.599   0.547   2.330 -2.0837  0.2480  0.7019
18440THY    HM244591   3.653   0.523   2.155  0.1295 -1.8100  1.2008
18440THY    HM344592   3.480   0.555   2.196 -0.1153 -1.2018  2.9902
18440THY    CA644593   3.738   0.776   2.245 -0.2444  0.2609  0.6676
18440THY    HA644594   3.816   0.701   2.255 -0.6854  0.1952  0.1913
18441THY      O44595   2.047   4.930   4.247  0.3391  0.4170  0.2111
18441THY     HO44596   2.071   4.967   4.333 -1.6958  3.1679 -4.0789
18441THY    CA144597   2.118   5.003   4.155  0.3869  0.5836  1.3576
18441THY    CA244598   2.110   4.975   4.015 -0.2339 -0.0144  0.3065
18441THY    CP144599   2.040   4.851   3.966 -0.0891  0.8347  0.4971
18441THY    HP144600   2.027   4.776   4.045  0.1029  0.5567  0.1701
18441THY    CP244601   2.103   4.767   3.859 -0.5696 -0.2611  0.5097
18441THY    HP244602   2.206   4.740   3.887 -0.8804 -0.2858 -0.7910
18441THY    HP344603   2.112   4.822   3.765  2.0763 -0.5404 -0.2945
18441THY    HP444604   2.045   4.675   3.844 -0.6341  2.0966  0.0971
18441THY    CP344605   1.905   4.888   3.920 -0.0740 -0.5547  0.3087
18441THY    HP544606   1.910   4.930   3.819  0.5937 -1.4153 -1.7460
18441THY    HP644607   1.872   4.958   3.999 -0.0566  0.8312 -1.1846
18441THY    HP744608   1.841   4.800   3.910 -0.7850 -0.0578  0.7482
18441THY    CA344609   2.194   5.056   3.928  0.0157 -0.0181 -0.7065
18441THY    HA344610   2.203   5.026   3.823  0.0852 -0.4853  0.8857
18441THY    CA444611   2.249   5.180   3.969  0.7434  0.1978  0.2478
18441THY    HA444612   2.293   5.248   3.897 -0.6600  0.3198  1.3319
18441THY    CA544613   2.239   5.211   4.105 -0.1745  0.0363  0.0919
18441THY    CM144614   2.304   5.347   4.156 -0.2961  0.9653 -0.2370
18441THY    HM144615   2.343   5.393   4.064 -4.3947 -0.9113 -0.0413
18441THY    HM244616   2.380   5.346   4.234  1.9618 -1.0429 -2.8903
18441THY    HM344617   2.219   5.404   4.197 -1.3347 -1.5771  0.1990
18441THY    CA644618   2.183   5.120   4.196 -0.2547  0.3651  0.3059
18441THY    HA644619   2.169   5.146   4.301 -2.4971  0.6450 -1.6359
18442THY      O44620   4.258   6.476   2.330  0.9108 -0.3066  0.1083
18442THY     HO44621   4.207   6.507   2.253  0.2329  0.0935 -0.0040
18442THY    CA144622   4.332   6.584   2.366 -0.2584  0.2910  0.4534
18442THY    CA244623   4.393   6.589   2.494  0.5501 -0.0101  0.2947
18442THY    CP144624   4.395   6.460   2.580  1.1634  0.0220 -0.1809
18442THY    HP144625   4.381   6.367   2.524 -1.6012  2.2031 -1.2227
18442THY    CP244626   4.270   6.470   2.678  0.4082  0.5225  0.3500
18442THY    HP244627   4.172   6.484   2.631 -1.1131  3.8586  2.0071
18442THY    HP344628   4.285   6.550   2.751 -0.2041  0.2539  0.7162
18442THY    HP444629   4.266   6.370   2.724 -1.2071  0.9724  0.5813
18442THY    CP344630   4.520   6.430   2.656 -0.5648 -0.3125  0.4067
18442THY    HP544631   4.522   6.334   2.709 -0.3404 -1.0214  0.0080
18442THY    HP644632   4.543   6.512   2.725  0.0920  1.3559 -1.1198
18442THY    HP744633   4.605   6.432   2.586 -1.2273 -1.2722 -1.8426
18442THY    CA344634   4.476   6.705   2.522 -0.1010 -0.1413  0.2850
18442THY    HA344635   4.541   6.703   2.608 -1.1812  0.6866 -0.8242
18442THY    CA444636   4.491   6.808   2.428 -0.0175  0.5391 -0.5314
18442THY    HA444637   4.555   6.895   2.437 -1.6430 -0.0438  0.7788
18442THY    CA544638   4.420   6.799   2.305 -0.9727 -0.9569  0.0584
18442THY    CM144639   4.440   6.910   2.205  0.1978 -1.2984 -0.0513
18442THY    HM144640   4.494   6.994   2.249  1.0691 -1.0129 -0.7509
18442THY    HM244641   4.342   6.941   2.166 -0.0015 -2.0720 -1.5779
18442THY    HM344642   4.492   6.864   2.120 -0.3467 -0.3490 -2.5704
18442THY    CA644643   4.341   6.692   2.273  0.2411  0.0553  0.5659
18442THY    HA644644   4.297   6.682   2.174  0.8535 -0.4456  2.5019
18443THY      O44645   7.806   4.843   5.584  0.1765 -0.5328 -0.3378
18443THY     HO44646   7.834   4.927   5.543 -1.2615  0.9362  0.9402
18443THY    CA144647   7.841   4.745   5.505  0.0133  0.3606  0.2953
18443THY    CA244648   7.753   4.651   5.448  0.5961 -0.0666  0.0731
18443THY    CP144649   7.602   4.677   5.453  0.3736 -0.0844 -0.0654
18443THY    HP144650   7.594   4.781   5.487 -0.6126  1.5630 -0.6470
18443THY    CP244651   7.537   4.585   5.562  0.1431 -1.4674  0.0664
18443THY    HP244652   7.435   4.561   5.533 -0.7168  1.3114 -0.0190
18443THY    HP344653   7.535   4.643   5.655 -0.2469 -1.4720  0.0590
18443THY    HP444654   7.592   4.492   5.581 -1.4202 -2.1483 -1.0374
18443THY    CP344655   7.524   4.655   5.321 -0.0801 -0.8167  0.0726
18443THY    HP544656   7.476   4.557   5.308 -1.3078 -0.8783  0.6676
18443THY    HP644657   7.588   4.684   5.237  1.3695 -0.3450 -1.5586
18443THY    HP744658   7.435   4.719   5.325 -0.0712  2.6132  0.0765
18443THY    CA344659   7.804   4.540   5.380 -0.0651 -0.1885 -0.6360
18443THY    HA344660   7.736   4.467   5.337 -0.5212  0.8256 -0.8255
18443THY    CA444661   7.941   4.538   5.359 -0.4411 -0.4339  0.4803
18443THY    HA444662   7.974   4.455   5.296 -1.3751 -0.5871  0.2025
18443THY    CA544663   8.024   4.632   5.414 -0.7804  0.4784 -0.6621
18443THY    CM144664   8.175   4.619   5.400  0.9673 -0.4411 -0.3365
18443THY    HM144665   8.219   4.582   5.493  0.5314 -0.0702  0.0824
18443THY    HM244666   8.228   4.712   5.376 -0.7350  0.0468  0.7909
18443THY    HM344667   8.188   4.540   5.324  0.0946 -1.8818  0.8525
18443THY    CA644668   7.980   4.732   5.486  0.1067 -0.3460  0.6719
18443THY    HA644669   8.054   4.795   5.533  2.8591 -0.7270 -2.0207
18444THY      O44670   5.848   2.314   5.418  0.6528  0.0022 -0.4915
18444THY     HO44671   5.931   2.330   5.370 -0.2034 -1.1858  0.5680
18444THY    CA144672   5.884   2.248   5.533  0.5976  0.3764  0.2849
18444THY    CA244673   5.795   2.157   5.607 -0.5478  0.2843 -0.8803
18444THY    CP144674   5.649   2.155   5.588  0.4680  0.0551  0.2299
18444THY    HP144675   5.611   2.230   5.518  0.7230  0.5245  0.7979
18444THY    CP244676   5.575   2.156   5.723 -0.4472  1.2358 -0.5826
18444THY    HP244677   5.479   2.203   5.700  0.6635  0.7703  1.5548
18444THY    HP344678   5.627   2.217   5.797 -0.7012  1.7373 -0.9670
18444THY    HP444679   5.563   2.054   5.761 -1.4294 -0.2845 -1.0693
18444THY    CP344680   5.615   2.018   5.525 -0.1331  0.1044  0.1369
18444THY    HP544681   5.675   1.937   5.567 -0.6979  0.3945 -0.1369
18444THY    HP644682   5.645   2.036   5.421  2.2190  0.8156  0.7234
18444THY    HP744683   5.508   1.995   5.525 -0.4321  0.4615  1.4421
18444THY    CA344684   5.858   2.076   5.701  0.4753 -0.0160  0.2810
18444THY    HA344685   5.803   2.005   5.762 -3.3890 -2.2005  1.0861
18444THY    CA444686   5.992   2.084   5.730  0.6144  0.3254 -0.0027
18444THY    HA444687   6.041   2.027   5.808  1.1766  0.9908  1.3498
18444THY    CA544688   6.070   2.171   5.658  0.0131  0.1154  0.5869
18444THY    CM144689   6.215   2.178   5.683 -0.0834  0.1886  0.2526
18444THY    HM144690   6.242   2.279   5.715  1.0290  0.3661 -0.0890
18444THY    HM244691   6.267   2.167   5.587 -2.7388 -1.5521  1.6967
18444THY    HM344692   6.263   2.097   5.738  0.7494 -1.4804 -0.4509
18444THY    CA644693   6.023   2.245   5.554  0.3667  0.1069  0.3480
18444THY    HA644694   6.087   2.303   5.488  0.1175  0.5141  1.0940
18445THY      O44695   0.833   4.896   7.450 -0.3571  0.1143  0.4962
18445THY     HO44696   0.771   4.822   7.462  1.3992  2.2052 -0.8007
18445THY    CA144697   0.833   4.960   7.567 -0.3448  0.2981 -0.6084
18445THY    CA244698   0.960   5.011   7.611  0.5359 -0.2012  0.5055
18445THY    CP144699   1.084   5.011   7.519  0.1983 -0.4174  0.1158
18445THY    HP144700   1.051   5.016   7.414  2.1942 -1.0864  0.0425
18445THY    CP244701   1.148   4.878   7.515  0.5146 -0.1503 -0.2958
18445THY    HP244702   1.075   4.797   7.524  0.7517 -0.2230 -0.5183
18445THY    HP344703   1.225   4.864   7.591  0.5913  0.0666  1.1178
18445THY    HP444704   1.186   4.851   7.415  2.5105  0.4655  0.0698
18445THY    CP344705   1.184   5.123   7.541 -0.1034  0.2728  0.1109
18445THY    HP544706   1.135   5.220   7.534 -1.5010  0.0672 -0.5853
18445THY    HP644707   1.267   5.116   7.469 -1.7824 -1.6143 -1.7559
18445THY    HP744708   1.225   5.121   7.643 -1.7048  0.9597  1.1196
18445THY    CA344709   0.967   5.058   7.750 -0.1722  0.1457  0.3163
18445THY    HA344710   1.059   5.101   7.789  0.4271 -2.3531  1.4980
18445THY    CA444711   0.847   5.066   7.824 -0.6558  0.8761  0.2711
18445THY    HA444712   0.853   5.126   7.914 -1.9510  0.4082  1.1410
18445THY    CA544713   0.729   5.006   7.773  0.3325  0.3522 -0.6224
18445THY    CM144714   0.602   5.001   7.854 -0.0547  0.2255 -0.5631
18445THY    HM144715   0.622   5.033   7.957 -0.7866 -0.0775  0.9929
18445THY    HM244716   0.561   4.900   7.861  1.2961  0.1265 -1.1344
18445THY    HM344717   0.525   5.061   7.802 -0.0331  0.2761 -0.4913
18445THY    CA644718   0.720   4.956   7.646  0.5383  0.4905  0.0507
18445THY    HA644719   0.623   4.919   7.614 -0.2970  1.9757  0.8501
18446THY      O44720   5.371   4.454   6.278  0.0206  0.2322 -0.1380
18446THY     HO44721   5.369   4.358   6.291 -0.5770  1.8432  0.0633
18446THY    CA144722   5.368   4.502   6.400  0.8985 -0.0615  0.2055
18446THY    CA244723   5.432   4.616   6.441 -0.5549  0.2664  0.2823
18446THY    CP144724   5.527   4.692   6.340  0.1172  0.7687 -0.0662
18446THY    HP144725   5.524   4.657   6.236  2.2602  0.6840 -0.1020
18446THY    CP244726   5.674   4.682   6.383 -0.0334  0.3000  0.1728
18446THY    HP244727   5.701   4.579   6.408  0.8590 -0.3158  0.2480
18446THY    HP344728   5.691   4.747   6.469  0.9660 -0.7513  1.3501
18446THY    HP444729   5.738   4.715   6.301  0.2507  1.1398  1.7868
18446THY    CP344730   5.484   4.838   6.326 -0.9385 -0.0374  0.5070
18446THY    HP544731   5.377   4.839   6.301 -1.5989  2.5655  0.2753
18446THY    HP644732   5.533   4.896   6.246 -2.2802 -1.3960 -0.1507
18446THY    HP744733   5.490   4.890   6.422  1.5872 -0.3304  0.8772
18446THY    CA344734   5.409   4.650   6.578  1.1946 -0.0129  0.0485
18446THY    HA344735   5.463   4.739   6.609 -0.3482  1.2353  0.5913
18446THY    CA444736   5.324   4.583   6.666 -0.2538 -0.4145  0.1657
18446THY    HA444737   5.305   4.624   6.764  2.5250 -0.7121  2.5372
18446THY    CA544738   5.260   4.471   6.621 -0.4122  0.5328  0.3283
18446THY    CM144739   5.168   4.400   6.703 -0.0432 -0.4330  0.2362
18446THY    HM144740   5.215   4.317   6.758  0.4639  0.0925  0.8637
18446THY    HM244741   5.078   4.362   6.652  0.4771 -1.1068 -0.1178
18446THY    HM344742   5.132   4.468   6.781 -0.5794 -0.0030 -0.5195
18446THY    CA644743   5.285   4.430   6.488  0.5149  1.1716 -0.7388
18446THY    HA644744   5.228   4.348   6.446 -0.4081  0.8350  0.0598
18447THY      O44745   0.878   8.329   5.558 -0.0060 -0.0174  0.6048
18447THY     HO44746   0.944   8.262   5.580 -0.7513  0.3362 -0.0288
18447THY    CA144747   0.947   8.442   5.529  0.6468 -0.2590 -0.0044
18447THY    CA244748   0.893   8.564   5.551  0.1121  0.6086  0.3862
18447THY    CP144749   0.754   8.589   5.613 -0.3965  0.0553  0.0128
18447THY    HP144750   0.694   8.497   5.606  1.5225 -1.4631 -1.2072
18447THY    CP244751   0.672   8.697   5.540 -0.1089  0.2200  0.2504
18447THY    HP244752   0.651   8.659   5.440 -0.2203  0.3506 -0.0320
18447THY    HP344753   0.725   8.792   5.527 -2.8729 -2.3405  1.6172
18447THY    HP444754   0.575   8.712   5.590  0.0558  1.6620 -2.8226
18447THY    CP344755   0.759   8.633   5.760  0.5727  0.5761 -0.1050
18447THY    HP544756   0.817   8.562   5.820  0.0943  1.5379  0.3039
18447THY    HP644757   0.660   8.647   5.804  0.6760  0.0876  2.5240
18447THY    HP744758   0.807   8.731   5.760  1.9545  1.9948 -0.7422
18447THY    CA344759   0.981   8.675   5.534 -0.3390  0.3584 -0.1381
18447THY    HA344760   0.953   8.776   5.563  0.0732 -2.0036  0.7034
18447THY    CA444761   1.113   8.655   5.487  1.2018  1.0777 -0.2953
18447THY    HA444762   1.175   8.744   5.478 -0.9924 -1.1114  1.1210
18447THY    CA544763   1.153   8.525   5.461  0.1084  0.0436 -0.0660
18447THY    CM144764   1.302   8.498   5.427 -0.0661  0.3921  0.1272
18447THY    HM144765   1.363   8.465   5.512  0.0899  0.1369 -0.2409
18447THY    HM244766   1.342   8.591   5.385  1.4215 -2.4082 -1.6409
18447THY    HM344767   1.314   8.422   5.349 -0.2381  0.7796 -0.3026
18447THY    CA644768   1.077   8.421   5.478  0.0376 -0.3079  0.1776
18447THY    HA644769   1.110   8.326   5.436 -0.4344  0.9504 -0.5814
18448THY      O44770   2.834   7.092   6.092 -0.2328  0.1390 -0.1590
18448THY     HO44771   2.926   7.063   6.100 -0.5807 -2.9025 -2.5947
18448THY    CA144772   2.795   7.058   5.965 -0.2618  0.0463 -0.0423
18448THY    CA244773   2.659   7.054   5.924 -0.0038 -0.5268 -0.3087
18448THY    CP144774   2.547   7.098   6.026 -0.6632  0.2177  0.6009
18448THY    HP144775   2.598   7.141   6.113 -0.7919  0.7342 -0.2736
18448THY    CP244776   2.485   6.970   6.091 -0.6157  0.1121 -0.5845
18448THY    HP244777   2.568   6.910   6.130  0.0972 -0.6420 -0.0978
18448THY    HP344778   2.427   6.911   6.020 -2.9406  2.1304 -0.9146
18448THY    HP444779   2.419   6.998   6.174  0.8038  0.8507  0.7488
18448THY    CP344780   2.448   7.189   5.969  0.2767 -0.1302 -0.1733
18448THY    HP544781   2.372   7.217   6.043 -1.1326 -1.1628 -1.1148
18448THY    HP644782   2.392   7.151   5.882 -1.5064  1.0568 -0.3894
18448THY    HP744783   2.499   7.284   5.947  0.2307  1.1106  0.1512
18448THY    CA344784   2.624   7.019   5.794 -0.2111  0.1023 -0.3254
18448THY    HA344785   2.520   7.010   5.762  0.0274 -0.6728 -0.4074
18448THY    CA444786   2.727   7.014   5.702 -0.4259 -0.6285  0.6045
18448THY    HA444787   2.694   6.993   5.601 -2.3761  0.2196 -0.6603
18448THY    CA544788   2.862   7.019   5.735 -0.1937 -0.8630 -0.3974
18448THY    CM144789   2.969   7.001   5.633  0.8591  0.2754  0.1238
18448THY    HM144790   2.943   6.936   5.548  0.1720 -0.9329  1.9112
18448THY    HM244791   3.051   6.948   5.684 -0.2277  0.6455 -1.2704
18448THY    HM344792   2.999   7.102   5.602 -2.8777  0.1017  1.2967
18448THY    CA644793   2.895   7.044   5.870 -0.1362  1.3118 -0.2163
18448THY    HA644794   2.998   7.035   5.902  0.7452 -1.4543 -1.0238
18449THY      O44795   2.191   3.536   3.610  0.2740 -0.6852 -0.0434
18449THY     HO44796   2.124   3.597   3.643  0.7092  0.1290 -0.0018
18449THY    CA144797   2.291   3.615   3.564 -0.3029 -0.4708 -0.3058
18449THY    CA244798   2.359   3.589   3.449  0.7737 -0.4305 -1.2957
18449THY    CP144799   2.335   3.469   3.367  0.3168  0.5329  0.6358
18449THY    HP144800   2.262   3.403   3.415  0.0773  1.4037  1.5036
18449THY    CP244801   2.464   3.405   3.331 -0.1600 -0.6677 -0.2688
18449THY    HP244802   2.446   3.300   3.307 -1.2852  1.6618 -0.6642
18449THY    HP344803   2.527   3.396   3.420  1.7203 -1.7903  0.9003
18449THY    HP444804   2.516   3.455   3.248  0.6628  0.5502  0.9867
18449THY    CP344805   2.273   3.517   3.235  0.5751  0.1284 -0.0567
18449THY    HP544806   2.332   3.599   3.192  0.2649  1.8904  1.1483
18449THY    HP644807   2.175   3.563   3.255  0.3209  0.2199 -0.6210
18449THY    HP744808   2.260   3.437   3.161  0.4527  0.2215 -0.1229
18449THY    CA344809   2.466   3.680   3.411 -0.0478 -0.4537 -0.0515
18449THY    HA344810   2.526   3.653   3.324  3.2785  1.2985  1.1343
18449THY    CA444811   2.500   3.789   3.498  0.4477 -0.2096 -0.0745
18449THY    HA444812   2.569   3.867   3.467 -1.8818 -0.8382  1.8696
18449THY    CA544813   2.415   3.820   3.604  0.2108  0.0176 -0.0351
18449THY    CM144814   2.440   3.943   3.693 -0.3183  0.1241 -0.2258
18449THY    HM144815   2.424   3.932   3.801 -0.5941  0.0436 -0.6148
18449THY    HM244816   2.354   4.005   3.665 -0.2890 -0.2234 -0.3419
18449THY    HM344817   2.532   3.999   3.668 -0.9480  1.0196  1.2598
18449THY    CA644818   2.311   3.735   3.640 -0.5199 -0.1676  0.8580
18449THY    HA644819   2.244   3.756   3.723  1.1526  0.7319  2.9718
18450THY      O44820   8.169   0.567   5.821 -0.0569  0.2953 -0.3153
18450THY     HO44821   8.098   0.633   5.817  2.0854 -1.1407  2.1167
18450THY    CA144822   8.165   0.481   5.720  0.4809  0.9838 -0.1514
18450THY    CA244823   8.250   0.365   5.719  1.0016  0.6129  0.0138
18450THY    CP144824   8.349   0.335   5.835  0.3800 -0.2676 -0.2522
18450THY    HP144825   8.305   0.383   5.924  0.1597 -1.2556  1.4918
18450THY    CP244826   8.480   0.403   5.804  0.3914  0.2211  0.2406
18450THY    HP244827   8.466   0.501   5.758 -1.4319 -0.4645 -0.3008
18450THY    HP344828   8.529   0.333   5.735  0.4300 -0.1269  0.6069
18450THY    HP444829   8.546   0.403   5.892  1.3935 -0.5229  0.1973
18450THY    CP344830   8.369   0.190   5.871 -0.3364 -0.2547  0.0784
18450THY    HP544831   8.270   0.144   5.881 -0.1452  2.1602  0.0408
18450THY    HP644832   8.425   0.179   5.965  0.5279 -0.7672  0.0332
18450THY    HP744833   8.411   0.126   5.793 -0.9923 -0.7209  0.2099
18450THY    CA344834   8.232   0.277   5.609  0.4640  0.7100  0.2858
18450THY    HA344835   8.291   0.187   5.601  1.1408 -1.4405  0.8484
18450THY    CA444836   8.145   0.309   5.500  0.0341  0.3360 -0.1713
18450THY    HA444837   8.118   0.237   5.423 -2.6503  1.4628 -0.4793
18450THY    CA544838   8.074   0.432   5.501  0.2565  0.3118 -0.4157
18450THY    CM144839   7.982   0.464   5.388  0.0206  0.0966 -0.0464
18450THY    HM144840   7.982   0.574   5.378  1.0681  4.7134  0.5578
18450THY    HM244841   7.878   0.447   5.418 -0.3459  0.6756  2.6822
18450THY    HM344842   8.008   0.410   5.296 -0.3487  0.7202 -1.3266
18450THY    CA644843   8.080   0.520   5.607 -0.0000 -0.1995  0.9665
18450THY    HA644844   8.011   0.604   5.606  1.3008 -1.6877  2.0806
18451THY      O44845   3.823   8.981   5.678 -0.5444  0.0843 -0.2329
18451THY     HO44846   3.847   8.893   5.644 -0.6811 -0.3000 -0.1259
18451THY    CA144847   3.869   9.082   5.594  0.1818 -0.6383 -0.3944
18451THY    CA244848   3.800   9.119   5.479 -0.5507 -0.2217 -0.5707
18451THY    CP144849   3.675   9.041   5.436  0.1918  0.0703  0.2474
18451THY    HP144850   3.677   8.934   5.461 -1.9860 -0.2860  0.0643
18451THY    CP244851   3.633   9.050   5.288 -0.1368  0.2550 -0.3569
18451THY    HP244852   3.538   8.995   5.280 -1.5169  0.0470  1.9307
18451THY    HP344853   3.701   9.002   5.216  2.3649  0.8794  2.0622
18451THY    HP444854   3.626   9.151   5.245 -0.9370 -1.2746 -1.0165
18451THY    CP344855   3.552   9.095   5.515  0.5603  0.9981 -0.0229
18451THY    HP544856   3.459   9.047   5.484  1.1151  2.7757 -2.4250
18451THY    HP644857   3.549   9.204   5.506 -1.4365 -0.8780 -0.1785
18451THY    HP744858   3.560   9.072   5.622 -1.5624  1.3714  0.7934
18451THY    CA344859   3.847   9.226   5.402  0.5313  0.6217  0.6070
18451THY    HA344860   3.788   9.259   5.317 -0.6740  1.5311  0.9071
18451THY    CA444861   3.955   9.300   5.447 -1.2482 -0.4648 -0.0864
18451THY    HA444862   4.004   9.369   5.379  2.1013  0.0312 -1.7394
18451THY    CA544863   4.017   9.266   5.565  0.1195 -0.1194  0.5405
18451THY    CM144864   4.130   9.346   5.621  0.1969 -0.3220  0.3463
18451THY    HM144865   4.177   9.407   5.544 -1.5569 -1.0669  0.8120
18451THY    HM244866   4.202   9.284   5.675  3.5011 -1.2707  3.0439
18451THY    HM344867   4.104   9.416   5.701 -1.7191  0.1845 -0.8689
18451THY    CA644868   3.976   9.153   5.644 -0.0498  0.8427  0.2409
18451THY    HA644869   4.034   9.127   5.732  0.1517 -0.2011 -3.4919
18452THY      O44870   3.977   4.708   5.051  0.0873 -0.3645  0.6210
18452THY     HO44871   3.989   4.800   5.022 -1.9657  2.1700  1.8211
18452THY    CA144872   4.041   4.637   4.952  0.2318 -0.1262 -0.0161
18452THY    CA244873   4.001   4.502   4.925 -1.0835  0.3500 -0.1235
18452THY    CP144874   3.909   4.414   5.010  0.4831  0.0544 -0.0125
18452THY    HP144875   3.831   4.474   5.058  0.6993 -0.0682  0.3669
18452THY    CP244876   3.991   4.332   5.113 -0.6796 -0.3959  0.6787
18452THY    HP244877   4.062   4.395   5.168 -1.2027  0.2268  0.7344
18452THY    HP344878   4.052   4.260   5.057 -1.1608  0.8085 -0.7112
18452THY    HP444879   3.922   4.283   5.182  0.0118 -0.3321 -0.2321
18452THY    CP344880   3.815   4.313   4.933 -0.2198 -0.2247  0.0937
18452THY    HP544881   3.871   4.259   4.856 -0.1518 -0.6628  0.7742
18452THY    HP644882   3.742   4.372   4.877  0.2240 -2.4972 -1.3531
18452THY    HP744883   3.767   4.234   4.992  1.4474 -1.8906 -2.3084
18452THY    CA344884   4.058   4.434   4.808 -0.1300  0.7039 -0.3907
18452THY    HA344885   4.043   4.328   4.791  0.2607 -0.5282 -0.2589
18452THY    CA444886   4.138   4.508   4.720  0.4102  0.3020 -0.2624
18452THY    HA444887   4.187   4.457   4.638  2.0294  1.1917 -0.2157
18452THY    CA544888   4.169   4.643   4.752  0.1547 -0.4331  0.2960
18452THY    CM144889   4.256   4.728   4.663 -0.2265  0.6907 -0.4539
18452THY    HM144890   4.317   4.657   4.607  0.7247  1.1676 -0.0314
18452THY    HM244891   4.329   4.779   4.727 -1.1149  1.3636 -0.0078
18452THY    HM344892   4.193   4.797   4.605  2.1765  0.0082  1.3283
18452THY    CA644893   4.119   4.706   4.872 -0.0619  0.0037 -0.0619
18452THY    HA644894   4.156   4.806   4.894 -0.5102  0.1325  0.0779
18453THY      O44895   3.066   6.215   2.321 -0.3848  0.1066 -0.0683
18453THY     HO44896   3.027   6.304   2.330  1.5877  2.9701  0.6592
18453THY    CA144897   3.085   6.180   2.453  0.9371  0.7954 -0.0817
18453THY    CA244898   2.975   6.116   2.529 -0.2324  0.3343  0.1013
18453THY    CP144899   2.838   6.122   2.472 -0.1581 -1.0584 -0.5276
18453THY    HP144900   2.825   6.199   2.395 -2.4557  1.1599  1.4678
18453THY    CP244901   2.730   6.139   2.577  0.1953 -1.0605  0.1386
18453THY    HP244902   2.715   6.041   2.625 -1.7513 -1.1385  0.3582
18453THY    HP344903   2.634   6.181   2.543 -2.2335  2.5872 -1.8872
18453THY    HP444904   2.768   6.211   2.650 -0.7893  1.7617 -1.9825
18453THY    CP344905   2.807   5.981   2.398  0.7356 -0.7557  0.0103
18453THY    HP544906   2.871   5.976   2.309  2.6239  0.5630 -0.1283
18453THY    HP644907   2.700   5.991   2.376  0.8167 -1.3683 -0.4113
18453THY    HP744908   2.836   5.900   2.466  1.8322  0.8510  1.6765
18453THY    CA344909   3.000   6.063   2.651  0.3500  0.0433 -0.0894
18453THY    HA344910   2.923   6.024   2.717  1.4829  0.9071 -0.9364
18453THY    CA444911   3.129   6.076   2.700  0.1678 -0.1568 -0.5185
18453THY    HA444912   3.146   6.045   2.803  0.2663  0.5397  1.6256
18453THY    CA544913   3.234   6.137   2.632  0.3393  0.3287 -0.8044
18453THY    CM144914   3.372   6.147   2.678 -0.0410  0.0160 -0.4180
18453THY    HM144915   3.387   6.114   2.781 -1.3695  0.5373  0.5390
18453THY    HM244916   3.408   6.250   2.683 -0.3187 -0.3878 -0.2984
18453THY    HM344917   3.434   6.081   2.615 -1.7758 -1.3705 -0.8038
18453THY    CA644918   3.211   6.177   2.502 -0.1819  0.0637  0.1530
18453THY    HA644919   3.295   6.221   2.449 -0.5815  0.7592  1.8462
18454THY      O44920   2.549   3.510   4.590  0.3231 -0.1474  0.1857
18454THY     HO44921   2.575   3.550   4.675 -2.8194 -0.1861  2.7593
18454THY    CA144922   2.595   3.389   4.582 -0.4560 -0.3627 -0.3783
18454THY    CA244923   2.601   3.319   4.460  0.4802  0.3902 -0.4466
18454THY    CP144924   2.559   3.386   4.332  0.1678 -0.0225  0.4646
18454THY    HP144925   2.500   3.478   4.340  1.1719 -2.6283  1.4573
18454THY    CP244926   2.476   3.289   4.249  0.3388 -0.9885 -0.1879
18454THY    HP244927   2.416   3.234   4.323  2.3279  1.6182  0.9041
18454THY    HP344928   2.534   3.217   4.190 -2.7286 -2.3097 -1.7808
18454THY    HP444929   2.411   3.349   4.184  0.7746 -1.3310 -0.0821
18454THY    CP344930   2.676   3.439   4.249 -0.4462 -0.3671  0.4923
18454THY    HP544931   2.736   3.369   4.190 -0.6447 -1.4611  1.2193
18454THY    HP644932   2.744   3.502   4.308  0.0214 -1.5183  1.1039
18454THY    HP744933   2.634   3.520   4.187 -0.1804  0.6430  1.4244
18454THY    CA344934   2.654   3.188   4.468  0.5587  0.0067  0.2259
18454THY    HA344935   2.675   3.134   4.376  0.7211  1.1825 -1.8270
18454THY    CA444936   2.696   3.141   4.590  0.5190 -0.4812  0.4473
18454THY    HA444937   2.736   3.040   4.598 -0.6413 -0.5740 -0.0316
18454THY    CA544938   2.679   3.207   4.711 -0.2908 -0.0929  0.7892
18454THY    CM144939   2.710   3.138   4.843 -0.3001 -0.2674  0.3821
18454THY    HM144940   2.818   3.136   4.862 -0.4772  0.8842  0.7979
18454THY    HM244941   2.672   3.035   4.852 -2.6150  4.2555  1.3476
18454THY    HM344942   2.670   3.194   4.929 -1.8399  1.3732 -2.9241
18454THY    CA644943   2.622   3.333   4.705  0.0559 -0.3187  0.4420
18454THY    HA644944   2.599   3.384   4.798 -1.5464 -0.3716 -0.1187
18455THY      O44945   7.638   4.270   3.335 -0.5629 -0.5159  0.1396
18455THY     HO44946   7.588   4.352   3.353 -0.9890  1.7478 -0.5733
18455THY    CA144947   7.755   4.308   3.294  0.0545  0.2774  0.1850
18455THY    CA244948   7.856   4.209   3.253 -0.2710  0.8695  0.0711
18455THY    CP144949   7.830   4.061   3.252 -0.5210 -0.1134  0.1319
18455THY    HP144950   7.772   4.030   3.339 -1.3676 -1.1178 -1.2602
18455THY    CP244951   7.955   3.975   3.262 -0.2337  0.3873  0.2483
18455THY    HP244952   7.931   3.873   3.295  0.3281  2.0933  0.6361
18455THY    HP344953   8.026   4.018   3.334 -0.3499  2.4723 -2.7162
18455THY    HP444954   8.009   3.950   3.170 -2.0657 -0.9825  1.1825
18455THY    CP344955   7.737   4.024   3.142 -0.0327  0.8778 -0.7643
18455THY    HP544956   7.656   4.097   3.143  0.8670  0.3613  0.2797
18455THY    HP644957   7.689   3.928   3.163 -0.0515  1.0950 -0.7073
18455THY    HP744958   7.783   4.032   3.042  0.1398  1.0028 -0.1971
18455THY    CA344959   7.976   4.258   3.206 -0.3052  0.1543  0.4179
18455THY    HA344960   8.056   4.197   3.166 -0.5448  0.7011 -0.2685
18455THY    CA444961   8.002   4.394   3.188  0.1206  0.2389 -0.5592
18455THY    HA444962   8.095   4.421   3.141  0.8481  1.6224 -0.5551
18455THY    CA544963   7.907   4.489   3.229  0.2830  1.2072  1.6080
18455THY    CM144964   7.933   4.631   3.219  0.0015 -0.7405  0.3544
18455THY    HM144965   7.866   4.686   3.287 -1.3731 -2.4572  0.8821
18455THY    HM244966   7.898   4.673   3.124 -0.5675 -0.6350  0.1252
18455THY    HM344967   8.035   4.655   3.250 -0.1935  0.3250 -0.1083
18455THY    CA644968   7.780   4.446   3.276 -0.0917 -0.0315 -0.2408
18455THY    HA644969   7.702   4.521   3.283 -0.1274  0.1043 -0.2905
18456THY      O44970   0.227   8.888   2.087 -0.4235  0.6706 -0.3578
18456THY     HO44971   0.190   8.851   2.169 -1.4052  0.6735  0.5931
18456THY    CA144972   0.336   8.960   2.116  0.4048  0.7281 -0.2702
18456THY    CA244973   0.416   9.041   2.024 -0.1659  0.3255  0.5618
18456THY    CP144974   0.409   9.033   1.871 -0.2370 -0.1587 -0.5845
18456THY    HP144975   0.323   8.967   1.852 -1.6664 -2.3967  1.7536
18456THY    CP244976   0.529   8.962   1.807  0.0117 -0.3264 -0.5166
18456THY    HP244977   0.626   8.998   1.842 -0.4784  3.2618 -2.2734
18456THY    HP344978   0.529   8.967   1.697  0.6440 -0.2750  1.7927
18456THY    HP444979   0.536   8.861   1.849 -1.6965  0.2065 -0.4462
18456THY    CP344980   0.368   9.170   1.811  0.1320  0.3779 -0.3271
18456THY    HP544981   0.269   9.205   1.844 -0.1448 -1.7052  1.1136
18456THY    HP644982   0.372   9.163   1.702  2.0510  0.3416  0.5299
18456THY    HP744983   0.444   9.248   1.825  2.0904 -2.2300 -1.6161
18456THY    CA344984   0.512   9.120   2.072  1.1209 -0.0528 -0.0297
18456THY    HA344985   0.567   9.185   2.005  1.1651  0.2361  0.2319
18456THY    CA444986   0.534   9.117   2.207 -0.4511 -0.3848  0.0685
18456THY    HA444987   0.624   9.173   2.232 -0.2801 -0.0035 -0.3706
18456THY    CA544988   0.465   9.042   2.299  0.5198  0.8092  0.7680
18456THY    CM144989   0.504   9.018   2.437  0.4000  0.1175  0.3475
18456THY    HM144990   0.420   9.000   2.504  1.5569  1.6447  0.3994
18456THY    HM244991   0.551   9.109   2.477  0.7407 -0.3080  0.3612
18456THY    HM344992   0.558   8.923   2.447  0.8790 -0.5981  0.5333
18456THY    CA644993   0.359   8.966   2.249 -0.1986  0.0578 -0.8881
18456THY    HA644994   0.303   8.909   2.323  0.2422  0.9319 -0.2053
18457THY      O44995   5.137   0.071   4.243  0.0502  0.1312 -0.2806
18457THY     HO44996   5.085   0.032   4.171 -3.6515  2.0917  0.5647
18457THY    CA144997   5.076   0.194   4.275  0.2911 -0.6538  0.5689
18457THY    CA244998   5.141   0.286   4.358  0.1593 -0.2216  0.4092
18457THY    CP144999   5.270   0.240   4.428  0.0719  0.7500 -0.2669
18457THY    HP145000   5.330   0.193   4.349 -0.2126 -0.1784  0.8802
18457THY    CP245001   5.248   0.138   4.535 -0.0526 -0.1906 -0.5621
18457THY    HP245002   5.343   0.106   4.578  0.3033 -0.0940  0.5803
18457THY    HP345003   5.192   0.046   4.514  1.9651  0.5008 -2.0198
18457THY    HP445004   5.196   0.184   4.620  0.3836  0.5050 -1.3348
18457THY    CP345005   5.352   0.353   4.493  0.0371 -0.6999 -0.0135
18457THY    HP545006   5.440   0.315   4.546 -0.5763  0.2514 -0.1566
18457THY    HP645007   5.290   0.409   4.565 -0.7117  0.3040 -2.0043
18457THY    HP745008   5.395   0.413   4.413  1.3546 -1.4612 -1.8695
18457THY    CA345009   5.079   0.412   4.376 -0.6950  0.7047  0.5341
18457THY    HA345010   5.112   0.481   4.453 -1.5000  2.2813 -0.7457
18457THY    CA445011   4.961   0.444   4.311  0.5183 -0.2592  0.2822
18457THY    HA445012   4.908   0.532   4.347 -0.3543  0.4131 -0.5020
18457THY    CA545013   4.895   0.353   4.231 -0.0901  0.0363  0.0213
18457THY    CM145014   4.756   0.380   4.171  0.2055 -0.0589 -0.1942
18457THY    HM145015   4.758   0.469   4.108  1.6450  0.7757  0.4069
18457THY    HM245016   4.672   0.385   4.242 -1.9734 -2.4557 -0.7528
18457THY    HM345017   4.733   0.302   4.097  1.0435 -2.4865  1.7486
18457THY    CA645018   4.952   0.224   4.212  0.0108 -0.2029  0.5302
18457THY    HA645019   4.897   0.156   4.148 -0.9295  1.3865 -0.2591
18458THY      O45020   6.902   3.930   2.481 -0.0525  0.2870 -0.0622
18458THY     HO45021   6.941   4.018   2.497  0.6305  1.7842 -0.6103
18458THY    CA145022   6.910   3.878   2.607  0.5254 -1.1139  0.0035
18458THY    CA245023   6.908   3.737   2.631 -0.1463 -0.7353 -0.6387
18458THY    CP145024   6.866   3.630   2.530 -0.6231  0.4129 -0.4213
18458THY    HP145025   6.826   3.680   2.440  1.2651  1.1697  2.7482
18458THY    CP245026   6.761   3.537   2.581 -0.3584 -1.2815 -0.1912
18458THY    HP245027   6.796   3.460   2.651 -1.2056  1.6627  1.9635
18458THY    HP345028   6.736   3.467   2.501 -0.3681 -0.5356 -1.0591
18458THY    HP445029   6.685   3.593   2.635  0.9256  0.4230 -0.0053
18458THY    CP345030   6.985   3.554   2.474 -0.2659  0.0105  0.4497
18458THY    HP545031   7.042   3.515   2.559 -0.4218  0.4218  1.0924
18458THY    HP645032   7.048   3.624   2.418 -1.4038 -1.4484  0.3731
18458THY    HP745033   6.957   3.475   2.403  1.7893  0.3271 -0.6140
18458THY    CA345034   6.943   3.689   2.761  0.8666  0.6995 -0.1052
18458THY    HA345035   6.944   3.581   2.771  0.0896  0.5302 -0.1363
18458THY    CA445036   6.966   3.777   2.862  0.1835  0.0246  0.7048
18458THY    HA445037   6.981   3.742   2.963  0.2585 -0.1283  0.2845
18458THY    CA545038   6.963   3.916   2.835  0.2125 -0.1969  0.2137
18458THY    CM145039   7.028   4.016   2.930 -0.4781 -0.7151  0.0116
18458THY    HM145040   7.089   3.953   2.995 -0.4022  0.4936  1.2779
18458THY    HM245041   6.960   4.070   2.998  0.4382  0.8894 -0.7920
18458THY    HM345042   7.083   4.096   2.879  0.1606  0.3372  0.2764
18458THY    CA645043   6.945   3.968   2.707  0.6215  0.6159 -0.1643
18458THY    HA645044   6.950   4.076   2.695  1.1495  0.2162 -0.2296
18459THY      O45045   2.543   1.262   3.691  0.3829  0.1671 -0.0336
18459THY     HO45046   2.592   1.325   3.746  2.7996 -2.2682  0.3985
18459THY    CA145047   2.537   1.308   3.562  0.3373  0.2181 -0.0034
18459THY    CA245048   2.473   1.239   3.456 -0.0325 -0.0710  0.6291
18459THY    CP145049   2.413   1.102   3.486 -0.0738  0.2735  0.2480
18459THY    HP145050   2.415   1.090   3.595 -0.0270  0.0448 -2.4379
18459THY    CP245051   2.494   0.992   3.411 -0.1707  0.7968  0.2254
18459THY    HP245052   2.594   0.975   3.453  0.5058 -0.7620  0.1836
18459THY    HP345053   2.511   1.008   3.304 -5.7490 -0.3324  0.5715
18459THY    HP445054   2.430   0.904   3.414 -0.9895 -1.4455  0.6742
18459THY    CP345055   2.264   1.097   3.454 -0.4079  0.2877 -0.1341
18459THY    HP545056   2.243   1.085   3.347  0.1453 -0.1284  2.1843
18459THY    HP645057   2.206   1.182   3.493 -3.0189 -0.3122 -1.5102
18459THY    HP745058   2.218   1.009   3.501 -1.4120 -0.1141  0.1533
18459THY    CA345059   2.475   1.290   3.328 -0.2500 -0.3026  0.8027
18459THY    HA345060   2.449   1.226   3.245 -1.0333 -1.6928  2.8107
18459THY    CA445061   2.542   1.415   3.305 -0.7999  0.0590 -0.4038
18459THY    HA445062   2.563   1.447   3.203 -1.9544  0.1217  0.6406
18459THY    CA545063   2.593   1.487   3.409  0.1378  0.7676 -0.0065
18459THY    CM145064   2.649   1.628   3.375  0.3269 -0.1413  0.0698
18459THY    HM145065   2.698   1.669   3.464 -0.4645  0.6156 -0.5846
18459THY    HM245066   2.574   1.706   3.360  0.7556  0.1267  0.5387
18459THY    HM345067   2.722   1.629   3.293 -1.1976 -1.5644 -0.1578
18459THY    CA645068   2.588   1.435   3.540  0.2014 -0.0455  0.2614
18459THY    HA645069   2.630   1.491   3.623 -3.5237  1.4198  1.2243
18460THY      O45070   2.754   8.679   5.991 -0.3599 -0.3112  0.0788
18460THY     HO45071   2.753   8.750   6.059 -1.6859  0.8036 -0.9558
18460THY    CA145072   2.774   8.733   5.863  0.3679  0.3709 -0.0674
18460THY    CA245073   2.775   8.650   5.751 -0.3295  1.1866  0.9487
18460THY    CP145074   2.750   8.501   5.765  0.5041  0.0809  0.4338
18460THY    HP145075   2.695   8.486   5.859  0.2981 -0.2152 -0.7764
18460THY    CP245076   2.880   8.415   5.774 -0.7329  0.5326  0.8233
18460THY    HP245077   2.957   8.468   5.831 -0.2547  0.6136  0.0557
18460THY    HP345078   2.923   8.421   5.673 -1.6640  0.0680 -0.0454
18460THY    HP445079   2.867   8.314   5.814  0.0640  2.5969  1.4992
18460THY    CP345080   2.649   8.444   5.659  0.3204 -0.5947  0.2438
18460THY    HP545081   2.559   8.506   5.647  0.5435 -0.2706  0.6335
18460THY    HP645082   2.625   8.338   5.676 -0.8891 -2.2251  0.2169
18460THY    HP745083   2.687   8.457   5.557  0.3943 -0.5841  0.1154
18460THY    CA345084   2.806   8.708   5.624 -0.3925  0.0952 -0.8618
18460THY    HA345085   2.812   8.648   5.533  1.3410 -0.0694 -0.4909
18460THY    CA445086   2.829   8.848   5.616  0.2237  0.0782  0.0073
18460THY    HA445087   2.862   8.889   5.521 -0.0618 -0.0993 -0.1706
18460THY    CA545088   2.838   8.928   5.734 -0.4589  0.5807 -0.2289
18460THY    CM145089   2.896   9.077   5.722  0.7697 -0.2427  0.4708
18460THY    HM145090   2.848   9.134   5.642 -0.6158  0.2484  0.0621
18460THY    HM245091   3.003   9.071   5.703  0.8767  0.4629  0.0434
18460THY    HM345092   2.884   9.124   5.820 -0.7748  0.0239 -0.3936
18460THY    CA645093   2.803   8.875   5.858  0.5041  0.3356  0.9942
18460THY    HA645094   2.812   8.934   5.949  1.5109  0.3732  0.7903
18461THY      O45095   2.146   4.657   4.751  0.5298  0.0402 -0.1705
18461THY     HO45096   2.228   4.707   4.742  0.6010 -0.0089 -0.2942
18461THY    CA145097   2.119   4.613   4.628 -0.5744  0.5439 -0.2887
18461THY    CA245098   1.990   4.567   4.603 -0.7123  0.5575 -0.0887
18461THY    CP145099   1.887   4.552   4.707  1.3144 -0.4787  0.4450
18461THY    HP145100   1.943   4.520   4.796  0.7407 -0.0290  0.6626
18461THY    CP245101   1.779   4.449   4.681  0.4341  0.4936 -0.3473
18461THY    HP245102   1.832   4.358   4.652  2.3058  0.3212  0.7483
18461THY    HP345103   1.699   4.464   4.609 -0.9614  1.8211 -1.0900
18461THY    HP445104   1.745   4.428   4.784  2.0659  0.8868 -1.3130
18461THY    CP345105   1.817   4.688   4.721 -0.3795 -0.1527 -0.4956
18461THY    HP545106   1.893   4.757   4.761 -1.2085  0.2278  0.2117
18461THY    HP645107   1.734   4.680   4.791 -0.2333  0.4941  2.4174
18461THY    HP745108   1.778   4.726   4.626 -0.9959  1.4176  3.2531
18461THY    CA345109   1.975   4.533   4.460  0.4849  0.1182  0.6892
18461THY    HA345110   1.883   4.488   4.423  0.5823  0.9142 -0.1813
18461THY    CA445111   2.068   4.562   4.364  0.3358  0.3428  0.1010
18461THY    HA445112   2.046   4.546   4.259 -1.4207  0.4756  1.3074
18461THY    CA545113   2.194   4.609   4.400  0.6442 -0.0423 -0.0208
18461THY    CM145114   2.300   4.619   4.302  0.2954 -0.2773 -0.7825
18461THY    HM145115   2.366   4.532   4.307  1.4709  0.5236  0.1213
18461THY    HM245116   2.372   4.699   4.326  0.5841 -0.5595 -0.9555
18461THY    HM345117   2.259   4.639   4.202  0.0643  0.2724  1.8256
18461THY    CA645118   2.222   4.634   4.531  0.1517 -0.5193  0.2384
18461THY    HA645119   2.323   4.662   4.558 -0.2932  1.6185 -0.0503
18462THY      O45120   3.696   1.773   6.532  0.3464 -0.9631  0.0743
18462THY     HO45121   3.648   1.846   6.490  1.2290  1.4777  2.2015
18462THY    CA145122   3.720   1.808   6.658  0.4755  1.1110 -0.0293
18462THY    CA245123   3.767   1.720   6.754  0.1272 -0.2514  1.1845
18462THY    CP145124   3.779   1.570   6.710 -0.1556 -0.2143  0.1246
18462THY    HP145125   3.797   1.558   6.602 -0.9941 -0.3838  0.3859
18462THY    CP245126   3.637   1.509   6.731  1.0884 -0.1368  0.4961
18462THY    HP245127   3.639   1.409   6.686 -1.0125  3.3282 -1.2923
18462THY    HP345128   3.563   1.572   6.682 -1.1307  3.0761  0.6102
18462THY    HP445129   3.620   1.504   6.839 -1.8156 -0.5658 -0.4740
18462THY    CP345130   3.891   1.492   6.764 -0.2592  0.7080  0.1679
18462THY    HP545131   3.984   1.520   6.712  0.4939  0.2260 -2.8532
18462THY    HP645132   3.868   1.389   6.734  1.5218  0.1013 -0.0975
18462THY    HP745133   3.901   1.513   6.871  1.3736  0.3795  1.3279
18462THY    CA345134   3.773   1.763   6.890 -0.9970  0.3807  0.8196
18462THY    HA345135   3.784   1.696   6.975 -1.8325  0.7999  1.2048
18462THY    CA445136   3.749   1.900   6.919 -0.6222 -0.6798 -0.3904
18462THY    HA445137   3.755   1.944   7.018  1.6295 -0.9958  0.1354
18462THY    CA545138   3.725   1.991   6.817 -0.3251 -0.3475  0.4104
18462THY    CM145139   3.729   2.136   6.841  0.1435 -0.3444  0.2049
18462THY    HM145140   3.780   2.181   6.755 -0.7215 -0.9460  0.0592
18462THY    HM245141   3.783   2.172   6.929  0.5975 -0.6679  0.3154
18462THY    HM345142   3.631   2.185   6.847 -0.5642  1.6776 -1.3192
18462THY    CA645143   3.708   1.945   6.685  0.3912  0.2366 -1.2001
18462THY    HA645144   3.684   2.020   6.610 -0.0029  0.5781 -0.9826
18463THY      O45145   2.469   5.602   3.124 -0.0435 -0.3246  0.9914
18463THY     HO45146   2.543   5.665   3.131  0.8649  5.4526 -0.0831
18463THY    CA145147   2.444   5.567   2.996  0.2076 -0.2637 -0.0183
18463THY    CA245148   2.424   5.431   2.952  0.3536 -0.7837 -0.0992
18463THY    CP145149   2.434   5.316   3.054 -0.9953 -0.0568  0.3619
18463THY    HP145150   2.478   5.357   3.146 -0.2184  0.0971 -0.7754
18463THY    CP245151   2.528   5.200   3.000 -0.5517  0.8337 -0.6137
18463THY    HP245152   2.630   5.234   2.978 -0.5616  0.0321 -1.0873
18463THY    HP345153   2.493   5.139   2.916  1.0036  0.4456 -1.0223
18463THY    HP445154   2.549   5.140   3.090  1.6245  1.3426  0.7894
18463THY    CP345155   2.298   5.261   3.087  0.0488 -0.0002  0.7737
18463THY    HP545156   2.218   5.336   3.089 -0.6443 -1.7852  0.1334
18463THY    HP645157   2.291   5.190   3.170  0.0004  0.8267  1.7225
18463THY    HP745158   2.260   5.196   3.007 -2.7500  1.7823  0.0142
18463THY    CA345159   2.394   5.410   2.813  1.1345  0.3275  0.4888
18463THY    HA345160   2.369   5.311   2.776 -0.1963  3.2988 -0.4135
18463THY    CA445161   2.391   5.513   2.729 -0.6444  0.9362 -0.2433
18463THY    HA445162   2.385   5.499   2.622  3.1761  0.4457  0.7036
18463THY    CA545163   2.408   5.643   2.773  0.1649  0.4679 -1.3151
18463THY    CM145164   2.401   5.759   2.685  0.3288  0.2338  0.4797
18463THY    HM145165   2.346   5.731   2.594  0.5839  0.4232 -0.6927
18463THY    HM245166   2.508   5.772   2.664  0.4210  1.3996  1.8745
18463THY    HM345167   2.372   5.858   2.723 -1.7307 -1.0232  0.4293
18463THY    CA645168   2.436   5.668   2.904  0.2815  0.1196 -0.7452
18463THY    HA645169   2.447   5.771   2.938 -1.7435 -0.8310 -0.1623
18464THY      O45170   7.037   4.991   7.433  0.4067 -0.6273 -0.0100
18464THY     HO45171   6.985   4.950   7.362 -0.4766 -0.2398  0.4007
18464THY    CA145172   7.062   5.126   7.394  0.1125  0.1895  0.6955
18464THY    CA245173   7.091   5.228   7.489 -0.1811 -0.1790 -0.1698
18464THY    CP145174   7.109   5.187   7.635  0.3098 -0.3589  0.9254
18464THY    HP145175   7.108   5.079   7.654 -0.4760 -0.4377  0.9097
18464THY    CP245176   7.004   5.256   7.724 -0.6123 -0.2220  0.6117
18464THY    HP245177   7.004   5.365   7.727 -1.0751  1.0378  0.5861
18464THY    HP345178   7.015   5.211   7.823 -1.8608 -0.4627 -0.3057
18464THY    HP445179   6.903   5.224   7.695 -0.2239 -0.3099 -0.5881
18464THY    CP345180   7.247   5.226   7.698 -0.2207 -0.2050  0.6586
18464THY    HP545181   7.283   5.328   7.676 -0.5768  1.4766  1.1828
18464THY    HP645182   7.320   5.157   7.656  0.5353  0.9260  0.7345
18464THY    HP745183   7.255   5.209   7.806 -1.7971 -0.3731 -1.6144
18464THY    CA345184   7.111   5.361   7.441 -0.1594  0.1895 -0.1652
18464THY    HA345185   7.129   5.433   7.521  0.6940  0.6690 -0.8949
18464THY    CA445186   7.107   5.391   7.306 -0.3022 -0.3374 -0.4547
18464THY    HA445187   7.137   5.491   7.276  2.0287  0.7301 -0.7526
18464THY    CA545188   7.079   5.296   7.215 -0.0976  0.6828  0.4133
18464THY    CM145189   7.078   5.320   7.070  0.8950  0.5036  0.3759
18464THY    HM145190   6.971   5.302   7.051 -0.0450  4.5757  0.5904
18464THY    HM245191   7.156   5.253   7.033 -0.6805  0.6573 -1.6504
18464THY    HM345192   7.094   5.424   7.042  0.2488  2.3406  1.0232
18464THY    CA645193   7.064   5.162   7.261 -0.2998 -0.3995  0.1244
18464THY    HA645194   7.044   5.080   7.192  0.1167  1.0766 -1.2646
18465THY      O45195   5.192   3.220   4.812 -0.3448  0.0898 -0.1327
18465THY     HO45196   5.279   3.263   4.815 -0.5422 -0.6690  0.3302
18465THY    CA145197   5.174   3.177   4.686 -0.1009 -0.1616 -0.9092
18465THY    CA245198   5.130   3.052   4.643  0.8566 -1.2144  0.7182
18465THY    CP145199   5.119   2.943   4.756  0.2936  0.0689 -0.5972
18465THY    HP145200   5.189   2.962   4.838  0.8457 -0.6250  0.4626
18465THY    CP245201   5.159   2.797   4.719 -0.0834  0.4684  0.2211
18465THY    HP245202   5.264   2.795   4.686 -0.4001 -0.5686 -0.7353
18465THY    HP345203   5.084   2.748   4.656 -0.8012  0.9799  0.6528
18465THY    HP445204   5.164   2.740   4.813  4.7015  0.2117 -0.1844
18465THY    CP345205   4.975   2.958   4.807  0.0714 -0.4370  0.9088
18465THY    HP545206   4.896   2.945   4.732  0.7444 -1.0272  0.0586
18465THY    HP645207   4.960   3.058   4.849  2.1890 -0.0032  1.1092
18465THY    HP745208   4.953   2.881   4.882 -0.6263 -1.8443 -0.3196
18465THY    CA345209   5.116   3.013   4.509  0.0561  0.7244 -0.0974
18465THY    HA345210   5.087   2.913   4.479 -1.1898  2.6604 -0.3731
18465THY    CA445211   5.133   3.117   4.415 -0.2244 -0.5437 -0.2781
18465THY    HA445212   5.109   3.088   4.313 -2.2014  0.7112 -3.7400
18465THY    CA545213   5.185   3.243   4.452  0.0270  0.1982  0.0140
18465THY    CM145214   5.211   3.334   4.340 -0.1433  0.1903  0.2074
18465THY    HM145215   5.212   3.286   4.241  0.8607 -1.0824  2.6232
18465THY    HM245216   5.308   3.383   4.355  0.4472 -0.6526 -0.6751
18465THY    HM345217   5.135   3.413   4.336 -0.5800  0.5029 -0.1978
18465THY    CA645218   5.202   3.271   4.592 -0.0149  0.4206 -0.2134
18465THY    HA645219   5.233   3.369   4.629  1.2327  0.2266 -0.5109
18466THY      O45220   2.475   4.015   7.809 -0.2931 -0.2919 -0.2071
18466THY     HO45221   2.382   4.019   7.839 -1.1241 -2.5166 -1.1224
18466THY    CA145222   2.479   3.930   7.702 -0.3443 -1.1829 -0.0062
18466THY    CA245223   2.592   3.909   7.627  0.5234 -0.1841 -0.4926
18466THY    CP145224   2.714   3.998   7.666 -0.0222 -0.4237 -0.2352
18466THY    HP145225   2.685   4.070   7.744 -0.7034 -1.4678  0.6420
18466THY    CP245226   2.771   4.080   7.545 -0.0144 -0.3197 -0.3887
18466THY    HP245227   2.796   4.015   7.460  1.4500  0.2225 -0.5566
18466THY    HP345228   2.858   4.141   7.570 -0.5515 -0.3201  0.3914
18466THY    HP445229   2.694   4.153   7.517  0.2591  0.5094  0.2316
18466THY    CP345230   2.824   3.920   7.732  0.0979  0.7898  0.3808
18466THY    HP545231   2.890   3.980   7.795  0.5879  2.1472 -1.4857
18466THY    HP645232   2.880   3.863   7.656 -1.3384 -2.4379  2.9351
18466THY    HP745233   2.791   3.849   7.808  1.3165 -0.5895 -1.7804
18466THY    CA345234   2.585   3.802   7.533 -0.5269 -0.1737 -0.4594
18466THY    HA345235   2.678   3.780   7.480  0.0370 -0.7664  2.7239
18466THY    CA445236   2.471   3.729   7.522  0.2065  0.6629 -1.0218
18466THY    HA445237   2.461   3.646   7.454 -2.3100  0.7780 -0.8852
18466THY    CA545238   2.356   3.758   7.597 -0.6478  0.1910 -0.3790
18466THY    CM145239   2.231   3.676   7.581 -0.1191 -0.4703 -0.4193
18466THY    HM145240   2.172   3.682   7.674  0.9192  0.4528 -3.1793
18466THY    HM245241   2.254   3.569   7.578 -0.0499  0.8390 -0.4641
18466THY    HM345242   2.170   3.714   7.498 -1.2567  0.9976  1.1066
18466THY    CA645243   2.358   3.857   7.687 -1.2354 -0.6565 -0.4152
18466THY    HA645244   2.268   3.889   7.741  0.1543  1.0102  0.8856
18467THY      O45245   8.250   4.770   4.021 -0.1298  0.0849 -0.1327
18467THY     HO45246   8.305   4.835   3.976  1.5217  0.8625 -0.9407
18467THY    CA145247   8.174   4.702   3.929 -0.6044  0.2813  0.1587
18467THY    CA245248   8.178   4.564   3.913  0.3958  0.3779  0.6843
18467THY    CP145249   8.273   4.472   4.002 -0.3149 -0.1236 -0.6369
18467THY    HP145250   8.322   4.530   4.081  2.4560 -3.1025  1.4378
18467THY    CP245251   8.376   4.397   3.920  0.3822 -0.3301 -0.7238
18467THY    HP245252   8.340   4.333   3.838  0.2926 -1.2462  0.4631
18467THY    HP345253   8.453   4.349   3.980  1.5264  0.9619  2.4579
18467THY    HP445254   8.438   4.473   3.872 -1.0028  0.9367  1.3165
18467THY    CP345255   8.188   4.375   4.080  0.2685 -0.0668 -0.4594
18467THY    HP545256   8.114   4.424   4.144 -1.8495 -2.1903 -0.6766
18467THY    HP645257   8.248   4.327   4.158  0.1411 -0.3926 -1.1608
18467THY    HP745258   8.144   4.295   4.018 -0.0870  0.6832 -0.8545
18467THY    CA345259   8.102   4.506   3.812  0.4690  0.3547 -0.1337
18467THY    HA345260   8.098   4.398   3.801  0.6928  1.3344 -0.2603
18467THY    CA445261   8.043   4.582   3.723  0.3885  0.6636 -0.5112
18467THY    HA445262   7.995   4.541   3.634  2.9924 -1.7127  1.1820
18467THY    CA545263   8.047   4.718   3.727 -0.3649 -0.7194 -0.5139
18467THY    CM145264   7.971   4.797   3.622 -0.0486  0.4339  0.0455
18467THY    HM145265   7.864   4.775   3.628 -0.0945  1.5392  0.5421
18467THY    HM245266   7.998   4.776   3.518  1.1113  0.4826  1.1819
18467THY    HM345267   7.987   4.902   3.647  0.5013 -0.5750  0.2128
18467THY    CA645268   8.102   4.781   3.843 -0.6027 -0.1570 -0.0780
18467THY    HA645269   8.115   4.889   3.844  1.7376  3.1367 -0.2115
18468THY      O45270   3.755   2.183   3.553  0.3142 -0.3103  0.1598
18468THY     HO45271   3.716   2.094   3.546  2.0268  2.4649 -0.9437
18468THY    CA145272   3.876   2.160   3.497 -0.0102 -0.6229 -0.3876
18468THY    CA245273   3.943   2.260   3.427  0.2107  0.9431 -0.1813
18468THY    CP145274   3.882   2.403   3.418  0.8253 -0.0798  0.2282
18468THY    HP145275   3.827   2.432   3.508  0.4931  0.6054 -2.2471
18468THY    CP245276   3.803   2.426   3.286  0.4123  0.0024 -1.0394
18468THY    HP245277   3.705   2.376   3.278 -0.6507 -0.6890  1.0492
18468THY    HP345278   3.859   2.391   3.199  2.9700  0.1511  2.2397
18468THY    HP445279   3.798   2.534   3.267  0.6186 -2.2088 -1.3730
18468THY    CP345280   3.998   2.500   3.415 -1.0623  0.7455 -0.4652
18468THY    HP545281   4.080   2.463   3.477 -0.8866 -0.0416 -1.4362
18468THY    HP645282   3.966   2.598   3.453 -1.7821  0.7386 -0.6887
18468THY    HP745283   4.035   2.516   3.313 -2.7446  0.1577 -0.0767
18468THY    CA345284   4.064   2.226   3.356  0.2961 -0.4668 -0.3346
18468THY    HA345285   4.120   2.308   3.314  0.0880  3.9614  2.4021
18468THY    CA445286   4.114   2.091   3.358  0.3759  0.1111 -1.1779
18468THY    HA445287   4.203   2.068   3.300  0.1848 -1.8026  2.2143
18468THY    CA545288   4.040   1.994   3.430  0.6224 -0.3119  0.3518
18468THY    CM145289   4.089   1.854   3.430 -0.1528 -0.0566  0.7944
18468THY    HM145290   4.123   1.822   3.529  1.1979 -0.9558 -0.6997
18468THY    HM245291   4.175   1.849   3.362 -0.1280  0.0682 -2.2337
18468THY    HM345292   4.005   1.797   3.389 -0.0880  1.0542 -0.1281
18468THY    CA645293   3.927   2.033   3.498 -0.0709 -0.9589 -0.8475
18468THY    HA645294   3.871   1.953   3.546 -0.1649  0.4268  0.0153
18469THY      O45295   2.005   4.371   3.091  0.0543 -0.2058 -0.1180
18469THY     HO45296   2.046   4.316   3.022  0.6405  0.9517 -1.1732
18469THY    CA145297   1.993   4.290   3.199 -0.2983 -0.1220 -0.0452
18469THY    CA245298   1.877   4.270   3.273  0.8866 -0.9162  0.6613
18469THY    CP145299   1.743   4.320   3.220 -0.1568 -0.4745 -0.1541
18469THY    HP145300   1.748   4.364   3.119 -1.0282 -0.8251 -0.8104
18469THY    CP245301   1.693   4.435   3.303  0.6425 -0.2950  0.0782
18469THY    HP245302   1.770   4.510   3.324 -0.8612 -0.0044  1.5977
18469THY    HP345303   1.666   4.395   3.402  3.1753  0.4454  0.0336
18469THY    HP445304   1.605   4.491   3.268  0.8177 -1.5039 -0.3841
18469THY    CP345305   1.631   4.216   3.209  0.5477 -0.4006  0.3955
18469THY    HP545306   1.659   4.132   3.145 -3.3936 -1.5754 -0.2439
18469THY    HP645307   1.546   4.262   3.158 -0.3102  0.6796  0.0558
18469THY    HP745308   1.596   4.172   3.304  0.1198 -0.8705 -0.3009
18469THY    CA345309   1.874   4.188   3.389 -0.3199 -0.1525 -0.4824
18469THY    HA345310   1.777   4.178   3.436  0.1752  1.1992  0.6815
18469THY    CA445311   1.989   4.130   3.431 -0.1548 -0.3387 -1.0188
18469THY    HA445312   1.974   4.075   3.523  0.3626 -0.4703 -1.3860
18469THY    CA545313   2.106   4.146   3.357 -0.4066  0.0247 -0.0101
18469THY    CM145314   2.239   4.097   3.412 -0.2741  0.4857 -0.1524
18469THY    HM145315   2.325   4.092   3.344 -1.0910 -0.4832 -1.5616
18469THY    HM245316   2.232   3.992   3.445 -2.4251 -0.3851 -0.3277
18469THY    HM345317   2.260   4.145   3.509  0.7084  1.5989 -2.6508
18469THY    CA645318   2.109   4.233   3.240 -0.9366  0.1776  0.7359
18469THY    HA645319   2.201   4.253   3.186 -1.2175 -0.6230 -0.0868
18470THY      O45320   0.315   6.750   4.830  0.2074 -0.1140  0.8151
18470THY     HO45321   0.234   6.702   4.807 -1.6922 -0.6713  4.0322
18470THY    CA145322   0.365   6.695   4.947  0.8982 -0.0904  0.2696
18470THY    CA245323   0.441   6.768   5.040  0.1632 -0.2917 -0.3309
18470THY    CP145324   0.497   6.906   5.010  0.6758  0.0848 -0.0441
18470THY    HP145325   0.446   6.945   4.921 -0.1305  0.8855  0.7790
18470THY    CP245326   0.641   6.881   4.978  0.4443 -0.2179  0.6618
18470THY    HP245327   0.640   6.810   4.894 -0.0812  0.2879  0.0621
18470THY    HP345328   0.688   6.832   5.063 -0.9303  0.2030  0.0171
18470THY    HP445329   0.689   6.971   4.937 -0.2203 -1.3239  0.5381
18470THY    CP345330   0.469   7.007   5.125 -0.8240 -0.2042  0.0701
18470THY    HP545331   0.530   6.984   5.213 -0.3805 -0.5011  0.1078
18470THY    HP645332   0.364   7.001   5.157 -1.1631 -0.3949  3.3884
18470THY    HP745333   0.483   7.111   5.094 -1.6694 -0.8139  0.0110
18470THY    CA345334   0.480   6.701   5.163  0.0169 -0.6003 -0.5569
18470THY    HA345335   0.528   6.757   5.243 -3.3349  0.6165  0.8173
18470THY    CA445336   0.445   6.570   5.186  0.4614  0.6731 -0.6361
18470THY    HA445337   0.489   6.526   5.275  1.5281  0.8073  0.6240
18470THY    CA545338   0.367   6.500   5.094 -0.5672  0.1722  0.2216
18470THY    CM145339   0.338   6.350   5.120 -0.7971  0.1561 -0.1402
18470THY    HM145340   0.362   6.310   5.219 -3.6526  0.9256 -0.1954
18470THY    HM245341   0.401   6.295   5.049  0.0688  1.0415 -0.3041
18470THY    HM345342   0.231   6.330   5.108 -1.2100  1.1811  1.2706
18470THY    CA645343   0.321   6.567   4.982  0.0695  0.0896  0.3928
18470THY    HA645344   0.260   6.513   4.909  0.0953  0.2959  0.0805
18471THY      O45345   3.265   7.749   4.974 -0.1198  0.6717 -0.0127
18471THY     HO45346   3.298   7.829   4.931 -1.5910 -1.5365 -0.5165
18471THY    CA145347   3.205   7.678   4.872  0.2617 -0.2494 -0.3817
18471THY    CA245348   3.206   7.535   4.869  0.2944 -0.1659 -0.3512
18471THY    CP145349   3.280   7.443   4.970  0.3721  1.0322 -0.1367
18471THY    HP145350   3.321   7.496   5.057 -0.6300  2.5437 -1.7428
18471THY    CP245351   3.403   7.374   4.909  0.3818  0.3096 -0.2456
18471THY    HP245352   3.380   7.317   4.819 -0.2321 -1.4839  2.5968
18471THY    HP345353   3.452   7.311   4.984 -0.4274  2.8751  1.9707
18471THY    HP445354   3.471   7.455   4.878  0.7076 -1.9692 -1.3179
18471THY    CP345355   3.176   7.340   5.030  0.0862  0.5969  0.4055
18471THY    HP545356   3.084   7.398   5.042  0.8747  0.0491  1.8250
18471THY    HP645357   3.223   7.311   5.125  1.3196 -0.4756 -1.3224
18471THY    HP745358   3.150   7.256   4.965  0.0429  0.7152  0.3276
18471THY    CA345359   3.131   7.480   4.764  0.5016 -0.4669  0.4084
18471THY    HA345360   3.131   7.372   4.757  1.5829  0.7809  0.2973
18471THY    CA445361   3.061   7.565   4.668 -0.3977  0.4144  0.2758
18471THY    HA445362   3.003   7.508   4.596  0.6357  0.2464 -0.6199
18471THY    CA545363   3.065   7.703   4.675 -0.1365 -0.2015 -0.0835
18471THY    CM145364   2.984   7.781   4.580  0.4359 -0.7681 -0.7999
18471THY    HM145365   2.875   7.769   4.585  0.4672 -2.0537 -1.9392
18471THY    HM245366   3.011   7.760   4.475  0.0352 -1.0096 -0.1341
18471THY    HM345367   3.001   7.889   4.586 -3.4257 -1.0693 -0.0468
18471THY    CA645368   3.146   7.761   4.771  0.4150  0.5735 -0.0623
18471THY    HA645369   3.148   7.869   4.766  1.0702 -3.7158 -0.1290
18472THY      O45370   1.546   5.241   2.422  0.0948  0.1968  0.2704
18472THY     HO45371   1.461   5.198   2.443 -1.8555 -1.9609  2.7585
18472THY    CA145372   1.536   5.262   2.288  0.3588 -0.0128  0.2498
18472THY    CA245373   1.641   5.324   2.214  0.0835 -0.4642 -0.0745
18472THY    CP145374   1.768   5.361   2.291 -0.4334 -0.1132  0.5256
18472THY    HP145375   1.767   5.350   2.400  2.0227 -0.0264  0.6760
18472THY    CP245376   1.823   5.502   2.272  0.0666 -0.2591 -0.3076
18472THY    HP245377   1.888   5.518   2.358 -0.5737 -0.1877  2.4322
18472THY    HP345378   1.738   5.569   2.288 -3.0692 -0.4514 -3.8813
18472THY    HP445379   1.865   5.519   2.172  0.8062 -0.5004 -3.1132
18472THY    CP345380   1.883   5.272   2.246 -0.5531  0.4324 -0.2167
18472THY    HP545381   1.933   5.303   2.153  1.8099  1.7771  0.2226
18472THY    HP645382   1.834   5.176   2.224  1.3930 -0.2051 -1.1175
18472THY    HP745383   1.955   5.266   2.329 -0.7515  0.5409 -1.1958
18472THY    CA345384   1.630   5.337   2.075 -0.2840 -0.1714 -0.4477
18472THY    HA345385   1.710   5.389   2.023 -0.7048 -1.4598 -1.0486
18472THY    CA445386   1.515   5.289   2.010 -0.4084  0.3124  0.3939
18472THY    HA445387   1.500   5.305   1.904 -2.8126  0.2040 -1.9847
18472THY    CA545388   1.411   5.233   2.084 -0.0006  0.1325 -0.2884
18472THY    CM145389   1.283   5.181   2.025 -1.0042 -0.3937 -0.1081
18472THY    HM145390   1.218   5.143   2.105  1.1852  2.1291  1.1306
18472THY    HM245391   1.312   5.110   1.948 -0.8287  0.2533 -0.7457
18472THY    HM345392   1.232   5.258   1.966  0.8524 -1.0254  0.6804
18472THY    CA645393   1.425   5.222   2.222  0.6925 -0.3980  0.2754
18472THY    HA645394   1.350   5.172   2.283  2.2853 -0.9429 -3.0244
18473THY      O45395   3.623   1.946   6.329 -0.2553 -0.5022  0.2433
18473THY     HO45396   3.526   1.940   6.321 -0.4445  1.8723 -0.9687
18473THY    CA145397   3.653   2.051   6.256 -0.0551 -0.5548  0.0090
18473THY    CA245398   3.780   2.090   6.220 -0.5461  0.2025 -0.1780
18473THY    CP145399   3.902   2.015   6.270  0.2710 -0.0805  0.0246
18473THY    HP145400   3.877   1.912   6.301  1.7192 -0.9655 -0.6206
18473THY    CP245401   3.960   2.083   6.393 -0.0865 -0.1063  1.3159
18473THY    HP245402   4.021   2.006   6.443 -0.9308  0.1096  0.7662
18473THY    HP345403   3.887   2.103   6.472  0.7180  1.2256 -0.6475
18473THY    HP445404   4.004   2.179   6.366  1.3132  0.0844  0.7517
18473THY    CP345405   4.021   1.992   6.167  0.5014  0.2431 -0.5340
18473THY    HP545406   4.065   2.090   6.144 -0.9970  3.0995  0.9106
18473THY    HP645407   3.985   1.952   6.072  1.5827  0.2771 -1.6618
18473THY    HP745408   4.112   1.944   6.207  1.6321 -1.7190 -0.1669
18473THY    CA345409   3.798   2.202   6.138 -0.2520  0.4513 -0.0562
18473THY    HA345410   3.898   2.233   6.106 -1.0674 -2.5828 -0.1712
18473THY    CA445411   3.686   2.269   6.093 -0.3599 -0.1282 -0.1691
18473THY    HA445412   3.705   2.348   6.020  1.9883 -1.4927 -1.8533
18473THY    CA545413   3.559   2.233   6.134  0.2784 -0.2816  0.5179
18473THY    CM145414   3.445   2.315   6.094  0.3641  0.2951  0.2347
18473THY    HM145415   3.435   2.417   6.133 -2.8998 -2.0531  0.9818
18473THY    HM245416   3.358   2.258   6.127  0.4443 -0.3258 -0.2546
18473THY    HM345417   3.434   2.312   5.985  2.1052  0.0640  0.8584
18473THY    CA645418   3.540   2.124   6.217  0.6940 -0.6481  0.0961
18473THY    HA645419   3.442   2.113   6.265  0.6360 -0.5332  1.0483
18474THY      O45420   5.578   1.518   7.583 -0.3749  0.2940 -0.1583
18474THY     HO45421   5.551   1.445   7.525 -2.0753 -1.0322  1.4252
18474THY    CA145422   5.481   1.611   7.602 -0.3698  0.1723  0.4758
18474THY    CA245423   5.512   1.743   7.562  0.6595  0.6322  0.2385
18474THY    CP145424   5.650   1.781   7.532  0.1242 -0.2017 -0.2718
18474THY    HP145425   5.721   1.711   7.578 -0.5366  0.0312 -0.8019
18474THY    CP245426   5.706   1.908   7.590  0.2982  0.4125  0.3134
18474THY    HP245427   5.815   1.897   7.587  0.3416  1.4534  0.4036
18474THY    HP345428   5.666   1.923   7.691  0.2910  0.2601  1.4018
18474THY    HP445429   5.661   1.981   7.521 -0.7170  1.0213  0.2888
18474THY    CP345430   5.677   1.778   7.385  0.2977 -0.5356 -0.5169
18474THY    HP545431   5.776   1.818   7.358 -0.6603 -1.8201  1.1279
18474THY    HP645432   5.611   1.846   7.329  3.1406 -3.3593  0.1812
18474THY    HP745433   5.666   1.683   7.333 -1.3650 -3.4377  1.1149
18474THY    CA345434   5.408   1.839   7.571  0.5273  0.3596  0.1614
18474THY    HA345435   5.436   1.941   7.545  2.6864  1.7336 -0.0184
18474THY    CA445436   5.289   1.803   7.632 -0.4512  0.6125  0.2931
18474THY    HA445437   5.209   1.874   7.652  0.3953  1.7043  0.9760
18474THY    CA545438   5.256   1.671   7.655 -0.0970 -0.0797  0.7974
18474THY    CM145439   5.121   1.622   7.702  0.4905  0.0929 -0.3990
18474THY    HM145440   5.055   1.709   7.705 -0.5445 -2.6447 -0.9942
18474THY    HM245441   5.120   1.573   7.800 -0.3139  0.7590  0.8881
18474THY    HM345442   5.073   1.551   7.634  1.3386 -0.0222 -0.8770
18474THY    CA645443   5.351   1.571   7.628  0.7305  0.7681 -0.7872
18474THY    HA645444   5.322   1.467   7.642  0.9301  0.7254 -0.8493
18475THY      O45445   2.998   4.558   1.991  0.4566 -0.4342 -0.4561
18475THY     HO45446   3.002   4.627   2.059 -1.2487 -1.6386  0.9082
18475THY    CA145447   2.925   4.453   2.026  0.1373 -0.4345 -0.0851
18475THY    CA245448   2.882   4.356   1.934  0.5773  0.1140 -0.7776
18475THY    CP145449   2.911   4.377   1.781 -0.1740  0.2711  1.1142
18475THY    HP145450   2.922   4.483   1.757  0.1662 -1.9392  0.6307
18475THY    CP245451   2.815   4.323   1.670 -0.6247 -0.1781 -0.0383
18475THY    HP245452   2.714   4.355   1.699  0.1746  0.0383  2.5515
18475THY    HP345453   2.821   4.215   1.655  3.6748  1.0364 -0.1514
18475THY    HP445454   2.839   4.379   1.579 -0.1853  0.3847  0.7053
18475THY    CP345455   3.052   4.328   1.749  0.4835 -0.2023  0.2913
18475THY    HP545456   3.059   4.220   1.769  1.3209 -1.1018  0.1693
18475THY    HP645457   3.129   4.373   1.813  3.8067 -2.0344 -2.3640
18475THY    HP745458   3.071   4.351   1.644  0.0155 -0.5106 -0.6488
18475THY    CA345459   2.792   4.257   1.985 -0.5487  0.4522 -0.3650
18475THY    HA345460   2.764   4.175   1.918  2.2797  0.9772 -1.8866
18475THY    CA445461   2.750   4.254   2.119  0.0992 -0.2327  0.3648
18475THY    HA445462   2.684   4.175   2.154  0.5133  0.4925  0.3369
18475THY    CA545463   2.790   4.353   2.208  0.6049 -0.1623  0.1878
18475THY    CM145464   2.740   4.351   2.346  0.8774  0.3834 -0.3879
18475THY    HM145465   2.798   4.426   2.402  2.7777 -1.0312 -0.7293
18475THY    HM245466   2.761   4.259   2.400  1.7641 -1.5086 -1.3404
18475THY    HM345467   2.632   4.375   2.349  0.7931 -0.2839 -0.6811
18475THY    CA645468   2.885   4.445   2.157  0.4330 -0.7332  0.7258
18475THY    HA645469   2.903   4.522   2.230 -1.6265  0.3635  0.2439
18476THY      O45470   6.524   0.999   3.488  0.1299 -0.1495 -0.1324
18476THY     HO45471   6.532   1.080   3.434 -0.2817  0.6998  0.4922
18476THY    CA145472   6.386   0.996   3.511  0.3639  0.8144  0.2832
18476THY    CA245473   6.325   0.919   3.604 -0.2073  0.1557  0.0476
18476THY    CP145474   6.409   0.808   3.663 -0.5823 -0.1294 -0.0140
18476THY    HP145475   6.515   0.794   3.639 -0.6271 -0.4510  0.1890
18476THY    CP245476   6.351   0.662   3.635 -0.0914  0.0449  0.0755
18476THY    HP245477   6.295   0.645   3.542 -1.9044  1.0534  0.3039
18476THY    HP345478   6.273   0.638   3.708  0.5592  1.3830  1.8611
18476THY    HP445479   6.417   0.575   3.646 -0.6009 -0.5711 -0.3991
18476THY    CP345480   6.426   0.836   3.818  0.5811  0.0635 -0.3065
18476THY    HP545481   6.325   0.840   3.861  0.6103  0.0566  0.6368
18476THY    HP645482   6.465   0.937   3.833 -3.6476  0.0722  1.5528
18476THY    HP745483   6.496   0.768   3.868 -0.9669  1.3208 -1.0357
18476THY    CA345484   6.186   0.918   3.622  0.1374  0.5707 -0.1427
18476THY    HA345485   6.144   0.846   3.692  1.9953  1.3969 -0.4599
18476THY    CA445486   6.110   1.013   3.551  0.7526 -0.1752  0.2639
18476THY    HA445487   6.003   1.012   3.571  0.7086 -0.4118 -0.6010
18476THY    CA545488   6.177   1.105   3.463  1.1289 -0.6967  0.3073
18476THY    CM145489   6.103   1.207   3.390 -0.0081  0.3366 -0.7359
18476THY    HM145490   6.119   1.310   3.423 -3.0849  1.0356 -0.4062
18476THY    HM245491   5.998   1.189   3.415  0.6717  4.2663 -0.1576
18476THY    HM345492   6.127   1.202   3.283  0.1958  0.0908  2.9228
18476THY    CA645493   6.314   1.098   3.442 -0.5811 -0.2547  0.5347
18476THY    HA645494   6.362   1.167   3.374 -0.8052 -0.5171  0.4310
18477THY      O45495   1.824   3.983   4.882  0.5226  0.3179 -0.2663
18477THY     HO45496   1.800   3.954   4.971  0.4766  0.9506  1.5688
18477THY    CA145497   1.916   4.080   4.898  0.0568 -0.1620  0.8555
18477THY    CA245498   2.023   4.097   4.812 -0.2283 -0.3053  0.2535
18477THY    CP145499   2.031   4.002   4.686 -0.0461 -0.1308 -0.2572
18477THY    HP145500   1.954   3.924   4.686 -0.0658 -1.5112 -0.2674
18477THY    CP245501   2.165   3.939   4.687 -0.0868  0.2312 -0.4634
18477THY    HP245502   2.192   3.909   4.789 -1.1319  0.9287  0.8560
18477THY    HP345503   2.242   4.012   4.660 -0.0127 -0.7037 -0.8661
18477THY    HP445504   2.175   3.858   4.613 -2.1982 -1.3360  0.6040
18477THY    CP345505   2.020   4.096   4.564 -0.0018  0.0241 -0.0148
18477THY    HP545506   1.930   4.159   4.568  0.3474 -0.5620  0.5389
18477THY    HP645507   2.005   4.033   4.475  1.2477 -0.5932  0.5186
18477THY    HP745508   2.105   4.164   4.551 -0.3940  2.2219  0.9699
18477THY    CA345509   2.115   4.203   4.829 -0.2553 -0.4077  0.1664
18477THY    HA345510   2.206   4.214   4.771 -0.9160 -1.6563 -0.6743
18477THY    CA445511   2.099   4.294   4.935  0.0101  0.2133  0.6860
18477THY    HA445512   2.164   4.380   4.937 -0.6621 -0.4597  1.2216
18477THY    CA545513   1.976   4.287   5.011 -0.7883 -0.2084  0.3636
18477THY    CM145514   1.945   4.394   5.114 -0.1220  0.1167  0.0657
18477THY    HM145515   1.839   4.409   5.134  0.3502  1.7483  1.5290
18477THY    HM245516   1.976   4.489   5.070 -1.2651  1.3950  1.0611
18477THY    HM345517   2.007   4.386   5.205  1.7198 -1.0929 -0.1824
18477THY    CA645518   1.886   4.181   4.996  0.1732  0.3875 -0.0833
18477THY    HA645519   1.793   4.173   5.052  0.0605  0.0908 -0.9665
18478THY      O45520   5.775   6.771   6.911  0.1085 -0.3964 -0.7104
18478THY     HO45521   5.720   6.734   6.840 -0.2971 -1.4166  1.6336
18478THY    CA145522   5.742   6.905   6.905 -0.4740  0.2028 -0.1635
18478THY    CA245523   5.747   6.981   7.022  0.1459 -0.0928  0.4397
18478THY    CP145524   5.807   6.933   7.156  0.1204  0.3224  0.1301
18478THY    HP145525   5.864   6.843   7.130 -0.6348  0.3239 -0.3627
18478THY    CP245526   5.696   6.884   7.255 -0.4789 -0.0885  0.1996
18478THY    HP245527   5.632   6.821   7.194  0.7082  0.3618 -1.5125
18478THY    HP345528   5.642   6.964   7.307  1.9074  0.4380  1.5775
18478THY    HP445529   5.738   6.823   7.336  0.8319 -1.0045 -0.1584
18478THY    CP345530   5.906   7.029   7.222 -0.2659 -0.4146  0.3994
18478THY    HP545531   5.852   7.103   7.282  0.8963  0.0950  0.8475
18478THY    HP645532   5.966   7.091   7.154 -2.1767 -2.2224  0.3856
18478THY    HP745533   5.972   6.977   7.292 -0.8324  0.5330  0.9252
18478THY    CA345534   5.702   7.117   6.998  0.3923 -0.4649 -0.7050
18478THY    HA345535   5.698   7.177   7.088  0.8101 -0.2587 -0.9864
18478THY    CA445536   5.636   7.164   6.883  0.1008  0.0486 -0.4295
18478THY    HA445537   5.591   7.262   6.873  0.4730 -0.4218 -0.3040
18478THY    CA545538   5.631   7.086   6.772  0.3810  0.2320  0.4849
18478THY    CM145539   5.573   7.129   6.648 -0.1107 -0.5608 -0.3806
18478THY    HM145540   5.520   7.225   6.656 -1.9172 -2.0345 -1.1844
18478THY    HM245541   5.490   7.068   6.611 -1.2377  1.9078 -0.4956
18478THY    HM345542   5.656   7.133   6.578  1.3212  1.0190 -1.1997
18478THY    CA645543   5.692   6.959   6.777 -0.1513  0.0758 -0.4105
18478THY    HA645544   5.687   6.887   6.696 -0.1726  0.4858 -0.8767
18479THY      O45545   4.355   1.628   2.166  0.2450 -0.4369 -0.5225
18479THY     HO45546   4.280   1.618   2.228 -0.4176 -1.0672  0.3783
18479THY    CA145547   4.457   1.691   2.234 -0.0472  0.0585 -0.5526
18479THY    CA245548   4.548   1.777   2.165 -0.6716 -0.3605 -0.5794
18479THY    CP145549   4.528   1.798   2.013 -0.3146 -0.3735  0.0514
18479THY    HP145550   4.498   1.706   1.961 -0.7130 -0.5147  0.2585
18479THY    CP245551   4.660   1.813   1.945  0.1143  0.6995 -0.2746
18479THY    HP245552   4.645   1.804   1.837  1.4120  0.6030 -1.7134
18479THY    HP345553   4.734   1.736   1.972 -1.8130  0.5565 -2.2470
18479THY    HP445554   4.701   1.914   1.961  0.1020  0.2986 -0.2034
18479THY    CP345555   4.416   1.899   1.968 -0.1834 -1.4157 -0.4525
18479THY    HP545556   4.406   1.905   1.859  1.0550 -1.4744  1.9726
18479THY    HP645557   4.446   1.998   2.004  1.0287  0.8862 -1.5702
18479THY    HP745558   4.318   1.876   2.012 -0.2909 -1.4664 -0.0983
18479THY    CA345559   4.641   1.855   2.240  0.4717 -0.0568  0.3231
18479THY    HA345560   4.699   1.935   2.195  0.5414 -0.2926  0.1424
18479THY    CA445561   4.635   1.842   2.377 -0.0708  0.3449 -0.3103
18479THY    HA445562   4.701   1.903   2.437 -2.1292  0.6378  1.7801
18479THY    CA545563   4.554   1.756   2.446  0.3718 -0.5283  0.5007
18479THY    CM145564   4.541   1.773   2.599  0.1611 -0.0918  0.1399
18479THY    HM145565   4.632   1.729   2.641  0.7662 -2.4570 -1.0664
18479THY    HM245566   4.457   1.715   2.639  0.3043 -0.1176 -0.0844
18479THY    HM345567   4.537   1.878   2.631  0.3148  1.9007 -0.4195
18479THY    CA645568   4.459   1.680   2.376 -0.2564  0.2047 -0.0243
18479THY    HA645569   4.372   1.639   2.427 -0.9329  0.1488  1.2837
18480THY      O45570   7.989   0.855   5.816  0.3025  0.0970 -0.2961
18480THY     HO45571   7.942   0.852   5.901 -0.7386 -0.4720 -0.6822
18480THY    CA145572   8.064   0.968   5.813 -0.9007 -0.2570 -0.2595
18480THY    CA245573   8.175   0.986   5.726 -0.5886  0.0150 -0.4513
18480THY    CP145574   8.213   0.881   5.622 -0.4405  0.7563 -0.1669
18480THY    HP145575   8.166   0.786   5.653 -1.6051  0.9371  0.4526
18480THY    CP245576   8.364   0.850   5.616 -0.3071  0.7435  0.0505
18480THY    HP245577   8.431   0.935   5.598 -0.3494 -0.2986 -0.1200
18480THY    HP345578   8.377   0.793   5.523 -0.9902 -0.6867  2.1368
18480THY    HP445579   8.402   0.798   5.705  0.3410 -0.0668 -0.9046
18480THY    CP345580   8.156   0.906   5.480 -0.4726  0.0222 -0.0188
18480THY    HP545581   8.176   0.823   5.411  1.2117  1.3968 -0.8012
18480THY    HP645582   8.187   1.000   5.433 -2.7071  0.2163  0.8818
18480THY    HP745583   8.047   0.911   5.489 -0.5952 -0.4825 -1.2626
18480THY    CA345584   8.241   1.109   5.717 -0.1917  0.2341  0.1108
18480THY    HA345585   8.331   1.116   5.655 -0.4873 -0.2026  0.1153
18480THY    CA445586   8.192   1.215   5.795 -0.0154  0.2322 -0.4544
18480THY    HA445587   8.221   1.318   5.776  0.1856 -1.7589 -0.8226
18480THY    CA545588   8.091   1.185   5.888 -0.3947 -0.1113 -1.2441
18480THY    CM145589   8.037   1.303   5.970  1.1259  0.5988 -0.8315
18480THY    HM145590   7.949   1.277   6.030  0.3478 -0.4562 -0.6893
18480THY    HM245591   8.012   1.386   5.903  0.9604 -0.3864 -1.6600
18480THY    HM345592   8.119   1.351   6.024  0.3952 -2.1372  4.2147
18480THY    CA645593   8.025   1.069   5.903 -0.5195  0.5632  0.7053
18480THY    HA645594   7.944   1.054   5.973 -0.6257  0.6878  1.7582
18481THY      O45595   6.559   5.001   3.850  0.2992  0.0774 -0.2639
18481THY     HO45596   6.505   5.055   3.790  1.1755 -0.1355  0.4072
18481THY    CA145597   6.661   5.077   3.904  0.6915  0.5708  0.0011
18481THY    CA245598   6.775   5.018   3.952  0.0813 -0.6373 -0.0593
18481THY    CP145599   6.794   4.873   3.927  0.7240  0.8995 -0.2908
18481THY    HP145600   6.702   4.819   3.904  1.7521  1.3195 -2.3039
18481THY    CP245601   6.849   4.798   4.052 -0.0764  0.5519  0.8436
18481THY    HP245602   6.880   4.695   4.030 -0.2443  2.5739  0.3330
18481THY    HP345603   6.777   4.801   4.134  0.1387  0.7241  1.7236
18481THY    HP445604   6.945   4.839   4.085 -0.1426  3.4756 -1.1236
18481THY    CP345605   6.896   4.854   3.809  0.0559 -0.1653  0.7757
18481THY    HP545606   6.898   4.751   3.771  2.6288  3.0303 -0.5199
18481THY    HP645607   6.994   4.880   3.850  0.6428  0.1112 -1.5871
18481THY    HP745608   6.880   4.931   3.733  2.0330 -1.4135  0.0306
18481THY    CA345609   6.879   5.103   3.996  0.3104  0.9446  0.6962
18481THY    HA345610   6.968   5.068   4.048  0.9924 -0.2973  0.5311
18481THY    CA445611   6.856   5.236   4.004 -0.1057  0.3380 -0.0264
18481THY    HA445612   6.928   5.300   4.055 -2.5033 -0.3993  3.5279
18481THY    CA545613   6.738   5.291   3.951  0.5249 -0.5789  0.1121
18481THY    CM145614   6.713   5.439   3.964  0.2970 -0.8035 -0.2656
18481THY    HM145615   6.748   5.476   4.061  0.5112 -1.6912  1.9796
18481THY    HM245616   6.605   5.456   3.954  0.2003 -1.2439 -1.0672
18481THY    HM345617   6.768   5.490   3.884 -0.2730 -0.1006  1.5080
18481THY    CA645618   6.641   5.218   3.898  0.5055 -0.5554  0.2494
18481THY    HA645619   6.544   5.260   3.875  0.9252 -1.9510  0.4945
18482THY      O45620   7.615   7.666   7.663 -0.3859  0.3037 -0.2103
18482THY     HO45621   7.622   7.754   7.622  0.1644 -1.1257 -0.8888
18482THY    CA145622   7.612   7.580   7.556  0.4755 -0.6647 -0.6642
18482THY    CA245623   7.690   7.463   7.540  0.2851 -0.0290 -0.4791
18482THY    CP145624   7.810   7.438   7.624 -0.0956  1.1147 -0.7070
18482THY    HP145625   7.822   7.524   7.691  3.6130 -0.3314  0.0757
18482THY    CP245626   7.936   7.430   7.537 -0.0461  0.4558 -0.1987
18482THY    HP245627   8.005   7.369   7.596  0.0512 -0.6190 -1.1656
18482THY    HP345628   7.981   7.524   7.502  0.2473  0.4581 -0.3402
18482THY    HP445629   7.902   7.369   7.452 -3.4968  0.5793  1.3106
18482THY    CP345630   7.784   7.310   7.700  0.1055  0.3277  0.5486
18482THY    HP545631   7.858   7.292   7.779 -0.0252  0.0260 -1.5828
18482THY    HP645632   7.775   7.222   7.635 -2.2003  1.6584 -0.2926
18482THY    HP745633   7.687   7.306   7.752 -0.6421 -1.0191 -3.3092
18482THY    CA345634   7.650   7.372   7.437  1.0389  0.7610 -0.2000
18482THY    HA345635   7.687   7.271   7.422  0.7745  0.4608 -0.2526
18482THY    CA445636   7.538   7.406   7.349 -0.8756 -0.9689 -0.4222
18482THY    HA445637   7.505   7.343   7.267 -0.6322 -3.4209  2.3837
18482THY    CA545638   7.471   7.530   7.358  0.2327  0.1016 -0.1076
18482THY    CM145639   7.368   7.563   7.247  0.4334 -0.3350  0.6394
18482THY    HM145640   7.293   7.486   7.224 -1.2999  2.5769  1.2927
18482THY    HM245641   7.410   7.603   7.154 -1.1005 -0.7426  1.3781
18482THY    HM345642   7.316   7.645   7.299  0.8207  3.0585 -1.0835
18482THY    CA645643   7.505   7.610   7.471 -0.0645 -0.5755 -0.8421
18482THY    HA645644   7.451   7.704   7.477  0.4620  0.4160 -0.5944
18483THY      O45645   1.930   6.887   5.017  0.3217  0.1683  0.6544
18483THY     HO45646   2.017   6.850   4.994 -0.4986 -1.0122 -0.6538
18483THY    CA145647   1.955   6.994   5.092  0.7747  0.1670 -0.4294
18483THY    CA245648   1.856   7.041   5.182  0.2776 -0.7525 -0.8349
18483THY    CP145649   1.725   6.962   5.213 -0.0988 -0.5002 -0.3276
18483THY    HP145650   1.717   6.886   5.134 -1.8720 -0.7752  0.1013
18483THY    CP245651   1.598   7.046   5.192 -0.2472  0.3395 -0.2548
18483THY    HP245652   1.594   7.103   5.099 -1.1846  1.4645  1.6136
18483THY    HP345653   1.594   7.110   5.281  1.2173  1.1974 -1.2728
18483THY    HP445654   1.511   6.979   5.187 -0.5055 -0.5682  0.1390
18483THY    CP345655   1.730   6.886   5.343 -0.0328 -0.4242 -0.2197
18483THY    HP545656   1.786   6.935   5.424 -0.4254 -0.1643 -0.2016
18483THY    HP645657   1.783   6.793   5.320 -1.0652 -0.5727 -0.7812
18483THY    HP745658   1.625   6.866   5.367 -0.2402 -3.0811 -3.1208
18483THY    CA345659   1.883   7.154   5.265  0.1913  0.1492  0.2232
18483THY    HA345660   1.819   7.177   5.349  0.9179  0.9237 -0.4989
18483THY    CA445661   2.009   7.217   5.246 -0.0312 -0.0811  0.3040
18483THY    HA445662   2.045   7.292   5.315  0.0771 -0.4270  0.5747
18483THY    CA545663   2.104   7.177   5.149  0.7658  0.7813 -0.3201
18483THY    CM145664   2.232   7.249   5.142  0.5577 -0.7234 -0.5768
18483THY    HM145665   2.295   7.222   5.227  1.0329 -0.0718  2.2685
18483THY    HM245666   2.212   7.357   5.138 -1.1611  1.2283 -0.7702
18483THY    HM345667   2.286   7.231   5.048 -1.1691 -2.0025  0.6061
18483THY    CA645668   2.070   7.064   5.063 -0.1084 -0.5757 -1.0658
18483THY    HA645669   2.145   7.029   4.993  1.6440  1.3297 -1.2979
18484THY      O45670   6.024   3.992   2.763  0.2857  0.2068 -0.0210
18484THY     HO45671   6.047   3.939   2.841 -0.0880 -0.0754 -0.6125
18484THY    CA145672   5.996   4.116   2.810  0.0442  0.2860 -1.0624
18484THY    CA245673   5.939   4.218   2.731 -0.2689 -0.3657 -0.0894
18484THY    CP145674   5.916   4.202   2.580  0.2819 -0.6454  0.4771
18484THY    HP145675   5.956   4.104   2.553  1.2209  3.1352 -0.3499
18484THY    CP245676   5.982   4.310   2.493 -0.0509 -0.3971 -0.3838
18484THY    HP245677   5.904   4.368   2.443  0.7767  0.0357  1.1537
18484THY    HP345678   6.040   4.275   2.407  1.1061  0.3000 -0.2294
18484THY    HP445679   6.040   4.381   2.552  0.6451  0.2617 -1.4740
18484THY    CP345680   5.766   4.200   2.551  0.4256 -0.1317  0.5695
18484THY    HP545681   5.722   4.116   2.608 -1.3421  0.5155  1.8818
18484THY    HP645682   5.743   4.173   2.448 -2.1685  0.2150  1.1726
18484THY    HP745683   5.704   4.288   2.569 -1.7431  2.2471 -1.2701
18484THY    CA345684   5.900   4.337   2.794  0.0918  0.6555  0.0232
18484THY    HA345685   5.849   4.410   2.731  0.5071 -2.1676 -1.9735
18484THY    CA445686   5.911   4.353   2.935 -0.1920 -0.3105  0.1249
18484THY    HA445687   5.872   4.445   2.978 -0.1156 -1.6469  0.8123
18484THY    CA545688   5.972   4.248   3.004 -0.0753 -0.1989  0.1017
18484THY    CM145689   5.996   4.272   3.152  0.0912  1.0606  0.2536
18484THY    HM145690   6.073   4.350   3.158  2.4462  1.3846 -1.9542
18484THY    HM245691   6.036   4.180   3.199 -0.5039  0.5152 -0.2917
18484THY    HM345692   5.903   4.309   3.196 -1.0967 -1.2285  0.1415
18484THY    CA645693   6.007   4.131   2.946 -0.4402  0.4609  0.1452
18484THY    HA645694   6.046   4.052   3.010  1.5558  0.5119  1.1051
18485THY      O45695   3.147   1.793   2.646  0.0687  0.3274  0.5997
18485THY     HO45696   3.070   1.846   2.673 -1.2973  1.3419 -1.7750
18485THY    CA145697   3.226   1.847   2.548  0.8144 -0.7896  0.6582
18485THY    CA245698   3.319   1.769   2.479 -0.6189 -0.8013  0.6723
18485THY    CP145699   3.348   1.627   2.531 -0.8682  1.2445 -0.7861
18485THY    HP145700   3.302   1.617   2.630 -0.5118  1.3924 -0.9784
18485THY    CP245701   3.501   1.602   2.549  1.0411 -0.3137 -0.3501
18485THY    HP245702   3.541   1.605   2.447 -0.6489 -1.0298  3.4697
18485THY    HP345703   3.517   1.509   2.606 -0.8784 -1.6793 -1.6044
18485THY    HP445704   3.537   1.687   2.607 -1.4972  1.0900 -0.1256
18485THY    CP345705   3.276   1.525   2.454 -0.3681 -0.3498  1.1845
18485THY    HP545706   3.287   1.429   2.505  0.9906 -0.0471  1.4779
18485THY    HP645707   3.322   1.511   2.356 -0.9875 -0.3582 -1.1677
18485THY    HP745708   3.167   1.537   2.459 -0.7923  0.5052 -2.2384
18485THY    CA345709   3.376   1.826   2.359  0.0584  0.1500  0.0106
18485THY    HA345710   3.443   1.766   2.298 -1.1571 -0.6353 -0.5847
18485THY    CA445711   3.338   1.951   2.317  0.2217  0.1207 -0.1278
18485THY    HA445712   3.373   1.989   2.222  0.2828 -0.2909 -1.1824
18485THY    CA545713   3.244   2.025   2.390  0.4550  0.9320  0.3787
18485THY    CM145714   3.199   2.153   2.328  0.4839  0.0741 -0.4158
18485THY    HM145715   3.093   2.148   2.299  0.4506 -0.5286  2.1648
18485THY    HM245716   3.251   2.174   2.234  3.5947  1.9734  0.9941
18485THY    HM345717   3.212   2.228   2.407 -1.1713  0.8774 -0.9230
18485THY    CA645718   3.187   1.969   2.502  0.4936 -0.0290 -0.1569
18485THY    HA645719   3.102   2.017   2.549  0.9429  0.3581  0.2726
18486THY      O45720   7.660   8.471   5.820 -0.2621 -0.9125 -0.4700
18486THY     HO45721   7.627   8.485   5.911 -4.0107 -2.0468 -0.7820
18486THY    CA145722   7.756   8.381   5.835 -0.7005 -0.1243 -0.1131
18486THY    CA245723   7.813   8.318   5.725 -0.4741  0.4518 -0.2892
18486THY    CP145724   7.761   8.352   5.586 -0.0907 -0.6252 -0.2250
18486THY    HP145725   7.654   8.371   5.591  0.2020 -1.9672  2.1087
18486THY    CP245726   7.766   8.236   5.487 -0.2870 -0.1436 -0.1113
18486THY    HP245727   7.735   8.143   5.535 -0.9753  0.0732  0.2228
18486THY    HP345728   7.873   8.227   5.463 -0.6216 -2.9042  1.9271
18486THY    HP445729   7.712   8.260   5.394 -0.4868  0.0912  0.3587
18486THY    CP345730   7.842   8.481   5.542  0.2529  0.3095  0.0677
18486THY    HP545731   7.777   8.541   5.477  0.5599 -0.9432 -0.9153
18486THY    HP645732   7.914   8.438   5.472 -1.1842 -1.0227 -0.2963
18486THY    HP745733   7.884   8.536   5.627 -0.9309  1.1358 -0.2530
18486THY    CA345734   7.917   8.226   5.745 -0.8313  0.2354 -0.1578
18486THY    HA345735   7.968   8.178   5.661 -1.4104 -0.1881 -0.0480
18486THY    CA445736   7.968   8.204   5.872  0.5196  0.0547 -0.2310
18486THY    HA445737   8.057   8.143   5.880  1.5467 -3.7644  0.5321
18486THY    CA545738   7.909   8.274   5.980  0.5634 -0.2201  0.2511
18486THY    CM145739   7.957   8.241   6.106  0.2218 -0.0558 -0.1452
18486THY    HM145740   7.995   8.139   6.119  1.7597  1.3776  0.5559
18486THY    HM245741   7.879   8.262   6.181 -0.0966 -1.0299  2.6216
18486THY    HM345742   8.037   8.312   6.131  1.1829  0.9805 -1.5550
18486THY    CA645743   7.800   8.359   5.968 -0.3576  0.3822  0.1359
18486THY    HA645744   7.764   8.413   6.055  1.2672  0.5278  1.0703
18487THY      O45745   5.105   1.424   3.550 -0.6260  0.3370 -0.2889
18487THY     HO45746   5.119   1.410   3.455 -1.0327  0.1490  0.4900
18487THY    CA145747   5.134   1.309   3.616 -0.0997  0.9181 -0.8230
18487THY    CA245748   5.215   1.308   3.737 -0.5520 -0.5475 -0.7806
18487THY    CP145749   5.276   1.440   3.791 -0.5308 -0.3784  0.3619
18487THY    HP145750   5.268   1.510   3.708  0.8758  1.2216  2.5537
18487THY    CP245751   5.422   1.424   3.833 -0.0298  0.3438  0.4975
18487THY    HP245752   5.426   1.354   3.917 -2.6096 -1.1779 -1.6814
18487THY    HP345753   5.469   1.520   3.856  0.4141 -2.4731  1.0441
18487THY    HP445754   5.476   1.388   3.744  2.4069  2.6533 -2.0960
18487THY    CP345755   5.198   1.500   3.905 -0.1111  0.2681 -0.7369
18487THY    HP545756   5.250   1.594   3.924  1.8104 -1.1469 -1.4381
18487THY    HP645757   5.194   1.442   3.998 -1.4133 -1.0110 -2.8477
18487THY    HP745758   5.091   1.516   3.885 -0.8124  3.1701 -1.1549
18487THY    CA345759   5.247   1.184   3.796  0.0703 -0.2873 -0.0997
18487THY    HA345760   5.301   1.173   3.889  0.5120 -0.1617  2.4289
18487THY    CA445761   5.194   1.071   3.730 -0.2035  0.0275  0.3305
18487THY    HA445762   5.217   0.977   3.778 -0.9968  2.5645  1.3415
18487THY    CA545763   5.122   1.073   3.619 -0.0395  0.1633 -0.2269
18487THY    CM145764   5.077   0.945   3.547  0.1534 -0.1734  0.3906
18487THY    HM145765   5.056   0.963   3.441 -1.0919  0.0806  0.4904
18487THY    HM245766   4.981   0.917   3.592  0.8422  0.8671 -0.3597
18487THY    HM345767   5.147   0.863   3.569  0.6922 -3.2078 -0.0631
18487THY    CA645768   5.083   1.194   3.560 -0.1993  0.3923 -0.0137
18487THY    HA645769   5.023   1.197   3.469  0.1911  0.1275  2.4291
18488THY      O45770   9.119   7.067   2.585 -0.1766  0.4587 -0.2627
18488THY     HO45771   9.091   7.013   2.509 -0.9045 -0.7793  1.7556
18488THY    CA145772   9.015   7.053   2.664 -0.3671 -1.0850  0.0471
18488THY    CA245773   9.012   7.106   2.794  0.3236 -0.1289  0.4940
18488THY    CP145774   9.132   7.181   2.847 -0.6586  0.3345  0.0995
18488THY    HP145775   9.218   7.172   2.779 -0.0655  1.1176 -0.2638
18488THY    CP245776   9.183   7.123   2.978  0.0593 -0.7486 -0.2303
18488THY    HP245777   9.269   7.177   3.016  0.1536  0.9247 -1.4731
18488THY    HP345778   9.219   7.022   2.953  0.6573  1.1931 -0.5399
18488THY    HP445779   9.099   7.134   3.048  0.8103  0.0654  0.3450
18488THY    CP345780   9.106   7.330   2.849 -0.4945 -0.0151 -0.3479
18488THY    HP545781   9.197   7.375   2.891 -0.6018  0.3096 -0.4309
18488THY    HP645782   9.019   7.358   2.910 -0.3850  0.6418 -1.4010
18488THY    HP745783   9.089   7.379   2.753 -0.5763  0.5614  0.8029
18488THY    CA345784   8.893   7.094   2.864 -0.4046  0.5599 -0.3693
18488THY    HA345785   8.886   7.123   2.968 -1.4911  0.2956  0.3549
18488THY    CA445786   8.788   7.021   2.816 -0.2567  0.0678 -0.4435
18488THY    HA445787   8.696   7.010   2.872  0.4915  1.4427  0.1093
18488THY    CA545788   8.794   6.971   2.684 -0.6254 -0.0241 -0.3546
18488THY    CM145789   8.679   6.887   2.628  0.5341 -0.2638  0.1919
18488THY    HM145790   8.716   6.784   2.626  0.8782 -0.5476  0.3184
18488THY    HM245791   8.642   6.911   2.527  1.2451 -0.7459 -0.6957
18488THY    HM345792   8.593   6.887   2.696 -0.3177 -1.3017  1.1456
18488THY    CA645793   8.911   6.984   2.608  0.4571  0.1749 -0.4702
18488THY    HA645794   8.918   6.953   2.504  0.0133  0.0026 -0.0141
18489THY      O45795   5.170   8.975   1.940 -0.9641 -0.1141 -0.0556
18489THY     HO45796   5.238   8.955   2.006 -0.5107 -0.2895  0.8852
18489THY    CA145797   5.179   8.887   1.835 -0.6124 -0.3572 -0.5935
18489THY    CA245798   5.095   8.909   1.721  0.0209  0.4285  0.8229
18489THY    CP145799   4.971   9.000   1.720 -0.8691  0.3429  0.2735
18489THY    HP145800   4.964   9.060   1.811 -1.5411  0.2371  0.3624
18489THY    CP245801   4.845   8.918   1.713 -0.2080 -0.0413  0.2534
18489THY    HP245802   4.764   8.990   1.728  1.1320  1.0087  1.6088
18489THY    HP345803   4.845   8.843   1.794 -0.2390 -0.0088  0.2883
18489THY    HP445804   4.837   8.871   1.614 -1.5275 -0.2099  0.7998
18489THY    CP345805   4.980   9.093   1.598 -0.4037  0.2478 -0.3375
18489THY    HP545806   4.964   9.038   1.504  0.9290  0.5746 -1.3350
18489THY    HP645807   5.066   9.157   1.579  0.4643 -2.3612 -2.0646
18489THY    HP745808   4.903   9.169   1.613 -0.6754  1.3365 -0.8062
18489THY    CA345809   5.104   8.811   1.625  0.0498  0.0188  0.3174
18489THY    HA345810   5.033   8.811   1.542 -1.2017  1.0490  0.4598
18489THY    CA445811   5.217   8.727   1.621 -0.3502  0.1067 -0.3794
18489THY    HA445812   5.232   8.669   1.531 -0.8647 -1.7980  2.2759
18489THY    CA545813   5.306   8.718   1.732 -0.3922 -0.3986 -0.1655
18489THY    CM145814   5.440   8.656   1.713 -0.2723  0.2497 -0.3174
18489THY    HM145815   5.495   8.707   1.633 -0.3133  0.2681 -0.2446
18489THY    HM245816   5.418   8.550   1.696 -1.6536 -1.9762  0.2585
18489THY    HM345817   5.506   8.666   1.801 -0.5471  0.2997  1.2182
18489THY    CA645818   5.279   8.792   1.841 -0.4424 -0.2030 -0.3554
18489THY    HA645819   5.344   8.787   1.928  0.1097 -0.4602  1.6321
18490THY      O45820   1.864   6.299   7.502 -0.2630 -0.6512 -0.5684
18490THY     HO45821   1.878   6.256   7.588  0.9576 -0.5591  0.0001
18490THY    CA145822   1.774   6.228   7.428 -0.1753  0.7786 -0.3116
18490THY    CA245823   1.681   6.286   7.336 -0.7738  0.2807  0.3687
18490THY    CP145824   1.668   6.437   7.312 -0.4568 -0.4165 -0.5522
18490THY    HP145825   1.766   6.485   7.321 -0.2783 -1.3171 -0.7102
18490THY    CP245826   1.581   6.506   7.409 -0.3597  0.1077 -0.1313
18490THY    HP245827   1.545   6.436   7.486  0.1478 -2.3104 -3.3119
18490THY    HP345828   1.490   6.544   7.361  0.2755 -0.0522  1.2235
18490THY    HP445829   1.632   6.594   7.448  1.1400 -1.6208 -0.1822
18490THY    CP345830   1.645   6.476   7.165  1.3077 -0.2328 -1.0785
18490THY    HP545831   1.542   6.441   7.146  0.9039 -0.4606  0.1741
18490THY    HP645832   1.699   6.424   7.085 -1.5737 -1.9087 -1.7685
18490THY    HP745833   1.639   6.582   7.140 -0.6950 -1.7544 -1.4870
18490THY    CA345834   1.602   6.190   7.268 -0.3715  0.4091 -1.4877
18490THY    HA345835   1.527   6.235   7.204 -0.0458  1.0149 -0.0254
18490THY    CA445836   1.606   6.056   7.289 -0.6257 -0.4801  0.5456
18490THY    HA445837   1.540   5.983   7.243  1.0455 -3.0377  0.5352
18490THY    CA545838   1.685   6.007   7.391 -0.0246  0.6819  0.2232
18490THY    CM145839   1.686   5.857   7.412  0.0797 -0.7816  0.2638
18490THY    HM145840   1.594   5.812   7.373  3.0862 -3.5780 -4.2418
18490THY    HM245841   1.710   5.840   7.518 -1.2896 -0.2682  1.3192
18490THY    HM345842   1.761   5.818   7.342  1.5758 -0.1148  1.8003
18490THY    CA645843   1.772   6.091   7.456  0.0608  0.4366 -0.0516
18490THY    HA645844   1.833   6.052   7.537 -1.1623  1.5910  0.3702
18491THY      O45845   3.870   4.780   6.551 -0.2912 -0.4755 -0.0842
18491THY     HO45846   3.842   4.722   6.479  0.1886 -0.6841 -0.0675
18491THY    CA145847   3.754   4.787   6.621 -0.6701  0.0330 -0.2715
18491THY    CA245848   3.732   4.891   6.716 -0.3388  0.4782 -0.1913
18491THY    CP145849   3.840   4.991   6.763  0.0014  0.2067  0.0826
18491THY    HP145850   3.937   4.960   6.720 -0.2337  1.6525 -2.9851
18491THY    CP245851   3.866   4.971   6.911 -0.6155  0.1844 -0.1769
18491THY    HP245852   3.967   5.006   6.937 -0.8969  1.2287 -0.0897
18491THY    HP345853   3.859   4.863   6.928  0.9744  0.3930 -0.2830
18491THY    HP445854   3.803   5.029   6.980  2.0662  1.3212  1.6093
18491THY    CP345855   3.808   5.128   6.724 -0.2424 -0.3894  0.5418
18491THY    HP545856   3.801   5.125   6.614  0.9525 -0.4711  0.2715
18491THY    HP645857   3.883   5.204   6.743 -1.4923  1.5180  1.3652
18491THY    HP745858   3.710   5.153   6.768  0.5469  1.1477  1.0110
18491THY    CA345859   3.604   4.900   6.776  0.0915  0.0017 -0.6864
18491THY    HA345860   3.588   4.986   6.841  1.3425 -0.8069  0.1796
18491THY    CA445861   3.506   4.806   6.742  0.7497 -0.1263  0.5761
18491THY    HA445862   3.405   4.819   6.780  0.8694  0.4036 -0.0166
18491THY    CA545863   3.525   4.706   6.646 -0.3459 -0.1400 -0.9992
18491THY    CM145864   3.415   4.629   6.592 -0.1130 -0.1697 -0.2121
18491THY    HM145865   3.436   4.523   6.611 -3.1693  2.6697 -0.4738
18491THY    HM245866   3.398   4.651   6.486  1.6987  0.0053  2.4545
18491THY    HM345867   3.320   4.656   6.640  0.0018 -0.6623  1.1198
18491THY    CA645868   3.650   4.699   6.583  0.0044  0.0358 -0.4168
18491THY    HA645869   3.674   4.631   6.502 -1.6247 -0.9303  0.1112
18492THY      O45870   1.706   6.663   4.947  0.1898  0.7532 -0.4978
18492THY     HO45871   1.751   6.746   4.970 -1.8743  0.4711  0.7677
18492THY    CA145872   1.641   6.676   4.824  0.4079  0.2129  0.1956
18492THY    CA245873   1.547   6.585   4.776  0.1700 -0.8025 -0.7232
18492THY    CP145874   1.513   6.455   4.855  0.4565 -0.6677  0.3651
18492THY    HP145875   1.591   6.419   4.923 -1.9611  1.3687 -1.4371
18492THY    CP245876   1.509   6.341   4.749  0.5986 -1.0762  0.1026
18492THY    HP245877   1.590   6.343   4.676  1.4842 -0.1581 -0.7137
18492THY    HP345878   1.411   6.344   4.700 -0.6395  1.2530  1.0077
18492THY    HP445879   1.519   6.242   4.795  1.1560 -0.2586  0.5253
18492THY    CP345880   1.386   6.477   4.943  0.6681 -0.6920  0.0844
18492THY    HP545881   1.296   6.506   4.887  0.0269  1.1167  1.8126
18492THY    HP645882   1.402   6.563   5.009 -1.1904 -0.0565 -0.0205
18492THY    HP745883   1.363   6.379   4.987  0.1867 -1.6402 -0.2491
18492THY    CA345884   1.488   6.620   4.653  0.2994  0.3177  0.1758
18492THY    HA345885   1.412   6.552   4.615  0.2986 -0.2036  0.4646
18492THY    CA445886   1.527   6.734   4.580  0.6983  0.5077 -0.3175
18492THY    HA445887   1.478   6.759   4.486 -0.9676  1.7776  1.5279
18492THY    CA545888   1.615   6.827   4.640  0.6428 -0.4447  0.1268
18492THY    CM145889   1.657   6.940   4.559 -0.2878 -0.2230  0.3127
18492THY    HM145890   1.710   7.019   4.613  0.4756  0.6157 -0.7453
18492THY    HM245891   1.568   6.988   4.516  1.1659 -2.0939  1.4922
18492THY    HM345892   1.713   6.911   4.469  0.5103 -0.2487  1.8450
18492THY    CA645893   1.663   6.799   4.772 -0.9098  0.5443 -0.7146
18492THY    HA645894   1.735   6.868   4.818 -0.2633 -0.3015 -0.8068
18493THY      O45895   3.099   8.664   4.984  0.2347 -0.7184  0.1576
18493THY     HO45896   3.030   8.605   4.950 -0.4779 -0.1685  0.6511
18493THY    CA145897   3.024   8.750   5.054 -0.1525 -0.0696 -0.2437
18493THY    CA245898   3.056   8.787   5.182  0.0364  0.2892 -1.4182
18493THY    CP145899   3.171   8.728   5.263  0.1187 -0.1631 -0.1152
18493THY    HP145900   3.218   8.645   5.208  2.1667  0.4128  0.5891
18493THY    CP245901   3.124   8.658   5.398 -0.3444 -0.3777 -0.1148
18493THY    HP245902   3.196   8.598   5.454  0.3414 -1.5743 -0.4494
18493THY    HP345903   3.048   8.580   5.386 -0.4230  1.5183 -0.3724
18493THY    HP445904   3.090   8.731   5.472  1.4994  2.7792 -2.2175
18493THY    CP345905   3.279   8.830   5.303 -0.1383 -0.3270 -0.6132
18493THY    HP545906   3.296   8.908   5.228  3.7445  2.0299  1.0978
18493THY    HP645907   3.372   8.778   5.328 -0.7325 -0.5898 -1.8347
18493THY    HP745908   3.238   8.871   5.396 -1.2778 -0.7323 -0.7915
18493THY    CA345909   2.977   8.893   5.246  0.1066 -0.1299  0.4214
18493THY    HA345910   3.009   8.931   5.343  1.0497 -0.8429  1.5327
18493THY    CA445911   2.862   8.941   5.180  0.6306 -0.5932  0.5908
18493THY    HA445912   2.793   9.011   5.226  1.9356 -0.8031  2.0877
18493THY    CA545913   2.815   8.884   5.059 -0.3577 -0.2380 -0.1295
18493THY    CM145914   2.692   8.928   4.996 -0.5129  0.8810  0.0815
18493THY    HM145915   2.684   9.035   4.974 -2.1951  0.3761 -0.1174
18493THY    HM245916   2.605   8.904   5.058  0.4880  1.8505 -1.1650
18493THY    HM345917   2.677   8.881   4.898 -0.9259  0.9811  0.0009
18493THY    CA645918   2.902   8.794   4.994 -0.3112  0.0171  0.1229
18493THY    HA645919   2.874   8.748   4.899 -0.7011 -0.0598  0.5138
18494THY      O45920   4.294   4.680   5.431 -0.2268  0.0002  0.2180
18494THY     HO45921   4.298   4.669   5.335 -0.8985 -0.1701  1.2252
18494THY    CA145922   4.415   4.693   5.483  0.2310  0.3353 -0.2740
18494THY    CA245923   4.429   4.778   5.590  0.1674  0.2092  0.1024
18494THY    CP145924   4.302   4.845   5.652 -1.0829  0.0209  0.4871
18494THY    HP145925   4.214   4.785   5.628  0.1288 -0.4260 -1.1734
18494THY    CP245926   4.284   4.989   5.605 -0.0851  0.0531 -0.3257
18494THY    HP245927   4.198   5.033   5.656  0.7921  1.8997 -0.6707
18494THY    HP345928   4.253   4.990   5.500 -1.3140  0.3386  2.9348
18494THY    HP445929   4.381   5.039   5.619 -0.0141  1.5842 -0.8342
18494THY    CP345930   4.298   4.859   5.810  0.0907  0.1331 -0.4574
18494THY    HP545931   4.362   4.944   5.835  0.1507  0.4884 -0.6044
18494THY    HP645932   4.342   4.771   5.858  0.7951 -0.3647 -0.3773
18494THY    HP745933   4.194   4.878   5.840 -0.3804  0.4938 -3.2555
18494THY    CA345934   4.555   4.812   5.638 -0.8830  0.4886 -0.2704
18494THY    HA345935   4.571   4.892   5.709  0.7797  0.5806 -0.6340
18494THY    CA445936   4.668   4.745   5.583 -0.1703  0.2245 -0.7273
18494THY    HA445937   4.767   4.773   5.619 -0.8438  1.3816  0.2725
18494THY    CA545938   4.658   4.653   5.486  0.8525  0.0412 -0.2776
18494THY    CM145939   4.777   4.588   5.423 -0.3373 -0.0154  0.1778
18494THY    HM145940   4.748   4.522   5.341  1.5509  0.5627 -1.4771
18494THY    HM245941   4.824   4.521   5.496 -0.1788 -0.5612 -0.3164
18494THY    HM345942   4.849   4.666   5.394  0.3732  0.4923 -0.2771
18494THY    CA645943   4.528   4.628   5.434 -0.0804  0.5984  0.5505
18494THY    HA645944   4.515   4.560   5.350  0.0649  0.6685  0.4371
18495THY      O45945   4.987   0.261   3.887 -0.0150  0.4310  0.3218
18495THY     HO45946   4.980   0.198   3.960 -0.5321  0.5600  0.5232
18495THY    CA145947   4.862   0.292   3.846  0.3724  0.4399 -0.0707
18495THY    CA245948   4.821   0.424   3.824  0.3747 -0.0420 -0.9704
18495THY    CP145949   4.938   0.523   3.820  0.0895 -0.8124  0.4379
18495THY    HP145950   5.022   0.476   3.769  0.5953 -0.1208  0.5841
18495THY    CP245951   4.983   0.578   3.949 -0.0763 -0.0418  0.0016
18495THY    HP245952   4.901   0.617   4.009  2.3303  1.1798  3.7194
18495THY    HP345953   5.050   0.661   3.926 -1.3125 -0.0197  1.0243
18495THY    HP445954   5.036   0.497   4.001 -0.8263 -0.5539 -0.8399
18495THY    CP345955   4.899   0.647   3.727 -0.2204  0.7516  0.3697
18495THY    HP545956   4.823   0.713   3.771 -1.0549  0.7681 -0.5844
18495THY    HP645957   4.861   0.611   3.631  2.6254 -1.7399  3.4587
18495THY    HP745958   4.983   0.711   3.698 -1.3840 -1.1469  1.1175
18495THY    CA345959   4.686   0.456   3.812 -0.4308  0.2464 -0.6841
18495THY    HA345960   4.644   0.552   3.786 -1.8417  0.0130 -1.3380
18495THY    CA445961   4.592   0.349   3.808  0.1830  0.3063 -0.4159
18495THY    HA445962   4.486   0.368   3.792  0.4994  0.6283  1.8766
18495THY    CA545963   4.629   0.217   3.826 -0.0465  0.5071 -0.8991
18495THY    CM145964   4.523   0.107   3.822  0.4756 -0.6088  0.1999
18495THY    HM145965   4.448   0.110   3.743 -0.8972  0.5692 -1.1522
18495THY    HM245966   4.463   0.115   3.914 -0.7572 -1.4987  1.6548
18495THY    HM345967   4.578   0.013   3.808  0.3244 -2.1221  0.3161
18495THY    CA645968   4.766   0.193   3.839 -0.7940  0.2512  0.4502
18495THY    HA645969   4.798   0.090   3.853 -1.8932 -2.6328 -0.3842
18496THY      O45970   8.727   0.725   7.345 -0.1564  0.0182  0.3568
18496THY     HO45971   8.811   0.702   7.302 -1.2457 -1.6674 -0.6836
18496THY    CA145972   8.671   0.608   7.355  0.0693  0.8584 -0.7250
18496THY    CA245973   8.538   0.581   7.387  0.7526 -0.4972 -0.4222
18496THY    CP145974   8.431   0.687   7.391 -0.0537 -0.7449  0.0432
18496THY    HP145975   8.466   0.781   7.347 -1.3979 -3.0702 -0.4686
18496THY    CP245976   8.386   0.718   7.534  0.2527 -0.2043  0.5606
18496THY    HP245977   8.475   0.737   7.596 -0.1101  0.2333  0.8565
18496THY    HP345978   8.341   0.630   7.582 -0.5302  0.4460  1.2937
18496THY    HP445979   8.323   0.807   7.534 -1.0590 -1.6279 -0.3328
18496THY    CP345980   8.309   0.653   7.309 -0.2150 -0.3080 -0.6764
18496THY    HP545981   8.338   0.627   7.206 -0.6377 -0.6207  0.0416
18496THY    HP645982   8.224   0.722   7.316  0.1095 -0.8620 -0.2027
18496THY    HP745983   8.265   0.557   7.337 -1.4719 -3.5475 -1.1889
18496THY    CA345984   8.495   0.444   7.418  0.7293  0.0939  0.4665
18496THY    HA345985   8.398   0.418   7.460  1.0056  0.0141 -0.7469
18496THY    CA445986   8.591   0.340   7.400 -0.2509  0.2681  0.1659
18496THY    HA445987   8.575   0.235   7.423  2.1978 -0.4317 -0.4170
18496THY    CA545988   8.722   0.369   7.369 -0.5869 -0.4401  0.4416
18496THY    CM145989   8.826   0.264   7.358  0.5230  0.3511 -0.0839
18496THY    HM145990   8.828   0.201   7.448  1.4966  0.2918 -0.1527
18496THY    HM245991   8.925   0.308   7.346 -0.0411 -1.1591  0.8286
18496THY    HM345992   8.798   0.196   7.276 -0.7881  2.4308 -2.2463
18496THY    CA645993   8.763   0.502   7.344  0.3879 -0.5016  0.2338
18496THY    HA645994   8.867   0.517   7.318  0.2805 -0.1616  1.7714
18497THY      O45995   1.969   0.408   4.730 -0.1275 -0.1038 -0.0969
18497THY     HO45996   1.883   0.449   4.710  1.6946 -1.7192  3.4149
18497THY    CA145997   2.030   0.380   4.612  0.0827  0.5641  0.4055
18497THY    CA245998   2.161   0.335   4.608  0.6088 -0.2405 -0.3409
18497THY    CP145999   2.230   0.312   4.745 -0.7466 -0.1651 -0.0647
18497THY    HP146000   2.188   0.379   4.821 -2.3922 -0.6853 -0.4512
18497THY    CP246001   2.382   0.346   4.737  0.1158  0.0334  1.1222
18497THY    HP246002   2.431   0.269   4.676 -1.8425 -1.7955  1.2502
18497THY    HP346003   2.430   0.355   4.835  0.0724 -0.0665  2.6400
18497THY    HP446004   2.381   0.443   4.686 -3.2064  0.8273  1.6500
18497THY    CP346005   2.216   0.167   4.792 -0.3745 -0.2124 -0.2003
18497THY    HP546006   2.267   0.158   4.889  0.4695 -0.3332  2.3326
18497THY    HP646007   2.269   0.093   4.731 -0.9564  1.1925 -1.8148
18497THY    HP746008   2.109   0.143   4.789 -0.0415 -2.6523 -1.7814
18497THY    CA346009   2.232   0.322   4.484 -0.1324 -0.0716  0.0821
18497THY    HA346010   2.335   0.286   4.482 -0.3306  1.9316 -0.6758
18497THY    CA446011   2.160   0.339   4.362 -0.1918  0.0469  0.3012
18497THY    HA446012   2.214   0.325   4.269  2.3197  1.6728 -1.5654
18497THY    CA546013   2.028   0.377   4.368 -0.3179 -0.2896 -0.0826
18497THY    CM146014   1.960   0.407   4.235 -0.9950 -0.1598 -0.8067
18497THY    HM146015   1.997   0.331   4.165 -1.1701 -2.3582  1.0397
18497THY    HM246016   1.982   0.507   4.196 -1.0781  2.2716  0.2221
18497THY    HM346017   1.851   0.396   4.243 -1.0908  1.1818  0.6951
18497THY    CA646018   1.963   0.401   4.494  0.2635  0.3386 -0.0712
18497THY    HA646019   1.862   0.440   4.493  0.4128  0.8144  0.3308
18498THY      O46020   7.081   2.280   6.842 -0.3775 -0.0368  0.0268
18498THY     HO46021   7.024   2.231   6.904 -3.7387 -1.9258  1.2061
18498THY    CA146022   7.095   2.204   6.735  0.0235 -0.1758  0.4321
18498THY    CA246023   7.150   2.073   6.746 -0.4269  0.1061 -0.1379
18498THY    CP146024   7.182   2.015   6.886  0.2328 -0.2976 -0.2597
18498THY    HP146025   7.118   2.056   6.965  2.1738  1.8506 -1.1485
18498THY    CP246026   7.320   2.063   6.930  0.2328 -0.0643  0.5873
18498THY    HP246027   7.396   2.046   6.853  2.3734  2.1438 -0.5368
18498THY    HP346028   7.335   1.997   7.017  0.1443 -0.1732  0.4241
18498THY    HP446029   7.320   2.169   6.958  2.4287  0.4241  0.5092
18498THY    CP346030   7.156   1.863   6.887 -0.2987  0.4332  0.2296
18498THY    HP546031   7.131   1.833   6.989  1.6317  0.5219 -1.2767
18498THY    HP646032   7.242   1.803   6.856 -0.5511 -0.2428  0.2044
18498THY    HP746033   7.077   1.827   6.819  0.4237 -0.0793 -0.4179
18498THY    CA346034   7.173   2.001   6.640  0.3435  0.1725  0.4159
18498THY    HA346035   7.225   1.906   6.644  0.7917 -0.9745  0.5951
18498THY    CA446036   7.126   2.045   6.516  0.7633 -0.1748  0.3047
18498THY    HA446037   7.142   1.981   6.430  0.5594 -0.0210  0.0474
18498THY    CA546038   7.069   2.175   6.502  0.0198 -0.3588 -0.8287
18498THY    CM146039   7.009   2.214   6.369  0.4157  0.5248  0.3170
18498THY    HM146040   7.034   2.313   6.330  1.0446  1.5052  0.5584
18498THY    HM246041   6.900   2.224   6.384  0.3121 -0.3708  0.6455
18498THY    HM346042   7.021   2.144   6.286 -1.7888 -0.6870  1.2755
18498THY    CA646043   7.063   2.255   6.612 -0.2793 -0.2447 -0.8915
18498THY    HA646044   7.024   2.356   6.619 -0.5923  1.8414 -1.1054
18499THY      O46045   3.343   5.935   7.377  0.2376  0.1264  0.2052
18499THY     HO46046   3.268   5.984   7.416 -1.3464  1.3509 -2.9500
18499THY    CA146047   3.300   5.938   7.244 -0.6547 -0.4823  0.3348
18499THY    CA246048   3.336   5.835   7.154  0.8493 -0.3401  0.0349
18499THY    CP146049   3.422   5.720   7.207 -0.2482  0.0474  0.4108
18499THY    HP146050   3.505   5.777   7.252  0.2140  0.3466 -0.4825
18499THY    CP246051   3.479   5.637   7.092 -0.3068  0.3335  0.5369
18499THY    HP246052   3.566   5.580   7.128 -0.7977  1.2350  0.3414
18499THY    HP346053   3.514   5.702   7.011 -1.1002  0.7644  1.5261
18499THY    HP446054   3.398   5.577   7.049 -0.2801 -0.1057  0.8099
18499THY    CP346055   3.348   5.626   7.306 -0.5022  0.0494 -0.1813
18499THY    HP546056   3.313   5.669   7.401 -2.5219 -1.1509  0.9536
18499THY    HP646057   3.415   5.540   7.321 -0.9240  2.5932 -0.1424
18499THY    HP746058   3.254   5.597   7.258 -2.1235  1.1999  2.7508
18499THY    CA346059   3.275   5.839   7.026 -0.6550 -0.2402  0.5452
18499THY    HA346060   3.302   5.772   6.946 -0.5198 -1.6694  2.2292
18499THY    CA446061   3.197   5.947   6.982  0.0272 -0.3838 -0.0843
18499THY    HA446062   3.131   5.939   6.896  0.2769 -0.7541  1.4675
18499THY    CA546063   3.175   6.054   7.070  0.3569 -0.2914  0.2106
18499THY    CM146064   3.089   6.170   7.031  0.0034 -0.2103  0.0329
18499THY    HM146065   2.989   6.126   7.016 -0.0999  0.9585 -0.1748
18499THY    HM246066   3.115   6.220   6.938 -1.2170 -0.2910  0.5598
18499THY    HM346067   3.101   6.251   7.104  0.6082 -0.9257  0.6020
18499THY    CA646068   3.227   6.043   7.200  0.2163  0.1486  0.1956
18499THY    HA646069   3.214   6.125   7.271  0.3115  1.5088 -0.9197
18500THY      O46070   4.898   2.578   4.198  0.0801 -0.8122  0.2207
18500THY     HO46071   4.848   2.659   4.177  0.7674  0.0149  0.8696
18500THY    CA146072   4.886   2.575   4.330 -1.0369  0.3600 -0.1923
18500THY    CA246073   4.980   2.505   4.404  0.0462  0.2499  0.3243
18500THY    CP146074   5.088   2.426   4.336 -0.4333 -0.1006 -0.4457
18500THY    HP146075   5.055   2.374   4.245  0.9212 -0.9947  0.2130
18500THY    CP246076   5.129   2.310   4.424  0.1061  0.5240 -0.1650
18500THY    HP246077   5.037   2.275   4.472 -2.1950 -2.0974  1.8494
18500THY    HP346078   5.208   2.339   4.493  0.4609 -0.4525  1.2865
18500THY    HP446079   5.182   2.233   4.366  1.7090  2.2170 -0.3872
18500THY    CP346080   5.213   2.521   4.310  0.3908  0.4277  0.1044
18500THY    HP546081   5.240   2.569   4.404 -0.2395  0.6629  0.0022
18500THY    HP646082   5.180   2.599   4.240 -0.2187 -0.8803 -1.2625
18500THY    HP746083   5.296   2.462   4.269 -1.9717 -0.0619 -3.1670
18500THY    CA346084   4.973   2.516   4.545 -0.1685  0.1072  0.3529
18500THY    HA346085   5.039   2.462   4.612 -3.1570  3.3398  0.3077
18500THY    CA446086   4.873   2.597   4.603 -0.1334 -0.5083 -0.0752
18500THY    HA446087   4.871   2.598   4.711 -0.0088 -0.5093  0.2416
18500THY    CA546088   4.776   2.657   4.530 -0.3055  0.4113  0.3250
18500THY    CM146089   4.663   2.732   4.587 -0.4542 -0.3182 -0.2426
18500THY    HM146090   4.668   2.837   4.555 -1.8251  0.3260  0.0413
18500THY    HM246091   4.658   2.722   4.696  2.8469  0.0977  1.3627
18500THY    HM346092   4.576   2.678   4.546  0.4813 -0.4578 -1.7151
18500THY    CA646093   4.789   2.654   4.389  0.0507  0.3338 -0.6792
18500THY    HA646094   4.727   2.717   4.326 -1.4682  0.0007 -2.4103
18501THY      O46095   5.429   3.240   6.986  0.3957  0.3456 -0.1881
18501THY     HO46096   5.444   3.171   7.053 -1.0791 -1.4394 -2.4060
18501THY    CA146097   5.453   3.190   6.865 -0.4056  0.1537 -0.4451
18501THY    CA246098   5.457   3.269   6.754  0.2951  0.5006 -0.6216
18501THY    CP146099   5.430   3.419   6.763 -0.5002 -0.3947 -0.2004
18501THY    HP146100   5.378   3.445   6.856 -2.4552 -1.8181  1.2833
18501THY    CP246101   5.325   3.449   6.660 -0.2319 -0.2544 -0.5688
18501THY    HP246102   5.367   3.445   6.560  0.9427  0.1737  0.5763
18501THY    HP346103   5.284   3.549   6.681  1.1630 -1.2690  0.2444
18501THY    HP446104   5.236   3.384   6.657 -1.1045 -0.8782  0.6195
18501THY    CP346105   5.554   3.516   6.738  0.4659  0.4685 -0.5845
18501THY    HP546106   5.598   3.554   6.831 -0.8119  0.3774  1.2824
18501THY    HP646107   5.524   3.610   6.689 -0.4415  1.9385 -0.0658
18501THY    HP746108   5.636   3.469   6.683  1.0480  0.6238  0.2330
18501THY    CA346109   5.481   3.207   6.631  0.9020  0.1715 -0.1005
18501THY    HA346110   5.495   3.271   6.544  0.8802 -0.0233 -0.3558
18501THY    CA446111   5.486   3.069   6.619  0.3890 -0.4445  0.1190
18501THY    HA446112   5.515   3.020   6.526  1.7810  0.0926 -0.1501
18501THY    CA546113   5.489   2.993   6.736 -0.1993  0.2121 -0.5466
18501THY    CM146114   5.524   2.848   6.725 -0.9361 -0.3066  0.1492
18501THY    HM146115   5.437   2.781   6.732  1.0238 -2.3878 -2.8705
18501THY    HM246116   5.594   2.840   6.809  0.5567 -1.4539  0.8778
18501THY    HM346117   5.578   2.819   6.634 -1.7638 -0.3804 -1.2269
18501THY    CA646118   5.465   3.050   6.856  0.3285  0.2720  0.2517
18501THY    HA646119   5.459   2.976   6.936  0.1641 -1.0897 -1.2434
18502THY      O46120   1.033   3.215   6.116  0.3337  0.1792 -0.1288
18502THY     HO46121   1.051   3.302   6.075 -0.2480 -1.5276 -0.7674
18502THY    CA146122   1.150   3.179   6.170  0.7041  0.0482  0.1409
18502THY    CA246123   1.161   3.062   6.253  0.2705 -0.7027 -0.2155
18502THY    CP146124   1.039   2.982   6.282 -0.0579 -0.9862 -0.8829
18502THY    HP146125   0.957   3.005   6.212 -1.3837  0.9148  0.4561
18502THY    CP246126   0.997   3.000   6.435  0.4679  0.8570 -0.3067
18502THY    HP246127   0.913   2.933   6.458 -0.8640  2.5713  1.7973
18502THY    HP346128   0.966   3.105   6.444  0.0428  0.1418 -0.3661
18502THY    HP446129   1.076   2.973   6.507 -0.3190  1.8060 -0.1463
18502THY    CP346130   1.072   2.833   6.256  0.4878 -0.2810  0.0590
18502THY    HP546131   1.136   2.792   6.335  1.7453 -0.5957  1.3603
18502THY    HP646132   1.108   2.828   6.153 -2.1358 -1.4479  2.5198
18502THY    HP746133   0.975   2.781   6.248  0.7655 -1.2066 -0.3299
18502THY    CA346134   1.284   3.020   6.297  0.1200  0.2774  0.1116
18502THY    HA346135   1.300   2.937   6.366  1.2982  0.7610  0.7151
18502THY    CA446136   1.397   3.088   6.248 -0.0166 -0.0759  0.8332
18502THY    HA446137   1.498   3.056   6.275 -1.5140  0.5949 -4.1501
18502THY    CA546138   1.386   3.201   6.164 -0.2857 -0.3060  0.2635
18502THY    CM146139   1.502   3.278   6.135 -0.6920  0.1872 -0.6456
18502THY    HM146140   1.597   3.234   6.170  0.6613 -2.3747  0.0774
18502THY    HM246141   1.491   3.376   6.183  2.7852  3.2630 -1.5160
18502THY    HM346142   1.510   3.300   6.028  2.2576  0.0190 -1.9338
18502THY    CA646143   1.263   3.248   6.125 -0.2128  0.0315  0.3352
18502THY    HA646144   1.253   3.326   6.050 -0.6051 -0.2528  0.0196
18503THY      O46145   1.374   8.263   4.632  0.5250 -0.0500  0.4655
18503THY     HO46146   1.311   8.325   4.673 -0.4084  1.0944 -1.1516
18503THY    CA146147   1.298   8.145   4.617 -0.0075  1.1133 -0.6979
18503THY    CA246148   1.342   8.040   4.529  0.0977 -0.7578 -0.0013
18503THY    CP146149   1.476   8.049   4.458  0.9277 -0.7021 -0.1460
18503THY    HP146150   1.521   8.145   4.486  0.7671 -0.8817 -0.0164
18503THY    CP246151   1.456   8.052   4.306 -0.0482  0.2531 -0.5666
18503THY    HP246152   1.434   7.954   4.262  1.1608 -2.1599  0.1616
18503THY    HP346153   1.546   8.081   4.251  0.1949 -0.0187 -1.7941
18503THY    HP446154   1.381   8.130   4.292  2.2612  1.1247  1.9647
18503THY    CP346155   1.563   7.931   4.493 -0.1415 -0.3222 -0.2753
18503THY    HP546156   1.570   7.912   4.601  3.1442  0.3652  3.6531
18503THY    HP646157   1.665   7.956   4.463 -0.0262 -0.7937 -1.2412
18503THY    HP746158   1.533   7.842   4.436 -0.3483  0.5997 -0.8074
18503THY    CA346159   1.259   7.930   4.509 -0.0048  0.4856  0.3081
18503THY    HA346160   1.293   7.844   4.453 -0.8626 -0.7498  0.7420
18503THY    CA446161   1.137   7.926   4.576  0.0479 -0.5309 -0.5487
18503THY    HA446162   1.073   7.839   4.565 -0.1088  0.3898 -0.5609
18503THY    CA546163   1.094   8.024   4.666 -0.4834  0.4345  0.4920
18503THY    CM146164   0.961   8.027   4.730 -0.5809 -0.6306 -0.0705
18503THY    HM146165   0.967   8.083   4.824  0.0394 -0.3456 -0.5968
18503THY    HM246166   0.927   7.927   4.761  1.5498 -1.1624 -1.0251
18503THY    HM346167   0.886   8.081   4.672 -0.3155  1.7677  3.1611
18503THY    CA646168   1.171   8.143   4.674 -0.5271 -0.7989  0.6322
18503THY    HA646169   1.132   8.216   4.744  1.3295 -1.7878  2.6987
18504THY      O46170   3.656   4.583   3.163  0.3299  0.3581  0.1372
18504THY     HO46171   3.679   4.598   3.070  0.3505  0.3603  0.1189
18504THY    CA146172   3.650   4.458   3.182 -0.3847  0.1072  0.3909
18504THY    CA246173   3.614   4.406   3.307 -0.4263 -0.5437  0.3118
18504THY    CP146174   3.563   4.512   3.405 -0.3077 -0.0699  0.4902
18504THY    HP146175   3.515   4.591   3.346 -0.3209  0.0683  0.5863
18504THY    CP246176   3.689   4.572   3.481  0.3271 -0.1918 -0.1203
18504THY    HP246177   3.719   4.501   3.559  2.1864 -0.9641 -0.2539
18504THY    HP346178   3.666   4.659   3.543 -0.7255  1.3086 -1.3950
18504THY    HP446179   3.774   4.588   3.414 -1.2278 -1.8101  1.8326
18504THY    CP346180   3.452   4.464   3.499 -0.1943 -0.3154 -0.4997
18504THY    HP546181   3.425   4.545   3.567  0.9263 -0.0349 -0.3415
18504THY    HP646182   3.488   4.377   3.555  0.0371  0.4125  0.0504
18504THY    HP746183   3.362   4.435   3.444 -1.6349  0.2871  2.5026
18504THY    CA346184   3.608   4.265   3.332  1.4606  0.6022 -0.3469
18504THY    HA346185   3.560   4.220   3.418 -1.2708 -2.9792 -5.2034
18504THY    CA446186   3.644   4.189   3.221  0.6216 -0.6318  0.0847
18504THY    HA446187   3.637   4.082   3.242 -0.6054  1.1803  0.4735
18504THY    CA546188   3.698   4.237   3.100  0.2686 -0.1385  0.1992
18504THY    CM146189   3.736   4.146   2.993  0.1728  0.2180  0.7454
18504THY    HM146190   3.801   4.192   2.918  0.4157  0.9084  1.5561
18504THY    HM246191   3.646   4.112   2.940  0.3372  0.0166  0.6300
18504THY    HM346192   3.785   4.053   3.022  0.0512  2.5785  1.3446
18504THY    CA646193   3.700   4.377   3.082  0.1444  0.2566 -0.1822
18504THY    HA646194   3.742   4.421   2.992  0.3989  0.8499  0.8000
18505THY      O46195   2.120   8.060   2.480  0.3136 -0.5188 -0.1891
18505THY     HO46196   2.078   8.140   2.517  0.2574  0.2999 -0.5924
18505THY    CA146197   2.020   7.986   2.424 -0.0810  0.4038 -0.0291
18505THY    CA246198   2.028   7.845   2.419 -0.2288  0.1566 -0.3201
18505THY    CP146199   2.159   7.774   2.463 -0.1144 -0.3600  0.4325
18505THY    HP146200   2.245   7.841   2.471 -0.6228  0.2254  1.0277
18505THY    CP246201   2.213   7.665   2.360 -0.4489 -0.4535  0.0136
18505THY    HP246202   2.280   7.709   2.285 -1.0544 -0.4128  1.0575
18505THY    HP346203   2.130   7.602   2.326 -0.5906 -0.6680  0.3109
18505THY    HP446204   2.273   7.595   2.418 -0.7734  0.3976  0.4116
18505THY    CP346205   2.131   7.710   2.601 -0.4032  0.3065  0.1676
18505THY    HP546206   2.216   7.652   2.638 -0.3088  1.3863  0.9575
18505THY    HP646207   2.045   7.642   2.596 -1.1836  0.0481  1.1273
18505THY    HP746208   2.113   7.781   2.683  1.1756  1.3202 -0.5621
18505THY    CA346209   1.914   7.778   2.375  0.2303 -0.1193 -0.5394
18505THY    HA346210   1.909   7.671   2.391  0.9315  0.2995 -0.5157
18505THY    CA446211   1.806   7.852   2.334  0.2234  0.2765 -0.1398
18505THY    HA446212   1.717   7.794   2.311 -0.0506  2.9517 -0.9493
18505THY    CA546213   1.792   7.991   2.337 -0.4565 -0.4306 -0.2679
18505THY    CM146214   1.671   8.067   2.290 -0.5217 -0.0301 -0.3967
18505THY    HM146215   1.688   8.175   2.300 -0.9710 -1.4948 -0.1711
18505THY    HM246216   1.583   8.042   2.350  0.4205  0.9996 -1.3377
18505THY    HM346217   1.657   8.043   2.184  0.4369 -0.4594  0.8043
18505THY    CA646218   1.910   8.056   2.378  0.2933 -0.5793 -0.4912
18505THY    HA646219   1.918   8.163   2.366  2.3220 -0.1742 -0.5562
18506THY      O46220   1.053   3.515   4.295  0.0412 -0.7370  0.2936
18506THY     HO46221   0.995   3.448   4.255  1.3951 -2.3052  0.0017
18506THY    CA146222   1.000   3.544   4.416 -0.2901 -0.1667 -0.3712
18506THY    CA246223   1.059   3.636   4.509  0.1101  0.1344  0.5389
18506THY    CP146224   1.178   3.726   4.477  0.1557 -0.0735  0.0918
18506THY    HP146225   1.206   3.703   4.374  2.9618  1.0427 -1.9666
18506THY    CP246226   1.294   3.690   4.567  0.6797  0.3795  0.5254
18506THY    HP246227   1.326   3.585   4.568  1.9688  2.9023  0.8583
18506THY    HP346228   1.273   3.721   4.670  1.7682  1.0604 -0.8979
18506THY    HP446229   1.384   3.747   4.540  0.9218 -0.2681 -0.1475
18506THY    CP346230   1.137   3.874   4.487  0.5533 -0.0109  0.4647
18506THY    HP546231   1.226   3.933   4.461  0.4650  1.1500  1.1454
18506THY    HP646232   1.105   3.909   4.586 -1.7651 -0.5046 -0.1114
18506THY    HP746233   1.065   3.897   4.407  1.3449 -0.5331  1.1999
18506THY    CA346234   0.992   3.653   4.636 -0.4555  0.5683  0.2159
18506THY    HA346235   1.034   3.724   4.707  0.6645 -0.4353  0.5798
18506THY    CA446236   0.890   3.557   4.670 -0.2414  0.0266  0.8163
18506THY    HA446237   0.854   3.549   4.772  1.8426  0.9974  2.9711
18506THY    CA546238   0.835   3.475   4.578  0.2353  0.0177 -0.5018
18506THY    CM146239   0.724   3.379   4.614 -0.4637  0.2673  0.0365
18506THY    HM146240   0.625   3.424   4.617 -0.1808  1.3243  0.6347
18506THY    HM246241   0.739   3.328   4.710  0.5558 -0.8138 -1.8460
18506THY    HM346242   0.716   3.293   4.546 -1.3889  0.6059 -0.1559
18506THY    CA646243   0.880   3.481   4.449 -0.4198 -0.3620 -0.1153
18506THY    HA646244   0.832   3.427   4.367 -2.8482  0.8280  0.0847
18507THY      O46245   8.996   1.497   6.995  0.4576  0.0218 -0.4550
18507THY     HO46246   8.987   1.462   6.905 -0.8260  0.1147 -0.4270
18507THY    CA146247   8.910   1.598   6.999  0.2582 -0.3569  0.1340
18507THY    CA246248   8.912   1.698   7.096  0.5522 -0.2036  0.3971
18507THY    CP146249   9.042   1.710   7.181  0.0850  0.1387  0.0795
18507THY    HP146250   9.089   1.611   7.190  0.4842 -3.0157 -0.1117
18507THY    CP246251   9.024   1.767   7.322 -1.0444 -0.0896 -0.5536
18507THY    HP246252   9.116   1.743   7.377 -0.6891  0.6706  2.2109
18507THY    HP346253   8.940   1.710   7.363 -0.6601 -0.4932 -1.4317
18507THY    HP446254   9.003   1.873   7.333 -2.7034  0.2703 -0.8966
18507THY    CP346255   9.153   1.793   7.112  1.0743  0.2038 -0.1942
18507THY    HP546256   9.114   1.894   7.095 -0.2617 -0.8258 -0.8508
18507THY    HP646257   9.187   1.750   7.017  0.3609  0.9575 -2.5789
18507THY    HP746258   9.230   1.800   7.189  1.5461 -0.1697 -1.0870
18507THY    CA346259   8.802   1.793   7.101 -0.0340  0.6521 -0.2720
18507THY    HA346260   8.810   1.877   7.169 -1.1647  1.6178 -0.9197
18507THY    CA446261   8.698   1.781   6.998 -0.3577 -0.3052  0.5235
18507THY    HA446262   8.609   1.843   6.992 -3.0410  0.1815 -2.9301
18507THY    CA546263   8.698   1.671   6.913 -0.1776 -0.4212 -0.7248
18507THY    CM146264   8.595   1.651   6.814 -0.1055  0.5013 -0.0544
18507THY    HM146265   8.509   1.718   6.829 -0.8162  0.9544 -1.0334
18507THY    HM246266   8.556   1.549   6.807 -0.7804  0.0680  0.2309
18507THY    HM346267   8.638   1.667   6.715 -1.4336 -0.2845 -1.0738
18507THY    CA646268   8.806   1.581   6.912  0.4991 -0.2194  0.0418
18507THY    HA646269   8.803   1.500   6.840  2.0405 -0.0079 -0.2228
18508THY      O46270   6.829   6.227   5.812  0.8521 -0.1048  0.0471
18508THY     HO46271   6.808   6.312   5.768  1.9562 -1.8775 -0.5387
18508THY    CA146272   6.772   6.234   5.940  0.3860  0.4288 -0.0126
18508THY    CA246273   6.767   6.119   6.015 -0.0403  0.3947  0.1749
18508THY    CP146274   6.837   5.988   5.962 -0.3448 -0.4510  1.4864
18508THY    HP146275   6.925   6.011   5.900 -0.8751 -1.9514 -0.2732
18508THY    CP246276   6.742   5.896   5.885  0.4678  0.3618  0.3957
18508THY    HP246277   6.790   5.806   5.845 -0.2681 -2.2252  1.0692
18508THY    HP346278   6.703   5.949   5.797  0.5508  1.2390  1.9782
18508THY    HP446279   6.648   5.880   5.938  0.4485  1.3874  3.3074
18508THY    CP346280   6.884   5.889   6.074 -0.3203 -0.1703 -0.5282
18508THY    HP546281   6.810   5.823   6.122 -2.1751  1.0565  2.2243
18508THY    HP646282   6.906   5.956   6.158 -1.3178  1.5227 -2.2161
18508THY    HP746283   6.971   5.831   6.043  0.7383 -0.6794  1.2386
18508THY    CA346284   6.712   6.122   6.149  0.6348  0.1757 -0.0266
18508THY    HA346285   6.701   6.031   6.208  2.0289 -0.4610 -0.6320
18508THY    CA446286   6.653   6.248   6.192  0.0213  0.1475  0.2668
18508THY    HA446287   6.601   6.244   6.287  1.1560  0.8643  1.6237
18508THY    CA546288   6.661   6.363   6.107  0.2668 -0.4870  0.5767
18508THY    CM146289   6.600   6.488   6.161 -0.0525  0.0766 -0.0640
18508THY    HM146290   6.663   6.520   6.245  0.4316 -1.0755  2.1864
18508THY    HM246291   6.499   6.464   6.198 -0.3056 -1.4686 -1.5515
18508THY    HM346292   6.585   6.571   6.091 -0.1180  1.7691  1.4123
18508THY    CA646293   6.714   6.353   5.978  0.6070 -0.2487  0.4403
18508THY    HA646294   6.704   6.442   5.917 -0.9652  1.4722  1.5223
18509THY      O46295   7.868   0.984   3.422  0.0454 -0.6412  0.0414
18509THY     HO46296   7.869   1.074   3.386 -1.5824  2.6352  1.5387
18509THY    CA146297   7.851   0.903   3.312  0.6167 -0.1244  0.0905
18509THY    CA246298   7.733   0.820   3.302 -0.5897 -0.2582  0.2741
18509THY    CP146299   7.632   0.816   3.423 -0.6357  0.1249  1.1572
18509THY    HP146300   7.648   0.909   3.479 -0.7473  2.1734  0.0109
18509THY    CP246301   7.645   0.700   3.527 -0.8462 -0.2651  0.1982
18509THY    HP246302   7.579   0.700   3.614 -0.1140  0.3030 -0.4499
18509THY    HP346303   7.747   0.694   3.566 -0.8096 -0.4139 -0.1914
18509THY    HP446304   7.637   0.612   3.462  1.3638 -1.1058  0.5643
18509THY    CP346305   7.490   0.823   3.360  0.1913  0.6164 -0.8932
18509THY    HP546306   7.490   0.896   3.279 -0.4188 -0.5007 -2.0889
18509THY    HP646307   7.415   0.841   3.438 -1.2591 -0.6791 -1.1741
18509THY    HP746308   7.464   0.722   3.327 -0.2081 -2.7344  0.1998
18509THY    CA346309   7.712   0.735   3.194 -0.0132  0.8678 -0.5087
18509THY    HA346310   7.632   0.662   3.196  0.6645  2.2758 -1.2525
18509THY    CA446311   7.801   0.752   3.079  0.2154  0.1894 -0.7767
18509THY    HA446312   7.799   0.698   2.985 -1.1064 -0.3213  0.0866
18509THY    CA546313   7.923   0.829   3.103  0.0511 -0.0463  0.9456
18509THY    CM146314   8.018   0.847   2.992 -0.5003  0.3713 -0.6716
18509THY    HM146315   7.962   0.859   2.899 -1.0499  1.0762  4.1366
18509THY    HM246316   8.091   0.766   2.981 -0.7760  1.2915 -1.0711
18509THY    HM346317   8.090   0.927   3.013 -0.4762  1.0804 -0.8706
18509THY    CA646318   7.943   0.905   3.219 -0.4141  0.6639 -0.2365
18509THY    HA646319   8.038   0.951   3.243 -1.5264  0.8754  2.0796
18510THY      O46320   8.816   1.456   2.701 -0.2822 -0.5277 -0.2526
18510THY     HO46321   8.830   1.449   2.797 -0.3036 -0.6305 -2.3472
18510THY    CA146322   8.773   1.581   2.669  0.0025 -0.1798  0.0957
18510THY    CA246323   8.856   1.695   2.664 -0.2686  0.2371 -0.8543
18510THY    CP146324   9.002   1.680   2.682 -0.5265  0.1567 -0.3178
18510THY    HP146325   9.027   1.574   2.672 -1.9770 -1.0797 -0.5824
18510THY    CP246326   9.050   1.740   2.813  0.0120 -0.6899 -0.2716
18510THY    HP246327   9.062   1.849   2.814  0.8785  2.8577 -0.2667
18510THY    HP346328   9.139   1.688   2.849  0.1568  0.3630  0.6633
18510THY    HP446329   8.980   1.721   2.895  0.0958 -0.8565 -1.3381
18510THY    CP346330   9.080   1.755   2.569 -0.2174 -0.4040 -1.2162
18510THY    HP546331   9.187   1.733   2.581  0.0409 -2.1185 -1.0264
18510THY    HP646332   9.078   1.863   2.582  1.4363 -0.9628 -1.0915
18510THY    HP746333   9.057   1.728   2.465  0.7252 -1.6984  2.4533
18510THY    CA346334   8.790   1.820   2.633  0.0890  0.0111 -0.4141
18510THY    HA346335   8.849   1.911   2.632 -1.6711  1.0486  0.7870
18510THY    CA446336   8.655   1.818   2.606 -0.0600 -0.5105 -0.5073
18510THY    HA446337   8.609   1.911   2.572  0.0083  1.3319  0.2462
18510THY    CA546338   8.579   1.700   2.607 -0.1796  0.7765 -0.3188
18510THY    CM146339   8.431   1.700   2.575  0.3527  0.0911  0.3607
18510THY    HM146340   8.387   1.798   2.595 -3.0412  0.0084 -1.0218
18510THY    HM246341   8.378   1.629   2.640 -0.0450  0.1253  0.6855
18510THY    HM346342   8.430   1.672   2.469  1.9574  0.0547  0.3611
18510THY    CA646343   8.639   1.583   2.645 -0.2754  0.1555 -0.0720
18510THY    HA646344   8.585   1.489   2.650  1.4770  1.6898 -1.0893
18511THY      O46345   9.131   6.060   6.947 -0.0020  0.1222 -0.6291
18511THY     HO46346   9.213   6.038   6.900  1.1982  1.9553 -0.2606
18511THY    CA146347   9.141   6.193   6.983  1.0068 -0.2993 -0.2085
18511THY    CA246348   9.086   6.233   7.107 -0.2474  0.3825  0.2513
18511THY    CP146349   9.043   6.127   7.213  0.5864  0.1200 -0.2820
18511THY    HP146350   9.070   6.023   7.192 -0.7111 -0.6194 -0.4995
18511THY    CP246351   8.886   6.114   7.211 -0.1855 -0.2495  0.1405
18511THY    HP246352   8.859   6.043   7.289  2.6920 -1.3562 -2.3824
18511THY    HP346353   8.854   6.062   7.120 -1.2189  0.9080 -1.2994
18511THY    HP446354   8.837   6.212   7.220  0.2664  1.8857  0.2048
18511THY    CP346355   9.079   6.157   7.360 -0.1834  0.0041 -0.8568
18511THY    HP546356   9.026   6.249   7.386 -0.7254  1.0190 -1.4471
18511THY    HP646357   9.187   6.176   7.365 -0.1456 -1.7610 -0.4378
18511THY    HP746358   9.057   6.074   7.428 -0.0809  0.8838 -0.1800
18511THY    CA346359   9.066   6.368   7.137  0.4546 -0.5801 -0.4276
18511THY    HA346360   9.018   6.400   7.229 -0.6038 -0.1158 -3.0488
18511THY    CA446361   9.108   6.465   7.046  0.1108  0.6833 -0.5465
18511THY    HA446362   9.104   6.573   7.059  3.3685 -2.9363  0.2692
18511THY    CA546363   9.172   6.420   6.929  0.2760  0.3389  0.7530
18511THY    CM146364   9.236   6.520   6.845 -0.2244 -0.1284 -0.4848
18511THY    HM146365   9.224   6.623   6.880  3.3246 -1.0308  0.3698
18511THY    HM246366   9.197   6.513   6.742 -0.7376  0.1291 -1.7171
18511THY    HM346367   9.344   6.503   6.833  0.3669 -0.2446  2.7534
18511THY    CA646368   9.188   6.285   6.893  0.7765 -0.7048 -0.3460
18511THY    HA646369   9.229   6.256   6.796 -1.3727 -2.1842  1.2187
18512THY      O46370   8.486   3.127   4.672  0.2130  0.5017  0.5257
18512THY     HO46371   8.454   3.219   4.669 -0.5255  1.7109  0.3346
18512THY    CA146372   8.610   3.144   4.638 -0.3042  0.2608  0.4570
18512THY    CA246373   8.686   3.035   4.592 -0.4305 -0.2063  0.4377
18512THY    CP146374   8.627   2.894   4.604 -0.1652  0.0822  0.0736
18512THY    HP146375   8.557   2.877   4.686 -1.5595 -1.0360  0.2553
18512THY    CP246376   8.739   2.791   4.613 -0.6310 -0.4711 -0.4873
18512THY    HP246377   8.819   2.809   4.686 -1.3106  0.0876  0.3230
18512THY    HP346378   8.796   2.773   4.521  0.6826  0.2292 -0.0143
18512THY    HP446379   8.700   2.692   4.641  4.0206  1.7198 -2.0100
18512THY    CP346380   8.543   2.869   4.475 -0.2872 -0.3695  0.4362
18512THY    HP546381   8.480   2.952   4.440  2.6677 -4.1487  1.3959
18512THY    HP646382   8.468   2.796   4.507 -2.4172 -2.5761  1.4938
18512THY    HP746383   8.590   2.829   4.385 -0.2179 -0.3074  0.3763
18512THY    CA346384   8.814   3.073   4.545 -0.4988  0.0674 -0.4545
18512THY    HA346385   8.887   3.001   4.510  0.4483 -1.4027  1.1314
18512THY    CA446386   8.858   3.208   4.538 -0.0171 -0.4495 -0.2079
18512THY    HA446387   8.957   3.234   4.502  0.3476  1.3902  1.2222
18512THY    CA546388   8.773   3.310   4.578 -0.8295 -0.0178  0.1404
18512THY    CM146389   8.808   3.455   4.545  0.0453 -0.7749 -0.6441
18512THY    HM146390   8.719   3.512   4.518 -1.2223  2.2612 -0.9761
18512THY    HM246391   8.888   3.467   4.470  1.2797  0.6262  0.2108
18512THY    HM346392   8.850   3.505   4.633  3.8450 -1.8914 -1.5268
18512THY    CA646393   8.654   3.276   4.636  0.1322 -0.7218 -0.5246
18512THY    HA646394   8.595   3.353   4.684 -0.7505  0.7997 -2.0740
18513THY      O46395   0.100   2.166   2.667 -0.6307 -0.0432 -0.4708
18513THY     HO46396   0.081   2.141   2.575  0.3788 -0.3624 -0.1571
18513THY    CA146397   0.170   2.062   2.722  0.1609 -0.4072 -0.4154
18513THY    CA246398   0.223   2.076   2.854  0.4257  0.5950 -0.1005
18513THY    CP146399   0.224   2.212   2.924  0.7999  0.3903 -0.6207
18513THY    HP146400   0.234   2.291   2.850 -1.1564  0.4807 -0.2334
18513THY    CP246401   0.344   2.227   3.019 -0.3290  0.4177  0.5674
18513THY    HP246402   0.336   2.162   3.107  0.0795  0.2040  0.2205
18513THY    HP346403   0.345   2.335   3.034  1.5520  3.2764  0.2859
18513THY    HP446404   0.440   2.202   2.972 -1.2264 -2.2276  1.7614
18513THY    CP346405   0.092   2.245   3.005  0.2597  0.5232 -0.6155
18513THY    HP546406   0.004   2.209   2.950 -0.1977  0.4694  0.5359
18513THY    HP646407   0.067   2.351   3.020 -0.3520  0.2035 -0.7104
18513THY    HP746408   0.098   2.206   3.107 -1.0279  0.7943 -0.1579
18513THY    CA346409   0.259   1.962   2.924 -0.0151  0.7617  0.0788
18513THY    HA346410   0.302   1.970   3.023  1.1946  0.4968 -2.2937
18513THY    CA446411   0.254   1.841   2.856  0.0416 -0.4035 -0.0517
18513THY    HA446412   0.286   1.750   2.905  0.2045  0.5654  0.5058
18513THY    CA546413   0.221   1.838   2.719 -0.6224  0.0153  0.2578
18513THY    CM146414   0.237   1.705   2.646 -0.4976 -0.6529 -0.4848
18513THY    HM146415   0.152   1.640   2.671 -2.0693 -1.5856  1.0955
18513THY    HM246416   0.330   1.652   2.670  0.2302  2.2141  1.8425
18513THY    HM346417   0.234   1.719   2.537  1.4743 -0.7528 -0.6527
18513THY    CA646418   0.176   1.948   2.647  0.4278 -0.2317  1.1775
18513THY    HA646419   0.156   1.949   2.540  3.0718 -0.8722 -1.3341
18514THY      O46420   7.957   2.128   1.899 -0.0707 -0.4189 -0.1686
18514THY     HO46421   8.037   2.102   1.849 -0.3385 -2.1342  1.9989
18514THY    CA146422   7.923   2.253   1.857  0.3566  0.0969  0.3724
18514THY    CA246423   7.839   2.324   1.937 -0.2025  0.0012  0.1563
18514THY    CP146424   7.758   2.264   2.055  0.5505 -0.0707  0.8861
18514THY    HP146425   7.809   2.173   2.090 -1.9590  3.5313  0.6267
18514THY    CP246426   7.614   2.235   1.989 -0.7057  0.0185 -0.2351
18514THY    HP246427   7.547   2.187   2.061 -1.2187 -0.9067 -0.9405
18514THY    HP346428   7.630   2.165   1.906 -0.0092  0.3922 -0.5268
18514THY    HP446429   7.577   2.333   1.956 -2.3679  1.3394 -0.3651
18514THY    CP346430   7.743   2.342   2.177  0.1159 -0.8171  0.3270
18514THY    HP546431   7.848   2.360   2.202  0.1685 -0.8591  0.0820
18514THY    HP646432   7.685   2.287   2.252  1.3457 -1.5417 -2.0747
18514THY    HP746433   7.691   2.438   2.164  0.9605  0.2233  0.9479
18514THY    CA346434   7.809   2.456   1.902 -0.3099 -0.3722 -0.4333
18514THY    HA346435   7.728   2.505   1.954  0.4150  0.1950  0.1800
18514THY    CA446436   7.871   2.507   1.782  0.3288 -0.5024  0.1660
18514THY    HA446437   7.859   2.611   1.753 -2.0349 -0.4889 -0.0336
18514THY    CA546438   7.960   2.428   1.707  0.1577 -0.2263 -0.6983
18514THY    CM146439   8.028   2.494   1.582 -0.3121  0.0830  0.1138
18514THY    HM146440   7.957   2.540   1.512  0.7913 -1.0933  0.0906
18514THY    HM246441   8.090   2.432   1.517 -1.8663 -1.2100 -0.1691
18514THY    HM346442   8.091   2.579   1.610  0.1832 -1.2143  0.1943
18514THY    CA646443   7.985   2.299   1.742  0.0981  0.3357 -0.1150
18514THY    HA646444   8.048   2.233   1.682 -1.5144  0.7934 -2.2003
18515THY      O46445   2.467   5.962   3.204  0.5769  0.5485 -0.2665
18515THY     HO46446   2.436   5.898   3.269 -0.1116  0.8886  0.3970
18515THY    CA146447   2.556   6.045   3.260  0.1743  0.1646  0.5496
18515THY    CA246448   2.581   6.168   3.207 -0.3575  0.0254  0.1069
18515THY    CP146449   2.514   6.214   3.075 -0.6176 -0.8451 -0.4209
18515THY    HP146450   2.424   6.157   3.053 -1.8628  0.4671  0.9635
18515THY    CP246451   2.608   6.160   2.968 -0.2521  0.3149 -0.3232
18515THY    HP246452   2.563   6.162   2.868 -1.6442  0.9090 -0.6443
18515THY    HP346453   2.641   6.058   2.987  4.6953 -0.7154  0.8090
18515THY    HP446454   2.704   6.212   2.957  0.6550  0.3485 -1.9295
18515THY    CP346455   2.497   6.363   3.054  0.4559 -0.5641 -0.2188
18515THY    HP546456   2.583   6.428   3.073 -2.1088 -1.5341  3.7639
18515THY    HP646457   2.411   6.402   3.109  1.1832  0.8486 -0.5295
18515THY    HP746458   2.471   6.383   2.950  0.8244 -0.7114 -0.4978
18515THY    CA346459   2.681   6.242   3.270 -0.2274  0.3131 -0.0965
18515THY    HA346460   2.704   6.339   3.228 -0.6957  2.1274  0.8328
18515THY    CA446461   2.752   6.194   3.382  0.7442  0.0059 -0.2471
18515THY    HA446462   2.827   6.255   3.431 -2.0271  1.6461  2.1662
18515THY    CA546463   2.712   6.074   3.438  0.7253 -0.1756 -0.5457
18515THY    CM146464   2.776   6.024   3.565 -0.2644 -1.1496  0.2072
18515THY    HM146465   2.773   6.090   3.652 -0.9816  2.1967 -3.8777
18515THY    HM246466   2.882   6.005   3.546  0.2690  2.1397 -0.5802
18515THY    HM346467   2.737   5.932   3.610 -1.4814  2.1281  2.1717
18515THY    CA646468   2.611   6.002   3.380 -0.5519 -0.4464  0.0393
18515THY    HA646469   2.576   5.909   3.424  2.4924  1.3938 -0.3945
18516THY      O46470   5.531   3.111   7.235 -0.0414  0.1067 -0.1494
18516THY     HO46471   5.542   3.201   7.270 -1.6360  0.3070 -0.0024
18516THY    CA146472   5.624   3.035   7.285  0.2187 -0.6618 -0.4840
18516THY    CA246473   5.614   2.893   7.290 -0.3064 -0.2659 -0.0869
18516THY    CP146474   5.500   2.808   7.231 -0.8010 -0.2319 -0.0008
18516THY    HP146475   5.428   2.872   7.180  0.1636 -3.0819 -1.0219
18516THY    CP246476   5.427   2.727   7.343 -0.3164  0.4184  0.1646
18516THY    HP246477   5.449   2.767   7.442 -2.4560  1.2883 -0.6626
18516THY    HP346478   5.472   2.627   7.343  1.6558 -2.2547  0.9410
18516THY    HP446479   5.317   2.735   7.337 -0.1946  0.4576  2.5990
18516THY    CP346480   5.546   2.706   7.121  0.3716  0.3921  0.0454
18516THY    HP546481   5.589   2.614   7.163  0.2052 -0.6367 -0.5104
18516THY    HP646482   5.617   2.760   7.059  0.8906 -0.3143 -1.4059
18516THY    HP746483   5.459   2.682   7.058  0.8692 -0.2536 -0.0719
18516THY    CA346484   5.719   2.827   7.354  0.0997 -0.5837  0.0036
18516THY    HA346485   5.721   2.719   7.368  1.7101  1.4505  0.2299
18516THY    CA446486   5.829   2.890   7.399 -0.0213  0.2453  0.2743
18516THY    HA446487   5.906   2.835   7.454 -0.0307 -1.1038 -1.1425
18516THY    CA546488   5.840   3.032   7.396 -0.4488  0.4723 -0.1573
18516THY    CM146489   5.949   3.105   7.460 -0.6789  0.0594 -1.1883
18516THY    HM146490   6.043   3.111   7.404 -2.5455 -3.1983 -0.1543
18516THY    HM246491   5.959   3.058   7.559  1.1658 -0.0967 -1.2159
18516THY    HM346492   5.935   3.211   7.484  0.0973 -0.9859 -0.8307
18516THY    CA646493   5.739   3.102   7.338 -0.2832 -0.1595  0.0362
18516THY    HA646494   5.756   3.208   7.348  1.6987  2.1216 -0.4217
18517THY      O46495   7.127   5.121   2.555  0.1671  0.3311  1.0195
18517THY     HO46496   7.070   5.127   2.477 -0.0577  0.1150 -2.1650
18517THY    CA146497   7.062   5.045   2.642 -0.5280  0.2028  0.0641
18517THY    CA246498   7.116   5.026   2.770  0.2892 -0.2014  0.0858
18517THY    CP146499   7.231   5.106   2.813 -0.0180 -0.1896 -0.3553
18517THY    HP146500   7.242   5.193   2.747  0.3515 -2.4623 -2.0388
18517THY    CP246501   7.359   5.024   2.794 -0.2694 -0.0048  0.4058
18517THY    HP246502   7.358   4.993   2.689  2.0772 -0.1271  0.5882
18517THY    HP346503   7.362   4.934   2.857  0.5019 -1.6498 -0.7547
18517THY    HP446504   7.446   5.090   2.805  0.7203 -1.0063 -0.6934
18517THY    CP346505   7.222   5.151   2.958 -0.0306  0.1226  0.1492
18517THY    HP546506   7.240   5.068   3.027  5.3477 -0.2187  0.7097
18517THY    HP646507   7.134   5.210   2.986 -0.4916 -0.0178 -0.4592
18517THY    HP746508   7.305   5.220   2.974  2.3342 -0.0779 -2.4466
18517THY    CA346509   7.057   4.929   2.859  0.0098  1.2390  0.5194
18517THY    HA346510   7.100   4.905   2.956  3.2731 -0.0846  0.4136
18517THY    CA446511   6.929   4.873   2.817 -0.1677  0.2630  0.2604
18517THY    HA446512   6.883   4.797   2.880 -0.7241 -0.4847 -0.0283
18517THY    CA546513   6.870   4.898   2.690 -0.6556  0.3824 -0.3334
18517THY    CM146514   6.734   4.844   2.658 -0.3995  0.0252  0.6156
18517THY    HM146515   6.705   4.870   2.555 -3.0804  0.2980 -0.9134
18517THY    HM246516   6.661   4.902   2.716 -0.2500  0.2765  0.5537
18517THY    HM346517   6.718   4.737   2.675 -0.7861  1.3822  0.8780
18517THY    CA646518   6.937   4.990   2.606 -1.1181 -0.4518  0.4151
18517THY    HA646519   6.898   5.003   2.506 -1.1139 -0.5925 -0.6260
18518THY      O46520   0.979   8.832   3.997  0.6597 -0.0632 -1.1122
18518THY     HO46521   0.891   8.812   3.961 -0.0215  1.4938 -1.0368
18518THY    CA146522   0.971   8.968   3.997 -0.1967 -0.1057  0.2923
18518THY    CA246523   1.098   9.034   4.013  0.0385  0.3345  0.1689
18518THY    CP146524   1.237   8.951   4.015 -0.6001 -0.3708 -0.0903
18518THY    HP146525   1.220   8.855   4.066 -1.4035  0.1586  0.3258
18518THY    CP246526   1.342   9.017   4.110  0.4042  0.0826  0.1743
18518THY    HP246527   1.427   8.955   4.140 -0.4908  2.7473  0.1158
18518THY    HP346528   1.300   9.024   4.211  0.9304  0.2111  1.9795
18518THY    HP446529   1.375   9.114   4.070 -0.5394  0.8099  0.8088
18518THY    CP346530   1.292   8.935   3.875  0.4192 -0.0751 -0.5140
18518THY    HP546531   1.209   8.893   3.818  0.1395 -0.2711  0.2906
18518THY    HP646532   1.372   8.859   3.879  1.2313  0.9635  0.3589
18518THY    HP746533   1.322   9.027   3.824 -1.2251 -1.4339 -0.7027
18518THY    CA346534   1.092   9.179   4.021  0.0380 -0.2924  0.0451
18518THY    HA346535   1.184   9.235   4.025  0.2535 -2.0823 -0.1519
18518THY    CA446536   0.973   9.251   4.004  0.3194 -0.3411  0.0277
18518THY    HA446537   0.958   9.356   4.023 -1.0792 -1.2683  0.0329
18518THY    CA546538   0.851   9.183   3.977  0.4888 -0.6051  0.2968
18518THY    CM146539   0.717   9.246   3.966  1.0769 -0.0111  0.7102
18518THY    HM146540   0.644   9.211   4.041  0.0883 -0.6178  1.4236
18518THY    HM246541   0.694   9.205   3.867  1.1081  0.1052  0.4031
18518THY    HM346542   0.721   9.355   3.955 -4.2045  1.5550  1.3880
18518THY    CA646543   0.848   9.041   3.975 -0.3109 -0.6319  0.2572
18518THY    HA646544   0.755   8.988   3.958 -0.5491 -0.6802  0.6939
18519THY      O46545   6.509   5.723   4.721 -0.7356 -0.4203  0.5072
18519THY     HO46546   6.577   5.714   4.791 -2.6379  2.0762  3.5460
18519THY    CA146547   6.481   5.605   4.664  0.1596  0.4039 -0.0514
18519THY    CA246548   6.461   5.586   4.523 -0.5209 -0.6698  0.0406
18519THY    CP146549   6.476   5.704   4.429  0.7778 -0.1295 -0.2019
18519THY    HP146550   6.489   5.796   4.488 -0.3218  1.7347 -1.1912
18519THY    CP246551   6.339   5.743   4.355 -0.4287 -0.1412 -0.2730
18519THY    HP246552   6.277   5.799   4.425  0.3122 -1.6831  2.6716
18519THY    HP346553   6.284   5.655   4.318  0.5187 -0.5807 -0.7002
18519THY    HP446554   6.363   5.807   4.269  0.2508  1.3996  1.6212
18519THY    CP346555   6.594   5.685   4.325  0.5187 -0.1543  0.1441
18519THY    HP546556   6.559   5.612   4.252 -1.5247 -0.3143  1.2300
18519THY    HP646557   6.687   5.646   4.370 -0.1682 -1.2989 -3.1501
18519THY    HP746558   6.619   5.772   4.264  2.9226  0.9660  0.3217
18519THY    CA346559   6.423   5.461   4.472  0.3906  0.5109 -0.2823
18519THY    HA346560   6.397   5.448   4.367 -0.1364  0.8094 -1.8901
18519THY    CA446561   6.412   5.353   4.563  0.2594 -0.3160 -0.2585
18519THY    HA446562   6.372   5.262   4.520  0.7547 -1.9185  0.2433
18519THY    CA546563   6.422   5.370   4.706  0.5784 -0.4370 -0.8742
18519THY    CM146564   6.406   5.257   4.798 -0.2076 -0.6614  0.1422
18519THY    HM146565   6.411   5.284   4.904 -0.2114 -0.4729 -0.5806
18519THY    HM246566   6.495   5.194   4.793  0.6827 -0.1117  1.3228
18519THY    HM346567   6.310   5.209   4.775 -0.0512 -0.8825 -0.0656
18519THY    CA646568   6.457   5.497   4.750 -0.6741  0.1735 -0.4308
18519THY    HA646569   6.467   5.516   4.857  0.2207  0.1654 -0.8109
18520THY      O46570   1.625   5.652   6.762  0.1579  0.5327 -0.0121
18520THY     HO46571   1.613   5.746   6.740  0.1157  0.8944  0.0705
18520THY    CA146572   1.600   5.637   6.895 -1.0761  0.1472 -0.1654
18520THY    CA246573   1.682   5.545   6.972  0.4966  0.1856 -0.4227
18520THY    CP146574   1.789   5.459   6.904  0.2643 -0.5880  0.2511
18520THY    HP146575   1.778   5.473   6.796  1.0667 -0.6293  0.6671
18520THY    CP246576   1.769   5.317   6.943  0.1557  0.1484  0.1379
18520THY    HP246577   1.667   5.288   6.916 -0.7807  3.0835  0.4219
18520THY    HP346578   1.787   5.305   7.050  0.1121  0.2526  0.9096
18520THY    HP446579   1.836   5.254   6.883  0.0509 -0.4119  0.5507
18520THY    CP346580   1.935   5.500   6.936 -0.1433 -0.5113  0.0928
18520THY    HP546581   1.952   5.494   7.044 -1.1997 -0.3183  0.2867
18520THY    HP646582   1.958   5.605   6.913  1.2001  1.5884  0.3079
18520THY    HP746583   1.998   5.428   6.882  0.2272  0.1864 -0.1084
18520THY    CA346584   1.654   5.546   7.111 -0.2353 -0.1114  0.2268
18520THY    HA346585   1.725   5.484   7.165  1.3263 -4.4673 -2.2565
18520THY    CA446586   1.550   5.628   7.165  1.0818 -0.5867 -0.6398
18520THY    HA446587   1.530   5.616   7.271 -0.7101 -1.0303 -1.9552
18520THY    CA546588   1.471   5.702   7.079  0.8643  0.2840  1.0904
18520THY    CM146589   1.364   5.783   7.130 -1.1143  0.2069 -0.2855
18520THY    HM146590   1.351   5.784   7.239 -0.4801  0.2969  1.7619
18520THY    HM246591   1.273   5.749   7.077  0.4851 -1.3056 -2.5101
18520THY    HM346592   1.392   5.884   7.101 -0.5428 -1.3987 -0.8679
18520THY    CA646593   1.498   5.711   6.947 -1.0010 -0.2105  0.3060
18520THY    HA646594   1.429   5.757   6.876 -0.6953 -2.0245 -1.8168
18521THY      O46595   6.016   4.139   5.427  0.0102  0.5664  0.1295
18521THY     HO46596   6.021   4.142   5.524 -0.4098  0.6860 -1.6782
18521THY    CA146597   6.126   4.069   5.387 -0.1742 -0.2623 -0.1559
18521THY    CA246598   6.141   3.999   5.264 -0.2171  0.0170  0.5283
18521THY    CP146599   6.034   4.014   5.158  1.0270 -0.9065 -0.1646
18521THY    HP146600   5.962   4.089   5.193  1.9745 -0.4033  0.5270
18521THY    CP246601   5.941   3.894   5.148 -0.4737  0.1101 -0.1725
18521THY    HP246602   5.895   3.872   5.245 -0.5153  0.7601  2.4568
18521THY    HP346603   5.997   3.803   5.125 -2.3100 -0.9115 -1.1117
18521THY    HP446604   5.862   3.916   5.075  1.6510 -2.0579  0.6949
18521THY    CP346605   6.091   4.069   5.026  0.8570 -0.3605  0.3211
18521THY    HP546606   6.179   4.134   5.036  1.4384 -0.1433 -0.4787
18521THY    HP646607   6.016   4.115   4.961 -0.1212 -0.3313 -1.1632
18521THY    HP746608   6.127   3.985   4.965  0.2624 -0.4496  0.1271
18521THY    CA346609   6.258   3.920   5.240  0.4700 -0.2835 -1.0353
18521THY    HA346610   6.277   3.859   5.152  1.4084  0.4158 -1.7865
18521THY    CA446611   6.349   3.903   5.342 -0.3107 -0.1327  0.0825
18521THY    HA446612   6.430   3.832   5.331 -1.0489 -0.5450 -0.7157
18521THY    CA546613   6.341   3.979   5.456  0.2316 -0.0600  0.4391
18521THY    CM146614   6.444   3.967   5.573  0.0171 -0.4880 -0.4155
18521THY    HM146615   6.522   3.895   5.546  0.8471 -0.3406  0.4051
18521THY    HM246616   6.388   3.930   5.660 -0.6689 -1.2681 -1.2900
18521THY    HM346617   6.487   4.061   5.609 -3.2617  3.5804 -0.1626
18521THY    CA646618   6.232   4.061   5.477  0.0420  0.0893  0.1047
18521THY    HA646619   6.229   4.126   5.564  0.4152 -1.0046  1.6386
18522THY      O46620   4.139   2.555   5.378 -0.3660  0.3067  0.1914
18522THY     HO46621   4.156   2.471   5.331 -2.2003 -1.5846  0.7651
18522THY    CA146622   4.201   2.556   5.500  0.9071 -0.4454 -0.5989
18522THY    CA246623   4.129   2.596   5.613  1.0483 -0.2126  0.2035
18522THY    CP146624   3.987   2.643   5.598  0.5989 -0.6586 -0.0478
18522THY    HP146625   3.947   2.581   5.516 -0.0434  0.9037 -1.8176
18522THY    CP246626   3.977   2.787   5.556 -0.1961 -0.7565 -0.5598
18522THY    HP246627   3.878   2.820   5.522  0.9640 -0.4126  3.9293
18522THY    HP346628   4.038   2.806   5.467  0.4843 -0.5343 -1.6354
18522THY    HP446629   4.021   2.849   5.634 -0.6256  0.8783 -2.2189
18522THY    CP346630   3.887   2.631   5.719 -0.4561  0.2678  0.4239
18522THY    HP546631   3.878   2.530   5.761 -3.4031  0.0595  0.5158
18522THY    HP646632   3.786   2.660   5.690 -1.4982  0.2946 -2.7604
18522THY    HP746633   3.916   2.698   5.801  2.3434 -0.8332  0.7045
18522THY    CA346634   4.197   2.604   5.738 -0.2952  0.0283  0.3224
18522THY    HA346635   4.145   2.636   5.828 -0.1030  0.4862 -0.6257
18522THY    CA446636   4.325   2.553   5.752 -0.7318 -0.1743 -0.2637
18522THY    HA446637   4.363   2.558   5.854  0.2403 -0.4307 -1.7882
18522THY    CA546638   4.392   2.492   5.639  0.1586 -0.8949 -0.4937
18522THY    CM146639   4.527   2.438   5.657 -0.0376  0.9095 -0.5746
18522THY    HM146640   4.543   2.387   5.753  0.3685  1.1654  0.0328
18522THY    HM246641   4.605   2.511   5.635 -0.1154 -0.7714 -0.9544
18522THY    HM346642   4.531   2.356   5.583 -1.6586  1.6142 -1.3510
18522THY    CA646643   4.328   2.504   5.517 -0.3477  0.0606 -0.5112
18522THY    HA646644   4.383   2.469   5.430 -1.0789 -1.4597  1.8604
18523THY      O46645   7.026   1.526   3.355 -0.0172  0.0878 -0.1265
18523THY     HO46646   6.999   1.477   3.275 -1.2575  0.1360  0.4434
18523THY    CA146647   7.142   1.592   3.324 -0.2561  0.5372 -0.3070
18523THY    CA246648   7.243   1.616   3.417 -0.2375 -0.3266 -0.3112
18523THY    CP146649   7.242   1.556   3.562 -0.1580  0.2672 -0.5528
18523THY    HP146650   7.154   1.491   3.575  0.8895  0.7178 -1.9109
18523THY    CP246651   7.227   1.670   3.670  0.3501 -0.4072  0.4615
18523THY    HP246652   7.130   1.722   3.673 -0.6878  0.2116 -1.4079
18523THY    HP346653   7.295   1.753   3.650  1.3173  0.9869  0.0442
18523THY    HP446654   7.247   1.634   3.772  0.2165  0.1645  1.9123
18523THY    CP346655   7.354   1.455   3.579  0.5200 -0.1285  0.0912
18523THY    HP546656   7.453   1.492   3.549  0.9301  0.5925 -0.3939
18523THY    HP646657   7.335   1.364   3.521 -0.8391 -2.6419  1.8684
18523THY    HP746658   7.359   1.428   3.686 -0.1235  0.5298  2.3342
18523THY    CA346659   7.357   1.693   3.380 -0.2260 -0.0729 -0.0450
18523THY    HA346660   7.439   1.721   3.446 -0.9971  0.8090  0.1680
18523THY    CA446661   7.370   1.734   3.247  0.1531 -0.2425  0.3100
18523THY    HA446662   7.463   1.774   3.208  0.4943  1.4471  1.2381
18523THY    CA546663   7.268   1.721   3.160  0.3069 -0.1359  0.2870
18523THY    CM146664   7.277   1.765   3.021 -0.3635  0.5402 -0.5121
18523THY    HM146665   7.231   1.863   3.009  3.4781  0.8794  1.5213
18523THY    HM246666   7.232   1.687   2.958  1.8125 -1.7649 -0.0321
18523THY    HM346667   7.379   1.773   2.981 -0.2724  0.7651 -0.5264
18523THY    CA646668   7.153   1.651   3.196  0.6902 -0.0773  0.1527
18523THY    HA646669   7.071   1.649   3.124  0.4734  0.1394 -2.5646
18524THY      O46670   2.168   5.997   7.618  0.1447  0.7795 -0.2396
18524THY     HO46671   2.163   6.024   7.524 -0.4530  0.5652 -1.0604
18524THY    CA146672   2.286   5.932   7.646 -0.2356  0.2136 -0.1377
18524THY    CA246673   2.369   5.973   7.751 -0.0035  0.3674 -0.3396
18524THY    CP146674   2.347   6.101   7.827 -0.3694  0.4599 -0.6296
18524THY    HP146675   2.238   6.114   7.830 -0.4364  2.0656 -1.3678
18524THY    CP246676   2.395   6.220   7.755 -0.3072  0.6493 -0.1183
18524THY    HP246677   2.340   6.312   7.778  0.5172  0.9241  0.3189
18524THY    HP346678   2.380   6.201   7.648  0.7553  0.9199 -2.9779
18524THY    HP446679   2.503   6.228   7.771  0.2996 -1.6389 -2.4868
18524THY    CP346680   2.402   6.099   7.972 -0.2119 -0.1340 -0.0255
18524THY    HP546681   2.374   6.007   8.024  0.4469  1.3831  0.5961
18524THY    HP646682   2.363   6.191   8.016 -0.1935 -2.0502  0.9620
18524THY    HP746683   2.511   6.103   7.984  0.2116 -3.3928  1.0068
18524THY    CA346684   2.491   5.903   7.769  0.2693  0.7358 -0.6530
18524THY    HA346685   2.565   5.929   7.844  1.3230 -0.9973  1.6419
18524THY    CA446686   2.517   5.786   7.698 -0.0650 -0.0299  0.7733
18524THY    HA446687   2.595   5.718   7.731 -0.5998 -0.2732  0.0272
18524THY    CA546688   2.436   5.746   7.589 -0.7562  0.3520 -1.1082
18524THY    CM146689   2.464   5.631   7.488 -0.0966 -0.1957 -1.0278
18524THY    HM146690   2.369   5.582   7.465 -0.1595 -0.5963 -0.7233
18524THY    HM246691   2.526   5.561   7.545 -1.2358  0.7121 -1.3338
18524THY    HM346692   2.516   5.673   7.401 -0.4890 -0.3593 -0.8776
18524THY    CA646693   2.325   5.825   7.561  0.4061 -0.3768 -0.3411
18524THY    HA646694   2.258   5.792   7.483 -1.4905  1.0574 -0.0868
18525THY      O46695   4.928   1.899   2.531  0.4287  0.3960  0.1684
18525THY     HO46696   4.920   1.974   2.592  1.3121  1.8671 -0.8899
18525THY    CA146697   4.925   1.797   2.610  1.1922 -0.4908 -0.4790
18525THY    CA246698   4.921   1.667   2.557  0.6324 -0.4899 -0.3168
18525THY    CP146699   4.962   1.637   2.412  0.0767 -0.3866 -0.5415
18525THY    HP146700   4.956   1.733   2.358  2.1639 -2.7587 -1.6097
18525THY    CP246701   4.863   1.541   2.348 -0.4530  0.5677  0.2049
18525THY    HP246702   4.761   1.580   2.349 -1.0625  3.7310 -1.1759
18525THY    HP346703   4.860   1.447   2.404 -1.1442  0.4992  0.1807
18525THY    HP446704   4.901   1.528   2.246 -0.9129  0.4973 -0.6349
18525THY    CP346705   5.113   1.593   2.402 -0.6372  0.0794  0.0566
18525THY    HP546706   5.140   1.590   2.295  0.4323  0.3238 -3.5305
18525THY    HP646707   5.139   1.493   2.437 -0.6971 -1.1153 -0.3975
18525THY    HP746708   5.180   1.657   2.461 -1.2327  0.7828  0.0341
18525THY    CA346709   4.918   1.557   2.646  0.3210 -0.0390  0.1999
18525THY    HA346710   4.927   1.460   2.598 -0.7427 -0.3546  0.2360
18525THY    CA446711   4.905   1.580   2.781 -0.3222 -0.8927  0.0632
18525THY    HA446712   4.894   1.492   2.843  0.2896 -1.9202 -0.7660
18525THY    CA546713   4.913   1.712   2.833 -0.5779 -1.0985  1.0009
18525THY    CM146714   4.892   1.747   2.985  0.5421  0.4227 -0.5478
18525THY    HM146715   4.885   1.665   3.057  1.2791  0.2785 -0.7492
18525THY    HM246716   4.789   1.782   2.995  0.1972 -1.0009 -1.0988
18525THY    HM346717   4.974   1.810   3.021  1.8614  0.3451 -2.1591
18525THY    CA646718   4.910   1.812   2.746  0.1185 -0.3920 -0.4391
18525THY    HA646719   4.896   1.909   2.794 -0.6531  0.4219 -0.9421
18526THY      O46720   1.408   2.404   7.703 -0.0874  0.1967 -0.3693
18526THY     HO46721   1.403   2.470   7.633  0.8752  1.1186  0.7319
18526THY    CA146722   1.536   2.406   7.725 -0.9791 -0.4159  0.7034
18526THY    CA246723   1.613   2.290   7.721  0.5761  0.2675  0.0107
18526THY    CP146724   1.545   2.154   7.694  0.9804  0.0688  0.6660
18526THY    HP146725   1.436   2.153   7.694  0.8968  0.8929 -2.4596
18526THY    CP246726   1.578   2.050   7.802  1.1338 -0.3561 -0.1299
18526THY    HP246727   1.571   2.091   7.904  0.6255 -0.1900 -0.6005
18526THY    HP346728   1.682   2.019   7.790  0.6408 -1.3971 -1.4821
18526THY    HP446729   1.505   1.968   7.795  0.7540 -0.8408  0.2423
18526THY    CP346730   1.578   2.097   7.553 -0.1346  0.5608 -0.7058
18526THY    HP546731   1.513   2.014   7.521  0.3287 -1.4931 -0.3285
18526THY    HP646732   1.683   2.072   7.533  0.2600 -1.5170  2.1428
18526THY    HP746733   1.560   2.168   7.471 -0.1557  0.1002 -1.2378
18526THY    CA346734   1.748   2.299   7.746  0.3013 -0.2435  0.2190
18526THY    HA346735   1.799   2.205   7.727 -1.4248 -1.5700 -0.4982
18526THY    CA446736   1.817   2.426   7.751  0.7685 -0.0687  0.0927
18526THY    HA446737   1.919   2.424   7.788  0.1495  1.7218 -0.0338
18526THY    CA546738   1.743   2.546   7.743  0.4638 -0.0402  0.1306
18526THY    CM146739   1.824   2.674   7.760  0.3531  0.4974 -0.7761
18526THY    HM146740   1.760   2.732   7.827  0.8896  1.0057 -0.7623
18526THY    HM246741   1.835   2.730   7.667 -1.5120  1.3188  1.1187
18526THY    HM346742   1.920   2.657   7.811  0.5430  0.1828 -0.6535
18526THY    CA646743   1.603   2.534   7.740  0.1348 -0.0737  0.3605
18526THY    HA646744   1.537   2.620   7.745  0.6154  0.4513  0.7089
18527THY      O46745   3.376   8.605   4.861 -0.5749 -0.0495 -0.1014
18527THY     HO46746   3.303   8.625   4.921 -1.7349 -0.8906 -1.5679
18527THY    CA146747   3.451   8.526   4.936  1.0122  0.0671  0.0206
18527THY    CA246748   3.589   8.503   4.909  0.0041  0.4074 -0.1162
18527THY    CP146749   3.652   8.568   4.789 -0.4232  0.1739  0.1490
18527THY    HP146750   3.581   8.617   4.723  0.4746 -0.8700  0.0853
18527THY    CP246751   3.729   8.470   4.705 -0.5286 -0.4376  0.0731
18527THY    HP246752   3.809   8.434   4.771 -1.8750  1.0873 -0.2543
18527THY    HP346753   3.770   8.514   4.614 -2.4318 -1.1219  0.5313
18527THY    HP446754   3.668   8.380   4.692 -0.4859 -1.2128  0.1509
18527THY    CP346755   3.741   8.683   4.835  0.7624  0.9092 -0.4262
18527THY    HP546756   3.836   8.649   4.878  1.8442  1.7178  3.1545
18527THY    HP646757   3.690   8.767   4.884 -0.2753  0.8725 -1.0294
18527THY    HP746758   3.779   8.738   4.748 -0.8456  0.0437 -0.6355
18527THY    CA346759   3.657   8.424   5.005  0.3035  0.2115 -0.6132
18527THY    HA346760   3.765   8.412   5.001  0.3048 -0.1836 -0.4747
18527THY    CA446761   3.580   8.365   5.111 -0.6868 -0.8658  0.8275
18527THY    HA446762   3.626   8.304   5.188  0.8783 -0.9920  1.7918
18527THY    CA546763   3.435   8.376   5.111 -0.3555 -0.5122  0.3965
18527THY    CM146764   3.364   8.310   5.220  0.0702 -0.9483  0.2209
18527THY    HM146765   3.258   8.301   5.194 -0.6032  1.2984  1.2168
18527THY    HM246766   3.356   8.379   5.304  0.7781 -0.7028  0.0255
18527THY    HM346767   3.408   8.212   5.245 -2.2566 -0.8271 -0.8575
18527THY    CA646768   3.372   8.464   5.032  0.2285  0.6485 -1.1512
18527THY    HA646769   3.267   8.486   5.045  0.5801  2.5366 -0.3801
18528THY      O46770   6.140   4.956   3.823 -0.4744 -0.1444 -0.2317
18528THY     HO46771   6.125   4.869   3.784  2.7975 -0.0867 -0.9587
18528THY    CA146772   6.060   4.967   3.931 -0.0841 -0.1721  0.1674
18528THY    CA246773   6.100   5.021   4.053  0.3037 -0.9078 -0.6000
18528THY    CP146774   6.240   5.067   4.056  0.0210 -0.4414 -0.4212
18528THY    HP146775   6.303   5.005   3.990 -2.1846 -2.7015 -0.4309
18528THY    CP246776   6.312   5.070   4.195 -0.0338  0.6273 -0.2311
18528THY    HP246777   6.282   4.981   4.251 -0.5018 -0.3280 -0.6775
18528THY    HP346778   6.297   5.165   4.248  1.1747  0.5178  0.0446
18528THY    HP446779   6.422   5.070   4.189  0.0717  2.1649 -0.8896
18528THY    CP346780   6.242   5.213   4.006  0.7060  0.6276  0.4229
18528THY    HP546781   6.165   5.274   4.056 -1.0060  2.1017 -2.7160
18528THY    HP646782   6.215   5.219   3.900 -0.3605  0.7170 -1.9064
18528THY    HP746783   6.341   5.259   4.020  0.2066  0.0490  1.7212
18528THY    CA346784   6.007   5.024   4.163 -1.1307  0.0561 -0.0205
18528THY    HA346785   6.031   5.069   4.259  0.2591 -0.0434 -0.5078
18528THY    CA446786   5.879   4.968   4.145 -0.0687 -0.2066 -0.1651
18528THY    HA446787   5.803   4.972   4.223 -1.3262 -1.4302  0.6724
18528THY    CA546788   5.843   4.916   4.020 -0.2739 -1.0889  0.5037
18528THY    CM146789   5.712   4.842   4.013 -0.3988  0.1900 -1.0451
18528THY    HM146790   5.691   4.784   4.104 -0.3113 -0.7314 -2.6011
18528THY    HM246791   5.708   4.767   3.933 -0.8197  0.2554 -1.0922
18528THY    HM346792   5.634   4.914   3.988 -1.3205  0.2812 -1.9876
18528THY    CA646793   5.937   4.901   3.921 -0.1798  0.9902  0.1406
18528THY    HA646794   5.906   4.850   3.830  0.2631  0.5589  0.6384
18529THY      O46795   4.504   7.117   6.663  0.6821  0.8039  0.0485
18529THY     HO46796   4.598   7.110   6.638  0.5291 -0.0606  0.8786
18529THY    CA146797   4.447   7.017   6.602  0.5503 -0.2094  0.7310
18529THY    CA246798   4.336   6.945   6.656  0.6659 -0.5247 -0.0324
18529THY    CP146799   4.285   6.982   6.796 -0.2318 -0.2493 -0.0496
18529THY    HP146800   4.308   7.082   6.834  3.0202  0.4526 -0.9434
18529THY    CP246801   4.360   6.898   6.899 -0.7395  0.3064  0.1994
18529THY    HP246802   4.298   6.909   6.989 -3.3275 -1.0638 -1.9197
18529THY    HP346803   4.463   6.928   6.921 -0.7428  1.8127 -0.7774
18529THY    HP446804   4.370   6.793   6.869  4.0544 -0.1518  0.5343
18529THY    CP346805   4.132   6.962   6.818  0.0730  0.2098 -0.1488
18529THY    HP546806   4.110   6.855   6.817  0.6905 -1.8934 -0.3006
18529THY    HP646807   4.083   7.006   6.730  0.3459  0.0983 -0.0630
18529THY    HP746808   4.102   7.014   6.909  0.4921 -0.3346  1.0852
18529THY    CA346809   4.291   6.832   6.595  1.1227  0.2128  0.3126
18529THY    HA346810   4.223   6.760   6.641  0.2847 -1.1999  0.1661
18529THY    CA446811   4.334   6.803   6.463 -0.4936 -0.1798  0.9059
18529THY    HA446812   4.296   6.721   6.404  0.6320 -2.3998  1.8989
18529THY    CA546813   4.425   6.886   6.397 -0.7378 -0.1689 -0.4654
18529THY    CM146814   4.480   6.854   6.264 -0.1447  0.2275 -0.8708
18529THY    HM146815   4.405   6.804   6.203 -0.0020 -1.6277  1.0240
18529THY    HM246816   4.561   6.781   6.275 -1.2598  1.9257 -1.9204
18529THY    HM346817   4.497   6.951   6.215 -0.4423  2.3925  0.3424
18529THY    CA646818   4.477   6.992   6.471 -0.2596  0.0170 -0.7003
18529THY    HA646819   4.559   7.051   6.431 -0.3412 -0.9189 -1.2166
18530THY      O46820   3.162   1.110   5.095 -0.2743 -0.0777  0.3850
18530THY     HO46821   3.076   1.149   5.070 -1.2704  2.8856  0.3328
18530THY    CA146822   3.230   1.101   4.981  0.5479  0.2735  0.4973
18530THY    CA246823   3.361   1.050   4.969 -0.1737  0.0406  0.1526
18530THY    CP146824   3.445   1.032   5.097  0.4684  0.2493  0.0587
18530THY    HP146825   3.426   1.111   5.171 -1.0610  0.8488 -0.8115
18530THY    CP246826   3.591   1.061   5.072 -0.5213 -0.7178  0.4063
18530THY    HP246827   3.639   0.982   5.013  1.0936 -1.7239  2.0981
18530THY    HP346828   3.640   1.067   5.170  0.7015 -1.2995  0.2435
18530THY    HP446829   3.601   1.158   5.024  1.2980  0.9835  1.1354
18530THY    CP346830   3.436   0.889   5.162  0.4388  0.3206 -0.1747
18530THY    HP546831   3.375   0.820   5.103 -0.8097  0.5758  0.6635
18530THY    HP646832   3.391   0.907   5.261 -0.3522 -0.1889  0.8174
18530THY    HP746833   3.535   0.843   5.173 -0.2674  1.4524 -1.5010
18530THY    CA346834   3.412   1.036   4.838  0.1315  0.1895 -0.2847
18530THY    HA346835   3.514   1.003   4.818 -0.2817 -0.9472 -0.9069
18530THY    CA446836   3.332   1.064   4.727 -0.5103 -0.1454  0.7400
18530THY    HA446837   3.365   1.046   4.625 -1.4868 -0.4892  0.8377
18530THY    CA546838   3.194   1.090   4.744 -0.2188  0.6869 -0.4309
18530THY    CM146839   3.103   1.110   4.618 -0.9064 -0.0590  0.1253
18530THY    HM146840   2.998   1.095   4.647 -2.6421 -3.6461  3.5710
18530THY    HM246841   3.132   1.036   4.542  0.2222  1.2185 -0.7984
18530THY    HM346842   3.122   1.210   4.577 -2.0894  1.1822  0.8877
18530THY    CA646843   3.145   1.100   4.873  0.0650  0.5569 -0.3523
18530THY    HA646844   3.038   1.115   4.881 -0.2320 -3.3323  0.6106
18531THY      O46845   2.262   4.439   6.400  0.0739  0.0228 -0.1838
18531THY     HO46846   2.181   4.395   6.431 -0.6562 -0.4312  0.8200
18531THY    CA146847   2.252   4.565   6.461  0.8727 -0.4970  0.9658
18531THY    CA246848   2.341   4.674   6.448  0.3669 -0.2949 -0.1618
18531THY    CP146849   2.451   4.656   6.345  0.0585  0.1744 -0.8558
18531THY    HP146850   2.425   4.570   6.282  0.1207 -1.6739  0.4353
18531THY    CP246851   2.588   4.636   6.413  0.0852 -0.2031 -0.4233
18531THY    HP246852   2.583   4.542   6.469  0.3825 -1.5220 -1.2516
18531THY    HP346853   2.614   4.729   6.464 -0.5074  1.4025 -1.1062
18531THY    HP446854   2.677   4.610   6.354  0.7389  0.6192 -0.0712
18531THY    CP346855   2.459   4.779   6.251 -0.0091  0.5350  0.4901
18531THY    HP546856   2.527   4.763   6.167  1.3381  1.5434  0.7870
18531THY    HP646857   2.482   4.874   6.301 -1.8663 -0.3358  1.4539
18531THY    HP746858   2.357   4.799   6.217 -0.7779  2.2257 -0.3290
18531THY    CA346859   2.316   4.781   6.529 -0.0600 -0.4374  0.6812
18531THY    HA346860   2.378   4.869   6.512 -0.1876 -3.6764  0.2726
18531THY    CA446861   2.213   4.783   6.618  0.6124 -0.2643 -0.0251
18531THY    HA446862   2.199   4.873   6.677  2.5868  0.3109 -0.0483
18531THY    CA546863   2.131   4.669   6.640 -0.5378 -0.0148 -0.0132
18531THY    CM146864   2.053   4.661   6.779  0.0482 -0.5799  0.8600
18531THY    HM146865   2.019   4.762   6.802  0.9224 -0.3936  1.1171
18531THY    HM246866   2.101   4.620   6.868 -2.2727  0.3116 -0.1015
18531THY    HM346867   1.970   4.591   6.761  1.2903 -2.0559 -0.3313
18531THY    CA646868   2.151   4.566   6.555  0.1189 -0.4569  0.6840
18531THY    HA646869   2.087   4.479   6.562 -0.2382  0.0151  0.9777
18532THY      O46870   7.670   2.714   5.741  0.6281  0.3272 -0.4535
18532THY     HO46871   7.670   2.736   5.836 -3.8306  0.0160  2.0296
18532THY    CA146872   7.623   2.826   5.680 -0.0522  0.1895  0.5634
18532THY    CA246873   7.639   2.844   5.539  0.1791 -0.1073 -0.5438
18532THY    CP146874   7.727   2.754   5.448 -0.1463 -0.7489 -0.2567
18532THY    HP146875   7.804   2.708   5.511 -1.4819  1.5452  0.4867
18532THY    CP246876   7.807   2.840   5.354  0.2995  0.1344  0.0922
18532THY    HP246877   7.751   2.871   5.265 -0.3209  0.9998  1.5774
18532THY    HP346878   7.889   2.786   5.306  0.3819 -0.5164  0.7799
18532THY    HP446879   7.852   2.929   5.400 -2.2984  2.3369  0.3851
18532THY    CP346880   7.646   2.647   5.387 -0.0862 -0.4612 -0.1367
18532THY    HP546881   7.589   2.593   5.463  0.9793  2.0497  2.0474
18532THY    HP646882   7.715   2.578   5.335 -1.0317 -2.0471  0.0640
18532THY    HP746883   7.582   2.685   5.306  0.7105 -1.1485 -0.2138
18532THY    CA346884   7.578   2.962   5.489 -0.5483  0.2468 -0.3432
18532THY    HA346885   7.582   2.993   5.385  3.1558  0.2896 -0.2588
18532THY    CA446886   7.493   3.042   5.564  0.1412 -0.2781  0.0951
18532THY    HA446887   7.449   3.130   5.518  0.2963 -0.5588  0.0278
18532THY    CA546888   7.475   3.015   5.695  0.9308  0.1936  0.3606
18532THY    CM146889   7.372   3.094   5.773 -0.1757 -0.6720 -0.0574
18532THY    HM146890   7.379   3.200   5.748 -0.3151 -0.1213  0.0818
18532THY    HM246891   7.381   3.079   5.881 -0.6548 -0.5367  0.5978
18532THY    HM346892   7.270   3.058   5.755 -0.4284 -2.6558  1.4316
18532THY    CA646893   7.534   2.904   5.751  0.4104 -0.4673 -0.5993
18532THY    HA646894   7.515   2.886   5.857 -1.0714 -0.9410 -2.0187
18533THY      O46895   8.593   7.741   4.589 -0.0938  0.2811 -0.0122
18533THY     HO46896   8.502   7.729   4.622 -0.6363 -1.0896  0.1414
18533THY    CA146897   8.653   7.780   4.699  0.2903  0.1058 -0.0773
18533THY    CA246898   8.791   7.821   4.697  0.5439 -0.3904 -1.3634
18533THY    CP146899   8.878   7.814   4.570  0.6873  0.1458  0.0464
18533THY    HP146900   8.814   7.754   4.503  0.1859  0.9445 -0.3298
18533THY    CP246901   9.004   7.742   4.592  0.8511  0.3180  0.0133
18533THY    HP246902   8.985   7.645   4.641 -0.2893  0.8056  0.4647
18533THY    HP346903   9.084   7.795   4.644  1.4870 -1.7211  1.1665
18533THY    HP446904   9.063   7.729   4.500  1.1385  0.1101  2.3785
18533THY    CP346905   8.885   7.951   4.497 -0.4935  0.1291 -0.0579
18533THY    HP546906   8.918   7.943   4.392  0.4946  0.2007  2.2953
18533THY    HP646907   8.946   8.017   4.560 -1.4501  0.3435  0.6420
18533THY    HP746908   8.790   8.004   4.503 -0.1660 -2.5685  1.0217
18533THY    CA346909   8.842   7.869   4.819 -0.3799 -0.6116  0.0620
18533THY    HA346910   8.946   7.901   4.814 -0.4100 -1.9518  0.0227
18533THY    CA446911   8.764   7.873   4.933  0.1604 -0.6158 -0.1668
18533THY    HA446912   8.804   7.912   5.026  0.3812  0.7233 -3.2961
18533THY    CA546913   8.634   7.833   4.928  0.3526 -0.3362  0.2181
18533THY    CM146914   8.550   7.826   5.050 -0.1674 -0.8038 -0.0870
18533THY    HM146915   8.459   7.884   5.029 -0.0395 -0.6821  0.1574
18533THY    HM246916   8.602   7.869   5.136 -0.1824 -1.0617  0.4570
18533THY    HM346917   8.516   7.727   5.081  0.2753 -2.5809 -0.8498
18533THY    CA646918   8.580   7.793   4.810 -0.1669 -0.0207 -0.3031
18533THY    HA646919   8.475   7.765   4.810  0.6470 -0.4985 -3.8524
18534THY      O46920   6.602   3.210   3.388 -0.2824 -0.3010 -0.7152
18534THY     HO46921   6.679   3.156   3.362  0.6712  1.3278 -0.2094
18534THY    CA146922   6.620   3.337   3.333 -0.6847 -0.2332 -0.4969
18534THY    CA246923   6.623   3.450   3.413 -0.2203 -0.0250  0.4697
18534THY    CP146924   6.610   3.433   3.563  0.2604 -0.2153 -0.2957
18534THY    HP146925   6.604   3.328   3.595  2.3116  1.0357 -0.0960
18534THY    CP246926   6.493   3.506   3.629  0.1551 -0.7697 -0.7547
18534THY    HP246927   6.477   3.603   3.581 -4.0253  0.3146 -0.7455
18534THY    HP346928   6.511   3.541   3.731 -1.3397 -1.2466  1.6062
18534THY    HP446929   6.400   3.448   3.621 -0.0332 -3.0162 -0.2347
18534THY    CP346930   6.734   3.494   3.632  0.0316  0.5098 -0.2531
18534THY    HP546931   6.823   3.444   3.594 -0.1470 -3.6408  2.0848
18534THY    HP646932   6.737   3.476   3.740 -1.5662  1.1904  2.7949
18534THY    HP746933   6.736   3.600   3.603 -1.9152  3.1957  0.6253
18534THY    CA346934   6.622   3.574   3.343  0.2632  0.5873  0.5074
18534THY    HA346935   6.623   3.669   3.396  0.5880 -0.0309  0.8547
18534THY    CA446936   6.620   3.580   3.202  0.1572  0.3473 -0.7560
18534THY    HA446937   6.624   3.679   3.157  2.9568  2.5988  0.3010
18534THY    CA546938   6.627   3.468   3.129  0.0790 -0.2262 -0.1897
18534THY    CM146939   6.653   3.470   2.981  0.8773 -0.3481 -0.3775
18534THY    HM146940   6.618   3.387   2.918 -0.4545  0.0456 -0.1333
18534THY    HM246941   6.760   3.485   2.960  1.4439  1.0386 -2.1624
18534THY    HM346942   6.615   3.561   2.933 -1.0767  0.3363 -0.7960
18534THY    CA646943   6.629   3.347   3.197 -0.1752 -0.0687  0.2482
18534THY    HA646944   6.614   3.259   3.135 -0.8692 -0.1364  0.4053
18535THY      O46945   0.219   7.921   6.571  0.2817  0.1753  1.0461
18535THY     HO46946   0.131   7.963   6.574 -1.7158  4.0968 -2.5809
18535THY    CA146947   0.239   7.871   6.697  0.4930  0.7979  0.8367
18535THY    CA246948   0.299   7.746   6.719 -0.5666  0.2833  0.3677
18535THY    CP146949   0.361   7.665   6.605 -0.1551  0.3726  0.1424
18535THY    HP146950   0.403   7.734   6.531 -3.2470 -1.7110  0.0365
18535THY    CP246951   0.249   7.587   6.531 -0.5034  0.4268  0.3162
18535THY    HP246952   0.155   7.643   6.525 -0.8891 -0.9435 -0.4205
18535THY    HP346953   0.233   7.494   6.586 -1.3134  0.2756  0.3564
18535THY    HP446954   0.287   7.565   6.430 -1.9562 -0.5502  1.9750
18535THY    CP346955   0.480   7.570   6.636  0.0630  0.0496 -0.5827
18535THY    HP546956   0.566   7.630   6.669  0.7027 -1.3585 -0.6742
18535THY    HP646957   0.498   7.511   6.545  0.0523 -1.5823  1.7722
18535THY    HP746958   0.452   7.493   6.709 -1.5165 -0.4089 -0.4716
18535THY    CA346959   0.310   7.694   6.848  0.2486 -0.4344 -0.0911
18535THY    HA346960   0.366   7.603   6.869 -0.7920 -1.8835 -1.1081
18535THY    CA446961   0.250   7.766   6.955 -0.1886  1.3695  0.6216
18535THY    HA446962   0.260   7.734   7.058  0.3141  1.2995  0.5532
18535THY    CA546963   0.182   7.887   6.932  0.0240  0.4808 -0.9876
18535THY    CM146964   0.121   7.961   7.048  0.5509 -0.0781 -0.6282
18535THY    HM146965   0.153   7.928   7.147 -3.8024  0.9189 -2.5303
18535THY    HM246966   0.013   7.947   7.054  0.6292 -0.0412 -1.2431
18535THY    HM346967   0.146   8.068   7.047  2.8891  3.2058 -1.0011
18535THY    CA646968   0.177   7.947   6.800 -0.6840 -0.0252  0.5856
18535THY    HA646969   0.129   8.043   6.787 -0.0712 -1.5878  0.7160
18536THY      O46970   5.438   6.633   2.368  0.3411  0.2385 -0.0160
18536THY     HO46971   5.387   6.716   2.371 -1.1661 -0.6860 -0.8587
18536THY    CA146972   5.551   6.657   2.300 -0.0617  0.8933 -0.1213
18536THY    CA246973   5.671   6.594   2.336  0.4530  0.3608  0.3187
18536THY    CP146974   5.672   6.499   2.463 -0.0572 -0.5109 -0.3057
18536THY    HP146975   5.596   6.523   2.538 -0.2082  0.0454 -2.3369
18536THY    CP246976   5.804   6.510   2.552  0.6800  1.1601 -0.7388
18536THY    HP246977   5.805   6.615   2.581 -0.8700 -0.0287 -0.3573
18536THY    HP346978   5.894   6.499   2.490 -0.5622 -1.0810  0.9215
18536THY    HP446979   5.815   6.429   2.625 -0.4318  0.5020 -1.5164
18536THY    CP346980   5.654   6.358   2.424 -0.2142 -0.3931  0.3030
18536THY    HP546981   5.742   6.327   2.365  0.2554  0.0186  0.8319
18536THY    HP646982   5.565   6.335   2.365 -0.8007  0.3612  0.6135
18536THY    HP746983   5.650   6.295   2.514 -1.0343  0.5653  1.6685
18536THY    CA346984   5.781   6.632   2.261 -0.3909  0.5640  0.1595
18536THY    HA346985   5.877   6.591   2.289  0.4956 -2.5180 -0.0914
18536THY    CA446986   5.770   6.713   2.151  0.9897  0.4228  0.1837
18536THY    HA446987   5.855   6.750   2.095  0.0847  0.0798  1.8525
18536THY    CA546988   5.646   6.771   2.124 -0.0567  0.3172 -0.0721
18536THY    CM146989   5.635   6.874   2.016 -0.5634 -0.3512 -0.0878
18536THY    HM146990   5.566   6.822   1.949 -1.1754 -0.3428  0.6975
18536THY    HM246991   5.725   6.898   1.958 -1.1859 -1.6239 -0.7360
18536THY    HM346992   5.603   6.966   2.066  0.9578 -1.2623  0.9818
18536THY    CA646993   5.533   6.743   2.195 -0.6222 -0.6158 -0.0847
18536THY    HA646994   5.438   6.780   2.159 -2.4154  0.7635 -2.9917
18537THY      O46995   5.422   6.330   3.686 -0.0566  0.0982 -0.0884
18537THY     HO46996   5.509   6.315   3.646 -0.5073 -1.1375  0.4328
18537THY    CA146997   5.434   6.442   3.759 -0.9178 -0.1777 -0.8190
18537THY    CA246998   5.320   6.508   3.820 -0.9369  0.1410  0.4909
18537THY    CP146999   5.177   6.473   3.786 -0.2363  0.6117 -0.2455
18537THY    HP147000   5.180   6.427   3.686 -0.1584  1.3949 -1.9914
18537THY    CP247001   5.074   6.591   3.772 -0.0807  0.6739  0.0156
18537THY    HP247002   5.048   6.636   3.869 -0.8944 -0.4012  1.9895
18537THY    HP347003   4.983   6.553   3.726 -0.5440 -1.9041  3.6763
18537THY    HP447004   5.112   6.661   3.697 -1.3678 -0.8018 -0.8151
18537THY    CP347005   5.119   6.384   3.894 -0.0480  0.0703  0.4922
18537THY    HP547006   5.015   6.357   3.873  0.0391 -0.2214  0.3784
18537THY    HP647007   5.119   6.429   3.994 -1.8205  0.5085 -0.3850
18537THY    HP747008   5.178   6.291   3.892 -1.0630  1.9196 -0.2664
18537THY    CA347009   5.347   6.621   3.905 -0.2334  0.1884  0.1404
18537THY    HA347010   5.264   6.674   3.950 -1.6766 -0.8657 -1.1061
18537THY    CA447011   5.474   6.676   3.912  0.2094 -1.0882  0.1000
18537THY    HA447012   5.484   6.760   3.980  0.8263  0.1122 -0.9112
18537THY    CA547013   5.583   6.609   3.855 -0.2823 -0.6671  0.2221
18537THY    CM147014   5.718   6.669   3.850  0.0469 -0.3314  0.0883
18537THY    HM147015   5.793   6.593   3.874  1.6337 -1.5540  1.1924
18537THY    HM247016   5.725   6.745   3.928 -2.0533 -3.0017  3.3885
18537THY    HM347017   5.745   6.704   3.749  0.7119 -0.9198 -1.9686
18537THY    CA647018   5.565   6.490   3.780  0.5330 -0.2021 -0.0245
18537THY    HA647019   5.647   6.433   3.738 -1.5236 -1.3003 -2.3651
18538THY      O47020   7.936   7.786   7.469 -0.6427  0.7141 -0.1855
18538THY     HO47021   7.994   7.800   7.546  0.3475  0.1647 -1.0765
18538THY    CA147022   7.984   7.866   7.370 -0.0105  0.4219  0.3633
18538THY    CA247023   7.960   7.843   7.234 -0.5814 -0.7764  0.1425
18538THY    CP147024   7.883   7.722   7.197 -0.1406 -0.1077 -0.2261
18538THY    HP147025   7.906   7.645   7.272 -3.1161  0.4630 -0.6537
18538THY    CP247026   7.941   7.662   7.065  0.6796  0.2347  0.0838
18538THY    HP247027   8.049   7.679   7.060  0.6176 -1.4221  0.1197
18538THY    HP347028   7.891   7.710   6.980 -0.4702 -0.4156 -2.1594
18538THY    HP447029   7.930   7.553   7.062 -0.8205  0.2141  0.2239
18538THY    CP347030   7.729   7.736   7.188  0.0719  0.8302 -0.0636
18538THY    HP547031   7.699   7.829   7.139 -0.8052  2.2406  0.4256
18538THY    HP647032   7.678   7.731   7.286 -1.8496 -0.1391 -0.5033
18538THY    HP747033   7.694   7.652   7.127  0.8446 -0.5364  0.5741
18538THY    CA347034   8.014   7.941   7.140  0.5807 -0.2378 -0.5237
18538THY    HA347035   8.004   7.939   7.032  1.0751 -0.3842  1.6726
18538THY    CA447036   8.067   8.059   7.185  0.4552 -0.5900  0.1275
18538THY    HA447037   8.101   8.139   7.120  0.5584  2.5018  2.8120
18538THY    CA547038   8.095   8.075   7.328 -0.9236 -0.2716  0.0225
18538THY    CM147039   8.164   8.207   7.362 -0.1550 -0.5996  0.0235
18538THY    HM147040   8.093   8.278   7.404 -0.8045  0.2803 -1.1095
18538THY    HM247041   8.212   8.253   7.274  1.8678  0.6792  0.4968
18538THY    HM347042   8.237   8.187   7.441 -0.2357 -0.7068 -0.7191
18538THY    CA647043   8.057   7.978   7.416  0.3120  0.0436  0.2256
18538THY    HA647044   8.064   7.997   7.523  1.1641  0.1186 -0.5046
18539THY      O47045   2.989   4.720   7.398  0.4671 -0.4115  0.1896
18539THY     HO47046   2.959   4.671   7.320  2.1794 -1.1348  0.2099
18539THY    CA147047   3.120   4.738   7.372  0.8538 -0.4640 -0.1544
18539THY    CA247048   3.228   4.699   7.451  0.5200  0.2762  0.5420
18539THY    CP147049   3.211   4.622   7.579 -0.1859  0.4456 -0.1414
18539THY    HP147050   3.306   4.587   7.620 -0.3901  0.4852 -0.6520
18539THY    CP247051   3.126   4.497   7.562 -0.0713  0.4811 -0.1195
18539THY    HP247052   3.155   4.429   7.481 -1.4976 -0.6700  0.5832
18539THY    HP347053   3.021   4.529   7.565  0.3415  2.0287  1.1822
18539THY    HP447054   3.138   4.428   7.646  1.6636 -0.6504 -1.2859
18539THY    CP347055   3.153   4.719   7.690 -0.6460 -0.3010  0.0065
18539THY    HP547056   3.232   4.792   7.713 -0.8330 -0.3644  0.2300
18539THY    HP647057   3.132   4.670   7.786  3.2614  0.7237 -0.0324
18539THY    HP747058   3.061   4.757   7.645 -0.3431 -0.9845 -0.0544
18539THY    CA347059   3.354   4.734   7.408 -0.8130  0.4238  0.1164
18539THY    HA347060   3.445   4.708   7.461 -0.0711 -0.2384  1.2836
18539THY    CA447061   3.374   4.794   7.282 -0.2560  0.2982  0.7624
18539THY    HA447062   3.473   4.830   7.256  0.0708 -0.4246 -0.5878
18539THY    CA547063   3.271   4.811   7.195 -0.5236 -0.5654 -0.3111
18539THY    CM147064   3.294   4.883   7.055 -0.9726 -0.8088 -0.7408
18539THY    HM147065   3.391   4.855   7.011 -0.3079  0.1935 -0.0371
18539THY    HM247066   3.295   4.990   7.078 -2.0818  0.8716 -1.0565
18539THY    HM347067   3.215   4.868   6.980 -1.1615 -0.8932  0.5764
18539THY    CA647068   3.141   4.776   7.241 -0.2782  0.3227 -0.2347
18539THY    HA647069   3.055   4.800   7.179 -2.0617  1.8651 -2.1790
18540THY      O47070   3.841   4.203   2.387 -0.3826  0.3803  0.7223
18540THY     HO47071   3.881   4.248   2.311 -0.8431  0.4789  1.3121
18540THY    CA147072   3.740   4.131   2.327 -0.5473 -0.1323 -1.6255
18540THY    CA247073   3.644   4.063   2.408 -0.0942 -0.3142 -0.2625
18540THY    CP147074   3.647   4.073   2.562 -0.3566  0.7208 -0.2875
18540THY    HP147075   3.740   4.120   2.597 -1.3362  0.5969  1.8296
18540THY    CP247076   3.643   3.933   2.617  0.4400 -0.1471 -0.4189
18540THY    HP247077   3.669   3.938   2.724  2.7844 -0.6981  2.1863
18540THY    HP347078   3.716   3.857   2.587  1.5478  3.1396 -0.8137
18540THY    HP447079   3.536   3.910   2.614 -0.0539  0.8257  1.5349
18540THY    CP347080   3.538   4.155   2.614  0.0713  0.4739  0.2041
18540THY    HP547081   3.544   4.260   2.581 -0.8735  2.4230  0.9208
18540THY    HP647082   3.559   4.168   2.721  1.0497  0.1361  1.6148
18540THY    HP747083   3.440   4.107   2.603  1.3541  0.1217 -2.5038
18540THY    CA347084   3.543   3.988   2.348 -0.4882  0.8991  0.0535
18540THY    HA347085   3.459   3.949   2.405  0.1654  4.2400  2.9470
18540THY    CA447086   3.553   3.968   2.209  0.0331  0.1892 -1.0250
18540THY    HA447087   3.482   3.903   2.159  1.3437 -2.4732 -0.5674
18540THY    CA547088   3.649   4.037   2.131 -0.9599 -0.8295  0.2114
18540THY    CM147089   3.675   4.011   1.986 -0.1281  0.8970 -0.4233
18540THY    HM147090   3.618   3.926   1.948 -1.1798  1.7313 -0.1212
18540THY    HM247091   3.781   3.992   1.966  0.3315  2.7137  0.0420
18540THY    HM347092   3.652   4.097   1.922 -0.3406 -1.2464 -2.0096
18540THY    CA647093   3.743   4.124   2.192 -0.4121 -0.2467 -0.5357
18540THY    HA647094   3.813   4.186   2.137 -1.7326 -0.4771  0.8243
18541THY      O47095   7.124   5.187   4.619 -0.4389 -0.2414  0.0402
18541THY     HO47096   7.096   5.094   4.624  0.7651 -0.8418 -0.3734
18541THY    CA147097   7.015   5.258   4.664 -0.2610  0.1013 -0.4409
18541THY    CA247098   6.983   5.377   4.593 -0.2984  0.4601 -0.2814
18541THY    CP147099   7.045   5.403   4.451  0.1329  0.6524 -0.5485
18541THY    HP147100   7.064   5.308   4.401  2.5666  1.1098 -0.3831
18541THY    CP247101   7.185   5.473   4.460  0.9519 -0.3616  0.0243
18541THY    HP247102   7.241   5.462   4.366  1.1114 -0.5907  2.3133
18541THY    HP347103   7.247   5.419   4.532  0.0391  0.6766  0.3406
18541THY    HP447104   7.183   5.573   4.506 -1.1269  0.0746 -0.1925
18541THY    CP347105   6.957   5.492   4.354  0.0606 -0.3758 -0.2633
18541THY    HP547106   6.856   5.450   4.352 -0.3514  2.6813  0.3897
18541THY    HP647107   7.003   5.476   4.256 -2.1517 -1.6334  0.5655
18541THY    HP747108   6.960   5.599   4.378  0.7817 -0.9600 -0.1414
18541THY    CA347109   6.879   5.463   4.642  0.1639 -0.4467  0.4327
18541THY    HA347110   6.848   5.547   4.580  2.2108  0.5316  2.0116
18541THY    CA447111   6.822   5.435   4.766 -0.3950  1.2787  0.0422
18541THY    HA447112   6.744   5.494   4.813  1.1887  1.9328  1.7399
18541THY    CA547113   6.859   5.319   4.835 -0.2687  0.3035 -0.6858
18541THY    CM147114   6.801   5.289   4.964  0.4596 -0.0381  0.3910
18541THY    HM147115   6.851   5.218   5.032 -0.4472  0.7784  0.5183
18541THY    HM247116   6.698   5.254   4.951 -0.7426  1.0595  3.2295
18541THY    HM347117   6.789   5.376   5.029  2.2344  2.1236 -0.8520
18541THY    CA647118   6.959   5.233   4.784  0.0289  0.1415 -0.3787
18541THY    HA647119   6.995   5.161   4.856  0.8378  0.4831  0.3490
18542THY      O47120   0.731   7.361   2.548 -0.5064  0.2655  0.0277
18542THY     HO47121   0.634   7.369   2.553 -0.4369 -0.4698  2.1348
18542THY    CA147122   0.754   7.273   2.443 -0.1717 -0.8836 -0.4562
18542THY    CA247123   0.876   7.270   2.372  0.0447  0.2415 -0.1506
18542THY    CP147124   0.999   7.315   2.441 -0.2189  0.0492 -0.2804
18542THY    HP147125   0.987   7.303   2.549  0.6399  0.0989 -0.8432
18542THY    CP247126   1.031   7.454   2.392  0.3041 -0.2299 -0.2322
18542THY    HP247127   0.938   7.510   2.379  0.1759 -0.9495 -0.5989
18542THY    HP347128   1.083   7.465   2.296 -0.7280 -0.8485 -0.6042
18542THY    HP447129   1.091   7.508   2.466  0.4216 -1.5701  1.5761
18542THY    CP347130   1.123   7.232   2.417 -0.1637 -0.6329 -0.5197
18542THY    HP547131   1.196   7.280   2.482 -1.6777 -0.4737  1.7050
18542THY    HP647132   1.158   7.240   2.314 -2.8138 -1.4594  2.1645
18542THY    HP747133   1.110   7.131   2.460  2.0648  1.1071 -0.1549
18542THY    CA347134   0.886   7.192   2.253 -0.0621  0.6996 -0.7739
18542THY    HA347135   0.977   7.175   2.197  0.6294  1.5838 -0.0421
18542THY    CA447136   0.772   7.122   2.213 -0.0637 -0.2828 -0.3168
18542THY    HA447137   0.770   7.070   2.117 -2.4813 -1.6910  2.1265
18542THY    CA547138   0.651   7.138   2.276  0.0117  0.2367 -0.4977
18542THY    CM147139   0.534   7.062   2.234  0.7489  0.0521 -0.1688
18542THY    HM147140   0.450   7.133   2.237  0.3766 -0.3934 -0.5825
18542THY    HM247141   0.516   6.970   2.291  0.1843 -1.0315 -0.7449
18542THY    HM347142   0.548   7.026   2.131  1.0645  0.2344 -0.5727
18542THY    CA647143   0.639   7.205   2.400  0.0749 -0.6616  0.1735
18542THY    HA647144   0.547   7.210   2.458 -0.6198 -1.7537  0.3202
18543THY      O47145   3.758   1.711   3.911 -0.4083 -0.3529 -0.5597
18543THY     HO47146   3.694   1.720   3.838 -0.4858 -0.1483  0.8655
18543THY    CA147147   3.737   1.605   3.995  0.1078 -0.5526 -0.6960
18543THY    CA247148   3.822   1.571   4.102 -0.5901 -0.1268  0.3513
18543THY    CP147149   3.926   1.675   4.149  0.0028 -0.4808 -0.6005
18543THY    HP147150   3.954   1.750   4.074 -1.4235  0.5822  1.1002
18543THY    CP247151   4.061   1.614   4.188  0.2359  0.1354 -0.1196
18543THY    HP247152   4.087   1.542   4.109 -1.1689 -2.4503  2.0207
18543THY    HP347153   4.048   1.567   4.286 -1.9113 -0.2831 -0.5399
18543THY    HP447154   4.140   1.689   4.195 -0.1185 -2.7535  0.6457
18543THY    CP347155   3.877   1.769   4.264  0.6783  0.5700  0.4907
18543THY    HP547156   3.859   1.715   4.357  2.2473  1.3549  1.2591
18543THY    HP647157   3.800   1.841   4.235 -1.1115  0.8791 -1.2147
18543THY    HP747158   3.964   1.834   4.279 -0.3746 -2.6960  2.9751
18543THY    CA347159   3.807   1.438   4.152 -0.2132  0.0757  0.5988
18543THY    HA347160   3.871   1.404   4.232 -0.9871  1.3604  2.0284
18543THY    CA447161   3.709   1.347   4.101 -0.4006 -0.4200  0.0714
18543THY    HA447162   3.703   1.246   4.140  0.3011 -2.4255 -0.7813
18543THY    CA547163   3.624   1.385   3.996  0.6724 -0.3104 -0.7234
18543THY    CM147164   3.523   1.288   3.944  0.6208 -0.3064 -0.4567
18543THY    HM147165   3.420   1.325   3.949  1.3757 -1.0471  1.8877
18543THY    HM247166   3.528   1.191   3.995  0.3791 -1.4805 -1.1125
18543THY    HM347167   3.540   1.258   3.840 -0.4867 -0.7736  0.4922
18543THY    CA647168   3.643   1.518   3.949 -0.2733 -0.4083  0.3138
18543THY    HA647169   3.595   1.541   3.854  0.7204 -1.7593 -2.6458
18544THY      O47170   4.358   3.980   7.375 -0.1471 -0.3320  0.3369
18544THY     HO47171   4.289   4.042   7.346  0.3528 -2.1583  0.0727
18544THY    CA147172   4.477   4.042   7.370 -0.2286  0.5283 -0.3677
18544THY    CA247173   4.597   3.981   7.325  0.7216  0.4126  0.3578
18544THY    CP147174   4.597   3.828   7.298 -0.4752  0.0215 -0.5624
18544THY    HP147175   4.497   3.800   7.262 -1.3445  1.4360  0.5863
18544THY    CP247176   4.632   3.757   7.432 -0.5032 -0.7286 -0.0533
18544THY    HP247177   4.727   3.798   7.470 -0.3499 -0.4682 -0.6444
18544THY    HP347178   4.640   3.649   7.415 -1.2287 -0.7416 -0.1054
18544THY    HP447179   4.556   3.771   7.509 -0.8846 -1.3386  1.3922
18544THY    CP347180   4.698   3.792   7.189 -0.6125  0.2127 -0.1281
18544THY    HP547181   4.804   3.775   7.209  0.2811 -2.7813  1.2463
18544THY    HP647182   4.675   3.853   7.101 -0.9343  1.3453  1.4405
18544THY    HP747183   4.675   3.692   7.150 -3.0951  2.1536 -0.4303
18544THY    CA347184   4.709   4.059   7.306  0.3688 -0.7994  0.7746
18544THY    HA347185   4.801   4.007   7.282  0.4233 -1.8255  1.3126
18544THY    CA447186   4.707   4.197   7.339  0.6809 -0.2951  0.4969
18544THY    HA447187   4.800   4.253   7.331  1.5018 -1.4122 -0.9414
18544THY    CA547188   4.583   4.258   7.379 -1.0144 -0.2856  0.8428
18544THY    CM147189   4.575   4.393   7.433  0.7311  0.3185 -0.2968
18544THY    HM147190   4.632   4.467   7.376  0.5525 -0.9816 -1.1315
18544THY    HM247191   4.607   4.395   7.538 -1.0331  0.9192 -1.5270
18544THY    HM347192   4.472   4.432   7.432  0.2611  0.0360 -1.4880
18544THY    CA647193   4.470   4.179   7.389  0.0326 -0.5219 -0.0293
18544THY    HA647194   4.378   4.214   7.435  0.1239 -0.6438  0.3805
18545THY      O47195   6.647   5.367   6.675 -0.1724 -0.1489 -0.5328
18545THY     HO47196   6.602   5.316   6.744 -1.0261 -0.7445 -0.5916
18545THY    CA147197   6.770   5.320   6.658 -0.0139  1.0544 -0.1497
18545THY    CA247198   6.870   5.377   6.581  0.5721  0.3586 -0.7557
18545THY    CP147199   6.856   5.512   6.503  0.0450  0.3665 -0.6080
18545THY    HP147200   6.764   5.559   6.540 -0.9337 -2.0645 -0.4443
18545THY    CP247201   6.854   5.500   6.340 -0.7499  0.0244 -0.6804
18545THY    HP247202   6.959   5.493   6.309 -0.5186 -0.1713  2.2386
18545THY    HP347203   6.808   5.590   6.297 -0.0582  1.5778  0.4635
18545THY    HP447204   6.796   5.411   6.314 -1.8835 -0.4208  0.1507
18545THY    CP347205   6.962   5.613   6.553 -0.2920  0.3339  0.3970
18545THY    HP547206   6.969   5.632   6.661  1.8801  0.1982  0.6806
18545THY    HP647207   6.946   5.713   6.510  1.3962 -0.4448  0.3627
18545THY    HP747208   7.062   5.576   6.527 -0.4031  0.5700 -0.0692
18545THY    CA347209   7.002   5.317   6.576  0.2120  0.0774 -0.8270
18545THY    HA347210   7.077   5.345   6.504  0.9917  1.5176  0.9990
18545THY    CA447211   7.037   5.210   6.663  0.0004  0.3756 -0.7276
18545THY    HA447212   7.135   5.164   6.667  0.7063 -0.0804  0.7055
18545THY    CA547213   6.932   5.166   6.751 -0.5973  0.8775  0.0088
18545THY    CM147214   6.958   5.054   6.862 -0.1829 -0.5187 -0.3540
18545THY    HM147215   7.056   5.008   6.847  1.5614 -0.6762  3.0309
18545THY    HM247216   6.881   4.977   6.859 -1.2963 -0.9447  0.7303
18545THY    HM347217   6.951   5.097   6.962  1.8831 -0.6173  0.3070
18545THY    CA647218   6.805   5.215   6.740  0.6165  0.8859 -0.9033
18545THY    HA647219   6.725   5.173   6.800 -2.8784 -2.2041  0.7109
18546THY      O47220   3.744   5.540   6.837 -0.2572  0.5889  0.4268
18546THY     HO47221   3.681   5.558   6.765 -0.4303  0.8673  0.9647
18546THY    CA147222   3.693   5.439   6.917 -0.6128 -0.0799  0.6157
18546THY    CA247223   3.769   5.360   7.011  0.1968 -0.4193  0.4837
18546THY    CP147224   3.909   5.400   7.057  0.1061 -0.5445 -0.2641
18546THY    HP147225   3.940   5.479   6.988 -2.2370  0.0550  1.2865
18546THY    CP247226   4.016   5.287   7.057 -0.1027  0.1503 -0.3038
18546THY    HP247227   3.995   5.209   7.131 -2.2459  1.5745  1.5021
18546THY    HP347228   4.111   5.331   7.088  0.5897  0.9230 -2.2375
18546THY    HP447229   4.031   5.238   6.960 -0.5952  0.2746 -0.7085
18546THY    CP347230   3.916   5.465   7.193 -0.0362 -0.1548  0.2095
18546THY    HP547231   4.015   5.506   7.215  0.9237 -0.6816 -1.7366
18546THY    HP647232   3.896   5.392   7.272 -0.3014 -1.3673 -1.0772
18546THY    HP747233   3.845   5.549   7.200  0.3260 -0.7128  0.5673
18546THY    CA347234   3.703   5.252   7.072  0.3860 -0.1016 -0.5163
18546THY    HA347235   3.761   5.184   7.134  0.9669 -1.5596 -1.4122
18546THY    CA447236   3.573   5.219   7.032 -0.5116 -0.9120  0.3787
18546THY    HA447237   3.521   5.133   7.073 -0.5343  1.2675  1.3519
18546THY    CA547238   3.507   5.290   6.937  1.1503  0.1087 -0.8353
18546THY    CM147239   3.374   5.234   6.891 -0.3636  0.2481  0.1402
18546THY    HM147240   3.330   5.266   6.796 -1.1592  0.8213  0.7966
18546THY    HM247241   3.306   5.252   6.975  1.4137  1.6518  0.6187
18546THY    HM347242   3.384   5.126   6.871 -0.4145  1.1445 -0.0412
18546THY    CA647243   3.566   5.395   6.875 -0.8042  0.0403  0.4125
18546THY    HA647244   3.495   5.445   6.809 -0.1402 -1.3337 -0.4031
18547THY      O47245   6.324   4.261   3.101 -0.2783 -0.5638  0.2002
18547THY     HO47246   6.322   4.310   3.017  1.7046  0.0831  1.5270
18547THY    CA147247   6.383   4.141   3.086  0.5886  0.4818  0.2807
18547THY    CA247248   6.373   4.032   3.178 -0.3162 -0.2525 -0.2020
18547THY    CP147249   6.296   4.058   3.304  0.0455  0.2170  0.4560
18547THY    HP147250   6.259   4.160   3.316  0.0617 -2.9372  0.9342
18547THY    CP247251   6.390   4.030   3.426 -0.3151  0.8482  0.5417
18547THY    HP247252   6.463   4.111   3.429 -1.6167  0.5435  1.7733
18547THY    HP347253   6.442   3.933   3.421 -1.0602 -1.0792  0.1896
18547THY    HP447254   6.334   4.042   3.519 -3.3243 -0.4974 -1.5434
18547THY    CP347255   6.175   3.958   3.310  0.3176  0.2593  0.0926
18547THY    HP547256   6.216   3.856   3.308  1.8597  0.9851  0.6811
18547THY    HP647257   6.104   3.954   3.226  2.2544 -1.4775  0.5104
18547THY    HP747258   6.131   3.981   3.407  1.6970  0.5974  1.4850
18547THY    CA347259   6.426   3.906   3.151 -0.4859  0.2559  0.1737
18547THY    HA347260   6.414   3.818   3.214  1.3151 -0.4759 -0.6497
18547THY    CA447261   6.496   3.887   3.035 -0.2497 -0.5512  0.2501
18547THY    HA447262   6.532   3.787   3.012 -3.0446 -0.3317 -0.9107
18547THY    CA547263   6.521   3.998   2.948  0.5602 -0.4355 -0.8993
18547THY    CM147264   6.617   3.979   2.840 -0.4702 -0.3328  0.5095
18547THY    HM147265   6.709   4.031   2.868 -0.1798  1.0565 -0.6811
18547THY    HM247266   6.584   4.016   2.742  1.2577 -1.0425  0.2648
18547THY    HM347267   6.642   3.873   2.831  0.0664  1.1326  0.4867
18547THY    CA647268   6.459   4.126   2.971  1.0131  0.3526 -0.1589
18547THY    HA647269   6.481   4.220   2.922  1.3494 -1.4262 -1.1269
18548THY      O47270   2.928   6.517   4.113 -0.7066 -0.1289 -0.1887
18548THY     HO47271   3.009   6.528   4.060 -0.5837  0.2041  0.6712
18548THY    CA147272   2.941   6.620   4.204  0.0280  0.5875  0.2064
18548THY    CA247273   2.904   6.605   4.345 -0.3082  0.9502 -0.1246
18548THY    CP147274   2.837   6.484   4.404 -0.1009  0.2247  0.2037
18548THY    HP147275   2.815   6.412   4.325 -0.2009 -1.0716  1.6085
18548THY    CP247276   2.697   6.529   4.460 -0.2552  0.9450 -0.4804
18548THY    HP247277   2.631   6.575   4.385  0.9730  1.0267  1.5273
18548THY    HP347278   2.704   6.598   4.545 -1.0457  1.6808 -1.2809
18548THY    HP447279   2.648   6.436   4.492  2.2897 -0.7791 -2.5485
18548THY    CP347280   2.913   6.418   4.513 -0.4048 -0.4323  0.3475
18548THY    HP547281   2.908   6.486   4.599  4.2012  1.2732 -1.0931
18548THY    HP647282   3.013   6.398   4.472 -0.2527  0.4375 -0.7352
18548THY    HP747283   2.875   6.319   4.537  1.6717  1.0295 -0.1585
18548THY    CA347284   2.923   6.722   4.424 -0.0106  0.1261 -0.1242
18548THY    HA347285   2.897   6.724   4.530  2.1143  0.7976 -2.5220
18548THY    CA447286   2.995   6.831   4.375 -0.3318  0.4391 -0.7051
18548THY    HA447287   3.017   6.918   4.437  0.8622  1.0287 -1.3960
18548THY    CA547288   3.040   6.839   4.238 -0.3347 -0.3171  0.7770
18548THY    CM147289   3.117   6.952   4.186 -0.1291  0.3100 -0.4799
18548THY    HM147290   3.060   7.006   4.108 -0.2388  0.8848  0.2475
18548THY    HM247291   3.220   6.927   4.158  0.4586  1.4728  0.5520
18548THY    HM347292   3.128   7.024   4.268  1.4833  0.1950 -0.5686
18548THY    CA647293   3.013   6.733   4.153  0.0567 -0.5864 -0.1976
18548THY    HA647294   3.045   6.742   4.050  0.6802 -0.2973  1.2367
18549THY      O47295   7.081   7.529   5.699  0.0015 -0.0637 -0.1027
18549THY     HO47296   6.989   7.557   5.683  0.0674  1.6764  1.3214
18549THY    CA147297   7.150   7.545   5.582 -0.3104  0.5198  0.5829
18549THY    CA247298   7.294   7.561   5.581 -0.0620  0.5076  0.0059
18549THY    CP147299   7.369   7.553   5.716  0.4356  0.6251 -0.0176
18549THY    HP147300   7.314   7.489   5.785  0.9558  0.4077 -0.7182
18549THY    CP247301   7.375   7.697   5.766 -0.4718  0.8034 -0.7160
18549THY    HP247302   7.397   7.700   5.874  0.2659  0.6272  1.4803
18549THY    HP347303   7.279   7.747   5.750  0.7199 -1.3866  1.0323
18549THY    HP447304   7.445   7.759   5.710 -2.2412 -0.8171 -0.0728
18549THY    CP347305   7.510   7.492   5.722  0.0750  0.4778 -0.9050
18549THY    HP547306   7.563   7.535   5.637 -1.9785  0.5355  2.0536
18549THY    HP647307   7.507   7.384   5.703 -1.7417 -0.1808 -0.7722
18549THY    HP747308   7.556   7.526   5.816 -1.9463  1.8242 -1.6956
18549THY    CA347309   7.359   7.602   5.458 -0.0602  0.1705 -0.3995
18549THY    HA347310   7.467   7.607   5.453  0.1032  1.9754 -1.3173
18549THY    CA447311   7.290   7.613   5.339  0.0045 -0.7359  0.0876
18549THY    HA447312   7.347   7.640   5.251  4.5119  1.6928 -0.5499
18549THY    CA547313   7.154   7.581   5.344  0.5373  0.2392 -0.5772
18549THY    CM147314   7.076   7.601   5.215  0.4045 -0.1932  1.2781
18549THY    HM147315   7.137   7.655   5.142  0.8376 -0.2289  0.7448
18549THY    HM247316   6.978   7.648   5.231  0.1710 -0.1783  0.7851
18549THY    HM347317   7.062   7.503   5.169  0.3211  0.6674  0.8706
18549THY    CA647318   7.087   7.557   5.462 -0.0183  0.2069 -0.2085
18549THY    HA647319   6.979   7.564   5.451  0.2634 -2.8852  0.7478
18550THY      O47320   0.455   0.687   4.853  0.5324  0.1553  0.2875
18550THY     HO47321   0.490   0.769   4.813 -0.3505 -0.9288  0.1548
18550THY    CA147322   0.364   0.710   4.954  0.0486  0.8591  0.9653
18550THY    CA247323   0.288   0.610   5.007  0.5082 -0.1904 -0.3153
18550THY    CP147324   0.291   0.469   4.945 -0.4866  0.1793 -0.0076
18550THY    HP147325   0.320   0.478   4.840 -1.1077  0.1673  2.5116
18550THY    CP247326   0.147   0.400   4.949 -0.3335 -0.1460  1.0167
18550THY    HP247327   0.167   0.296   4.922 -1.0260  3.1498 -0.0737
18550THY    HP347328   0.059   0.441   4.897 -1.2041  0.3500 -0.1894
18550THY    HP447329   0.123   0.396   5.056 -0.5895 -0.2442 -1.1319
18550THY    CP347330   0.377   0.377   5.034 -1.2635  0.3850  0.1369
18550THY    HP547331   0.384   0.279   4.986 -1.6456  0.6925 -0.0407
18550THY    HP647332   0.337   0.355   5.133 -0.0680  0.4989 -1.6984
18550THY    HP747333   0.478   0.420   5.043 -0.8937  1.5024 -0.9141
18550THY    CA347334   0.222   0.629   5.133 -1.1140  0.3747  0.4601
18550THY    HA347335   0.164   0.551   5.181 -1.6999 -2.7545 -1.1623
18550THY    CA447336   0.224   0.762   5.189  0.0470  0.3888  0.6543
18550THY    HA447337   0.179   0.784   5.286 -0.2591  0.5729 -0.6849
18550THY    CA547338   0.301   0.860   5.127 -0.9736  0.1546 -0.1851
18550THY    CM147339   0.324   0.997   5.186 -0.1445  0.0049  0.2547
18550THY    HM147340   0.232   1.057   5.188  0.9436  1.4084  1.9793
18550THY    HM247341   0.407   1.054   5.143 -0.0935 -0.8700 -0.4563
18550THY    HM347342   0.345   0.989   5.294  0.2329  0.0649  1.6994
18550THY    CA647343   0.364   0.837   5.007 -0.1473 -0.8393 -0.0662
18550THY    HA647344   0.436   0.907   4.965 -0.5571 -0.1842  0.7587
18551THY      O47345   1.746   6.429   2.215  0.2605  0.1321  0.3973
18551THY     HO47346   1.723   6.511   2.262  0.5769 -0.8156  1.0479
18551THY    CA147347   1.814   6.480   2.115 -0.8017 -0.2261  0.4575
18551THY    CA247348   1.801   6.430   1.979 -0.5312  0.1428  0.0288
18551THY    CP147349   1.704   6.312   1.949 -0.3028  0.1989 -0.1089
18551THY    HP147350   1.640   6.292   2.036 -0.8098 -0.1689 -0.1021
18551THY    CP247351   1.761   6.179   1.908  0.1436  0.3096  0.2484
18551THY    HP247352   1.819   6.192   1.816 -0.2637 -0.2564 -1.6583
18551THY    HP347353   1.684   6.106   1.882 -2.0932  0.3901  2.4176
18551THY    HP447354   1.827   6.145   1.989  0.0512  0.5136  0.5410
18551THY    CP347355   1.603   6.361   1.847 -0.8676 -0.3738  0.1241
18551THY    HP547356   1.508   6.306   1.856 -0.2782  0.5350 -0.7938
18551THY    HP647357   1.634   6.348   1.743 -1.9432 -0.9701  2.0063
18551THY    HP747358   1.580   6.467   1.859  1.1530  0.2780  0.5231
18551THY    CA347359   1.873   6.495   1.869  0.3626 -0.7800  0.4236
18551THY    HA347360   1.865   6.473   1.763 -0.4786 -0.6948  0.2989
18551THY    CA447361   1.945   6.612   1.908  0.2737  0.0228 -0.5919
18551THY    HA447362   2.000   6.659   1.828  1.2890  0.9488 -0.1733
18551THY    CA547363   1.964   6.650   2.039 -0.0668 -0.5914 -0.2836
18551THY    CM147364   2.043   6.767   2.069  0.0243 -0.0272  0.3904
18551THY    HM147365   2.019   6.852   2.003  2.8164 -0.5199  0.8711
18551THY    HM247366   2.150   6.750   2.053  0.1549  1.3889 -0.2753
18551THY    HM347367   2.031   6.804   2.171  4.8066  0.3333  1.5164
18551THY    CA647368   1.900   6.582   2.141  0.6407  0.6896  0.3681
18551THY    HA647369   1.911   6.622   2.241 -2.2320  0.6806  1.3809
18552THY      O47370   1.537   7.879   7.620 -0.3727  0.4677  0.3166
18552THY     HO47371   1.627   7.846   7.636  0.0927  2.1132  2.1974
18552THY    CA147372   1.501   7.958   7.726  0.0506 -0.7122  0.5823
18552THY    CA247373   1.386   8.042   7.723  0.2337 -0.2156  0.3907
18552THY    CP147374   1.294   8.021   7.598  0.1147  0.3044  0.2415
18552THY    HP147375   1.356   7.986   7.515 -2.2236 -0.6191 -2.0413
18552THY    CP247376   1.224   8.153   7.548 -0.0774  0.3054 -0.0928
18552THY    HP247377   1.152   8.133   7.469 -2.0730  2.3835 -1.6430
18552THY    HP347378   1.300   8.219   7.503 -2.8221 -1.6528  1.9852
18552THY    HP447379   1.174   8.201   7.633  1.6944  0.2228  2.0709
18552THY    CP347380   1.187   7.919   7.636  0.0449 -0.2554 -0.3401
18552THY    HP547381   1.124   7.883   7.553 -2.3999 -0.5300  3.8936
18552THY    HP647382   1.124   7.974   7.707 -1.3964 -2.8371  1.6236
18552THY    HP747383   1.244   7.841   7.688 -0.7747 -0.3130 -0.9898
18552THY    CA347384   1.355   8.133   7.829  1.0571  0.0369 -0.3559
18552THY    HA347385   1.265   8.194   7.827  0.9515 -0.0119 -0.5120
18552THY    CA447386   1.442   8.144   7.931 -0.2438 -0.9840  0.2072
18552THY    HA447387   1.428   8.224   8.004  1.7097 -0.0825 -0.2170
18552THY    CA547388   1.568   8.076   7.930  0.0898  0.5462 -0.8770
18552THY    CM147389   1.682   8.102   8.028  0.6834 -0.0396  0.4756
18552THY    HM147390   1.673   8.010   8.088 -2.1535 -1.7075 -0.4658
18552THY    HM247391   1.663   8.190   8.090  0.8652  0.5875  0.0787
18552THY    HM347392   1.775   8.120   7.973  1.6490  1.8165  1.4048
18552THY    CA647393   1.593   7.979   7.830  0.0509  0.5919  0.3414
18552THY    HA647394   1.694   7.937   7.833  0.4350  0.8698  1.2599
18553THY      O47395   6.924   6.815   6.889  0.4497  0.5422  0.0735
18553THY     HO47396   7.010   6.859   6.878 -0.7764 -1.0918  2.2547
18553THY    CA147397   6.862   6.868   6.998 -0.0286  0.1131  0.1036
18553THY    CA247398   6.720   6.879   7.009 -0.9621  0.0760  0.0171
18553THY    CP147399   6.634   6.818   6.896 -0.1915  0.1131 -0.1436
18553THY    HP147400   6.682   6.738   6.839 -1.3771 -0.6886 -0.3070
18553THY    CP247401   6.580   6.929   6.801 -0.8135 -0.2450  1.0110
18553THY    HP247402   6.660   6.940   6.727  0.5828  0.6841 -1.8747
18553THY    HP347403   6.573   7.020   6.861  1.2668 -0.4683  1.3707
18553THY    HP447404   6.487   6.908   6.748 -1.0861  0.7685 -0.4999
18553THY    CP347405   6.510   6.737   6.952 -0.1531 -0.6538 -0.3201
18553THY    HP547406   6.466   6.674   6.874  0.5821 -0.7012 -0.7948
18553THY    HP647407   6.437   6.811   6.985  0.3875 -0.1870  0.0172
18553THY    HP747408   6.544   6.676   7.037  0.6526 -0.9980 -0.3707
18553THY    CA347409   6.666   6.927   7.133  0.2286  0.0843 -0.5026
18553THY    HA347410   6.558   6.933   7.146  0.4061  1.0680  0.9403
18553THY    CA447411   6.751   6.969   7.238 -0.3006  0.5494 -0.6849
18553THY    HA447412   6.714   7.012   7.330  1.7910  0.5605  1.3390
18553THY    CA547413   6.889   6.954   7.223 -0.7431  0.2449 -0.5737
18553THY    CM147414   6.980   6.989   7.334 -0.3365 -0.4709  0.2316
18553THY    HM147415   6.965   7.090   7.374  0.4157  1.8955 -0.5512
18553THY    HM247416   7.087   6.971   7.321  0.1728  1.3531  1.6580
18553THY    HM347417   6.966   6.913   7.411  3.3637  0.4535  0.3475
18553THY    CA647418   6.942   6.902   7.110  0.5111  0.4595  0.0242
18553THY    HA647419   7.050   6.889   7.110  0.7813 -1.5665  1.6952
18554THY      O47420   0.269   2.958   2.925 -0.1398  0.5219 -0.2379
18554THY     HO47421   0.297   3.026   2.988  1.0667 -0.8386  0.5788
18554THY    CA147422   0.348   2.847   2.957 -0.3873 -0.4899  0.0959
18554THY    CA247423   0.326   2.718   2.892  0.0821 -0.1494 -1.4503
18554THY    CP147424   0.222   2.700   2.780  0.7347  0.2899 -0.7050
18554THY    HP147425   0.176   2.798   2.762  2.5260 -0.4630  0.0342
18554THY    CP247426   0.107   2.606   2.811 -0.1891  0.2278  1.0081
18554THY    HP247427   0.037   2.632   2.892 -0.5118  0.5093 -0.6006
18554THY    HP347428   0.138   2.502   2.827  0.5574 -1.7863  0.8853
18554THY    HP447429   0.029   2.611   2.735 -1.8279  1.6936 -0.6167
18554THY    CP347430   0.277   2.692   2.637  0.2702 -0.1340  0.2382
18554THY    HP547431   0.212   2.704   2.550 -1.8380  1.1889 -0.8893
18554THY    HP647432   0.321   2.592   2.623  0.0385 -1.2966  0.2822
18554THY    HP747433   0.363   2.758   2.625  0.6418  0.9182 -0.0281
18554THY    CA347434   0.412   2.615   2.921  0.6115 -0.6755  0.2657
18554THY    HA347435   0.407   2.515   2.879  0.3916 -1.5884  0.6450
18554THY    CA447436   0.521   2.638   3.008  0.1151  0.1473 -0.1739
18554THY    HA447437   0.599   2.564   3.006 -0.0229 -0.5933 -0.2984
18554THY    CA547438   0.532   2.763   3.071 -0.5135 -0.9579 -0.0820
18554THY    CM147439   0.648   2.777   3.168  0.3278  0.7929  0.3190
18554THY    HM147440   0.604   2.788   3.268 -0.1355  0.7905 -1.2083
18554THY    HM247441   0.703   2.869   3.149 -2.2116 -0.4600  1.6666
18554THY    HM347442   0.713   2.688   3.170  0.9611 -2.3385  0.6244
18554THY    CA647443   0.451   2.868   3.048  0.2359 -0.3541 -0.0468
18554THY    HA647444   0.465   2.955   3.111  2.7923 -1.6225  0.5543
18555THY      O47445   7.901   2.018   2.928 -0.4585 -0.1575 -0.2061
18555THY     HO47446   7.841   2.094   2.910 -0.8527  2.4600  0.2054
18555THY    CA147447   8.030   2.057   2.906  0.0639  0.2395 -0.6634
18555THY    CA247448   8.129   1.959   2.869  0.8596 -0.4716 -0.2293
18555THY    CP147449   8.089   1.803   2.863  0.3112 -0.2624 -0.6386
18555THY    HP147450   7.994   1.783   2.915 -0.6575 -1.1566  1.2964
18555THY    CP247451   8.191   1.732   2.939  0.4000  0.2001  0.4953
18555THY    HP247452   8.172   1.624   2.928 -4.5882 -2.4472  1.3574
18555THY    HP347453   8.181   1.759   3.045  0.5747  0.5622 -0.7789
18555THY    HP447454   8.293   1.751   2.903  0.6420  1.0786  0.9598
18555THY    CP347455   8.067   1.752   2.721  0.5560  0.4289 -0.2747
18555THY    HP547456   8.051   1.643   2.722  1.1696  0.6545 -0.3645
18555THY    HP647457   8.155   1.758   2.656  0.3849  0.2178 -0.0744
18555THY    HP747458   7.978   1.801   2.682 -0.5647  0.1053 -2.4341
18555THY    CA347459   8.257   2.003   2.832 -0.5803 -0.0081 -0.2287
18555THY    HA347460   8.329   1.932   2.794  0.3724  0.1820  0.6172
18555THY    CA447461   8.290   2.139   2.831  0.1039 -0.2060  0.0347
18555THY    HA447462   8.387   2.171   2.794 -0.1590 -1.3425 -0.4467
18555THY    CA547463   8.196   2.229   2.867  0.0302  0.0684 -0.2606
18555THY    CM147464   8.224   2.377   2.866 -0.6620  0.6936 -0.2184
18555THY    HM147465   8.329   2.407   2.864 -0.7612 -1.7958  0.1486
18555THY    HM247466   8.180   2.420   2.957 -1.6559  0.6295 -1.0538
18555THY    HM347467   8.171   2.424   2.783  0.2996 -0.5946 -1.3436
18555THY    CA647468   8.066   2.190   2.898  0.3826 -0.0199  0.2964
18555THY    HA647469   7.986   2.262   2.918  0.5379  0.8739  0.2329
18556THY      O47470   1.981   2.961   2.642 -1.2639 -0.3805  0.5336
18556THY     HO47471   1.996   2.980   2.736  1.8126 -0.0212 -2.5420
18556THY    CA147472   2.105   2.988   2.584 -0.5696  0.2000 -0.0560
18556THY    CA247473   2.135   2.979   2.453  0.5205  0.0904 -0.2165
18556THY    CP147474   2.031   2.933   2.352  0.1862 -0.2535  0.0515
18556THY    HP147475   1.941   2.891   2.400 -0.2912 -3.2760 -2.8085
18556THY    CP247476   2.076   2.818   2.268  0.1775  0.2330 -0.3289
18556THY    HP247477   2.094   2.724   2.321 -2.0862 -0.4911 -1.2291
18556THY    HP347478   2.171   2.843   2.219  0.3645  1.4318  1.5205
18556THY    HP447479   1.999   2.781   2.199 -0.9291  1.3270 -0.1224
18556THY    CP347480   1.990   3.053   2.264 -0.4654 -0.3792  0.4193
18556THY    HP547481   2.081   3.102   2.229 -0.7436 -0.3627  0.9557
18556THY    HP647482   1.935   3.125   2.325 -1.8236  0.0158 -0.8965
18556THY    HP747483   1.924   3.035   2.178  1.6321 -2.0549  0.3891
18556THY    CA347484   2.262   3.023   2.408 -0.5042 -0.5966 -0.3283
18556THY    HA347485   2.295   3.013   2.305  1.4599 -0.2148  1.3754
18556THY    CA447486   2.355   3.063   2.502 -0.2393 -0.3969  0.0024
18556THY    HA447487   2.456   3.083   2.469 -0.2275  0.4497  1.4989
18556THY    CA547488   2.329   3.075   2.639 -0.5467  0.4438  0.0837
18556THY    CM147489   2.434   3.109   2.730 -0.3843 -0.2302  0.1609
18556THY    HM147490   2.504   3.182   2.689  0.3804  0.6840 -0.0263
18556THY    HM247491   2.484   3.011   2.739  0.1116 -2.7816  0.1090
18556THY    HM347492   2.403   3.146   2.828  1.5584  0.2073  0.7795
18556THY    CA647493   2.199   3.039   2.679 -0.0627 -0.7969  0.6094
18556THY    HA647494   2.167   3.044   2.783 -1.9645 -1.3334  0.6304
18557THY      O47495   4.425   1.075   3.809 -0.0459 -0.1580 -0.2665
18557THY     HO47496   4.421   1.051   3.903 -0.3235  0.7231  2.7354
18557THY    CA147497   4.549   1.125   3.798 -0.0301  0.0695  0.3824
18557THY    CA247498   4.627   1.089   3.689  0.1776  0.4061 -0.3449
18557THY    CP147499   4.575   0.995   3.580 -0.6383  0.3222 -0.4998
18557THY    HP147500   4.466   0.993   3.586 -0.8421 -1.3148  1.5186
18557THY    CP247501   4.633   0.851   3.587 -0.3122 -0.0045  0.1548
18557THY    HP247502   4.742   0.864   3.588 -0.0759 -3.7838 -0.3972
18557THY    HP347503   4.604   0.780   3.508 -1.8763 -0.9135  1.7320
18557THY    HP447504   4.602   0.811   3.684  2.3814  1.9829  2.5046
18557THY    CP347505   4.599   1.047   3.436  0.3933  0.0860 -0.1569
18557THY    HP547506   4.561   1.148   3.414  0.2793 -3.1126 -0.7790
18557THY    HP647507   4.560   0.985   3.355 -3.1830  0.3079  1.5398
18557THY    HP747508   4.707   1.040   3.418  0.1745 -2.4149  1.3940
18557THY    CA347509   4.755   1.139   3.679  0.8623 -0.1322  1.0320
18557THY    HA347510   4.815   1.109   3.594 -0.3524 -0.5010 -0.4783
18557THY    CA447511   4.803   1.225   3.781  0.4117  0.3220  0.2438
18557THY    HA447512   4.902   1.268   3.768 -0.4013 -2.9699  1.4785
18557THY    CA547513   4.722   1.261   3.889  0.4664 -0.4171  0.4317
18557THY    CM147514   4.761   1.361   4.001 -0.1403  0.2091 -0.4095
18557THY    HM147515   4.868   1.373   4.020 -0.1612  0.4621 -0.6268
18557THY    HM247516   4.708   1.342   4.095 -1.7673 -0.8596 -1.5032
18557THY    HM347517   4.715   1.457   3.971 -3.4240  2.7882 -0.9848
18557THY    CA647518   4.597   1.204   3.902  0.5600 -0.2327 -0.3300
18557THY    HA647519   4.527   1.239   3.977  0.8021  0.9490 -2.2422
18558THY      O47520   1.138   7.890   5.073  0.2983  1.2725  0.0083
18558THY     HO47521   1.047   7.865   5.093  0.6793  2.8161 -0.2777
18558THY    CA147522   1.154   8.022   5.089  0.4312 -0.5310 -0.3271
18558THY    CA247523   1.279   8.074   5.079  0.0993 -0.0729 -0.0620
18558THY    CP147524   1.404   7.988   5.047 -0.5935  0.7733  0.5087
18558THY    HP147525   1.399   7.891   5.097 -0.0607  1.8635  1.0216
18558THY    CP247526   1.526   8.047   5.115 -0.6924 -0.1587 -0.0638
18558THY    HP247527   1.609   7.977   5.103  1.4476  3.4314  1.5639
18558THY    HP347528   1.510   8.070   5.221 -1.2813 -0.5576  1.4887
18558THY    HP447529   1.551   8.145   5.072 -1.8784  1.4793  1.0186
18558THY    CP347530   1.423   7.967   4.898 -0.5076 -0.3800  0.5070
18558THY    HP547531   1.500   7.891   4.887 -0.5736 -0.0171  0.3829
18558THY    HP647532   1.469   8.049   4.842 -0.6298 -1.3942 -0.1028
18558THY    HP747533   1.322   7.941   4.863 -0.3884  0.0910 -0.6553
18558THY    CA347534   1.285   8.216   5.101 -0.6590 -0.2444  0.2500
18558THY    HA347535   1.381   8.267   5.093  0.1829  2.2689 -0.8040
18558THY    CA447536   1.165   8.290   5.137 -0.1674 -0.2605  0.0532
18558THY    HA447537   1.183   8.396   5.153  2.1068  2.1270 -0.5919
18558THY    CA547538   1.041   8.233   5.149 -0.1374  0.0298  0.1941
18558THY    CM147539   0.913   8.308   5.184  0.1373 -0.4794  0.5443
18558THY    HM147540   0.917   8.341   5.288  0.8261 -0.4096  0.2650
18558THY    HM247541   0.821   8.249   5.177  1.1487  0.6632 -1.3086
18558THY    HM347542   0.903   8.391   5.114  1.1665 -0.7588  0.4484
18558THY    CA647543   1.045   8.091   5.129  0.2713 -0.5901 -0.2575
18558THY    HA647544   0.949   8.041   5.134  0.4863  1.2377 -0.5690
18559THY      O47545   2.168   4.365   7.889 -0.1552 -0.7657  0.5523
18559THY     HO47546   2.237   4.434   7.884  0.8668  1.0306 -0.2739
18559THY    CA147547   2.109   4.348   7.773 -0.6196  1.3681  0.6132
18559THY    CA247548   2.014   4.244   7.745  0.1846  0.1439  0.1273
18559THY    CP147549   1.959   4.148   7.857  0.1604  0.1020 -0.3779
18559THY    HP147550   2.019   4.160   7.948  1.4745 -0.3535 -2.7926
18559THY    CP247551   1.973   4.002   7.813  0.5589 -0.2007 -0.5486
18559THY    HP247552   1.965   3.941   7.903 -2.3473 -1.4348 -2.2028
18559THY    HP347553   2.064   3.988   7.754 -0.1159 -1.5254  0.3995
18559THY    HP447554   1.892   3.964   7.748 -0.1227  0.8757 -0.9855
18559THY    CP347555   1.809   4.176   7.889 -0.3724 -0.1160 -0.2389
18559THY    HP547556   1.791   4.278   7.926 -0.0518  2.1718 -0.9410
18559THY    HP647557   1.776   4.105   7.967  2.0983 -0.1760 -1.5775
18559THY    HP747558   1.748   4.155   7.800 -1.6774  1.2862 -2.9516
18559THY    CA347559   1.981   4.225   7.608  0.4208 -0.1177  0.0526
18559THY    HA347560   1.924   4.141   7.569  1.2008 -2.7450  0.6463
18559THY    CA447561   2.025   4.313   7.514  0.4116  0.5189 -0.0025
18559THY    HA447562   1.979   4.310   7.416 -0.8557  1.0297  1.3781
18559THY    CA547563   2.115   4.419   7.544 -0.0176  0.6156  0.0027
18559THY    CM147564   2.167   4.519   7.444  0.6344  0.1620  0.8849
18559THY    HM147565   2.259   4.565   7.481  0.1152  1.6738  0.7810
18559THY    HM247566   2.099   4.601   7.416  0.0293 -0.8734  0.0473
18559THY    HM347567   2.196   4.461   7.356  1.0980  1.5345 -1.0515
18559THY    CA647568   2.161   4.427   7.675 -0.3002 -0.1016  0.1830
18559THY    HA647569   2.229   4.510   7.695 -0.7898 -1.6138  0.9884
18560THY      O47570   8.161   0.540   5.095  0.5799  0.1525  0.1004
18560THY     HO47571   8.074   0.580   5.077  0.1686  2.8322  0.6122
18560THY    CA147572   8.240   0.649   5.125  0.3856 -0.2953  0.0458
18560THY    CA247573   8.364   0.642   5.182  0.1979  0.6961 -0.4659
18560THY    CP147574   8.427   0.512   5.223  0.0029 -0.2533  0.4866
18560THY    HP147575   8.354   0.444   5.269 -0.1202 -1.6564 -0.3635
18560THY    CP247576   8.544   0.522   5.323 -0.2641 -0.2175  0.4205
18560THY    HP247577   8.636   0.566   5.283 -0.5203  0.2483  1.3995
18560THY    HP347578   8.567   0.427   5.373 -0.2345 -0.4464  0.3078
18560THY    HP447579   8.504   0.581   5.407 -1.4488 -0.8473  0.5429
18560THY    CP347580   8.489   0.446   5.093  0.4974  0.0127 -1.0433
18560THY    HP547581   8.570   0.508   5.052 -1.2384 -0.9029  0.7280
18560THY    HP647582   8.404   0.432   5.026 -0.2824  0.6650  0.3071
18560THY    HP747583   8.534   0.349   5.117 -0.4187 -0.8504 -1.6964
18560THY    CA347584   8.440   0.765   5.194 -0.1655  0.6613 -0.3491
18560THY    HA347585   8.540   0.763   5.235  0.6106 -1.1715 -0.9533
18560THY    CA447586   8.381   0.888   5.152  0.1109  0.2761  0.7524
18560THY    HA447587   8.420   0.986   5.177 -0.4684  0.0689  1.0437
18560THY    CA547588   8.252   0.885   5.102 -0.9814  0.1274  0.1816
18560THY    CM147589   8.184   1.015   5.064 -0.2336 -0.2280 -0.2237
18560THY    HM147590   8.261   1.088   5.036 -1.8388 -0.0515  1.6207
18560THY    HM247591   8.132   1.059   5.150  0.3707  0.4778 -0.8685
18560THY    HM347592   8.113   1.016   4.981 -0.9607  0.2729  3.5335
18560THY    CA647593   8.181   0.768   5.092 -0.5283  0.1303 -0.2365
18560THY    HA647594   8.083   0.766   5.047 -0.6043  0.3068 -0.4620
18561THY      O47595   6.359   7.407   7.816  0.5563 -0.2542 -0.2607
18561THY     HO47596   6.427   7.475   7.803  1.3742 -1.8441 -1.3200
18561THY    CA147597   6.303   7.384   7.693  0.4711 -0.1785 -0.3684
18561THY    CA247598   6.228   7.270   7.680 -0.1787  0.7776 -0.1226
18561THY    CP147599   6.217   7.169   7.801  0.3342  0.1161 -0.1289
18561THY    HP147600   6.305   7.177   7.866 -0.7365  1.4422  1.6926
18561THY    CP247601   6.175   7.027   7.758  0.1368 -0.4549  0.5225
18561THY    HP247602   6.074   7.036   7.717  0.2537 -0.6555  0.9437
18561THY    HP347603   6.174   6.971   7.853 -0.0215 -0.1378  1.0594
18561THY    HP447604   6.248   6.972   7.698  2.5031  0.7238  2.1981
18561THY    CP347605   6.103   7.229   7.891 -0.6021 -0.3981  0.4575
18561THY    HP547606   6.112   7.336   7.918  0.4131  2.0362 -0.1595
18561THY    HP647607   6.110   7.176   7.987 -2.1990 -0.2685  0.4455
18561THY    HP747608   5.998   7.218   7.862 -0.5655  0.1125 -1.4450
18561THY    CA347609   6.181   7.237   7.556 -0.1696 -0.4619 -0.0348
18561THY    HA347610   6.119   7.148   7.544  0.0295 -1.5848 -0.0407
18561THY    CA447611   6.193   7.335   7.448 -0.8387  0.2040  0.7484
18561THY    HA447612   6.149   7.312   7.352  0.3088 -0.0644 -0.4826
18561THY    CA547613   6.257   7.458   7.470 -0.0909 -0.0899  0.5103
18561THY    CM147614   6.285   7.549   7.357 -0.2240 -0.1669 -0.2641
18561THY    HM147615   6.267   7.656   7.373 -1.2205 -2.0781 -0.1170
18561THY    HM247616   6.218   7.518   7.276 -1.1366  0.0459  1.0930
18561THY    HM347617   6.388   7.533   7.324 -0.4707 -1.0314 -0.1225
18561THY    CA647618   6.317   7.479   7.593  0.2288 -0.1222  0.6910
18561THY    HA647619   6.376   7.567   7.616  0.9633  3.2175 -0.5089
18562THY      O47620   2.552   0.907   1.734  0.0105 -0.5395 -0.9481
18562THY     HO47621   2.516   0.837   1.676  0.6475 -1.4569 -0.5436
18562THY    CA147622   2.442   0.980   1.769 -0.4946  0.0484 -0.1863
18562THY    CA247623   2.441   1.118   1.755  0.2066 -0.1196 -0.1704
18562THY    CP147624   2.566   1.192   1.710  0.0307  0.2732  0.6155
18562THY    HP147625   2.641   1.123   1.669 -0.2817  1.0599 -0.2142
18562THY    CP247626   2.641   1.267   1.823  0.4154 -0.8207 -0.6678
18562THY    HP247627   2.746   1.288   1.802  0.4371  0.3865  0.5418
18562THY    HP347628   2.633   1.208   1.916  1.9278 -0.0341  0.3169
18562THY    HP447629   2.582   1.356   1.848  0.2069  1.2291 -1.3152
18562THY    CP347630   2.538   1.290   1.593 -0.2831  0.1005 -0.7323
18562THY    HP547631   2.632   1.306   1.538 -1.6197 -1.7687  1.1510
18562THY    HP647632   2.489   1.387   1.604  1.0691 -3.4557  0.5362
18562THY    HP747633   2.462   1.238   1.533 -0.2819  1.1581 -2.0277
18562THY    CA347634   2.321   1.185   1.796 -0.1722  0.1904 -0.2927
18562THY    HA347635   2.323   1.294   1.792  5.2556 -0.0543 -0.0904
18562THY    CA447636   2.200   1.110   1.833 -0.2951  0.6964 -0.2192
18562THY    HA447637   2.109   1.163   1.860 -0.6210 -1.2856  0.3162
18562THY    CA547638   2.210   0.968   1.838 -0.2425 -0.2318 -0.0780
18562THY    CM147639   2.084   0.899   1.864  0.2895 -0.8160  0.2757
18562THY    HM147640   2.007   0.965   1.905 -0.8396 -0.6556 -1.0857
18562THY    HM247641   2.094   0.822   1.941 -0.2564 -0.4527  0.5600
18562THY    HM347642   2.042   0.861   1.770 -0.6883 -1.2887  2.3702
18562THY    CA647643   2.328   0.903   1.799  0.0772 -0.4208  0.3306
18562THY    HA647644   2.329   0.795   1.793  0.7334 -1.6274  0.3818
18563THY      O47645   1.216   8.468   4.728 -0.0928 -0.3374 -0.2343
18563THY     HO47646   1.122   8.454   4.705  0.1403  0.0372 -2.8730
18563THY    CA147647   1.235   8.559   4.826  0.3540  0.7089 -0.5022
18563THY    CA247648   1.366   8.600   4.871  0.0729 -0.3136 -0.6474
18563THY    CP147649   1.491   8.554   4.804  0.6461 -0.9489 -0.3081
18563THY    HP147650   1.460   8.538   4.700 -0.9159 -0.7992  1.3725
18563THY    CP247651   1.566   8.439   4.886  0.1778 -0.1477 -0.0747
18563THY    HP247652   1.669   8.423   4.853 -0.2666 -0.8983 -1.5869
18563THY    HP347653   1.523   8.338   4.884  1.5332  1.7454 -0.7567
18563THY    HP447654   1.564   8.460   4.994  0.2872  0.0468 -1.0167
18563THY    CP347655   1.587   8.676   4.798 -0.2909  0.2926  0.2010
18563THY    HP547656   1.554   8.751   4.725  0.1117 -2.0541 -1.7485
18563THY    HP647657   1.681   8.633   4.761 -0.0890 -0.0369  0.9205
18563THY    HP747658   1.612   8.724   4.893 -0.1748  0.1976  0.3302
18563THY    CA347659   1.378   8.677   4.987  0.3782 -0.1888  0.1503
18563THY    HA347660   1.468   8.699   5.044 -0.9409  2.1296 -0.0633
18563THY    CA447661   1.260   8.731   5.044  0.0665 -0.1581  0.1260
18563THY    HA447662   1.263   8.794   5.132  1.9922  0.0401 -0.1951
18563THY    CA547663   1.132   8.687   5.005 -0.1686 -0.5298  0.0738
18563THY    CM147664   1.010   8.728   5.078  0.2144  0.2274 -0.2201
18563THY    HM147665   0.917   8.714   5.022  0.4786 -0.4457  0.5939
18563THY    HM247666   1.013   8.834   5.104 -1.3395 -1.5273  0.2995
18563THY    HM347667   0.988   8.671   5.169 -2.9336 -0.4580 -0.2730
18563THY    CA647668   1.124   8.605   4.891 -0.1961  0.0238 -0.3132
18563THY    HA647669   1.027   8.567   4.862  0.3966 -0.2808 -1.6674
18564THY      O47670   7.031   5.133   2.059  0.6362 -0.0273  0.4657
18564THY     HO47671   7.111   5.085   2.085  0.8639 -0.5872  0.5346
18564THY    CA147672   7.007   5.106   1.929  0.3367 -0.2014  0.1504
18564THY    CA247673   6.936   5.194   1.842  0.0498  0.0904  0.2430
18564THY    CP147674   6.888   5.337   1.893 -0.3755  0.1705  0.3155
18564THY    HP147675   6.865   5.331   2.000  0.2374  0.3638  1.2030
18564THY    CP247676   6.759   5.392   1.828 -0.1761  0.3099 -0.1479
18564THY    HP247677   6.670   5.335   1.856 -1.0481  0.5964  1.2987
18564THY    HP347678   6.771   5.409   1.720 -0.6694  0.5056  1.6967
18564THY    HP447679   6.734   5.490   1.870  1.9696  1.4033  0.0058
18564THY    CP347680   7.006   5.444   1.876 -0.4857  0.1818 -0.2377
18564THY    HP547681   7.099   5.399   1.912  1.0497 -0.4285  2.2316
18564THY    HP647682   6.984   5.536   1.931  1.7470  0.5006  0.1625
18564THY    HP747683   7.009   5.472   1.770 -0.3948  0.5717  1.3092
18564THY    CA347684   6.904   5.150   1.716  0.0388 -0.8417 -0.3150
18564THY    HA347685   6.857   5.221   1.650 -1.6154  1.1760  0.5610
18564THY    CA447686   6.937   5.016   1.669  0.1085 -0.8792  0.1706
18564THY    HA447687   6.914   4.979   1.569 -1.5092  0.0029 -1.3425
18564THY    CA547688   7.004   4.934   1.752  0.6317 -0.5393 -1.0699
18564THY    CM147689   7.045   4.792   1.705 -0.7065  0.3060 -0.2590
18564THY    HM147690   6.968   4.771   1.629 -0.0293 -1.2539  2.3970
18564THY    HM247691   7.027   4.717   1.782 -0.8003  0.2392 -0.3051
18564THY    HM347692   7.146   4.781   1.664 -1.5303 -1.9127 -0.2240
18564THY    CA647693   7.042   4.978   1.880 -0.1395  0.0370 -0.0690
18564THY    HA647694   7.101   4.910   1.941 -0.0171  0.0973  0.0923
18565THY      O47695   2.678   7.327   4.569  0.6489  0.6314 -0.2907
18565THY     HO47696   2.699   7.422   4.581  0.3939 -3.0181  0.3755
18565THY    CA147697   2.735   7.293   4.450 -0.6298 -0.0292 -0.4365
18565THY    CA247698   2.737   7.165   4.393  0.3164 -0.2384 -0.8623
18565THY    CP147699   2.662   7.057   4.458  0.4448  0.9287 -0.2996
18565THY    HP147700   2.563   7.091   4.489  0.6915  0.6468  0.6928
18565THY    CP247701   2.742   7.010   4.579 -0.5302 -0.2997 -0.0058
18565THY    HP247702   2.729   7.088   4.655 -0.4733  2.2671 -2.3523
18565THY    HP347703   2.848   6.986   4.566 -0.4227  1.6129 -0.7150
18565THY    HP447704   2.686   6.925   4.620  1.1962 -1.4651 -1.7693
18565THY    CP347705   2.630   6.934   4.370 -0.6794 -0.1151  0.2054
18565THY    HP547706   2.722   6.884   4.337 -0.8039 -0.3453  0.1291
18565THY    HP647707   2.565   6.971   4.291 -0.6829  0.0594  0.5789
18565THY    HP747708   2.581   6.864   4.438  3.5253  1.2567 -1.7504
18565THY    CA347709   2.821   7.144   4.285 -0.1657  0.7492  0.3787
18565THY    HA347710   2.837   7.050   4.233  3.4628 -2.7702  2.6461
18565THY    CA447711   2.894   7.255   4.224  0.2343  0.2773  0.7727
18565THY    HA447712   2.951   7.253   4.131 -1.9979 -1.1848  1.7519
18565THY    CA547713   2.891   7.378   4.286  0.6518  0.0852 -0.1689
18565THY    CM147714   2.960   7.497   4.228  0.3792 -0.0426 -0.0941
18565THY    HM147715   2.994   7.568   4.305  0.3976 -1.0356  0.9931
18565THY    HM247716   2.884   7.556   4.176  0.8961 -2.1976 -1.2276
18565THY    HM347717   3.044   7.476   4.160 -0.6361 -1.7130  1.0297
18565THY    CA647718   2.805   7.402   4.392  0.2207  0.1299  0.8345
18565THY    HA647719   2.797   7.503   4.431 -1.7674 -0.2764  0.8640
18566THY      O47720   8.300   5.817   5.118  0.0428  0.3362 -0.7878
18566THY     HO47721   8.342   5.848   5.036 -0.1683 -0.3542 -2.2466
18566THY    CA147722   8.290   5.683   5.090 -0.0990  0.4986 -0.1123
18566THY    CA247723   8.189   5.599   5.145  0.9734 -0.5052 -0.3004
18566THY    CP147724   8.095   5.666   5.251 -0.0619  0.2348 -0.5716
18566THY    HP147725   8.129   5.762   5.290  0.5589 -1.8715  0.1073
18566THY    CP247726   8.079   5.581   5.378 -0.8264  0.3132 -0.0209
18566THY    HP247727   8.005   5.620   5.449 -0.7326 -0.1901  1.1160
18566THY    HP347728   8.166   5.560   5.440 -0.2064 -1.1956 -2.2600
18566THY    HP447729   8.039   5.482   5.352  2.8251  1.8208 -2.0683
18566THY    CP347730   7.953   5.678   5.197  0.2939 -0.0583 -1.0676
18566THY    HP547731   7.885   5.602   5.237  1.3288 -0.4514 -2.2305
18566THY    HP647732   7.959   5.676   5.088 -0.6822 -0.2001  1.0288
18566THY    HP747733   7.910   5.774   5.228  0.2088  1.3440 -1.5396
18566THY    CA347734   8.174   5.470   5.099 -0.4151 -0.0868 -0.1916
18566THY    HA347735   8.096   5.409   5.144 -1.2385 -1.1192  0.0628
18566THY    CA447736   8.271   5.418   5.004 -0.2382  0.0314  0.1924
18566THY    HA447737   8.260   5.316   4.969  0.9383  0.3587 -0.0508
18566THY    CA547738   8.373   5.507   4.959 -0.6475  0.6662  0.5556
18566THY    CM147739   8.477   5.459   4.859  0.3598 -0.0732 -0.7627
18566THY    HM147740   8.575   5.436   4.903  1.0825 -1.4708 -0.5028
18566THY    HM247741   8.495   5.540   4.787 -1.7960  1.4668  1.2058
18566THY    HM347742   8.433   5.379   4.798  2.9270 -0.6409 -1.8615
18566THY    CA647743   8.376   5.637   4.997  0.9257 -0.5221 -0.2942
18566THY    HA647744   8.453   5.696   4.950  2.3931  1.9481 -0.1135
18567THY      O47745   6.189   8.612   4.210 -0.0087  0.2629 -0.0200
18567THY     HO47746   6.236   8.627   4.294  0.3123  0.0048  0.4531
18567THY    CA147747   6.086   8.526   4.223 -0.9336  0.0447  0.3881
18567THY    CA247748   6.029   8.467   4.114  0.0886 -0.1373  0.1874
18567THY    CP147749   6.091   8.491   3.972  0.0332  0.3601 -0.0759
18567THY    HP147750   6.183   8.550   3.983 -0.2974  1.2182  0.2909
18567THY    CP247751   5.998   8.557   3.870 -0.6162  0.2872 -0.5306
18567THY    HP247752   5.955   8.649   3.911  0.8182  0.8715 -0.0833
18567THY    HP347753   5.920   8.497   3.822 -0.9968  0.2897 -0.0447
18567THY    HP447754   6.064   8.581   3.786  0.7914  1.6774  0.7339
18567THY    CP347755   6.137   8.357   3.915 -0.3557  0.7924  0.1616
18567THY    HP547756   6.212   8.306   3.977  0.6850  0.3908  1.1730
18567THY    HP647757   6.176   8.391   3.818 -0.0988  0.7593 -0.2160
18567THY    HP747758   6.049   8.295   3.895  0.9842 -0.5265 -1.4359
18567THY    CA347759   5.914   8.385   4.132 -0.8065  0.0413 -0.0040
18567THY    HA347760   5.856   8.340   4.052 -0.0490 -0.0201 -0.9003
18567THY    CA447761   5.873   8.363   4.267 -0.2558  0.2978 -0.7614
18567THY    HA447762   5.790   8.300   4.299 -0.2808  3.1766  0.5662
18567THY    CA547763   5.938   8.428   4.376 -0.7626  0.1514 -0.1201
18567THY    CM147764   5.892   8.403   4.511 -0.8448 -0.5406  0.8160
18567THY    HM147765   5.975   8.383   4.579 -0.4488 -1.7053 -2.1710
18567THY    HM247766   5.836   8.308   4.513 -0.0489  1.9802  0.3253
18567THY    HM347767   5.835   8.483   4.559 -0.8096  2.1206 -0.6484
18567THY    CA647768   6.045   8.508   4.350  0.2283 -0.2229 -0.0407
18567THY    HA647769   6.099   8.550   4.435  1.3152 -0.5358 -0.7546
18568THY      O47770   2.788   4.660   7.190 -0.0097  0.1306 -0.7717
18568THY     HO47771   2.786   4.752   7.158  2.6456 -0.8165 -0.9514
18568THY    CA147772   2.725   4.585   7.099  1.3806 -0.0205 -0.1645
18568THY    CA247773   2.762   4.448   7.078  0.5252 -0.1513 -0.2513
18568THY    CP147774   2.875   4.396   7.165 -0.0647 -0.0694  1.0129
18568THY    HP147775   2.873   4.430   7.269 -2.4614  0.5467 -0.7114
18568THY    CP247776   3.003   4.439   7.093  0.7313 -0.5105  0.3782
18568THY    HP247777   3.004   4.547   7.074 -0.3956 -0.2550  0.4469
18568THY    HP347778   2.999   4.386   6.997 -0.6406  0.2486 -0.9972
18568THY    HP447779   3.089   4.408   7.154 -0.4995  0.0445 -2.2747
18568THY    CP347780   2.872   4.242   7.175 -0.3587 -0.5876  0.1239
18568THY    HP547781   2.906   4.203   7.271 -1.1421 -0.7336 -0.9804
18568THY    HP647782   2.947   4.209   7.102  0.1740 -0.0396  0.1088
18568THY    HP747783   2.772   4.201   7.158 -1.2038 -0.0199  1.8553
18568THY    CA347784   2.709   4.381   6.969  0.1497 -0.4800  0.5624
18568THY    HA347785   2.750   4.283   6.945 -0.1823 -0.3260  0.3816
18568THY    CA447786   2.607   4.444   6.891  0.2184 -0.5880 -0.5757
18568THY    HA447787   2.567   4.401   6.800 -0.3971 -1.3455  1.4821
18568THY    CA547788   2.569   4.574   6.918  0.7995  0.2805 -0.4949
18568THY    CM147789   2.471   4.631   6.829 -0.2073 -0.3543 -0.8325
18568THY    HM147790   2.402   4.554   6.792 -1.5069  2.0351 -0.9069
18568THY    HM247791   2.517   4.686   6.746 -1.0151  0.7129  1.5489
18568THY    HM347792   2.410   4.695   6.893 -1.0666 -0.5664 -1.4219
18568THY    CA647793   2.626   4.645   7.022 -0.0611 -0.6800  0.3200
18568THY    HA647794   2.603   4.751   7.030  1.8601 -1.0273  0.8211
18569THY      O47795   7.536   7.842   2.034 -0.5415 -0.4111  0.7076
18569THY     HO47796   7.590   7.891   2.099  2.8071 -0.6058 -2.3169
18569THY    CA147797   7.622   7.752   1.981  0.1414  0.2213 -0.2506
18569THY    CA247798   7.574   7.626   1.932 -1.3469 -0.4621  0.9634
18569THY    CP147799   7.424   7.600   1.938 -0.0188 -0.1330 -0.1721
18569THY    HP147800   7.360   7.686   1.960 -2.0898 -2.3974 -1.0128
18569THY    CP247801   7.381   7.488   2.042  0.3845 -0.3893  0.0500
18569THY    HP247802   7.430   7.395   2.012  0.0767 -3.1699  0.7062
18569THY    HP347803   7.275   7.459   2.042  0.7503  0.1736 -1.3702
18569THY    HP447804   7.411   7.514   2.144 -0.3688 -0.0537 -0.3554
18569THY    CP347805   7.367   7.563   1.799  0.8608 -0.0103 -0.3476
18569THY    HP547806   7.392   7.630   1.716 -1.6922 -1.6240 -1.2412
18569THY    HP647807   7.258   7.562   1.804  0.8584  0.0483  0.0756
18569THY    HP747808   7.409   7.469   1.760 -1.5464 -1.1630 -1.0312
18569THY    CA347809   7.669   7.538   1.877  0.5622  1.1164 -0.7944
18569THY    HA347810   7.648   7.437   1.844 -2.1013  0.5944 -0.1281
18569THY    CA447811   7.807   7.564   1.896  0.2898  0.5145 -0.6176
18569THY    HA447812   7.877   7.488   1.864  1.7187 -0.6961  1.1113
18569THY    CA547813   7.850   7.687   1.943 -0.5701 -0.3702 -0.2530
18569THY    CM147814   7.992   7.729   1.953  0.1013  0.4439  0.0340
18569THY    HM147815   8.003   7.777   2.051 -0.4055  0.0316  1.0064
18569THY    HM247816   8.012   7.816   1.890  0.5839 -0.2322 -0.5466
18569THY    HM347817   8.064   7.649   1.933 -0.2341 -0.8799  0.0331
18569THY    CA647818   7.755   7.775   1.988 -0.1289  0.2596 -0.1803
18569THY    HA647819   7.788   7.861   2.045  0.5054 -0.6783  0.2180
18570THY      O47820   8.868   8.859   3.053  0.0872  0.3713  0.0815
18570THY     HO47821   8.791   8.800   3.040  1.6477  0.9220 -2.2005
18570THY    CA147822   8.854   8.949   2.955  0.0913 -0.3120 -0.3066
18570THY    CA247823   8.968   8.998   2.892  0.3499 -0.9959  0.6107
18570THY    CP147824   9.103   8.963   2.944 -0.0117  0.0007  0.0502
18570THY    HP147825   9.173   9.006   2.871  0.3109 -0.4052 -1.1071
18570THY    CP247826   9.140   8.807   2.937 -0.1916  0.0366 -0.4145
18570THY    HP247827   9.246   8.785   2.925 -0.4710  0.3237 -2.0792
18570THY    HP347828   9.083   8.768   2.852 -1.2436  0.3586  0.3615
18570THY    HP447829   9.107   8.757   3.029  0.2915 -0.0998 -0.9937
18570THY    CP347830   9.140   9.025   3.079  0.6512 -0.1281  0.4054
18570THY    HP547831   9.060   8.998   3.148  0.2710 -0.3928  0.8518
18570THY    HP647832   9.146   9.135   3.072 -3.1123 -1.0272  0.6643
18570THY    HP747833   9.239   8.995   3.116  1.4581 -1.6661  1.0978
18570THY    CA347834   8.959   9.083   2.779  0.2126 -1.1374  0.7042
18570THY    HA347835   9.052   9.116   2.734  0.8920  0.3131  0.8431
18570THY    CA447836   8.826   9.114   2.742  0.3614  0.2262 -0.0753
18570THY    HA447837   8.819   9.175   2.652  2.8500  0.1840  0.2438
18570THY    CA547838   8.714   9.070   2.800  0.2859  0.3271 -0.3452
18570THY    CM147839   8.584   9.102   2.733  0.7356 -0.1041  0.2688
18570THY    HM147840   8.580   9.049   2.637  0.0190 -0.2123  0.4976
18570THY    HM247841   8.561   9.209   2.724  0.0715  2.0980  0.3568
18570THY    HM347842   8.505   9.077   2.805  0.7684  0.2183  1.0536
18570THY    CA647843   8.731   8.981   2.909 -0.2097 -0.1891  0.1833
18570THY    HA647844   8.642   8.943   2.958 -0.8505 -1.6889 -0.3291
18571THY      O47845   5.706   1.829   1.848 -0.2159  0.1043 -0.1980
18571THY     HO47846   5.640   1.790   1.789 -0.4085 -0.0268  0.3171
18571THY    CA147847   5.656   1.800   1.968  0.2192 -0.3518  0.0806
18571THY    CA247848   5.702   1.857   2.088 -0.5416  0.6089  0.2709
18571THY    CP147849   5.832   1.944   2.082 -0.7476  0.3273  0.5182
18571THY    HP147850   5.836   2.006   1.992 -1.4312  0.7869  1.2655
18571THY    CP247851   5.952   1.855   2.092  0.5635 -0.7253  0.3814
18571THY    HP247852   6.043   1.916   2.087 -0.1399  1.2992  1.6948
18571THY    HP347853   5.949   1.779   2.013 -1.0309 -0.5765  0.2631
18571THY    HP447854   5.947   1.800   2.187 -0.0163 -0.6277  0.5926
18571THY    CP347855   5.837   2.054   2.185 -0.3585  0.1578 -0.5573
18571THY    HP547856   5.748   2.118   2.189  0.5051 -1.2623  0.8054
18571THY    HP647857   5.919   2.125   2.172 -2.3288  3.6505  2.7250
18571THY    HP747858   5.861   2.010   2.283 -1.5446 -0.1205 -1.8801
18571THY    CA347859   5.648   1.812   2.210  0.3088 -0.3782 -0.3706
18571THY    HA347860   5.690   1.855   2.301  0.3968 -1.6914  2.6071
18571THY    CA447861   5.538   1.722   2.203  0.2246  0.0492  0.2434
18571THY    HA447862   5.489   1.683   2.292  1.7863  0.7032 -0.2750
18571THY    CA547863   5.483   1.682   2.082 -0.4149  0.2855 -0.4659
18571THY    CM147864   5.395   1.563   2.084  0.3251  0.2654 -0.2881
18571THY    HM147865   5.338   1.562   1.990  2.4467 -1.1306  0.8728
18571THY    HM247866   5.318   1.575   2.161  2.2593  2.0992  1.1363
18571THY    HM347867   5.450   1.469   2.097 -0.0434  0.4344 -0.4796
18571THY    CA647868   5.548   1.714   1.965 -0.3535  0.4054  0.7097
18571THY    HA647869   5.505   1.680   1.872 -0.0796 -0.3963  2.4193
18572THY      O47870   8.174   5.325   1.679  0.5839  0.1556 -0.2614
18572THY     HO47871   8.213   5.251   1.630 -1.8046 -0.7827 -0.9911
18572THY    CA147872   8.063   5.282   1.750  0.4069  0.5649 -0.6815
18572THY    CA247873   7.973   5.372   1.818  0.2772  0.2076  1.1689
18572THY    CP147874   7.991   5.521   1.816 -0.5257  0.0397 -1.0517
18572THY    HP147875   8.082   5.549   1.761  0.0933  0.9090 -1.3258
18572THY    CP247876   8.035   5.574   1.954 -0.2819 -0.3735 -0.0135
18572THY    HP247877   8.053   5.682   1.951  0.7440  1.0626 -0.1197
18572THY    HP347878   8.124   5.526   1.995 -1.9349  1.2440 -1.8748
18572THY    HP447879   7.957   5.546   2.026  1.1167  1.2803  0.1806
18572THY    CP347880   7.874   5.600   1.757 -0.6406 -0.2276  0.5025
18572THY    HP547881   7.902   5.691   1.703 -1.1321  1.1942  1.5209
18572THY    HP647882   7.796   5.616   1.832 -0.3822  0.2667 -0.4662
18572THY    HP747883   7.832   5.542   1.673  0.7872 -2.3693  2.4005
18572THY    CA347884   7.875   5.319   1.910 -0.4406  0.1274 -0.5116
18572THY    HA347885   7.808   5.386   1.963 -0.5451 -0.3127 -0.2606
18572THY    CA447886   7.857   5.178   1.909  0.1092 -0.1528 -0.1189
18572THY    HA447887   7.774   5.140   1.967  1.5039  1.7556 -0.4249
18572THY    CA547888   7.940   5.095   1.835 -0.1008 -0.2721  0.2491
18572THY    CM147889   7.932   4.942   1.844 -0.1701  0.3156 -0.1550
18572THY    HM147890   8.008   4.892   1.784 -1.0946  1.1804 -2.7788
18572THY    HM247891   7.834   4.903   1.814 -0.6675 -1.3072  2.1200
18572THY    HM347892   7.958   4.913   1.947  0.8776 -0.0703 -0.6324
18572THY    CA647893   8.034   5.148   1.754 -0.1243  0.1559 -0.3099
18572THY    HA647894   8.091   5.085   1.686  1.0550 -0.2461  1.1454
18573THY      O47895   2.440   6.020   5.561 -0.4221 -0.5236 -0.3259
18573THY     HO47896   2.530   5.989   5.544 -0.5250  0.2539 -1.0808
18573THY    CA147897   2.365   5.918   5.513 -1.2095  0.5680  0.2031
18573THY    CA247898   2.235   5.933   5.469  0.1030  0.3869 -0.1764
18573THY    CP147899   2.160   6.065   5.479  0.4057  0.5218  0.5289
18573THY    HP147900   2.227   6.148   5.504 -0.2733  0.9623  0.9496
18573THY    CP247901   2.046   6.058   5.585 -0.0132 -0.2930 -0.4842
18573THY    HP247902   1.974   5.979   5.562  2.2405  0.5002 -2.9114
18573THY    HP347903   2.009   6.161   5.594 -1.7683  1.2931 -1.1842
18573THY    HP447904   2.093   6.025   5.678  3.1481 -1.1994  1.0605
18573THY    CP347905   2.102   6.110   5.348 -0.0244 -0.1824  0.5904
18573THY    HP547906   2.181   6.127   5.273 -0.2687 -0.4237  0.6616
18573THY    HP647907   2.042   6.202   5.345  1.4268 -2.4619  1.5576
18573THY    HP747908   2.041   6.028   5.310 -1.9691 -2.4953  2.9351
18573THY    CA347909   2.170   5.820   5.419  0.0938 -0.7205 -0.5971
18573THY    HA347910   2.069   5.835   5.384 -0.3881  1.0119  0.5012
18573THY    CA447911   2.236   5.698   5.404 -0.5709 -0.7909 -0.2482
18573THY    HA447912   2.191   5.606   5.368  0.9515 -0.4218 -1.1700
18573THY    CA547913   2.363   5.681   5.455 -0.4076  0.2393  0.5041
18573THY    CM147914   2.428   5.544   5.438  0.7575 -0.2111  1.0337
18573THY    HM147915   2.458   5.517   5.336  0.4259  0.1473 -0.8621
18573THY    HM247916   2.353   5.471   5.473 -0.6468  0.1264  2.5796
18573THY    HM347917   2.516   5.525   5.499  0.8088 -0.8936 -1.2877
18573THY    CA647918   2.428   5.787   5.514 -0.4200 -0.6304  0.4050
18573THY    HA647919   2.531   5.782   5.549 -0.7924  1.0187  2.6145
18574THY      O47920   7.252   6.386   3.843  0.1036  0.0452  0.2679
18574THY     HO47921   7.344   6.408   3.866  1.5725 -2.6359 -2.3172
18574THY    CA147922   7.221   6.432   3.718 -0.8949  0.1197 -0.1894
18574THY    CA247923   7.089   6.432   3.659 -0.5041 -0.2879 -0.7694
18574THY    CP147924   6.973   6.380   3.733 -0.5611 -0.3486  0.2227
18574THY    HP147925   7.007   6.313   3.813 -2.9773  1.1740  0.6843
18574THY    CP247926   6.865   6.302   3.654  0.5552 -0.4225  0.2591
18574THY    HP247927   6.777   6.275   3.713  1.1807  0.1944 -0.5055
18574THY    HP347928   6.908   6.207   3.619 -0.9133  0.4552 -0.7852
18574THY    HP447929   6.830   6.353   3.564 -2.2602 -0.0267 -0.8096
18574THY    CP347930   6.882   6.498   3.794 -0.0747 -0.3275 -0.2174
18574THY    HP547931   6.941   6.556   3.867 -0.7425  1.3305 -1.5453
18574THY    HP647932   6.805   6.453   3.857  0.7163  2.0871  1.6023
18574THY    HP747933   6.846   6.568   3.717  1.9727 -1.1196  0.0510
18574THY    CA347934   7.076   6.491   3.530 -0.0433 -0.3547  1.3842
18574THY    HA347935   6.976   6.495   3.488  0.0713 -0.7801  0.1220
18574THY    CA447936   7.186   6.543   3.462  0.2118 -0.0219 -0.5645
18574THY    HA447937   7.176   6.591   3.365  0.8849  1.7863  3.5949
18574THY    CA547938   7.304   6.541   3.526 -0.0349  0.3241  0.3403
18574THY    CM147939   7.432   6.589   3.453 -1.2768 -0.3845  0.0289
18574THY    HM147940   7.429   6.697   3.468 -1.7960  1.7505 -0.2408
18574THY    HM247941   7.430   6.569   3.345 -0.2268 -1.0194  2.8384
18574THY    HM347942   7.518   6.540   3.501 -1.7042 -0.8058 -1.1779
18574THY    CA647943   7.322   6.490   3.651 -0.2220  0.0151 -0.2244
18574THY    HA647944   7.418   6.495   3.702 -2.2285  4.2435 -0.5534
18575THY      O47945   5.091   2.071   6.104  1.0290  0.4573 -0.2488
18575THY     HO47946   5.171   2.016   6.111  2.7423 -0.1957  1.9984
18575THY    CA147947   5.005   2.017   6.193  0.1013 -0.3578 -0.0919
18575THY    CA247948   4.869   2.055   6.204 -0.2099 -0.0149 -0.3918
18575THY    CP147949   4.810   2.148   6.103 -0.6397 -0.0754 -0.3378
18575THY    HP147950   4.888   2.171   6.029  0.7739  0.8005 -2.1310
18575THY    CP247951   4.782   2.279   6.170 -0.2602 -0.4499 -0.1999
18575THY    HP247952   4.875   2.310   6.219 -0.5954  1.3911 -1.9238
18575THY    HP347953   4.704   2.278   6.247  0.4919  0.3204 -0.7392
18575THY    HP447954   4.750   2.351   6.094  0.3644 -1.0743 -0.5634
18575THY    CP347955   4.690   2.093   6.022  0.7457 -0.1174 -0.3677
18575THY    HP547956   4.598   2.102   6.080  0.8819  0.1768 -0.8650
18575THY    HP647957   4.702   1.986   6.001  3.1228  2.3447 -0.6893
18575THY    HP747958   4.683   2.159   5.934 -2.5740 -0.8671 -1.5455
18575THY    CA347959   4.781   1.975   6.275  0.2428 -0.0374 -0.1737
18575THY    HA347960   4.674   1.995   6.272  0.4952 -1.5796  1.1782
18575THY    CA447961   4.832   1.872   6.352  0.2396  0.0370  0.0247
18575THY    HA447962   4.758   1.817   6.410 -0.4191  1.1456  1.9712
18575THY    CA547963   4.968   1.842   6.345 -0.5757  0.3455  0.4393
18575THY    CM147964   5.030   1.733   6.413 -0.9916 -0.6013 -0.0004
18575THY    HM147965   5.112   1.767   6.477 -0.0132 -0.5480 -2.2351
18575THY    HM247966   5.070   1.667   6.334  0.7872  1.3675 -1.4217
18575THY    HM347967   4.961   1.675   6.475  0.2515  0.0680 -0.8239
18575THY    CA647968   5.057   1.913   6.267 -0.3321  0.6297  0.5382
18575THY    HA647969   5.164   1.895   6.260 -0.3812  0.7558  0.1907
18576THY      O47970   0.474   1.695   4.193 -0.1983 -0.2862 -0.3403
18576THY     HO47971   0.550   1.681   4.252 -0.0349 -0.5895 -0.7379
18576THY    CA147972   0.491   1.813   4.131  0.2660  0.4397  0.2801
18576THY    CA247973   0.404   1.865   4.028 -0.3800 -0.2864 -0.3030
18576THY    CP147974   0.274   1.791   4.001 -0.1454  0.0571 -0.5798
18576THY    HP147975   0.261   1.718   4.081  1.0928 -0.9107 -1.9157
18576THY    CP247976   0.289   1.715   3.872  0.0862 -0.8857 -0.3269
18576THY    HP247977   0.384   1.660   3.880  1.0955  0.5247  1.4998
18576THY    HP347978   0.295   1.790   3.792 -0.5493  0.3989  1.1605
18576THY    HP447979   0.205   1.648   3.851 -1.3117 -0.8591  1.3508
18576THY    CP347980   0.151   1.889   4.002 -0.6504 -0.1108 -0.2105
18576THY    HP547981   0.056   1.835   4.009 -1.5144  3.0690  1.4935
18576THY    HP647982   0.144   1.940   3.905  0.4180 -0.0221  0.1360
18576THY    HP747983   0.154   1.966   4.080 -1.0254 -0.7644  0.4760
18576THY    CA347984   0.446   1.980   3.961 -0.8803 -0.4403  0.4048
18576THY    HA347985   0.396   2.021   3.873  0.1331 -0.5808  1.3607
18576THY    CA447986   0.564   2.051   4.002  0.0240  0.5004 -0.0578
18576THY    HA447987   0.585   2.145   3.952 -1.7460 -1.2720 -0.5314
18576THY    CA547988   0.639   2.006   4.113  0.0212 -0.9937  0.6797
18576THY    CM147989   0.748   2.095   4.157  0.3364 -0.1004 -0.2682
18576THY    HM147990   0.795   2.154   4.078 -0.8428  0.6330  1.7682
18576THY    HM247991   0.826   2.038   4.209  1.2864  0.0208  1.1066
18576THY    HM347992   0.714   2.172   4.227  2.3228 -0.3868  0.9053
18576THY    CA647993   0.602   1.882   4.178 -0.5300  0.0144 -0.0237
18576THY    HA647994   0.650   1.854   4.271 -1.6180  0.6505  0.1649
18577THY      O47995   4.067   1.668   5.867  0.0073 -0.5351 -1.0337
18577THY     HO47996   4.008   1.595   5.842  2.2037 -0.2273 -3.0724
18577THY    CA147997   4.064   1.659   6.006 -0.0437 -0.7911 -0.3195
18577THY    CA247998   4.178   1.694   6.081  0.7860  0.6891 -0.0353
18577THY    CP147999   4.313   1.720   6.016 -0.0408 -0.8030 -0.6063
18577THY    HP148000   4.291   1.741   5.911  1.5796 -0.5165  3.5941
18577THY    CP248001   4.393   1.589   6.019 -0.1987  0.6364 -0.0895
18577THY    HP248002   4.407   1.555   6.123 -0.7707  0.9327  0.5473
18577THY    HP348003   4.486   1.606   5.966  0.1697  1.8305  1.9718
18577THY    HP448004   4.340   1.510   5.964 -0.8592 -3.0966  2.7103
18577THY    CP348005   4.385   1.855   6.063  1.1487  0.5555  0.4337
18577THY    HP548006   4.312   1.935   6.051  1.1227  1.3599  0.5332
18577THY    HP648007   4.464   1.879   5.991  2.6598  1.6913 -0.8743
18577THY    HP748008   4.422   1.841   6.165 -0.4057  1.0356 -0.4311
18577THY    CA348009   4.162   1.688   6.216  0.2550 -0.5495  0.1103
18577THY    HA348010   4.249   1.707   6.279 -0.1572  0.7834 -2.0559
18577THY    CA448011   4.040   1.651   6.271  0.1021 -0.1591  0.2282
18577THY    HA448012   4.036   1.631   6.378  1.1187 -0.5225 -2.2303
18577THY    CA548013   3.929   1.631   6.193 -0.0720  0.9525  0.9608
18577THY    CM148014   3.795   1.597   6.252  0.4424 -0.0993 -0.1199
18577THY    HM148015   3.781   1.657   6.343 -1.2015  0.7210 -1.6534
18577THY    HM248016   3.795   1.492   6.283 -2.9083  3.7032  0.7612
18577THY    HM348017   3.718   1.627   6.181 -0.3273  1.2859  1.3501
18577THY    CA648018   3.935   1.647   6.055 -0.3646 -0.4727 -0.0979
18577THY    HA648019   3.849   1.641   5.989  0.6637 -2.2304  2.5532
18578THY      O48020   6.803   6.370   6.502 -0.1106  0.1009 -0.7697
18578THY     HO48021   6.884   6.328   6.467 -0.2182 -2.1239  0.7202
18578THY    CA148022   6.704   6.274   6.522  0.0741  0.2128  0.2260
18578THY    CA248023   6.571   6.309   6.540 -0.3116  0.1593 -0.2526
18578THY    CP148024   6.543   6.461   6.530  0.6378 -0.0615  0.1395
18578THY    HP148025   6.611   6.508   6.458 -0.7709 -2.3246 -1.1219
18578THY    CP248026   6.554   6.523   6.665 -0.7268 -0.0064 -0.4387
18578THY    HP248027   6.662   6.523   6.680 -0.4344 -1.8042  0.8664
18578THY    HP348028   6.512   6.467   6.750 -2.1370  0.5542  1.3734
18578THY    HP448029   6.517   6.625   6.655  0.5125 -0.6703 -0.0417
18578THY    CP348030   6.402   6.488   6.470  0.3077 -1.1721  0.4198
18578THY    HP548031   6.388   6.595   6.451  0.7055 -0.4209  0.6168
18578THY    HP648032   6.331   6.473   6.552  0.4272 -1.3878 -1.4660
18578THY    HP748033   6.377   6.416   6.392 -0.6535 -1.7079  1.3076
18578THY    CA348034   6.469   6.212   6.532  0.8795  0.2450 -0.3375
18578THY    HA348035   6.363   6.236   6.534  1.6178  1.1142  3.5094
18578THY    CA448036   6.507   6.079   6.522  0.6548  0.1885  0.4516
18578THY    HA448037   6.425   6.008   6.515  0.5349  2.2513  0.3192
18578THY    CA548038   6.638   6.037   6.505  0.2311  1.0508  0.2382
18578THY    CM148039   6.669   5.896   6.466  0.9753 -0.1176 -0.4646
18578THY    HM148040   6.588   5.824   6.455 -0.2939  2.0607  0.5190
18578THY    HM248041   6.718   5.834   6.542  1.8297 -1.2954 -1.2702
18578THY    HM348042   6.734   5.893   6.378  1.6863  0.3088  1.0244
18578THY    CA648043   6.739   6.139   6.497 -0.5355  0.0556 -0.6535
18578THY    HA648044   6.835   6.112   6.454 -0.2277  0.6349 -0.4809
18579THY      O48045   5.474   1.639   3.198  0.0021  0.3977  1.0537
18579THY     HO48046   5.441   1.571   3.136 -0.0112  0.3055  1.1450
18579THY    CA148047   5.588   1.587   3.240  0.1529  0.2419  0.3780
18579THY    CA248048   5.638   1.628   3.366  0.3117 -0.4459  0.1914
18579THY    CP148049   5.552   1.725   3.453 -0.1629  0.4099  0.2530
18579THY    HP148050   5.501   1.797   3.388  2.7137 -0.8787  1.2844
18579THY    CP248051   5.628   1.827   3.543  0.1172  0.0261 -0.1556
18579THY    HP248052   5.695   1.795   3.623 -0.7248  0.4649 -0.8685
18579THY    HP348053   5.553   1.880   3.603 -0.5526  0.2717 -1.3399
18579THY    HP448054   5.673   1.906   3.482 -0.3630  0.2089  0.2698
18579THY    CP348055   5.459   1.642   3.542 -0.1456  0.1625  0.4129
18579THY    HP548056   5.359   1.636   3.498 -0.0198 -0.1996  0.9190
18579THY    HP648057   5.457   1.693   3.639  3.1703 -0.4336  1.9383
18579THY    HP748058   5.482   1.534   3.546 -2.6705  2.7944 -0.1521
18579THY    CA348059   5.757   1.573   3.413 -0.6601  0.4722  0.2431
18579THY    HA348060   5.791   1.600   3.512 -2.3186  0.9846  0.5775
18579THY    CA448061   5.831   1.495   3.336  0.0301  0.4116  0.1575
18579THY    HA448062   5.930   1.458   3.359 -0.9390 -0.3162 -3.2012
18579THY    CA548063   5.789   1.464   3.204 -0.3638  0.1656  0.3999
18579THY    CM148064   5.879   1.387   3.111  0.0421  0.1246 -0.2713
18579THY    HM148065   5.986   1.391   3.135  0.3643 -1.1047 -1.0856
18579THY    HM248066   5.867   1.430   3.011 -1.6099 -0.2012 -1.4071
18579THY    HM348067   5.851   1.283   3.095  2.5745 -0.0635 -0.9861
18579THY    CA648068   5.669   1.509   3.155  0.1247  0.3908  0.4114
18579THY    HA648069   5.644   1.486   3.052 -0.6009  1.0094 -1.9400
18580THY      O48070   6.783   7.878   5.819 -0.0363  0.7996  0.3877
18580THY     HO48071   6.857   7.921   5.864 -0.2485  0.5920  0.9953
18580THY    CA148072   6.664   7.928   5.882 -0.0691  0.0219  0.3761
18580THY    CA248073   6.538   7.938   5.820 -0.4931 -0.0953  0.1031
18580THY    CP148074   6.524   7.897   5.671  0.8204 -0.6797  0.2282
18580THY    HP148075   6.599   7.821   5.648 -0.0913  0.4949 -1.0916
18580THY    CP248076   6.533   8.027   5.584 -0.2183  0.1342  0.3697
18580THY    HP248077   6.515   8.000   5.479  0.5063  0.1041 -0.0442
18580THY    HP348078   6.637   8.061   5.594 -0.0318 -1.3849  0.3047
18580THY    HP448079   6.459   8.097   5.624 -1.4491 -1.2107 -0.1190
18580THY    CP348080   6.395   7.815   5.639 -0.7532  0.4788 -1.2061
18580THY    HP548081   6.396   7.793   5.532 -0.4872  0.5800 -1.7209
18580THY    HP648082   6.301   7.864   5.665 -1.5838 -0.6739 -2.1208
18580THY    HP748083   6.404   7.723   5.698 -1.4069 -0.2636 -1.7576
18580THY    CA348084   6.426   7.993   5.886  0.2554  0.1100  0.5571
18580THY    HA348085   6.332   8.018   5.838  0.5434  0.2419  2.0192
18580THY    CA448086   6.448   8.047   6.011 -0.3246 -0.0350 -0.8521
18580THY    HA448087   6.370   8.096   6.068  0.3761  0.9373 -0.8445
18580THY    CA548088   6.577   8.031   6.076  0.4100 -0.3261  0.2190
18580THY    CM148089   6.595   8.090   6.215  0.4662 -0.2586 -0.3647
18580THY    HM148090   6.521   8.051   6.286  1.6407 -0.0632 -2.3504
18580THY    HM248091   6.587   8.199   6.212  0.1137 -1.3905 -0.4088
18580THY    HM348092   6.685   8.053   6.266  0.2355  1.8488  1.7436
18580THY    CA648093   6.684   7.972   6.013  0.4607 -0.6322 -0.4842
18580THY    HA648094   6.778   7.969   6.067 -0.7116  1.4258 -2.4416
18581THY      O48095   3.749   7.035   3.479  0.4251 -0.9579  0.3167
18581THY     HO48096   3.693   7.016   3.402 -0.9893  0.1172 -0.0848
18581THY    CA148097   3.757   6.918   3.537 -0.2749 -0.4154 -0.0315
18581THY    CA248098   3.818   6.908   3.668  0.1717  0.0343 -0.2467
18581THY    CP148099   3.883   7.034   3.725  0.3853  0.5599  0.0727
18581THY    HP148100   3.906   7.108   3.647 -2.0949  0.1993  0.5277
18581THY    CP248101   4.012   7.009   3.802 -0.8936  0.4128  0.0106
18581THY    HP248102   4.050   7.109   3.822  2.2015 -1.7065 -0.6082
18581THY    HP348103   4.088   6.959   3.741 -0.7378  0.1138  0.6021
18581THY    HP448104   3.994   6.947   3.891  0.5364  0.2194 -0.7145
18581THY    CP348105   3.778   7.097   3.810  0.5704  0.6132  1.0041
18581THY    HP548106   3.798   7.190   3.864  1.5009  1.9308  0.0827
18581THY    HP648107   3.733   7.024   3.878 -1.8078 -3.7003 -1.9927
18581THY    HP748108   3.690   7.124   3.751  0.9875 -0.8461 -0.6453
18581THY    CA348109   3.832   6.774   3.722 -0.7090  0.0769 -0.4363
18581THY    HA348110   3.882   6.768   3.818 -0.7482  0.3706  2.5553
18581THY    CA448111   3.766   6.665   3.659  0.1568  0.3897 -1.1732
18581THY    HA448112   3.766   6.564   3.699  0.0885  1.9218 -0.5893
18581THY    CA548113   3.705   6.689   3.539 -0.8843 -0.0454 -0.5003
18581THY    CM148114   3.649   6.569   3.475  0.3120  0.4028 -0.5019
18581THY    HM148115   3.550   6.553   3.519 -0.2838 -1.0998 -1.1862
18581THY    HM248116   3.709   6.478   3.490  0.5815 -1.9724 -0.7848
18581THY    HM348117   3.635   6.587   3.367 -0.9786  0.6374  0.0024
18581THY    CA648118   3.700   6.812   3.479 -0.0895  0.2157 -0.2143
18581THY    HA648119   3.656   6.813   3.379 -0.3471  0.2945 -1.6613
18582THY      O48120   2.601   0.538   1.774 -0.7149 -0.1527 -0.1730
18582THY     HO48121   2.652   0.618   1.793 -0.2137  0.3308 -0.5986
18582THY    CA148122   2.667   0.438   1.845 -0.0406  0.7746  0.8222
18582THY    CA248123   2.693   0.313   1.782 -0.3588  0.2186 -0.2937
18582THY    CP148124   2.645   0.289   1.634  0.6955 -0.5726  0.3428
18582THY    HP148125   2.555   0.348   1.618  0.1557 -0.3348 -0.3989
18582THY    CP248126   2.610   0.137   1.615  0.2164  0.8598  0.5066
18582THY    HP248127   2.696   0.073   1.639 -0.0719  2.9302  0.8173
18582THY    HP348128   2.576   0.111   1.514  0.8851  0.2527  1.9110
18582THY    HP448129   2.528   0.102   1.679 -1.4683 -0.6178  1.5702
18582THY    CP348130   2.756   0.337   1.538  0.4575  0.7175  0.3221
18582THY    HP548131   2.719   0.328   1.435  0.2833  0.8283 -0.2715
18582THY    HP648132   2.849   0.279   1.549  0.9054 -1.3276  0.5629
18582THY    HP748133   2.784   0.441   1.558  1.2155  0.6391  0.1414
18582THY    CA348134   2.772   0.218   1.852 -0.1628  0.3374  0.2463
18582THY    HA348135   2.807   0.130   1.801  1.8506 -0.3900  1.4051
18582THY    CA448136   2.812   0.245   1.986  0.1234  0.3762 -0.5275
18582THY    HA448137   2.856   0.162   2.041  0.1526 -0.4955 -1.0928
18582THY    CA548138   2.775   0.365   2.048 -0.6966 -0.5769  0.2786
18582THY    CM148139   2.821   0.387   2.186  0.8107  0.3028 -0.3120
18582THY    HM148140   2.911   0.328   2.205  0.4848  0.6778 -0.6969
18582THY    HM248141   2.737   0.358   2.250 -0.0968 -0.8758 -0.3705
18582THY    HM348142   2.843   0.492   2.207  0.0717 -1.8363  0.3263
18582THY    CA648143   2.714   0.461   1.977 -0.4258  0.0632  0.0871
18582THY    HA648144   2.702   0.556   2.029  0.6751 -0.6057  0.6155
18583THY      O48145   6.549   2.928   5.241  0.2216  0.1609 -0.0217
18583THY     HO48146   6.602   2.852   5.213  0.5682 -2.8043  1.1861
18583THY    CA148147   6.470   2.954   5.137  0.4164 -0.3915  0.6458
18583THY    CA248148   6.474   3.079   5.075 -0.0712  0.7478 -0.4155
18583THY    CP148149   6.561   3.186   5.141  0.1067 -0.3613 -0.1039
18583THY    HP148150   6.632   3.143   5.213  0.3906  1.9506  3.7652
18583THY    CP248151   6.471   3.287   5.216  0.3659  0.0707 -0.7421
18583THY    HP248152   6.413   3.246   5.299  0.4037  1.9520  2.5787
18583THY    HP348153   6.401   3.342   5.151 -1.9374  2.0053 -1.2561
18583THY    HP448154   6.539   3.358   5.265 -0.0425 -1.7937  1.0536
18583THY    CP348155   6.640   3.266   5.035 -0.3033  0.1617  0.1678
18583THY    HP548156   6.734   3.292   5.084 -0.3159  1.2519 -1.6519
18583THY    HP648157   6.593   3.358   4.999 -1.1707 -0.3865 -0.4696
18583THY    HP748158   6.661   3.212   4.942 -1.2715  0.0930 -0.1102
18583THY    CA348159   6.395   3.107   4.963 -0.2406 -0.3227  0.4112
18583THY    HA348160   6.385   3.210   4.929 -0.4186  0.2560  0.5906
18583THY    CA448161   6.314   3.004   4.918 -0.3956 -0.2708  0.5820
18583THY    HA448162   6.242   3.012   4.837 -2.1575  0.9291 -1.8806
18583THY    CA548163   6.309   2.879   4.985  0.5930  0.3391 -0.2170
18583THY    CM148164   6.234   2.763   4.912  0.4674 -0.4787 -0.2025
18583THY    HM148165   6.238   2.771   4.803 -0.8013 -0.4574  1.4211
18583THY    HM248166   6.128   2.755   4.941  0.0611 -1.8269  0.0352
18583THY    HM348167   6.283   2.669   4.938 -0.4256  1.2286 -0.2473
18583THY    CA648168   6.379   2.856   5.097  0.0718  0.1665  0.7217
18583THY    HA648169   6.371   2.755   5.138 -0.1348 -0.5440  0.4449
18584THY      O48170   1.121   0.769   3.956  0.6014 -0.5624  0.3185
18584THY     HO48171   1.121   0.702   3.886  2.4779 -0.2882 -0.0041
18584THY    CA148172   1.006   0.749   4.026  0.0209  0.7687  0.0931
18584THY    CA248173   0.986   0.811   4.151 -0.5235  0.2777  0.8497
18584THY    CP148174   1.101   0.908   4.200 -0.2083 -0.0638 -0.3650
18584THY    HP148175   1.161   0.961   4.125 -0.9419  0.7291  1.7008
18584THY    CP248176   1.203   0.827   4.290 -0.4808 -0.0582 -0.8659
18584THY    HP248177   1.298   0.875   4.318 -1.6597  0.3041  1.3546
18584THY    HP348178   1.242   0.743   4.229  0.1343  2.0277 -2.1673
18584THY    HP448179   1.150   0.767   4.365 -1.4899 -1.1778 -1.4161
18584THY    CP348180   1.050   1.016   4.290  0.1071 -0.0882 -0.5523
18584THY    HP548181   1.022   0.982   4.390  0.6354 -0.0732 -0.9656
18584THY    HP648182   0.976   1.079   4.240  0.8617  0.8271  1.1270
18584THY    HP748183   1.129   1.089   4.312  0.2513 -0.6007 -0.5439
18584THY    CA348184   0.865   0.785   4.221  0.0584 -0.4761 -0.1468
18584THY    HA348185   0.852   0.834   4.317  1.6879  0.7256 -1.9077
18584THY    CA448186   0.776   0.688   4.166  0.1134  0.1955  0.1556
18584THY    HA448187   0.689   0.658   4.224  0.6365  0.5621 -0.7032
18584THY    CA548188   0.793   0.642   4.034 -0.3686  0.3676 -0.5445
18584THY    CM148189   0.694   0.543   3.978  0.2295  0.2147 -0.2653
18584THY    HM148190   0.704   0.532   3.869 -0.5922 -0.1444  2.0113
18584THY    HM248191   0.593   0.575   4.007 -0.6432 -1.3315 -1.4880
18584THY    HM348192   0.701   0.444   4.023 -1.0560  0.0001 -0.4802
18584THY    CA648193   0.908   0.672   3.961  0.1612 -0.5542 -0.2170
18584THY    HA648194   0.936   0.617   3.872 -1.1906 -0.4078 -1.2002
18585THY      O48195   1.762   8.600   3.351 -0.2020  0.3421 -0.1564
18585THY     HO48196   1.834   8.570   3.409 -0.1865  1.7949  2.4245
18585THY    CA148197   1.659   8.562   3.431 -0.0831  0.2455  0.1812
18585THY    CA248198   1.548   8.517   3.368  0.1885 -0.1073  0.3712
18585THY    CP148199   1.544   8.495   3.214 -0.5555  0.4434 -0.0377
18585THY    HP148200   1.622   8.554   3.165 -0.3038  2.1102  1.0892
18585THY    CP248201   1.414   8.555   3.147  0.6257 -0.1490  0.7020
18585THY    HP248202   1.318   8.536   3.197  0.2175 -1.3867 -0.6954
18585THY    HP348203   1.406   8.518   3.044 -1.0818  0.0495  0.4487
18585THY    HP448204   1.414   8.665   3.138 -2.0380 -1.8030  0.6441
18585THY    CP348205   1.584   8.357   3.170  0.4167 -0.7631  0.5544
18585THY    HP548206   1.503   8.283   3.178  0.3856 -0.3933  0.6265
18585THY    HP648207   1.660   8.303   3.228 -1.4923 -2.1365 -4.1857
18585THY    HP748208   1.613   8.364   3.065 -1.3495 -1.2526  0.9101
18585THY    CA348209   1.447   8.471   3.451 -0.3101 -0.6274  1.2220
18585THY    HA348210   1.353   8.439   3.408  0.4534 -0.1922 -1.9046
18585THY    CA448211   1.457   8.489   3.593 -0.3873  0.2239 -0.0745
18585THY    HA448212   1.368   8.458   3.647 -1.6632 -2.3450 -1.2056
18585THY    CA548213   1.567   8.551   3.653  0.9843 -0.2360  0.4034
18585THY    CM148214   1.565   8.559   3.806  0.5728 -0.5643 -0.0641
18585THY    HM148215   1.520   8.467   3.845 -1.8660 -2.2333  0.3122
18585THY    HM248216   1.509   8.645   3.843  1.6740 -0.0097  0.4407
18585THY    HM348217   1.668   8.561   3.843  0.0065  1.4274 -2.2864
18585THY    CA648218   1.680   8.579   3.571  0.2465  0.5217  0.1769
18585THY    HA648219   1.765   8.634   3.611 -0.1347 -0.6872  1.7125
18586THY      O48220   1.645   7.145   3.152 -0.5771 -0.7415 -0.2911
18586THY     HO48221   1.712   7.215   3.164 -1.2422 -3.4225  0.9455
18586THY    CA148222   1.526   7.199   3.193  0.6198 -0.5087  0.0723
18586THY    CA248223   1.404   7.125   3.191  0.0785  0.8936  0.6383
18586THY    CP148224   1.400   6.986   3.131 -0.3767 -0.2057  0.0543
18586THY    HP148225   1.498   6.939   3.125 -0.0203  3.0831  0.1645
18586THY    CP248226   1.337   6.996   2.990 -0.2843  0.2628  0.0399
18586THY    HP248227   1.344   6.897   2.943 -1.9063 -0.8269  0.3981
18586THY    HP348228   1.400   7.056   2.923 -1.0527 -0.0247  0.5491
18586THY    HP448229   1.236   7.040   2.993 -0.6672  0.2847 -0.8177
18586THY    CP348230   1.301   6.889   3.210 -0.0087 -0.4938  0.5297
18586THY    HP548231   1.309   6.790   3.165 -1.2443  0.6683 -0.1306
18586THY    HP648232   1.201   6.927   3.186  0.9054 -0.7664  2.9610
18586THY    HP748233   1.317   6.887   3.319  2.6281 -0.8143  0.1822
18586THY    CA348234   1.284   7.186   3.230 -0.3486 -0.2570  0.1725
18586THY    HA348235   1.186   7.140   3.230 -1.4474 -0.2518  2.3427
18586THY    CA448236   1.295   7.314   3.275  0.1191  0.7517  0.2346
18586THY    HA448237   1.198   7.361   3.292 -0.6699 -1.4969 -0.4466
18586THY    CA548238   1.418   7.383   3.289  0.0455  0.6236  0.5422
18586THY    CM148239   1.424   7.528   3.331  0.2769 -0.1451  0.1444
18586THY    HM148240   1.483   7.587   3.260  1.1948  0.1275 -0.4286
18586THY    HM248241   1.466   7.540   3.432 -3.3903  1.7541 -1.5432
18586THY    HM348242   1.328   7.580   3.339 -1.0503 -1.3140 -2.0136
18586THY    CA648243   1.538   7.325   3.248  0.0807 -0.5008 -0.7239
18586THY    HA648244   1.635   7.374   3.253 -0.4563  1.5787  0.2636
18587THY      O48245   2.318   5.052   2.317  0.1540 -0.1766 -0.7534
18587THY     HO48246   2.238   5.044   2.263 -1.6527  2.0664  0.6863
18587THY    CA148247   2.345   5.184   2.317 -0.1630 -0.1027 -0.1556
18587THY    CA248248   2.457   5.229   2.386  0.0783 -0.0455 -1.0091
18587THY    CP148249   2.555   5.123   2.444  0.1527  0.8866  0.2032
18587THY    HP148250   2.528   5.028   2.397 -2.1657 -0.8795  1.6323
18587THY    CP248251   2.545   5.121   2.596 -0.4472 -1.0536 -0.1917
18587THY    HP248252   2.584   5.026   2.633  0.1887  0.6639  0.6848
18587THY    HP348253   2.447   5.126   2.643 -0.6986 -1.3101 -2.1647
18587THY    HP448254   2.601   5.207   2.636 -0.7870 -1.4308  0.2097
18587THY    CP348255   2.703   5.155   2.412  0.4598  0.3807  0.5681
18587THY    HP548256   2.721   5.190   2.310  0.1087 -0.5071 -1.6479
18587THY    HP648257   2.766   5.066   2.419  1.6967  1.0492  1.4730
18587THY    HP748258   2.746   5.224   2.485 -0.8009  0.5407  1.2253
18587THY    CA348259   2.471   5.361   2.406  0.1219  0.1079  0.6754
18587THY    HA348260   2.553   5.405   2.463 -0.3426 -0.0657  1.7947
18587THY    CA448261   2.378   5.449   2.343  0.2055 -0.8728  0.6985
18587THY    HA448262   2.391   5.556   2.360  1.2414 -3.4794  1.0538
18587THY    CA548263   2.268   5.407   2.275  0.3669 -0.6068  0.7970
18587THY    CM148264   2.184   5.499   2.202  0.3073 -0.7848 -0.0388
18587THY    HM148265   2.228   5.599   2.209 -0.1949 -0.6969  0.1796
18587THY    HM248266   2.099   5.518   2.267  1.1338  0.1372  0.5902
18587THY    HM348267   2.156   5.466   2.101  0.6819 -1.1312  0.6832
18587THY    CA648268   2.254   5.268   2.260 -0.5091  0.3541 -0.7244
18587THY    HA648269   2.170   5.223   2.208 -0.1634  0.0523 -1.0285
18588THY      O48270   2.560   9.104   6.106  0.0685 -0.5197 -0.0092
18588THY     HO48271   2.464   9.118   6.098  0.0916  0.8995  1.2140
18588THY    CA148272   2.580   8.986   6.151 -0.1476 -0.4084 -0.2585
18588THY    CA248273   2.692   8.954   6.220  0.1390 -0.0673  0.4575
18588THY    CP148274   2.798   9.067   6.249 -1.1957 -0.4572 -0.2454
18588THY    HP148275   2.804   9.140   6.168 -0.7358  0.8906  1.2714
18588THY    CP248276   2.946   9.022   6.254  0.0599 -0.8690 -0.2124
18588THY    HP248277   2.977   8.960   6.169  2.3987 -1.4757  1.6363
18588THY    HP348278   2.979   8.968   6.344  2.0907 -0.7136  1.1760
18588THY    HP448279   3.009   9.111   6.259 -0.1206 -1.1517 -0.0687
18588THY    CP348280   2.763   9.144   6.376 -0.3134 -0.0334  0.4572
18588THY    HP548281   2.665   9.192   6.365  0.4699 -0.5748  2.0100
18588THY    HP648282   2.842   9.220   6.380  0.1888 -0.3054 -0.0395
18588THY    HP748283   2.773   9.088   6.469  0.5692 -0.6057 -0.3740
18588THY    CA348284   2.717   8.824   6.265 -0.0287 -0.0304 -0.2031
18588THY    HA348285   2.806   8.812   6.326  0.9909 -1.4217 -0.0143
18588THY    CA448286   2.626   8.727   6.240  0.0112  0.2515  0.3072
18588THY    HA448287   2.640   8.631   6.288  1.0927 -3.1122 -1.3680
18588THY    CA548288   2.516   8.753   6.151  0.0797 -0.3120  0.4278
18588THY    CM148289   2.424   8.642   6.117 -0.2900 -0.1404  0.0254
18588THY    HM148290   2.439   8.623   6.010 -0.4462 -0.3138  0.8037
18588THY    HM248291   2.319   8.671   6.127  0.0855  0.9610  1.0863
18588THY    HM348292   2.455   8.561   6.183 -0.3046 -1.6952 -1.3118
18588THY    CA648293   2.490   8.886   6.119 -0.5391  0.7489 -0.2258
18588THY    HA648294   2.401   8.910   6.062  0.6811 -2.1924 -2.1861
18589THY      O48295   1.719   7.700   2.655  0.5419 -0.3750  0.1560
18589THY     HO48296   1.747   7.788   2.684 -0.1397  1.6617 -0.2458
18589THY    CA148297   1.594   7.722   2.600 -0.0196 -0.2976  0.5004
18589THY    CA248298   1.512   7.618   2.558 -0.5221 -0.8217 -0.5270
18589THY    CP148299   1.561   7.472   2.572 -1.0798  0.2435  0.1164
18589THY    HP148300   1.670   7.471   2.566 -1.0796 -0.4716 -2.5488
18589THY    CP248301   1.513   7.373   2.460  0.5981  0.2176  0.0674
18589THY    HP248302   1.519   7.421   2.362  0.4810  0.4860  0.6333
18589THY    HP348303   1.409   7.343   2.479  0.1458 -1.6701  0.3110
18589THY    HP448304   1.576   7.285   2.442 -0.1740 -1.1437 -0.2342
18589THY    CP348305   1.517   7.424   2.713  0.1084  0.0319 -0.6884
18589THY    HP548306   1.535   7.318   2.730  0.2425 -0.7395 -0.7959
18589THY    HP648307   1.407   7.427   2.713  0.0547  3.0263 -0.0648
18589THY    HP748308   1.566   7.481   2.792 -2.1434  1.5234 -0.7017
18589THY    CA348309   1.388   7.651   2.497 -0.9827 -0.7134  0.2167
18589THY    HA348310   1.320   7.575   2.460  0.5639 -0.3948 -1.3874
18589THY    CA448311   1.337   7.777   2.514  0.1598  0.0027  0.3498
18589THY    HA448312   1.238   7.798   2.476  0.9187 -2.5938 -0.2927
18589THY    CA548313   1.414   7.878   2.562  0.1280 -0.7381  0.4301
18589THY    CM148314   1.361   8.013   2.565  0.1987 -0.0395 -0.4009
18589THY    HM148315   1.371   8.062   2.467  0.4577  0.5297  0.7080
18589THY    HM248316   1.419   8.083   2.626  0.0691 -0.2739 -0.0851
18589THY    HM348317   1.260   8.017   2.607  0.0722 -0.0124 -2.5961
18589THY    CA648318   1.549   7.857   2.592 -0.9833  0.2284  0.6142
18589THY    HA648319   1.612   7.943   2.612  0.7736  1.6292 -0.9153
18590THY      O48320   4.383   0.569   6.450  0.2250 -0.7435 -0.3683
18590THY     HO48321   4.436   0.496   6.488  1.2454  0.7764  1.0953
18590THY    CA148322   4.265   0.571   6.510  0.1580 -0.1150 -0.3257
18590THY    CA248323   4.180   0.682   6.498 -0.3464  0.0711  1.1880
18590THY    CP148324   4.216   0.794   6.401 -0.3378 -0.4033 -0.9395
18590THY    HP148325   4.305   0.766   6.342 -0.1212 -1.3321  1.4798
18590THY    CP248326   4.259   0.923   6.469 -0.2536 -0.6675 -0.0620
18590THY    HP248327   4.366   0.922   6.490 -0.3908  0.4278  1.8309
18590THY    HP348328   4.194   0.949   6.554 -1.3674 -1.6823  0.6030
18590THY    HP448329   4.252   1.007   6.399 -0.4598 -1.4892 -0.7568
18590THY    CP348330   4.100   0.823   6.313  0.3384  1.1934  0.3343
18590THY    HP548331   4.018   0.869   6.371 -0.2630  0.6085  0.0115
18590THY    HP648332   4.068   0.739   6.250 -0.9303  0.5204  1.2820
18590THY    HP748333   4.126   0.883   6.225 -5.1821 -1.3295 -0.3707
18590THY    CA348334   4.062   0.691   6.572  0.9398  0.2682  0.1801
18590THY    HA348335   4.004   0.783   6.574  0.3786  0.2126 -0.1652
18590THY    CA448336   4.037   0.596   6.676  0.0101  0.1017 -0.1935
18590THY    HA448337   3.952   0.593   6.743  1.0432  1.4237 -1.6414
18590THY    CA548338   4.130   0.486   6.685  0.5913 -0.8433 -0.5079
18590THY    CM148339   4.096   0.388   6.788  0.1058 -0.1342 -0.4230
18590THY    HM148340   4.021   0.428   6.857  1.3698  0.2578  1.4231
18590THY    HM248341   4.174   0.331   6.841 -2.6403  2.4077 -2.1212
18590THY    HM348342   4.049   0.307   6.731 -0.4683  0.6699 -0.6664
18590THY    CA648343   4.245   0.476   6.611 -0.3016  0.3619 -0.4537
18590THY    HA648344   4.314   0.394   6.626 -0.0033  2.4485  0.1166
18591THY      O48345   6.122   6.704   3.228  0.7667  0.5454 -0.4053
18591THY     HO48346   6.096   6.699   3.321  0.0750  0.3762 -0.0801
18591THY    CA148347   6.013   6.752   3.169  0.4582 -0.5539  0.0681
18591THY    CA248348   5.977   6.705   3.038 -0.5867 -0.9646 -1.0758
18591THY    CP148349   6.086   6.640   2.948  0.0199 -0.1175  0.6425
18591THY    HP148350   6.179   6.692   2.973  1.7403 -0.4941 -2.0990
18591THY    CP248351   6.059   6.664   2.802 -0.4334  0.0650  0.6342
18591THY    HP248352   6.132   6.610   2.741 -0.7455  0.0995  0.1612
18591THY    HP348353   6.055   6.771   2.779  1.8435  0.1147  0.7720
18591THY    HP448354   5.965   6.618   2.769  0.9761  0.0799 -2.5188
18591THY    CP348355   6.102   6.495   2.986 -0.7342 -0.0359  1.0808
18591THY    HP548356   6.002   6.450   2.996 -1.7743  2.6480  3.6943
18591THY    HP648357   6.172   6.482   3.070 -0.7162  0.4871  3.9549
18591THY    HP748358   6.151   6.439   2.905  2.1370  1.6994  0.8789
18591THY    CA348359   5.843   6.729   3.000  0.0179 -0.2616  0.9181
18591THY    HA348360   5.791   6.700   2.910 -2.2493  1.2918 -0.1088
18591THY    CA448361   5.755   6.805   3.084  0.1528 -0.3459  0.1107
18591THY    HA448362   5.652   6.826   3.057 -0.8696  1.6612 -1.8757
18591THY    CA548363   5.798   6.865   3.201  0.4285  0.2958  0.4637
18591THY    CM148364   5.696   6.941   3.291 -0.2187  0.0262 -0.6247
18591THY    HM148365   5.603   6.887   3.313 -0.3316  1.2062  0.0042
18591THY    HM248366   5.668   7.031   3.236  1.9893 -0.6375 -0.2806
18591THY    HM348367   5.735   6.982   3.385 -1.7293  0.7874 -0.8729
18591THY    CA648368   5.925   6.830   3.243  0.1533 -0.3003 -0.0757
18591THY    HA648369   5.953   6.861   3.343  2.5958 -0.6836 -0.8030
18592THY      O48370   7.538   8.372   3.014  0.3180  0.1293 -0.0985
18592THY     HO48371   7.446   8.397   2.995  0.7168 -0.7268  0.7488
18592THY    CA148372   7.556   8.361   3.149  0.2503  0.1159 -0.7953
18592THY    CA248373   7.680   8.325   3.206  0.1037 -0.0192  0.1320
18592THY    CP148374   7.789   8.268   3.118 -0.0697 -0.5395  0.4936
18592THY    HP148375   7.788   8.292   3.011  1.0866 -1.0949 -1.6926
18592THY    CP248376   7.800   8.106   3.138  0.0986  0.5425 -0.1452
18592THY    HP248377   7.882   8.074   3.072 -0.5603  0.2976 -1.3532
18592THY    HP348378   7.706   8.059   3.108  0.9754 -1.0677 -0.9367
18592THY    HP448379   7.823   8.065   3.237  0.4234  0.4895 -0.0955
18592THY    CP348380   7.930   8.316   3.169 -0.3471  0.2556  0.0196
18592THY    HP548381   7.924   8.424   3.187  0.2681  0.4302  0.0270
18592THY    HP648382   8.010   8.290   3.098 -0.4375  0.5162 -0.9747
18592THY    HP748383   7.964   8.265   3.259  1.4039 -0.8121 -0.7857
18592THY    CA348384   7.703   8.339   3.343  0.5081 -0.6642 -0.1062
18592THY    HA348385   7.794   8.319   3.398 -0.5715  1.6950  0.9698
18592THY    CA448386   7.592   8.378   3.417 -0.3037 -1.2477  0.4163
18592THY    HA448387   7.608   8.370   3.524  0.7441 -1.4220 -0.0504
18592THY    CA548388   7.480   8.431   3.363  0.3694  1.5271 -0.9259
18592THY    CM148389   7.375   8.487   3.451 -0.2398 -0.1508 -0.2908
18592THY    HM148390   7.289   8.513   3.389  0.9158 -0.5588  3.0621
18592THY    HM248391   7.395   8.579   3.506  1.8725  0.6652 -1.1691
18592THY    HM348392   7.343   8.412   3.524 -0.9789 -2.9215 -2.8587
18592THY    CA648393   7.458   8.418   3.231  0.4008 -0.4475 -0.9745
18592THY    HA648394   7.365   8.455   3.190 -1.0974  2.7384 -0.8714
18593THY      O48395   2.166   6.044   6.605  0.1888 -0.6394  0.0630
18593THY     HO48396   2.150   5.975   6.538 -2.3884  0.2883 -0.3700
18593THY    CA148397   2.162   6.156   6.541  0.4776 -0.3553 -0.3408
18593THY    CA248398   2.258   6.255   6.561  0.0807  0.4144 -0.1788
18593THY    CP148399   2.380   6.225   6.645  0.0768 -0.3775 -0.2491
18593THY    HP148400   2.396   6.119   6.666 -0.2505  0.8776 -0.0707
18593THY    CP248401   2.369   6.300   6.783 -0.6492  0.0373  0.0462
18593THY    HP248402   2.451   6.286   6.854 -0.7744 -0.1382 -1.7212
18593THY    HP348403   2.276   6.268   6.831 -0.2204  0.4702 -0.5868
18593THY    HP448404   2.370   6.408   6.765 -1.1515  3.8101  0.8243
18593THY    CP348405   2.504   6.274   6.564 -0.5844 -0.1711 -0.1364
18593THY    HP548406   2.589   6.233   6.619 -1.6945  2.4911  0.9347
18593THY    HP648407   2.522   6.382   6.571  0.2926  0.8914 -0.3406
18593THY    HP748408   2.503   6.232   6.463  0.3290 -0.3924  0.3451
18593THY    CA348409   2.233   6.383   6.501  0.1427 -0.5571  0.3476
18593THY    HA348410   2.306   6.463   6.502  1.3983 -0.3176 -0.7671
18593THY    CA448411   2.119   6.388   6.415 -0.0030  0.2679 -0.6551
18593THY    HA448412   2.084   6.482   6.373 -1.0253  1.3903 -0.5078
18593THY    CA548413   2.017   6.288   6.399 -0.6416 -0.4779  0.3008
18593THY    CM148414   1.895   6.297   6.311  0.0540 -0.0476  0.5538
18593THY    HM148415   1.809   6.285   6.378 -0.3906 -1.1323 -4.2541
18593THY    HM248416   1.885   6.212   6.243 -1.0337  0.5577  0.1895
18593THY    HM348417   1.881   6.394   6.262 -2.1496  0.7069  0.6712
18593THY    CA648418   2.050   6.164   6.458  0.4937 -0.2006  0.4270
18593THY    HA648419   1.978   6.083   6.451  1.8930 -1.0633 -0.7931
18594THY      O48420   1.628   1.463   5.038 -0.5123 -0.5110 -0.4382
18594THY     HO48421   1.662   1.435   5.125 -0.7560 -0.6462 -1.1761
18594THY    CA148422   1.741   1.484   4.965  0.0727 -0.3393  0.1203
18594THY    CA248423   1.746   1.493   4.828  0.9941  0.8678  0.0161
18594THY    CP148424   1.611   1.488   4.746 -0.2360  0.3509  0.0794
18594THY    HP148425   1.533   1.501   4.822 -1.2359 -1.0941  4.6753
18594THY    CP248426   1.593   1.356   4.667 -0.0724 -0.8745 -0.3009
18594THY    HP248427   1.649   1.370   4.574  0.0090 -1.2907 -2.8898
18594THY    HP348428   1.486   1.334   4.661  0.2507  1.2604 -3.1209
18594THY    HP448429   1.637   1.267   4.713 -2.5240  1.6720 -0.3672
18594THY    CP348430   1.595   1.614   4.652 -0.2581 -0.0193  0.3782
18594THY    HP548431   1.658   1.599   4.564  0.1000  0.3485 -0.3574
18594THY    HP648432   1.630   1.704   4.705 -1.0265  0.3999  0.4397
18594THY    HP748433   1.489   1.628   4.630 -0.0693 -0.3820  1.3006
18594THY    CA348434   1.870   1.502   4.760  0.9074  0.5045  0.3280
18594THY    HA348435   1.875   1.504   4.652 -1.0957  0.3814  0.1472
18594THY    CA448436   1.989   1.495   4.833 -0.6973  0.5777  0.8804
18594THY    HA448437   2.084   1.496   4.782  0.2102  1.9377 -2.6761
18594THY    CA548438   1.975   1.482   4.973  0.1466 -0.2264 -0.2511
18594THY    CM148439   2.097   1.454   5.050 -0.1065 -0.2857  0.5289
18594THY    HM148440   2.168   1.388   4.999 -1.1219 -1.8139  0.5839
18594THY    HM248441   2.088   1.405   5.149 -0.0346 -1.5271 -2.1932
18594THY    HM348442   2.144   1.551   5.067 -2.0867 -1.5316  1.7662
18594THY    CA648443   1.856   1.481   5.041  0.1635  0.1334  0.1417
18594THY    HA648444   1.840   1.475   5.148 -1.2806 -0.0644  0.2020
18595THY      O48445   9.406   0.240   6.065 -0.3881 -0.3851  0.4295
18595THY     HO48446   9.501   0.218   6.073 -0.9728  0.1375 -2.2469
18595THY    CA148447   9.397   0.368   6.085 -0.2500 -0.4165 -0.1988
18595THY    CA248448   9.376   0.450   5.984  0.1417 -0.2842 -0.0678
18595THY    CP148449   9.363   0.401   5.838  0.8495 -0.2204 -0.2268
18595THY    HP148450   9.339   0.294   5.837 -0.0717  1.7436 -0.0705
18595THY    CP248451   9.497   0.417   5.771  0.0528 -0.2570  0.0856
18595THY    HP248452   9.546   0.319   5.762  1.5185  0.9983  0.6642
18595THY    HP348453   9.570   0.471   5.832  0.3500 -0.8999  0.4174
18595THY    HP448454   9.479   0.470   5.677 -0.1417 -0.9326 -1.1327
18595THY    CP348455   9.250   0.463   5.759 -0.3187  0.2498  0.3359
18595THY    HP548456   9.234   0.405   5.667 -0.8396  0.9150 -0.6008
18595THY    HP648457   9.254   0.570   5.734  1.3425 -1.5876 -0.0914
18595THY    HP748458   9.154   0.454   5.812  0.0135  0.9752  0.9308
18595THY    CA348459   9.357   0.588   6.010  0.5287 -0.1205  0.6592
18595THY    HA348460   9.332   0.650   5.925  1.5086 -2.2858 -1.7482
18595THY    CA448461   9.356   0.637   6.142 -0.7751 -0.3190 -0.2044
18595THY    HA448462   9.344   0.743   6.161  1.7869  0.2150  0.0579
18595THY    CA548463   9.384   0.550   6.249 -0.3076  0.3530 -0.3771
18595THY    CM148464   9.405   0.599   6.386  0.2861 -0.3325 -0.0800
18595THY    HM148465   9.399   0.512   6.453 -0.4691 -1.2748 -0.7844
18595THY    HM248466   9.332   0.674   6.418  0.2698  2.2549 -1.1051
18595THY    HM348467   9.504   0.644   6.396  1.0636 -2.3106 -1.2178
18595THY    CA648468   9.400   0.417   6.223 -0.3583 -0.4764 -0.9080
18595THY    HA648469   9.421   0.347   6.303 -1.4768  0.0640 -0.6512
18596THY      O48470   5.748   5.178   6.103 -0.2289 -0.5285 -0.3031
18596THY     HO48471   5.695   5.254   6.074 -1.8775  1.9747 -0.4020
18596THY    CA148472   5.774   5.184   6.239 -0.0273 -0.1584 -0.5945
18596THY    CA248473   5.735   5.298   6.314 -1.2635  0.2487  0.5924
18596THY    CP148474   5.656   5.411   6.251  0.2545 -0.3309  0.7877
18596THY    HP148475   5.673   5.403   6.143 -3.3257 -1.0791  1.2898
18596THY    CP248476   5.692   5.558   6.292  0.2764  0.4917 -1.1175
18596THY    HP248477   5.694   5.571   6.401  1.3321  0.5429 -1.6512
18596THY    HP348478   5.634   5.631   6.235  0.2613  0.6471 -1.0079
18596THY    HP448479   5.791   5.580   6.252 -0.4488 -1.1998 -0.8069
18596THY    CP348480   5.504   5.376   6.269  0.3798 -0.4646  0.0796
18596THY    HP548481   5.491   5.271   6.241 -1.0642  2.2968 -0.5757
18596THY    HP648482   5.435   5.444   6.219  0.3574 -1.6590 -0.7895
18596THY    HP748483   5.485   5.366   6.376  1.0625 -0.3458 -0.0166
18596THY    CA348484   5.756   5.290   6.456  0.3242  0.3152  0.1237
18596THY    HA348485   5.728   5.375   6.517  0.5139 -2.1282  2.0514
18596THY    CA448486   5.818   5.178   6.512 -0.4976 -0.2522  0.7298
18596THY    HA448487   5.836   5.178   6.619  1.2566 -0.5288  0.9430
18596THY    CA548488   5.857   5.070   6.434 -0.4360 -0.3477  0.0635
18596THY    CM148489   5.927   4.946   6.496  0.3925 -0.3163 -1.1289
18596THY    HM148490   5.912   4.852   6.440  0.3297  3.3189 -3.4875
18596THY    HM248491   5.888   4.923   6.596  1.7600  0.2599 -0.9851
18596THY    HM348492   6.034   4.963   6.509  0.2297 -0.2247 -0.1534
18596THY    CA648493   5.836   5.075   6.296  0.3339 -0.2020 -0.5091
18596THY    HA648494   5.856   4.990   6.232 -0.5055 -1.2740  0.0632
18597THY      O48495   4.099   5.588   4.166  0.2136 -0.6318 -0.1306
18597THY     HO48496   4.129   5.677   4.190 -1.9740  0.9944  0.2479
18597THY    CA148497   4.118   5.568   4.032  0.0578 -0.2610 -0.6890
18597THY    CA248498   4.090   5.442   3.978 -0.4296  0.1832 -0.2943
18597THY    CP148499   4.031   5.327   4.056  0.1771  0.0982  0.0562
18597THY    HP148500   4.006   5.364   4.156  0.1509  0.5208 -1.0609
18597THY    CP248501   4.141   5.216   4.071 -0.0995 -0.8776  0.0343
18597THY    HP248502   4.231   5.247   4.125 -1.0710 -0.5636  2.6268
18597THY    HP348503   4.165   5.182   3.970  0.3570 -0.5200 -0.7091
18597THY    HP448504   4.091   5.136   4.126 -0.1917  0.7692  1.1580
18597THY    CP348505   3.895   5.271   3.994  0.7203 -0.1893 -0.4834
18597THY    HP548506   3.835   5.363   3.986  0.6179 -0.2920 -0.5596
18597THY    HP648507   3.843   5.209   4.068 -1.8122  0.8233  2.5542
18597THY    HP748508   3.882   5.220   3.898 -3.0570 -1.2193  2.0301
18597THY    CA348509   4.099   5.427   3.840 -0.7877 -0.0426  0.0181
18597THY    HA348510   4.070   5.340   3.781  1.2506 -0.8184 -0.1681
18597THY    CA448511   4.142   5.530   3.757  0.3588  0.0264 -0.0271
18597THY    HA448512   4.161   5.510   3.653 -1.7922 -0.1156 -1.6309
18597THY    CA548513   4.184   5.647   3.816 -0.5783 -0.0902 -0.2738
18597THY    CM148514   4.228   5.766   3.728  0.1933 -0.0186 -0.0573
18597THY    HM148515   4.239   5.730   3.625 -0.8433  0.1405 -0.8915
18597THY    HM248516   4.325   5.814   3.745  0.7808 -4.2171  0.6224
18597THY    HM348517   4.150   5.842   3.718  0.5017  1.6749  0.5241
18597THY    CA648518   4.171   5.669   3.952 -0.2613 -0.3668  0.0040
18597THY    HA648519   4.183   5.767   3.997  0.9511 -2.3859  0.8420
18598THY      O48520   8.312   0.753   3.350  0.2981 -0.3983  0.5320
18598THY     HO48521   8.257   0.756   3.430  2.1915  0.9902  0.2993
18598THY    CA148522   8.253   0.652   3.271 -0.2075 -0.2183  0.3087
18598THY    CA248523   8.319   0.591   3.162 -0.8791  0.3149 -0.2450
18598THY    CP148524   8.461   0.643   3.133 -0.3803  0.0085  0.3396
18598THY    HP148525   8.513   0.674   3.225 -0.9702  0.1607  0.9024
18598THY    CP248526   8.466   0.771   3.043  0.0035  0.0273  0.4883
18598THY    HP248527   8.552   0.773   2.976  0.1464  0.2199  0.9891
18598THY    HP348528   8.490   0.846   3.120 -2.5235  0.7583  0.6602
18598THY    HP448529   8.367   0.793   3.000 -0.9593  1.9153  0.0889
18598THY    CP348530   8.558   0.524   3.069  1.0373  0.6781  0.4821
18598THY    HP548531   8.570   0.433   3.128 -2.0913  2.3092  1.0070
18598THY    HP648532   8.659   0.557   3.042  2.8109  0.0639 -4.5281
18598THY    HP748533   8.516   0.497   2.972 -0.4687  1.2998  0.5344
18598THY    CA348534   8.255   0.501   3.081  0.1555  0.4361  0.8146
18598THY    HA348535   8.293   0.463   2.987 -2.9828 -1.1613  1.2913
18598THY    CA448536   8.127   0.459   3.121  0.0806  0.5793  0.2119
18598THY    HA448537   8.073   0.386   3.062 -0.0960  0.9321  0.0512
18598THY    CA548538   8.068   0.507   3.237  0.3844  0.3365 -0.5335
18598THY    CM148539   7.928   0.456   3.279 -0.2937 -0.4919 -0.7373
18598THY    HM148540   7.841   0.497   3.226  0.0338 -0.4123  0.0818
18598THY    HM248541   7.904   0.493   3.380 -1.3856 -0.6767 -0.8968
18598THY    HM348542   7.914   0.347   3.272 -2.0173  1.6191 -0.7290
18598THY    CA648543   8.127   0.605   3.311 -0.8107 -0.1318 -0.4923
18598THY    HA648544   8.074   0.657   3.391  0.9094  0.0606  1.0719
18599THY      O48545   3.754   2.894   4.953 -0.1401 -0.1000  0.5818
18599THY     HO48546   3.831   2.840   4.928 -0.1446 -1.8366  1.3138
18599THY    CA148547   3.654   2.827   4.901 -0.7970  0.0368  0.0945
18599THY    CA248548   3.525   2.879   4.879  0.0168  0.4017 -0.1920
18599THY    CP148549   3.493   3.016   4.929  0.1623  0.0835  0.4554
18599THY    HP148550   3.581   3.072   4.963  0.8557 -1.1027  0.1144
18599THY    CP248551   3.398   3.007   5.051  0.5954 -0.0314  0.0894
18599THY    HP248552   3.306   2.949   5.040 -0.3574  1.6139  1.2031
18599THY    HP348553   3.359   3.097   5.100 -2.7806  0.9312 -1.7195
18599THY    HP448554   3.447   2.948   5.130  0.1205  0.0614 -0.1841
18599THY    CP348555   3.416   3.094   4.819  0.1250 -0.1391 -0.0485
18599THY    HP548556   3.478   3.096   4.729 -0.3549 -0.5223 -1.4440
18599THY    HP648557   3.401   3.199   4.847 -1.9917 -2.3051  0.3159
18599THY    HP748558   3.321   3.044   4.799  0.0465  3.3755 -1.6038
18599THY    CA348559   3.432   2.799   4.803 -0.3083  0.5607 -1.1817
18599THY    HA348560   3.336   2.838   4.773  1.2280 -2.1666  0.8417
18599THY    CA448561   3.466   2.672   4.762  0.2842 -0.0728 -0.2043
18599THY    HA448562   3.389   2.613   4.714  1.1767  1.1326 -2.5052
18599THY    CA548563   3.594   2.619   4.789 -0.0146  0.0682  0.1492
18599THY    CM148564   3.627   2.485   4.733  0.5465 -0.0203 -0.6611
18599THY    HM148565   3.550   2.409   4.745 -0.6697 -0.9871  0.3613
18599THY    HM248566   3.726   2.448   4.760  0.7572 -2.5773 -2.2020
18599THY    HM348567   3.627   2.504   4.625  1.2522  0.0169 -0.4160
18599THY    CA648568   3.693   2.702   4.851  0.7369 -0.5236 -0.7597
18599THY    HA648569   3.790   2.661   4.878  0.5923  0.5054 -0.4357
18600THY      O48570   5.972   1.613   7.306  0.2554  0.0939  0.2022
18600THY     HO48571   5.930   1.548   7.366  0.9178 -0.2632 -0.5779
18600THY    CA148572   6.067   1.663   7.381 -0.3614  0.2643 -0.0513
18600THY    CA248573   6.151   1.762   7.325 -0.3842 -0.1497 -0.3660
18600THY    CP148574   6.150   1.807   7.180 -0.2796  0.6265  1.1400
18600THY    HP148575   6.077   1.745   7.127  1.6451 -0.0128 -0.7306
18600THY    CP248576   6.287   1.793   7.112  0.2292 -0.7483  0.2737
18600THY    HP248577   6.329   1.692   7.125  0.1092 -0.3330  0.2749
18600THY    HP348578   6.366   1.854   7.156  2.0918 -2.0025 -1.1066
18600THY    HP448579   6.274   1.821   7.007 -1.3811 -0.3116  1.2924
18600THY    CP348580   6.098   1.947   7.150 -0.7026 -0.8775  0.0855
18600THY    HP548581   6.103   1.964   7.042  1.2455 -0.9703 -0.8554
18600THY    HP648582   6.162   2.025   7.193 -0.1587  0.1982 -0.9208
18600THY    HP748583   5.997   1.961   7.192 -0.5290  0.1446 -1.4302
18600THY    CA348584   6.235   1.835   7.413  0.6952  0.1333  0.4895
18600THY    HA348585   6.300   1.910   7.369 -2.2502 -1.1194  2.4971
18600THY    CA448586   6.228   1.816   7.562 -0.5733 -0.2559  0.2529
18600THY    HA448587   6.282   1.873   7.637  1.7303 -0.8586 -0.9691
18600THY    CA548588   6.149   1.713   7.610 -0.1536  1.1053  0.7503
18600THY    CM148589   6.127   1.715   7.755 -0.0109 -0.5485  0.3044
18600THY    HM148590   6.022   1.695   7.776 -0.1848 -0.2056  1.5482
18600THY    HM248591   6.156   1.810   7.800 -0.5855 -1.7348  1.0550
18600THY    HM348592   6.184   1.635   7.804  0.6968  0.1379  1.2121
18600THY    CA648593   6.069   1.641   7.520  0.9230 -0.6122  0.2664
18600THY    HA648594   5.997   1.575   7.567  2.1058  0.2377 -0.4544
18601THY      O48595   4.195   0.618   5.316 -0.4554 -0.9037 -0.1772
18601THY     HO48596   4.115   0.588   5.269 -0.1804 -1.4519 -0.0708
18601THY    CA148597   4.294   0.639   5.219  1.0795  0.3752  0.7051
18601THY    CA248598   4.420   0.608   5.251 -0.5178 -0.7178  0.1241
18601THY    CP148599   4.452   0.564   5.399 -0.3129  0.5063 -0.0607
18601THY    HP148600   4.370   0.499   5.431  0.1504  0.9302 -0.4473
18601THY    CP248601   4.471   0.688   5.491 -0.9389 -0.5030 -0.1533
18601THY    HP248602   4.395   0.766   5.477 -0.0492  0.3302  0.9003
18601THY    HP348603   4.564   0.745   5.477  0.0605  2.7957 -0.7985
18601THY    HP448604   4.482   0.665   5.597  2.0727 -0.1393  2.3072
18601THY    CP348605   4.572   0.476   5.404  0.0170  0.3782  0.0990
18601THY    HP548606   4.657   0.545   5.414 -0.0263  1.1483  0.0570
18601THY    HP648607   4.582   0.401   5.325  1.9455 -0.0514  0.7618
18601THY    HP748608   4.564   0.415   5.495 -0.0810 -1.6104 -3.0877
18601THY    CA348609   4.518   0.620   5.138 -0.1715 -0.4829 -0.6598
18601THY    HA348610   4.613   0.569   5.146  0.8289 -0.9850  1.0380
18601THY    CA448611   4.474   0.675   5.019  0.3616 -0.6683  0.9272
18601THY    HA448612   4.540   0.674   4.933  1.1219 -0.1151  1.8079
18601THY    CA548613   4.347   0.730   5.004 -0.4818  0.4068  0.4855
18601THY    CM148614   4.307   0.793   4.875 -0.7081 -0.1760  0.9936
18601THY    HM148615   4.201   0.776   4.853 -0.4737 -0.6040  0.0428
18601THY    HM248616   4.364   0.737   4.800 -1.5477 -0.2614  0.2342
18601THY    HM348617   4.342   0.897   4.877  0.7035 -1.7142  0.5920
18601THY    CA648618   4.251   0.701   5.096  0.1833 -0.5461  0.0703
18601THY    HA648619   4.148   0.725   5.072 -0.1888  1.5089  0.7159
18602THY      O48620   6.669   4.773   7.341  0.0550 -0.2535  0.1517
18602THY     HO48621   6.645   4.679   7.343 -1.5929  0.3734  0.5507
18602THY    CA148622   6.545   4.828   7.339 -0.2103 -0.4777 -0.2659
18602THY    CA248623   6.507   4.911   7.444  0.2759 -0.2241 -0.7005
18602THY    CP148624   6.597   4.918   7.564 -0.7938 -0.5042 -0.2990
18602THY    HP148625   6.647   4.821   7.575  1.0864  0.9262  0.7597
18602THY    CP248626   6.523   4.947   7.700  0.3474  0.1942  0.4029
18602THY    HP248627   6.433   4.885   7.705  0.1179  0.1435  0.7329
18602THY    HP348628   6.494   5.052   7.706 -2.5755 -0.7152 -0.2701
18602THY    HP448629   6.581   4.919   7.789  0.4829  0.6206  1.9254
18602THY    CP348630   6.705   5.023   7.541 -0.1657  0.2331  0.6257
18602THY    HP548631   6.783   5.018   7.618  1.6590 -1.4053  2.3071
18602THY    HP648632   6.657   5.121   7.535  0.5359 -0.5859  0.9298
18602THY    HP748633   6.753   4.999   7.446  0.5191 -0.1930  3.4269
18602THY    CA348634   6.378   4.976   7.431  0.2513 -0.8136  0.2979
18602THY    HA348635   6.338   5.042   7.507  0.3154  1.8532 -2.5105
18602THY    CA448636   6.289   4.947   7.330 -0.0123 -0.4597  0.2321
18602THY    HA448637   6.194   4.999   7.328 -0.8164 -2.1728 -1.2017
18602THY    CA548638   6.326   4.862   7.230 -0.4259  0.4665  0.8629
18602THY    CM148639   6.221   4.840   7.119 -0.1897 -0.3276 -0.1744
18602THY    HM148640   6.136   4.778   7.150  1.0432 -0.5518 -2.0529
18602THY    HM248641   6.273   4.787   7.039  1.0945  1.1200 -1.1690
18602THY    HM348642   6.185   4.937   7.084 -1.4119  0.0890 -0.4561
18602THY    CA648643   6.455   4.802   7.233 -0.5210  0.4862  0.0523
18602THY    HA648644   6.472   4.737   7.147 -3.0743  0.2444 -0.4086
18603THY      O48645   7.271   4.823   4.724 -0.0277 -0.5768 -0.1906
18603THY     HO48646   7.303   4.912   4.702 -1.2442  0.0348  0.4255
18603THY    CA148647   7.257   4.832   4.861 -0.0252  0.5247 -0.4088
18603THY    CA248648   7.238   4.722   4.946 -0.6784 -1.1009  0.1453
18603THY    CP148649   7.249   4.585   4.893 -0.0283  0.4124 -0.1794
18603THY    HP148650   7.219   4.579   4.788 -0.1226  0.3175  1.4126
18603THY    CP248651   7.139   4.493   4.959 -0.2471 -0.4333  0.2563
18603THY    HP248652   7.131   4.392   4.917 -0.3556 -0.7579  0.3980
18603THY    HP348653   7.044   4.546   4.945 -0.3873 -1.0600 -0.1459
18603THY    HP448654   7.155   4.487   5.067 -0.8110 -0.3114  0.8698
18603THY    CP348655   7.392   4.520   4.905  0.1740 -0.3218 -0.2838
18603THY    HP548656   7.388   4.417   4.867 -0.4569  0.5477 -0.5903
18603THY    HP648657   7.410   4.513   5.012  0.1714 -0.0297  2.8164
18603THY    HP748658   7.476   4.573   4.857  0.2082 -1.9921 -1.7351
18603THY    CA348659   7.225   4.750   5.089  0.6502 -0.0451 -0.0577
18603THY    HA348660   7.223   4.664   5.155  0.6216 -0.4735 -0.3884
18603THY    CA448661   7.215   4.879   5.134 -0.3580 -0.6413 -0.1202
18603THY    HA448662   7.199   4.902   5.238  0.8947 -0.6043  0.6502
18603THY    CA548663   7.239   4.982   5.045  0.5691 -0.0863 -0.4813
18603THY    CM148664   7.241   5.126   5.087  0.0226 -0.8291  0.2539
18603THY    HM148665   7.156   5.186   5.051 -1.2146  0.6588 -0.5409
18603THY    HM248666   7.339   5.166   5.057  0.7354 -0.8598 -1.4244
18603THY    HM348667   7.238   5.132   5.197  0.1551 -0.7952 -0.2971
18603THY    CA648668   7.252   4.960   4.908  0.3433  0.4461 -0.0242
18603THY    HA648669   7.257   5.048   4.844  2.1263 -0.6000 -0.8492
18604THY      O48670   8.135   1.236   3.161  0.1002 -0.7298  0.2104
18604THY     HO48671   8.206   1.186   3.204 -0.2689 -0.4093 -0.0453
18604THY    CA148672   8.183   1.263   3.042  0.8761 -0.2676 -0.3520
18604THY    CA248673   8.104   1.309   2.933 -0.3656 -0.2808 -0.9828
18604THY    CP148674   7.953   1.312   2.938  0.8314  0.7649 -0.1545
18604THY    HP148675   7.914   1.289   3.037  1.7459  1.0190 -0.6509
18604THY    CP248676   7.902   1.196   2.854  0.0508  0.8028  0.5438
18604THY    HP248677   7.797   1.208   2.825 -0.9170  3.5577 -0.5375
18604THY    HP348678   7.909   1.097   2.900 -3.0640  4.0122  1.6089
18604THY    HP448679   7.968   1.186   2.767  3.2850  3.1261 -0.0311
18604THY    CP348680   7.909   1.454   2.893  0.0504  0.0538  0.7364
18604THY    HP548681   7.802   1.467   2.914 -0.0696 -0.3357  0.4298
18604THY    HP648682   7.918   1.468   2.785  0.4208 -0.2342 -1.3683
18604THY    HP748683   7.959   1.535   2.946 -1.7540  1.3956  1.0211
18604THY    CA348684   8.171   1.342   2.810 -0.6632  0.3443 -0.6137
18604THY    HA348685   8.127   1.379   2.718 -0.0526  0.1677 -0.3217
18604THY    CA448686   8.311   1.343   2.809 -0.9289 -0.6171  0.1805
18604THY    HA448687   8.368   1.383   2.725  1.7287  1.3580  0.8061
18604THY    CA548688   8.387   1.280   2.917 -0.5049  0.1484  0.4222
18604THY    CM148689   8.537   1.266   2.899  0.4209 -0.7920 -0.2086
18604THY    HM148690   8.584   1.186   2.957 -0.1777 -1.5654 -1.1418
18604THY    HM248691   8.598   1.354   2.924  0.0772 -0.1993 -0.1310
18604THY    HM348692   8.557   1.252   2.792  2.6862 -0.2201 -1.9620
18604THY    CA648693   8.317   1.239   3.031 -0.0001  0.5936 -0.0725
18604THY    HA648694   8.377   1.207   3.116  1.0342  0.0108  0.2596
18605THY      O48695   5.704   4.911   5.970 -0.1500 -0.3405 -0.0181
18605THY     HO48696   5.778   4.949   6.021 -0.9328  0.0079  1.0941
18605THY    CA148697   5.732   4.929   5.840  0.1342  0.8652  0.0722
18605THY    CA248698   5.628   4.930   5.743  0.0234  0.5596  0.5479
18605THY    CP148699   5.481   4.892   5.773  0.3893 -0.2876 -0.1215
18605THY    HP148700   5.476   4.862   5.878  0.9308  0.5578  2.5583
18605THY    CP248701   5.447   4.772   5.689  0.6258 -0.1568  0.2289
18605THY    HP248702   5.461   4.792   5.582  1.1823 -0.5332 -1.8957
18605THY    HP348703   5.348   4.726   5.700  0.6467  0.5294  0.3334
18605THY    HP448704   5.528   4.701   5.710  0.7164 -0.1459  0.3340
18605THY    CP348705   5.381   5.010   5.752 -0.9871  0.6206  0.0609
18605THY    HP548706   5.400   5.067   5.660 -0.6939  1.7458  1.8433
18605THY    HP648707   5.392   5.089   5.826  1.5402  1.0097 -0.5690
18605THY    HP748708   5.275   4.981   5.742 -1.2006  2.3956  0.1175
18605THY    CA348709   5.665   4.979   5.617  0.5118 -0.0036 -0.0702
18605THY    HA348710   5.589   4.991   5.541  0.2834  0.3211  0.5936
18605THY    CA448711   5.793   5.012   5.587  0.5629 -0.1907  0.3687
18605THY    HA448712   5.812   5.039   5.484  0.2408 -0.4193 -0.2675
18605THY    CA548713   5.893   5.014   5.684  0.1522 -0.0703 -0.2580
18605THY    CM148714   6.032   5.063   5.654  0.4312 -0.3003  0.4618
18605THY    HM148715   6.113   4.991   5.673 -0.3688  2.6937  0.2302
18605THY    HM248716   6.050   5.154   5.711 -1.1051  1.0753 -0.0535
18605THY    HM348717   6.039   5.083   5.546 -0.9663 -0.7523 -1.1960
18605THY    CA648718   5.858   4.988   5.817 -0.1779 -0.1085 -0.5517
18605THY    HA648719   5.935   5.005   5.891 -1.3731  0.4796  3.3634
18606THY      O48720   0.629   1.502   3.383 -0.4802 -0.2763 -0.0892
18606THY     HO48721   0.574   1.518   3.461 -1.3112 -0.5664 -1.4279
18606THY    CA148722   0.762   1.511   3.420  0.0508 -0.2398  0.5206
18606THY    CA248723   0.860   1.542   3.318  0.2096 -0.3123  0.4561
18606THY    CP148724   0.828   1.555   3.168  0.0408 -0.3772 -0.4580
18606THY    HP148725   0.726   1.592   3.179  1.0540  1.6525  1.9980
18606THY    CP248726   0.836   1.424   3.095  0.6850 -0.2972  0.6961
18606THY    HP248727   0.823   1.443   2.988 -0.9667 -0.4236 -0.8862
18606THY    HP348728   0.767   1.345   3.126  1.6807 -0.6923 -0.3499
18606THY    HP448729   0.927   1.365   3.110 -0.1524 -0.9591 -0.8188
18606THY    CP348730   0.905   1.667   3.092  0.0849  0.8174 -0.3703
18606THY    HP548731   0.837   1.746   3.059  0.9213 -1.1075 -0.3986
18606THY    HP648732   0.949   1.640   2.995  1.4467  0.8611  1.4891
18606THY    HP748733   0.995   1.709   3.138  2.3258 -1.6799 -2.1100
18606THY    CA348734   0.992   1.564   3.360  0.5912 -0.1300 -0.4897
18606THY    HA348735   1.073   1.592   3.293  0.0789 -0.2319  0.8237
18606THY    CA448736   1.017   1.561   3.496  0.1443 -0.8289  0.1388
18606THY    HA448737   1.117   1.595   3.517  0.3936 -0.1271 -0.9782
18606THY    CA548738   0.913   1.540   3.590  0.3806  0.0654 -0.4093
18606THY    CM148739   0.943   1.526   3.734  0.0852  0.4433 -0.3006
18606THY    HM148740   0.848   1.542   3.786 -1.3328 -2.2830  0.7222
18606THY    HM248741   1.028   1.594   3.751 -1.2176  1.1586  1.2218
18606THY    HM348742   0.975   1.422   3.748  0.6311  1.2151 -0.0391
18606THY    CA648743   0.792   1.498   3.554  0.0420  0.3551  0.1810
18606THY    HA648744   0.726   1.453   3.627  0.8914  1.3229  0.4671
18607THY      O48745   4.734   7.071   3.291  0.2423  0.2443  0.2502
18607THY     HO48746   4.716   7.139   3.358 -1.8738  0.5523 -0.5088
18607THY    CA148747   4.698   6.952   3.347  0.5211 -0.2179 -0.4540
18607THY    CA248748   4.774   6.836   3.326  0.6327 -0.3767  0.5314
18607THY    CP148749   4.897   6.848   3.233 -0.1411  0.7950  0.1594
18607THY    HP148750   4.928   6.953   3.230  0.2594  1.6577  0.0717
18607THY    CP248751   4.860   6.802   3.089 -0.0676  0.7015  0.4426
18607THY    HP248752   4.751   6.803   3.084 -0.0586  0.2880 -0.2960
18607THY    HP348753   4.896   6.700   3.070  1.0411  0.1443  0.9193
18607THY    HP448754   4.903   6.861   3.007  1.0610  0.1744 -1.0503
18607THY    CP348755   5.019   6.769   3.277 -0.5931  0.1663 -0.2502
18607THY    HP548756   5.100   6.792   3.206 -0.1072  0.9792  0.6248
18607THY    HP648757   5.005   6.661   3.272  2.4350  0.5615 -0.7553
18607THY    HP748758   5.056   6.784   3.378  1.5992 -0.7153  0.7183
18607THY    CA348759   4.719   6.720   3.375 -0.4383 -0.1457  0.3352
18607THY    HA348760   4.766   6.624   3.354 -0.3518 -0.7004  0.4928
18607THY    CA448761   4.606   6.719   3.457  0.3515  0.1693 -0.0031
18607THY    HA448762   4.583   6.628   3.511  3.4459  0.8617 -0.4724
18607THY    CA548763   4.543   6.843   3.490 -0.5401 -0.1508  0.2055
18607THY    CM148764   4.445   6.841   3.603  0.0569 -0.2687 -0.4123
18607THY    HM148765   4.493   6.854   3.701  0.0301 -0.2652 -0.3342
18607THY    HM248766   4.377   6.755   3.601 -1.0150 -0.7735  0.4190
18607THY    HM348767   4.386   6.932   3.585 -0.2143 -2.5304 -0.9761
18607THY    CA648768   4.586   6.961   3.436 -0.5819  0.0370 -0.5252
18607THY    HA648769   4.538   7.055   3.463  0.2949  0.8586 -0.3099
18608THY      O48770   1.145   2.364   7.356 -0.8358 -0.1789 -0.3744
18608THY     HO48771   1.144   2.313   7.439 -2.2216  0.1438  0.1413
18608THY    CA148772   1.170   2.280   7.250  0.2730 -0.2429  1.0840
18608THY    CA248773   1.099   2.285   7.126  0.0792 -0.5716 -0.2335
18608THY    CP148774   1.025   2.411   7.087 -0.4977 -0.3535  0.0794
18608THY    HP148775   1.019   2.467   7.181  0.6073  0.0372 -0.4185
18608THY    CP248776   0.885   2.384   7.034 -0.2627  0.3579  0.4531
18608THY    HP248777   0.833   2.310   7.096  1.0591  0.6181 -0.2740
18608THY    HP348778   0.877   2.339   6.934 -1.8453  0.5387  0.2696
18608THY    HP448779   0.819   2.472   7.037  0.5592  1.8373  1.0464
18608THY    CP348780   1.098   2.491   6.984 -0.4166  0.5075  0.8569
18608THY    HP548781   1.128   2.435   6.895  1.1672  1.3697  0.2940
18608THY    HP648782   1.182   2.542   7.032  0.0550 -1.8482  2.4534
18608THY    HP748783   1.029   2.569   6.948 -1.9175 -0.3704 -0.7944
18608THY    CA348784   1.108   2.176   7.038 -0.5246  0.7310 -0.5985
18608THY    HA348785   1.058   2.176   6.942  0.8701 -0.0295 -0.1037
18608THY    CA448786   1.177   2.055   7.075 -0.3951  0.6563  0.4152
18608THY    HA448787   1.170   1.968   7.010 -2.2075  0.7871  0.4203
18608THY    CA548788   1.242   2.050   7.200  0.1612  0.2338 -0.0537
18608THY    CM148789   1.308   1.914   7.257 -0.2751  0.0654 -1.0332
18608THY    HM148790   1.229   1.867   7.316 -4.0520 -2.3849  1.6516
18608THY    HM248791   1.396   1.931   7.319 -0.0054 -0.2344 -1.3079
18608THY    HM348792   1.322   1.853   7.166 -4.6821 -0.4126 -1.6899
18608THY    CA648793   1.240   2.165   7.284 -0.0007 -0.3196 -0.4190
18608THY    HA648794   1.289   2.154   7.381  2.5462 -1.5340 -0.6527
18609THY      O48795   4.796   6.012   3.862  0.9319 -0.5101 -0.0151
18609THY     HO48796   4.800   6.094   3.914  1.4321 -2.8366  1.5416
18609THY    CA148797   4.805   6.060   3.740 -0.2813 -0.1818  0.2124
18609THY    CA248798   4.895   6.002   3.648  0.1367  0.4219  0.4798
18609THY    CP148799   4.985   5.886   3.673 -0.1982 -0.8843  0.3941
18609THY    HP148800   4.967   5.865   3.779  1.3300 -0.5114  0.8439
18609THY    CP248801   5.133   5.925   3.676  0.8579  0.6347  0.5942
18609THY    HP248802   5.196   5.836   3.685  0.7889  0.2591  0.5070
18609THY    HP348803   5.172   5.992   3.754  2.3389 -0.6733  1.3282
18609THY    HP448804   5.150   5.975   3.580 -1.8211 -0.1500  0.1471
18609THY    CP348805   4.953   5.760   3.589  0.8904 -0.5928 -0.1447
18609THY    HP548806   5.003   5.771   3.493  0.7578 -0.6283  0.1617
18609THY    HP648807   4.845   5.743   3.579  0.9676 -0.3687 -0.8220
18609THY    HP748808   5.010   5.675   3.629  0.5984  1.8136  0.6895
18609THY    CA348809   4.885   6.051   3.515  0.4354  0.1240  0.4417
18609THY    HA348810   4.949   6.005   3.440 -1.6940 -0.6964 -1.3570
18609THY    CA448811   4.802   6.153   3.483  0.4539 -0.0938  0.0208
18609THY    HA448812   4.800   6.201   3.385  0.8348  0.8654  2.1149
18609THY    CA548813   4.725   6.214   3.576 -0.0986 -0.2958  0.0401
18609THY    CM148814   4.643   6.332   3.532 -0.7838 -0.0314  0.2526
18609THY    HM148815   4.546   6.310   3.486 -0.6073 -0.2128 -0.1454
18609THY    HM248816   4.696   6.402   3.466 -1.1368 -1.1457 -0.5010
18609THY    HM348817   4.621   6.388   3.624  0.6623 -0.5033  1.6841
18609THY    CA648818   4.724   6.168   3.708  0.1242 -0.8541  1.0538
18609THY    HA648819   4.671   6.227   3.782 -0.4988 -0.2234 -0.2589
18610THY      O48820   6.570   7.687   2.551  0.0914  0.4251  0.9785
18610THY     HO48821   6.535   7.767   2.510 -0.9351 -1.4929 -0.3624
18610THY    CA148822   6.696   7.721   2.568  0.2123  0.1700 -0.3767
18610THY    CA248823   6.779   7.655   2.662  0.1107  0.5373 -0.7067
18610THY    CP148824   6.739   7.534   2.742 -0.1755 -0.3882  0.5160
18610THY    HP148825   6.651   7.488   2.695  0.7813  0.0093 -1.9232
18610THY    CP248826   6.711   7.576   2.888 -0.4473 -0.5215 -0.5563
18610THY    HP248827   6.661   7.491   2.937  0.5725  0.5503 -0.5577
18610THY    HP348828   6.639   7.659   2.894  0.9631 -1.0500  0.7490
18610THY    HP448829   6.796   7.608   2.949 -1.6054  1.5575 -1.2432
18610THY    CP348830   6.841   7.418   2.748 -0.2612  0.5788 -0.7226
18610THY    HP548831   6.931   7.444   2.804  1.8589 -2.8865  0.1288
18610THY    HP648832   6.876   7.392   2.647  0.4833  0.4541  0.6580
18610THY    HP748833   6.801   7.327   2.793  1.5170 -0.3194 -2.0087
18610THY    CA348834   6.910   7.710   2.674  0.0012  0.9600  0.5633
18610THY    HA348835   6.981   7.678   2.750  0.5196  1.2174  2.2378
18610THY    CA448836   6.956   7.817   2.592 -0.4728  0.2988  0.2144
18610THY    HA448837   7.060   7.842   2.608  0.3392 -2.2917 -1.1472
18610THY    CA548838   6.874   7.872   2.496 -0.1210  0.6932 -0.3801
18610THY    CM148839   6.937   7.970   2.405  0.3632 -0.1671  1.4128
18610THY    HM148840   7.044   7.943   2.405 -0.1089 -0.3040 -0.6492
18610THY    HM248841   6.930   8.068   2.452  1.1679  0.1185  1.3486
18610THY    HM348842   6.907   7.967   2.300  2.3377 -0.7764  0.3292
18610THY    CA648843   6.745   7.823   2.484  0.9041  0.5718 -0.2022
18610THY    HA648844   6.688   7.869   2.404  2.5843 -0.2672  0.5427
18611THY      O48845   5.379   7.249   2.045  0.0028 -0.3101 -0.0006
18611THY     HO48846   5.397   7.243   1.950 -0.3404 -0.4671  1.2750
18611THY    CA148847   5.359   7.379   2.077 -1.3048  0.6052  0.5546
18611THY    CA248848   5.386   7.428   2.208 -0.2990  0.3495  0.6380
18611THY    CP148849   5.420   7.338   2.323 -0.4766  0.0999 -0.7225
18611THY    HP148850   5.426   7.233   2.291 -1.9954 -0.5243 -0.6467
18611THY    CP248851   5.304   7.339   2.430 -0.2614  0.1220 -0.2727
18611THY    HP248852   5.322   7.264   2.509 -2.1309  0.5169 -0.3413
18611THY    HP348853   5.212   7.330   2.373 -0.0184 -0.1395 -1.2396
18611THY    HP448854   5.299   7.440   2.473  0.9706  0.1579 -0.2020
18611THY    CP348855   5.561   7.359   2.385 -0.3660  0.2385 -0.9208
18611THY    HP548856   5.636   7.353   2.306  0.0970  0.6215 -0.2075
18611THY    HP648857   5.572   7.284   2.464  1.1044  1.0243  0.0747
18611THY    HP748858   5.574   7.456   2.434  0.2451 -0.3765 -0.6856
18611THY    CA348859   5.369   7.570   2.235  0.3960 -0.0718 -0.1937
18611THY    HA348860   5.368   7.605   2.338 -2.2601 -0.3798  0.8333
18611THY    CA448861   5.340   7.667   2.126  0.4809  0.0742  0.4422
18611THY    HA448862   5.319   7.773   2.135  0.3909  0.7014  0.3791
18611THY    CA548863   5.316   7.608   2.001  0.1728 -0.5358 -0.5515
18611THY    CM148864   5.280   7.697   1.884 -1.0611  0.0342  0.3926
18611THY    HM148865   5.224   7.789   1.901 -0.2099 -0.1166  0.9461
18611THY    HM248866   5.224   7.641   1.808 -0.6249  0.3366 -0.4764
18611THY    HM348867   5.373   7.734   1.839  0.8432  2.7534 -0.7544
18611THY    CA648868   5.325   7.468   1.977  0.3863 -0.1535 -0.5966
18611THY    HA648869   5.293   7.438   1.879 -2.7496 -0.1437  2.1261
18612THY      O48870   0.309   0.538   2.598 -0.3642  0.0443  0.5307
18612THY     HO48871   0.328   0.456   2.647 -2.6433  0.2300  0.0465
18612THY    CA148872   0.320   0.517   2.469  0.1863 -0.3144 -0.2669
18612THY    CA248873   0.300   0.619   2.375  0.0157 -0.5975 -0.0069
18612THY    CP148874   0.260   0.758   2.431 -0.2543  0.3316 -0.1242
18612THY    HP148875   0.212   0.760   2.530  1.5768  1.2431  0.2443
18612THY    CP248876   0.150   0.813   2.339 -0.3709 -0.2354  0.2846
18612THY    HP248877   0.113   0.909   2.376  0.1146  0.5828  0.1654
18612THY    HP348878   0.067   0.741   2.347  0.6640 -1.6744 -1.1337
18612THY    HP448879   0.175   0.825   2.233 -0.7061 -0.5036 -1.2021
18612THY    CP348880   0.377   0.863   2.426  0.8862  0.1809  0.4321
18612THY    HP548881   0.346   0.964   2.456  0.0223  1.6256 -0.2323
18612THY    HP648882   0.397   0.872   2.319  0.4132  0.1324  0.9790
18612THY    HP748883   0.471   0.828   2.471 -0.0997  1.8909 -0.1566
18612THY    CA348884   0.325   0.586   2.235 -0.7748 -0.2549  0.0504
18612THY    HA348885   0.321   0.666   2.162  4.0245 -0.6515  0.1912
18612THY    CA448886   0.366   0.460   2.191  0.4580  0.2424  0.3831
18612THY    HA448887   0.371   0.447   2.083 -3.6449 -0.0850 -0.0435
18612THY    CA548888   0.390   0.366   2.290  0.0352  0.2093 -0.4434
18612THY    CM148889   0.438   0.234   2.248  0.1750  0.5422 -0.0838
18612THY    HM148890   0.360   0.174   2.200  0.6211  0.2308 -0.4231
18612THY    HM248891   0.472   0.180   2.338  1.4561  0.2011  0.1115
18612THY    HM348892   0.512   0.234   2.167  0.7634  1.0525 -0.9951
18612THY    CA648893   0.362   0.393   2.427  0.1769  0.5892 -0.5958
18612THY    HA648894   0.376   0.310   2.496  1.7638  0.8482 -0.1392
18613THY      O48895   5.545   4.340   3.843 -0.1256 -0.1154  0.2574
18613THY     HO48896   5.585   4.413   3.894  1.6136 -0.2035 -0.5716
18613THY    CA148897   5.418   4.376   3.818 -1.2717 -0.0633  0.3096
18613THY    CA248898   5.318   4.282   3.785 -0.2875 -0.0451  0.0221
18613THY    CP148899   5.347   4.129   3.783 -0.7561 -0.4220  0.0422
18613THY    HP148900   5.454   4.104   3.777 -1.0782  1.1391 -1.8879
18613THY    CP248901   5.287   4.058   3.663 -0.4720  0.6647  0.4550
18613THY    HP248902   5.186   4.096   3.643 -1.3980  0.9843 -1.7252
18613THY    HP348903   5.281   3.949   3.672 -0.3942  0.9719  0.4746
18613THY    HP448904   5.354   4.063   3.576  1.0271  1.6760 -0.8643
18613THY    CP348905   5.292   4.068   3.913  0.1531 -0.3178  0.5056
18613THY    HP548906   5.182   4.073   3.910  0.0343  0.1482 -1.2181
18613THY    HP648907   5.336   4.122   3.998  0.5388  0.0621 -0.4003
18613THY    HP748908   5.322   3.964   3.930  0.0989 -3.0102 -0.0209
18613THY    CA348909   5.189   4.335   3.761  0.3500 -0.6266 -0.3575
18613THY    HA348910   5.102   4.274   3.736 -0.3756  2.3646 -0.6951
18613THY    CA448911   5.173   4.475   3.762 -0.8013 -0.3642 -0.6361
18613THY    HA448912   5.079   4.527   3.745  0.9966  0.0935  3.0841
18613THY    CA548913   5.273   4.569   3.789  0.2647 -0.5317  0.4383
18613THY    CM148914   5.254   4.721   3.788 -0.1221 -0.0431 -0.8639
18613THY    HM148915   5.303   4.764   3.876  1.2021 -1.0150 -0.3287
18613THY    HM248916   5.150   4.752   3.800  0.4294 -0.2479  1.2073
18613THY    HM348917   5.296   4.771   3.700 -0.6132 -1.5862 -3.0055
18613THY    CA648918   5.398   4.515   3.822 -0.0986  0.5794  0.0970
18613THY    HA648919   5.480   4.586   3.832 -2.1874 -0.0207  2.7847
18614THY      O48920   4.465   8.683   3.022  0.4250  1.3271 -0.1456
18614THY     HO48921   4.501   8.762   2.980 -2.4247  2.2374  1.8129
18614THY    CA148922   4.351   8.654   2.951 -0.5090  0.3201  0.2816
18614THY    CA248923   4.254   8.552   2.987 -1.1633 -0.2149 -0.3095
18614THY    CP148924   4.274   8.472   3.109  0.2119 -0.1134 -0.0927
18614THY    HP148925   4.340   8.530   3.176 -1.4878  2.6729 -1.1756
18614THY    CP248926   4.353   8.337   3.090  0.7050  0.2811 -0.4659
18614THY    HP248927   4.297   8.271   3.023 -1.2590  0.9687  0.4433
18614THY    HP348928   4.374   8.291   3.187  0.2825  1.5276  1.8092
18614THY    HP448929   4.443   8.361   3.031  0.6198  0.6198  0.7464
18614THY    CP348930   4.150   8.447   3.194 -0.3022 -0.2316 -0.2642
18614THY    HP548931   4.098   8.541   3.217  0.8480 -1.4508  0.7050
18614THY    HP648932   4.178   8.401   3.290 -1.8298  0.8058  0.8843
18614THY    HP748933   4.080   8.379   3.144  2.5360 -2.1276 -2.0095
18614THY    CA348934   4.142   8.541   2.910 -0.4148 -0.0564 -0.8412
18614THY    HA348935   4.063   8.473   2.940 -1.8954  0.7124  1.0984
18614THY    CA448936   4.115   8.617   2.797  0.4250  0.4383 -0.7757
18614THY    HA448937   4.029   8.598   2.733  0.6703 -0.0507 -0.2823
18614THY    CA548938   4.209   8.709   2.764  0.0420  0.8294  0.5661
18614THY    CM148939   4.192   8.793   2.638 -0.5026  0.1379 -0.1101
18614THY    HM148940   4.258   8.762   2.557 -1.3844  0.2151 -2.3178
18614THY    HM248941   4.218   8.899   2.653  3.1343 -1.7995 -0.5898
18614THY    HM348942   4.090   8.805   2.600 -0.2741 -0.3302  0.4147
18614THY    CA648943   4.326   8.728   2.837  0.2851  0.7326  0.9121
18614THY    HA648944   4.383   8.816   2.807  0.3064 -0.1004  0.6227
18615THY      O48945   5.666   7.917   6.770  0.2020 -0.3167 -0.1821
18615THY     HO48946   5.698   7.878   6.853  3.0811 -0.4185  1.6099
18615THY    CA148947   5.672   8.044   6.798 -1.4848  0.0493 -0.3653
18615THY    CA248948   5.705   8.135   6.699 -0.8360  0.2725  0.2157
18615THY    CP148949   5.710   8.090   6.545  0.0564  0.3611  0.3860
18615THY    HP148950   5.731   7.983   6.533 -1.4735  1.0655 -0.0163
18615THY    CP248951   5.831   8.155   6.468  0.1480  0.3153  0.3546
18615THY    HP248952   5.925   8.121   6.514  1.9719 -1.3310  2.7718
18615THY    HP348953   5.826   8.265   6.476 -0.5586 -2.2757  0.5702
18615THY    HP448954   5.827   8.129   6.362 -2.3119  0.8710 -1.8864
18615THY    CP348955   5.572   8.121   6.480 -0.4262 -0.4340 -0.1036
18615THY    HP548956   5.580   8.227   6.453  1.0984 -0.2825 -0.1615
18615THY    HP648957   5.493   8.104   6.554  1.1933  1.9287  1.8687
18615THY    HP748958   5.552   8.052   6.398  0.1072  1.3977 -2.5856
18615THY    CA348959   5.737   8.269   6.732 -0.1467  0.8617  0.1276
18615THY    HA348960   5.746   8.343   6.654  0.3247  0.7845 -0.0059
18615THY    CA448961   5.725   8.308   6.867 -0.2850 -0.3478  0.9113
18615THY    HA448962   5.747   8.412   6.891 -0.2913  1.9538  0.4346
18615THY    CA548963   5.704   8.213   6.966 -0.8366  0.6748 -0.1260
18615THY    CM148964   5.694   8.253   7.103 -0.1250 -0.1085  0.1761
18615THY    HM148965   5.735   8.173   7.165  0.2598 -0.8893 -0.2497
18615THY    HM248966   5.589   8.261   7.133  0.0145  0.2265  0.8584
18615THY    HM348967   5.746   8.346   7.132  2.6706  0.6031 -1.4769
18615THY    CA648968   5.681   8.083   6.932 -0.1307  0.3147  0.4851
18615THY    HA648969   5.666   8.000   7.002 -1.1786 -2.2851 -1.6616
18616THY      O48970   1.502   5.618   4.134 -0.1160  0.0584  0.6320
18616THY     HO48971   1.466   5.551   4.074  0.8504  0.6273 -0.4378
18616THY    CA148972   1.420   5.633   4.240 -0.2529  0.1224  0.0437
18616THY    CA248973   1.451   5.701   4.358 -0.5732  0.3256  0.4556
18616THY    CP148974   1.596   5.750   4.394  0.3748 -0.3064  0.0637
18616THY    HP148975   1.673   5.702   4.331  2.3332  2.4134 -0.6484
18616THY    CP248976   1.636   5.719   4.541  0.3021  0.4522  0.1162
18616THY    HP248977   1.745   5.732   4.548  0.7086 -4.4105  1.1567
18616THY    HP348978   1.620   5.615   4.571  2.0204  0.9775 -0.0424
18616THY    HP448979   1.606   5.797   4.613 -1.4244  0.3531 -0.4274
18616THY    CP348980   1.631   5.904   4.351 -0.2100 -0.0938 -0.0754
18616THY    HP548981   1.739   5.924   4.359 -0.4715  0.2694  1.2635
18616THY    HP648982   1.571   5.973   4.412  0.9286 -1.6127  2.3821
18616THY    HP748983   1.610   5.918   4.245  2.9006 -0.8292 -0.1424
18616THY    CA348984   1.350   5.714   4.457  0.6144  0.3226 -0.2724
18616THY    HA348985   1.381   5.769   4.545 -1.0303  1.1568 -0.6303
18616THY    CA448986   1.223   5.665   4.440 -0.2443 -1.6790 -1.5620
18616THY    HA448987   1.150   5.678   4.520  2.1223  0.4940 -0.5358
18616THY    CA548988   1.189   5.599   4.319 -0.4528 -0.1451 -0.5072
18616THY    CM148989   1.054   5.554   4.301  0.3360 -0.2175  0.0120
18616THY    HM148990   0.978   5.629   4.323 -0.6184 -1.9402 -0.3913
18616THY    HM248991   1.049   5.466   4.365 -0.9119 -0.0539  0.1873
18616THY    HM348992   1.038   5.516   4.199  0.3431 -0.8646  1.6551
18616THY    CA648993   1.291   5.588   4.224 -0.5119 -0.1004 -0.3638
18616THY    HA648994   1.259   5.542   4.131 -3.3336 -0.1022  1.3734
18617THY      O48995   8.466   3.962   5.532  0.2015  0.3152  0.1409
18617THY     HO48996   8.437   4.024   5.600 -0.1618  0.3305 -0.0475
18617THY    CA148997   8.362   3.937   5.452  0.3183 -0.9016 -0.7196
18617THY    CA248998   8.319   3.813   5.397 -0.4460  0.2897 -0.5505
18617THY    CP148999   8.396   3.682   5.438 -0.6147 -0.1975 -0.4282
18617THY    HP149000   8.504   3.697   5.450 -0.3306 -0.0318 -2.2998
18617THY    CP249001   8.394   3.573   5.333 -0.1660 -0.2579 -0.1219
18617THY    HP249002   8.481   3.510   5.355 -0.4249  1.2735  0.0016
18617THY    HP349003   8.403   3.611   5.231 -0.9741 -0.9539 -1.7245
18617THY    HP449004   8.315   3.498   5.340 -0.4757 -2.1872 -0.0211
18617THY    CP349005   8.352   3.621   5.570 -0.5857 -0.7753 -0.5239
18617THY    HP549006   8.415   3.541   5.610 -0.8565  1.3162  0.2206
18617THY    HP649007   8.251   3.579   5.559 -0.2148 -0.8590 -1.4135
18617THY    HP749008   8.349   3.690   5.655 -1.6900  0.0557 -1.5497
18617THY    CA349009   8.204   3.812   5.314 -0.3373  0.1504 -0.5351
18617THY    HA349010   8.169   3.717   5.275  0.3958  1.0242 -1.1834
18617THY    CA449011   8.141   3.937   5.279 -0.0523  0.1380 -0.3423
18617THY    HA449012   8.060   3.943   5.207  0.9170 -0.8465  2.4802
18617THY    CA549013   8.197   4.059   5.323  0.1418  0.0297 -0.0979
18617THY    CM149014   8.132   4.192   5.293 -0.3115 -0.3666 -0.1747
18617THY    HM149015   8.027   4.192   5.326 -0.8422 -2.0033 -0.0886
18617THY    HM249016   8.134   4.209   5.185  1.7642 -0.4933 -0.9715
18617THY    HM349017   8.188   4.274   5.339 -1.0059  0.0312  0.0871
18617THY    CA649018   8.308   4.050   5.408 -0.9949  0.2589 -0.3497
18617THY    HA649019   8.352   4.145   5.439 -0.5186 -0.8124 -0.2014
18618THY      O49020   4.885   0.971   7.296  0.3910 -0.9255  1.1440
18618THY     HO49021   4.923   0.887   7.268 -0.3505 -1.1178  0.8627
18618THY    CA149022   4.970   1.019   7.390  0.1246 -0.2982 -0.3843
18618THY    CA249023   4.948   1.148   7.438  0.7079 -0.6413  0.1232
18618THY    CP149024   4.844   1.248   7.369  0.0207  0.2011  0.2631
18618THY    HP149025   4.775   1.190   7.307 -1.2503  1.7153  0.0950
18618THY    CP249026   4.923   1.350   7.282  0.4945 -0.3087  0.1004
18618THY    HP249027   5.007   1.312   7.223  1.4081  0.9573  0.0866
18618THY    HP349028   4.952   1.438   7.340 -1.0271 -0.2622  0.5921
18618THY    HP449029   4.857   1.383   7.201  0.5232 -0.0541  0.7907
18618THY    CP349030   4.761   1.328   7.472 -0.2834 -0.5856 -0.8931
18618THY    HP549031   4.736   1.420   7.418 -0.4942 -3.2885 -2.4535
18618THY    HP649032   4.813   1.355   7.566  1.5029 -2.0202  0.9968
18618THY    HP749033   4.664   1.283   7.496 -1.6370  1.1836  2.5882
18618THY    CA349034   5.046   1.199   7.527 -0.3554 -0.3899  0.0424
18618THY    HA349035   5.028   1.297   7.572 -0.6134  2.7074 -1.3050
18618THY    CA449036   5.148   1.115   7.577  0.5567 -0.1674 -0.7295
18618THY    HA449037   5.215   1.154   7.652  0.0784 -0.6029  1.0336
18618THY    CA549038   5.160   0.986   7.523 -0.0609  0.3526  0.1300
18618THY    CM149039   5.278   0.909   7.571 -0.6779 -0.1827 -0.1646
18618THY    HM149040   5.255   0.870   7.671 -0.3699 -0.0794 -0.0870
18618THY    HM249041   5.375   0.959   7.578 -0.0441 -2.8258 -0.8537
18618THY    HM349042   5.288   0.814   7.517 -1.8233 -0.6646 -0.0241
18618THY    CA649043   5.069   0.938   7.432 -0.1071  0.0388  0.0851
18618THY    HA649044   5.081   0.838   7.392 -0.8789  2.4195 -1.0323
18619THY      O49045   2.514   3.963   4.860 -0.5260 -0.4378 -0.4291
18619THY     HO49046   2.502   3.995   4.951 -1.3883 -0.5491 -0.4108
18619THY    CA149047   2.501   4.070   4.775 -0.3755  0.2295 -0.0008
18619THY    CA249048   2.533   4.045   4.640 -0.5529  0.4167 -0.1259
18619THY    CP149049   2.557   3.902   4.588 -0.1819  0.0885  0.2528
18619THY    HP149050   2.518   3.835   4.666  3.0224  2.1305  0.5311
18619THY    CP249051   2.703   3.892   4.556 -0.3550 -0.7140 -0.0988
18619THY    HP249052   2.727   3.787   4.533  1.2298  2.3993 -0.5457
18619THY    HP349053   2.767   3.915   4.642  1.1716 -0.7371 -3.6280
18619THY    HP449054   2.730   3.962   4.477  0.6889  1.2627  1.8620
18619THY    CP349055   2.472   3.873   4.455 -0.1776 -0.5842  0.0864
18619THY    HP549056   2.466   3.765   4.433 -1.3441  0.3092 -0.0484
18619THY    HP649057   2.497   3.934   4.368  2.5298  1.3494  1.9663
18619THY    HP749058   2.368   3.894   4.480 -0.3266 -0.6049 -0.6037
18619THY    CA349059   2.529   4.151   4.552 -0.3025  0.5557  0.3439
18619THY    HA349060   2.536   4.141   4.444 -0.5088  0.7057 -1.7862
18619THY    CA449061   2.494   4.281   4.600  0.3644  0.2120  0.1627
18619THY    HA449062   2.481   4.372   4.542 -0.0303 -0.7916 -0.5209
18619THY    CA549063   2.484   4.303   4.740 -0.2493 -0.3656  0.4176
18619THY    CM149064   2.444   4.444   4.789  0.5339  0.1773 -0.3353
18619THY    HM149065   2.500   4.522   4.736 -0.4292 -0.3475  0.0109
18619THY    HM249066   2.466   4.454   4.896 -0.1790  0.4020 -1.0930
18619THY    HM349067   2.341   4.473   4.768  1.0939 -1.5224  0.5695
18619THY    CA649068   2.485   4.193   4.830  0.5196 -0.4837 -1.1037
18619THY    HA649069   2.462   4.208   4.935 -0.4907 -0.0281 -4.8158
18620THY      O49070   0.469   5.982   5.819 -0.2745  0.0779 -0.5958
18620THY     HO49071   0.449   5.964   5.912 -0.2113  0.6810  1.9692
18620THY    CA149072   0.388   6.079   5.776  0.7080 -0.4458 -0.1274
18620THY    CA249073   0.371   6.104   5.642  0.1495  0.3041 -0.5377
18620THY    CP149074   0.440   6.017   5.534  0.1441 -0.5943 -0.0392
18620THY    HP149075   0.536   5.986   5.578  0.1403 -0.0801  0.6733
18620THY    CP249076   0.465   6.089   5.403  0.1993 -0.2346  0.0346
18620THY    HP249077   0.527   6.178   5.422  0.2628  2.9935 -0.5775
18620THY    HP349078   0.372   6.116   5.352 -0.9573  2.3235  1.2082
18620THY    HP449079   0.525   6.034   5.330 -1.7287 -0.8735 -1.3181
18620THY    CP349080   0.357   5.897   5.497 -0.0697  0.6335  0.8612
18620THY    HP549081   0.264   5.935   5.453  1.1649 -0.3475  2.8841
18620THY    HP649082   0.331   5.850   5.593 -0.9143  0.2941  0.6098
18620THY    HP749083   0.396   5.822   5.427 -2.5868 -1.3332  1.2733
18620THY    CA349084   0.281   6.205   5.604 -0.1677 -0.1013 -0.6278
18620THY    HA349085   0.269   6.222   5.497  1.9044 -0.6281 -2.0263
18620THY    CA449086   0.217   6.285   5.709  0.2676  0.1032  0.6845
18620THY    HA449087   0.135   6.352   5.682 -1.4997 -1.9325 -2.0407
18620THY    CA549088   0.234   6.245   5.841  1.1368 -0.0966 -0.5128
18620THY    CM149089   0.149   6.304   5.949 -0.1778  0.1659 -0.5589
18620THY    HM149090   0.069   6.372   5.918  2.1248  2.2019  3.5005
18620THY    HM249091   0.209   6.363   6.020  0.1008 -0.4654 -0.0638
18620THY    HM349092   0.097   6.221   5.998  0.1681 -0.4549 -1.1535
18620THY    CA649093   0.318   6.141   5.878  0.2485  0.4381 -0.5604
18620THY    HA649094   0.333   6.120   5.984  2.7129 -0.0204 -1.3761
18621THY      O49095   0.491   5.885   2.641 -0.6280 -0.3032  0.5412
18621THY     HO49096   0.478   5.926   2.554 -0.3944  0.2469  1.8505
18621THY    CA149097   0.605   5.937   2.689  0.3961 -0.1435 -0.4297
18621THY    CA249098   0.681   5.881   2.796  0.0472  0.1659 -0.2147
18621THY    CP149099   0.653   5.746   2.858  0.0091  0.3239 -0.4375
18621THY    HP149100   0.574   5.694   2.804  0.4000 -0.7646  0.0790
18621THY    CP249101   0.609   5.765   3.008 -0.1222  0.8687 -0.3777
18621THY    HP249102   0.660   5.856   3.042 -2.1329  1.1497  0.7038
18621THY    HP349103   0.639   5.679   3.069  2.8717 -0.0593 -0.0806
18621THY    HP449104   0.504   5.796   3.018  0.3344  0.1783  1.5288
18621THY    CP349105   0.777   5.662   2.846  0.1837  0.4684 -0.0285
18621THY    HP549106   0.751   5.562   2.884 -0.8781  1.8031  0.7234
18621THY    HP649107   0.862   5.704   2.900  0.3335  0.0276  0.2441
18621THY    HP749108   0.808   5.636   2.743 -0.0939  0.1489  0.8808
18621THY    CA349109   0.785   5.957   2.848 -0.2246  0.0368  0.1875
18621THY    HA349110   0.838   5.912   2.931  1.5618 -1.1442 -0.0008
18621THY    CA449111   0.810   6.086   2.796  0.7212 -0.2152  0.0665
18621THY    HA449112   0.888   6.150   2.836 -0.2625 -0.0510  1.2217
18621THY    CA549113   0.745   6.141   2.681  0.0824  0.1461 -0.0046
18621THY    CM149114   0.779   6.268   2.618 -0.2912 -0.2827  0.7187
18621THY    HM149115   0.755   6.348   2.688 -3.6443  1.8563 -1.9056
18621THY    HM249116   0.725   6.287   2.524 -1.6961  0.6114  1.2771
18621THY    HM349117   0.885   6.269   2.589  0.6943  3.0150  1.6792
18621THY    CA649118   0.634   6.064   2.637  0.6580  0.1842  0.1431
18621THY    HA649119   0.571   6.094   2.554 -0.9978  1.9099  1.6674
18622THY      O49120   2.027   3.564   3.994 -0.4341 -0.0731  0.2812
18622THY     HO49121   2.031   3.477   3.951  1.0962  0.0100  0.2764
18622THY    CA149122   2.153   3.598   4.031  0.1801  0.8913  0.1449
18622THY    CA249123   2.183   3.682   4.141  0.0958 -0.0937 -0.4959
18622THY    CP149124   2.076   3.728   4.238 -0.2897  0.2030  0.1765
18622THY    HP149125   1.979   3.679   4.226 -1.0293  2.4251  0.9824
18622THY    CP249126   2.060   3.881   4.239 -0.2668 -0.3882  0.9231
18622THY    HP249127   1.966   3.904   4.290 -0.7467  0.3916 -2.3619
18622THY    HP349128   2.039   3.913   4.136  0.6033 -0.5055  1.1418
18622THY    HP449129   2.151   3.940   4.256  0.3851  0.9012 -0.3737
18622THY    CP349130   2.115   3.686   4.387  0.2843  0.2148  0.2019
18622THY    HP549131   2.202   3.736   4.432 -1.1725  1.6535  1.5710
18622THY    HP649132   2.131   3.579   4.398 -0.8983 -0.3626 -0.0429
18622THY    HP749133   2.032   3.719   4.449 -1.1859 -1.0536 -0.9738
18622THY    CA349134   2.316   3.728   4.151  0.2121  0.5891 -0.0777
18622THY    HA349135   2.339   3.794   4.235  1.2528  1.4060 -1.4171
18622THY    CA449136   2.413   3.686   4.063 -0.1785 -0.7002  0.1175
18622THY    HA449137   2.512   3.729   4.076 -0.7866  0.0451  1.3683
18622THY    CA549138   2.381   3.595   3.968 -0.1075  0.6049 -0.0518
18622THY    CM149139   2.487   3.547   3.870 -0.0768  0.7845 -0.1256
18622THY    HM149140   2.588   3.573   3.905  0.6672 -0.2227 -1.5012
18622THY    HM249141   2.473   3.579   3.767 -0.0310  0.2422 -1.7737
18622THY    HM349142   2.488   3.437   3.874 -1.2802  1.9456 -0.1205
18622THY    CA649143   2.251   3.554   3.948 -0.3509  0.1425 -0.2274
18622THY    HA649144   2.223   3.482   3.871 -1.7262  0.2882  0.1205
18623THY      O49145   5.598   5.780   5.928  0.7008 -0.2278 -0.0512
18623THY     HO49146   5.683   5.816   5.898  0.2413 -0.7425  0.6503
18623THY    CA149147   5.617   5.653   5.895 -0.2740 -0.5641  0.4538
18623THY    CA249148   5.516   5.557   5.891  0.1517  0.6101  0.6182
18623THY    CP149149   5.370   5.607   5.885 -0.2562  0.4256 -0.1880
18623THY    HP149150   5.363   5.702   5.939  1.5536 -0.8176  0.7154
18623THY    CP249151   5.269   5.515   5.966 -0.1188 -0.2303  0.5581
18623THY    HP249152   5.249   5.417   5.921  2.0698  0.1081 -0.1042
18623THY    HP349153   5.172   5.565   5.981 -0.5428  3.3601 -1.1035
18623THY    HP449154   5.303   5.491   6.067 -1.0801  0.3005  1.3271
18623THY    CP349155   5.317   5.625   5.740 -0.0034 -0.4265  0.2530
18623THY    HP549156   5.363   5.704   5.681 -1.3178 -3.8318 -1.2983
18623THY    HP649157   5.209   5.639   5.729  0.0989 -1.5369  0.1914
18623THY    HP749158   5.331   5.534   5.680 -1.2446  1.8134 -1.5376
18623THY    CA349159   5.553   5.420   5.876 -0.7798 -0.2547  0.1825
18623THY    HA349160   5.476   5.344   5.862 -1.0020  2.2659 -0.1325
18623THY    CA449161   5.694   5.381   5.856  0.8316  0.2217 -0.4097
18623THY    HA449162   5.728   5.278   5.853  1.7925 -0.2823 -0.0950
18623THY    CA549163   5.791   5.487   5.852 -0.4418 -0.5491 -0.1775
18623THY    CM149164   5.936   5.464   5.822 -0.9921  0.4105 -0.0095
18623THY    HM149165   6.005   5.534   5.871  0.2446  0.8177 -1.4574
18623THY    HM249166   5.957   5.482   5.716 -2.2100  0.4557  1.9983
18623THY    HM349167   5.968   5.361   5.839  0.4638 -0.3536  0.2976
18623THY    CA649168   5.749   5.621   5.863 -0.3863 -0.4458  0.2717
18623THY    HA649169   5.819   5.703   5.856 -1.3857  1.9047  1.4487
18624THY      O49170   9.032   6.055   2.868  0.3744  0.2077 -0.6855
18624THY     HO49171   9.102   6.117   2.895 -2.3890 -0.0853  2.9032
18624THY    CA149172   8.985   6.110   2.757 -0.1163 -0.7569  0.6510
18624THY    CA249173   8.872   6.058   2.695  0.3986 -0.4713 -0.2565
18624THY    CP149174   8.810   5.930   2.756  0.2238  0.1010 -0.5053
18624THY    HP149175   8.826   5.929   2.865  1.5207 -0.0267  1.4551
18624THY    CP249176   8.870   5.806   2.692 -0.1310  0.5006  0.2824
18624THY    HP249177   8.979   5.805   2.680 -0.2756 -3.3759 -3.9771
18624THY    HP349178   8.831   5.786   2.591  1.1682  0.3657 -1.7482
18624THY    HP449179   8.848   5.714   2.748 -1.2082 -2.4155 -1.3783
18624THY    CP349180   8.658   5.917   2.740  0.0043  0.3139 -0.7873
18624THY    HP549181   8.637   5.917   2.632  0.9292  0.1205 -0.2731
18624THY    HP649182   8.598   5.990   2.796  1.7217  1.4138 -0.1580
18624THY    HP749183   8.626   5.816   2.770  2.4277 -0.1292 -1.7638
18624THY    CA349184   8.837   6.105   2.567  0.0944 -0.1560 -0.4662
18624THY    HA349185   8.756   6.051   2.517 -0.0243 -0.5712  0.0871
18624THY    CA449186   8.905   6.210   2.510 -0.7085 -0.0808 -0.4104
18624THY    HA449187   8.882   6.258   2.415 -0.1214 -0.2759 -0.5026
18624THY    CA549188   9.013   6.266   2.579 -0.5606  0.9216 -0.1905
18624THY    CM149189   9.102   6.368   2.518 -0.3040 -0.5007 -0.4299
18624THY    HM149190   9.048   6.461   2.501  1.7143  0.5618  1.0026
18624THY    HM249191   9.147   6.329   2.426  1.7259  1.0031 -1.8446
18624THY    HM349192   9.189   6.391   2.580  0.2208  0.2132 -3.7653
18624THY    CA649193   9.046   6.217   2.701  0.0931 -0.3253 -0.3690
18624THY    HA649194   9.135   6.257   2.748 -1.6928  1.7770  1.4702
18625THY      O49195   7.577   8.316   6.688  0.2153 -0.7271  0.5191
18625THY     HO49196   7.498   8.372   6.701 -0.0089 -0.7160  0.2023
18625THY    CA149197   7.664   8.366   6.784  0.7221 -0.3249 -0.3105
18625THY    CA249198   7.772   8.292   6.832 -0.3172 -1.0078 -0.8897
18625THY    CP149199   7.798   8.153   6.772  0.4254 -0.3316 -0.4081
18625THY    HP149200   7.761   8.133   6.671  1.3526 -0.6578 -0.5088
18625THY    CP249201   7.727   8.057   6.864 -1.1873 -0.2810 -0.6795
18625THY    HP249202   7.724   7.952   6.831 -0.5607 -1.9990 -0.1883
18625THY    HP349203   7.622   8.088   6.875 -1.3631  0.8725 -1.5995
18625THY    HP449204   7.766   8.057   6.966  0.9328 -1.0474 -1.4808
18625THY    CP349205   7.947   8.111   6.764  0.6062 -0.2854 -0.8097
18625THY    HP549206   8.001   8.170   6.689  2.2795  0.8130 -0.8845
18625THY    HP649207   7.952   8.008   6.728  0.7680  0.8395 -1.2100
18625THY    HP749208   8.000   8.116   6.859  0.6452 -0.2834 -1.2664
18625THY    CA349209   7.843   8.346   6.934 -0.4845 -0.2817  0.5645
18625THY    HA349210   7.920   8.289   6.984 -1.9617  0.7833 -0.5958
18625THY    CA449211   7.814   8.469   6.986  0.3990 -0.6627 -0.0374
18625THY    HA449212   7.871   8.506   7.071  0.9761 -0.7700 -0.6721
18625THY    CA549213   7.705   8.545   6.936 -0.2167  0.0307 -0.1529
18625THY    CM149214   7.674   8.676   6.989 -0.8866 -0.3164  0.3051
18625THY    HM149215   7.743   8.701   7.071 -0.3813 -0.1658 -1.4907
18625THY    HM249216   7.580   8.680   7.045 -1.0982 -0.5907 -0.6766
18625THY    HM349217   7.659   8.750   6.910 -2.8400 -1.6762 -1.4328
18625THY    CA649218   7.637   8.491   6.832 -0.4541  0.7484  0.3366
18625THY    HA649219   7.554   8.552   6.796 -0.5639  1.2860  0.5034
18626THY      O49220   5.787   3.856   2.717  0.3630  0.4374  1.0958
18626THY     HO49221   5.866   3.911   2.733  1.4863 -0.0869 -0.3052
18626THY    CA149222   5.802   3.767   2.610 -0.0571 -0.3564  0.3669
18626THY    CA249223   5.705   3.664   2.587  0.2401 -0.3511 -0.3557
18626THY    CP149224   5.569   3.656   2.660  0.1120  0.1834  0.2507
18626THY    HP149225   5.558   3.732   2.738 -0.3313  0.1824  0.1926
18626THY    CP249226   5.566   3.523   2.743 -0.0822 -0.3869  0.1728
18626THY    HP249227   5.644   3.508   2.819  0.1126 -0.5448  0.3694
18626THY    HP349228   5.571   3.438   2.673  0.3789  0.1846 -0.2759
18626THY    HP449229   5.474   3.522   2.802  0.0745 -0.1396  0.3197
18626THY    CP349230   5.461   3.672   2.547 -0.2930 -1.3525 -0.8650
18626THY    HP549231   5.364   3.659   2.596  0.3756  0.5147  0.6338
18626THY    HP649232   5.476   3.597   2.468  1.5375 -2.4276  0.5323
18626THY    HP749233   5.466   3.770   2.496  0.5170  0.6308  0.1837
18626THY    CA349234   5.737   3.569   2.490 -0.2041  0.0092 -0.2925
18626THY    HA349235   5.660   3.500   2.458 -1.7940  2.1800  0.3423
18626THY    CA449236   5.847   3.581   2.412 -0.2949  0.1827  0.2320
18626THY    HA449237   5.864   3.515   2.328  0.7633 -0.7359  1.5944
18626THY    CA549238   5.938   3.680   2.438  0.0513 -0.0236  0.3174
18626THY    CM149239   6.059   3.696   2.347  0.0308 -0.7532 -0.2434
18626THY    HM149240   6.142   3.733   2.408  0.2553  0.6693 -2.8459
18626THY    HM249241   6.043   3.772   2.269 -0.3219  1.3355  1.9596
18626THY    HM349242   6.086   3.603   2.296 -1.9818 -2.5527  0.0974
18626THY    CA649243   5.919   3.770   2.541 -0.1334  0.9613  0.6916
18626THY    HA649244   5.988   3.851   2.561  0.7232 -0.1270  0.2538
18627THY      O49245   4.001   3.420   2.227 -0.2093 -0.2666  0.0506
18627THY     HO49246   4.017   3.329   2.255  2.2863 -2.3475 -0.3042
18627THY    CA149247   4.084   3.498   2.306  0.9903 -0.2632  0.4067
18627THY    CA249248   4.073   3.640   2.302 -0.7978  0.6092 -0.0386
18627THY    CP149249   3.991   3.702   2.186 -0.7396  0.3481 -0.5100
18627THY    HP149250   4.008   3.641   2.097  0.9250  0.4879 -0.3010
18627THY    CP249251   4.043   3.845   2.146  0.3340  0.0738  0.4404
18627THY    HP249252   3.987   3.863   2.054 -0.8302  0.3568 -1.4989
18627THY    HP349253   4.149   3.845   2.117  0.3182  0.0162  0.4944
18627THY    HP449254   4.027   3.918   2.226  0.3373  1.3168 -0.8761
18627THY    CP349255   3.840   3.716   2.217 -1.0067  0.6426 -0.7659
18627THY    HP549256   3.784   3.755   2.131  0.3154  0.8578  1.8191
18627THY    HP649257   3.839   3.778   2.307  0.3905 -0.3262  0.7627
18627THY    HP749258   3.814   3.614   2.248  3.0497  1.9757 -1.6004
18627THY    CA349259   4.137   3.709   2.407  0.3134  0.1902  0.4943
18627THY    HA349260   4.131   3.817   2.415 -0.9627  0.7988  0.3950
18627THY    CA449261   4.208   3.635   2.502 -0.2145 -0.0906 -0.2140
18627THY    HA449262   4.261   3.692   2.578 -1.0112  1.3753 -1.3931
18627THY    CA549263   4.224   3.498   2.497  0.2746 -0.6582  0.5393
18627THY    CM149264   4.295   3.418   2.596 -0.0570  0.2929 -0.5322
18627THY    HM149265   4.388   3.472   2.618  1.1829 -1.6946 -1.7498
18627THY    HM249266   4.320   3.316   2.564 -2.2193  0.2248 -1.1022
18627THY    HM349267   4.241   3.424   2.691  1.2841  1.0025  2.3319
18627THY    CA649268   4.156   3.424   2.403 -0.8755  0.2049 -0.4554
18627THY    HA649269   4.165   3.315   2.401 -1.4097  0.4590 -0.5078
18628THY      O49270   4.577   5.351   3.202  0.9673 -0.2508  0.0060
18628THY     HO49271   4.642   5.355   3.274  1.8900 -0.9899 -1.0465
18628THY    CA149272   4.636   5.402   3.091  0.3930 -0.2401  0.6283
18628THY    CA249273   4.563   5.402   2.966 -0.5620 -0.7119 -0.0168
18628THY    CP149274   4.418   5.355   2.962  0.4718  0.2690  0.0337
18628THY    HP149275   4.383   5.300   3.050 -1.3424 -0.5115 -0.1429
18628THY    CP249276   4.415   5.243   2.850  0.3219 -0.1681 -0.3598
18628THY    HP249277   4.387   5.296   2.758 -1.1466  0.3277 -0.2405
18628THY    HP349278   4.327   5.181   2.868  0.1501 -1.5949 -0.5708
18628THY    HP449279   4.503   5.180   2.833  0.4036 -1.2707  0.0245
18628THY    CP349280   4.314   5.470   2.945 -0.2544  0.0067 -0.3311
18628THY    HP549281   4.328   5.551   3.018  1.0110  0.2049 -0.7071
18628THY    HP649282   4.206   5.453   2.947 -0.6824  2.3465  1.9881
18628THY    HP749283   4.332   5.525   2.851 -3.9846  0.0752  1.3465
18628THY    CA349284   4.631   5.440   2.854 -0.1164  0.6272 -0.2411
18628THY    HA349285   4.589   5.438   2.754  0.2092  0.4818 -0.0464
18628THY    CA449286   4.763   5.481   2.861 -0.8889 -0.1751  0.2376
18628THY    HA449287   4.811   5.528   2.776 -1.2351 -1.3337 -1.4141
18628THY    CA549288   4.826   5.479   2.979 -0.6027  0.1274  0.1742
18628THY    CM149289   4.971   5.515   2.974  0.4036  0.4701  0.7246
18628THY    HM149290   4.999   5.589   2.899 -1.4444 -1.7591 -0.7189
18628THY    HM249291   5.028   5.422   2.958  0.2667  0.6134  0.6146
18628THY    HM349292   5.008   5.554   3.070 -0.1655  1.2044 -0.4672
18628THY    CA649293   4.766   5.441   3.099  0.4778 -0.1211 -0.3640
18628THY    HA649294   4.823   5.425   3.190  0.8906 -0.2693  0.2451
18629THY      O49295   8.804   0.647   6.976 -0.9866  0.1280 -0.1550
18629THY     HO49296   8.727   0.692   7.015 -0.8207  2.3566 -1.6264
18629THY    CA149297   8.755   0.545   6.898 -0.0464  0.5524 -0.6673
18629THY    CA249298   8.790   0.539   6.762 -0.2271 -0.4217  0.4431
18629THY    CP149299   8.907   0.629   6.708  0.5188 -0.0179  0.0704
18629THY    HP149300   8.930   0.712   6.775 -1.8635  1.5133 -0.3968
18629THY    CP249301   8.859   0.693   6.574 -0.0276 -0.0518  0.0260
18629THY    HP249302   8.925   0.780   6.562  0.7445  2.4613 -0.1307
18629THY    HP349303   8.758   0.734   6.581  0.6112  0.0320  1.6508
18629THY    HP449304   8.868   0.616   6.496  0.8013  0.9146 -0.8957
18629THY    CP349305   9.045   0.556   6.690  0.6819  0.1556  0.6084
18629THY    HP549306   9.085   0.498   6.773  0.7504 -1.3214 -1.5718
18629THY    HP649307   9.117   0.637   6.671 -0.1550 -1.4526  1.0174
18629THY    HP749308   9.022   0.487   6.608 -0.7675  2.1970 -1.4313
18629THY    CA349309   8.724   0.440   6.679 -0.0448  0.0946  0.0993
18629THY    HA349310   8.751   0.418   6.576  0.5411  0.5080 -1.2359
18629THY    CA449311   8.618   0.360   6.733 -0.1850 -0.0380 -0.5187
18629THY    HA449312   8.573   0.277   6.680 -0.8700  0.4976 -0.4998
18629THY    CA549313   8.575   0.391   6.867  0.2990  0.4510 -0.3174
18629THY    CM149314   8.461   0.307   6.923  0.2284 -0.0539  0.8127
18629THY    HM149315   8.446   0.314   7.031 -1.7289 -0.1387 -0.8981
18629THY    HM249316   8.480   0.203   6.891  0.9399  2.0735  0.2439
18629THY    HM349317   8.372   0.336   6.866 -0.8387  0.7125 -0.7969
18629THY    CA649318   8.650   0.472   6.946  0.6005 -0.6204 -0.3311
18629THY    HA649319   8.615   0.485   7.048 -0.6758 -1.2577  1.7204
18630THY      O49320   5.788   2.261   6.452 -0.1129  0.1675  0.0621
18630THY     HO49321   5.760   2.177   6.492  1.4530 -0.4863 -0.8000
18630THY    CA149322   5.780   2.351   6.549 -0.4877 -0.4293  0.3568
18630THY    CA249323   5.810   2.494   6.530 -0.6050  0.2043  0.7567
18630THY    CP149324   5.858   2.542   6.388  0.8764 -0.0551  0.3095
18630THY    HP149325   5.887   2.451   6.335  0.9035  0.7240 -0.1388
18630THY    CP249326   5.962   2.651   6.388 -0.2970  0.9122  0.1240
18630THY    HP249327   5.983   2.660   6.281 -1.3662  0.6262 -0.5120
18630THY    HP349328   6.049   2.612   6.441 -0.3662  2.8513  2.4208
18630THY    HP449329   5.930   2.751   6.417  0.4971 -2.9638  1.6713
18630THY    CP349330   5.733   2.602   6.320 -0.1700  0.6770 -0.2755
18630THY    HP549331   5.707   2.699   6.364  0.8541 -1.1479  0.8963
18630THY    HP649332   5.655   2.525   6.319 -0.0381  1.8826 -0.4324
18630THY    HP749333   5.754   2.630   6.216  1.7257  0.0454 -3.4944
18630THY    CA349334   5.801   2.588   6.643  0.3075  0.1639  1.0595
18630THY    HA349335   5.805   2.696   6.634  0.3407  3.4519  1.4318
18630THY    CA449336   5.770   2.537   6.769 -0.3209 -0.1545  0.6171
18630THY    HA449337   5.765   2.601   6.857  2.9155  0.9807 -0.4775
18630THY    CA549338   5.762   2.398   6.785  0.7821  0.0861 -0.1656
18630THY    CM149339   5.726   2.345   6.923  0.2109  0.6054 -0.3077
18630THY    HM149340   5.762   2.243   6.939 -1.4780  1.2731 -0.8251
18630THY    HM249341   5.620   2.355   6.947  0.1577  0.2041  0.1190
18630THY    HM349342   5.777   2.405   6.999  1.1050  0.3503 -0.7278
18630THY    CA649343   5.760   2.307   6.678 -0.2113  0.1590 -0.1656
18630THY    HA649344   5.742   2.202   6.700  0.9759 -0.6002 -0.5384
18631THY      O49345   5.685   7.718   4.375  0.2659  0.0880 -0.2807
18631THY     HO49346   5.739   7.754   4.448 -1.6709  0.9195  1.1144
18631THY    CA149347   5.574   7.703   4.444  0.0460  0.1710  0.3911
18631THY    CA249348   5.452   7.644   4.394  0.1743 -0.7053  0.1047
18631THY    CP149349   5.457   7.588   4.254  0.7314  0.3190  0.1731
18631THY    HP149350   5.520   7.654   4.193  0.5991  0.6578  0.6220
18631THY    CP249351   5.318   7.592   4.183 -0.1602 -0.2395 -1.0697
18631THY    HP249352   5.277   7.693   4.184 -0.0735  0.4152 -1.0385
18631THY    HP349353   5.242   7.523   4.220 -0.2309 -0.0229 -0.8753
18631THY    HP449354   5.338   7.561   4.079 -2.4453 -1.6409  1.7077
18631THY    CP349355   5.510   7.446   4.248  0.5811 -0.4320  0.1781
18631THY    HP549356   5.458   7.394   4.330  1.9923  0.2113 -0.2712
18631THY    HP649357   5.616   7.432   4.275  0.7614 -1.4059 -0.4043
18631THY    HP749358   5.497   7.391   4.154  1.2887  0.4139 -1.5176
18631THY    CA349359   5.343   7.626   4.484 -0.9902  0.9671  0.3060
18631THY    HA349360   5.259   7.568   4.446  0.4508  0.6585 -1.6907
18631THY    CA449361   5.351   7.675   4.618  0.1162 -0.4414 -0.4766
18631THY    HA449362   5.269   7.663   4.688  0.3795 -0.0687 -0.1451
18631THY    CA549363   5.473   7.736   4.662  0.0343 -0.2425 -0.4145
18631THY    CM149364   5.477   7.786   4.803 -0.3667 -0.3814  0.5552
18631THY    HM149365   5.440   7.888   4.818  0.2113 -0.4439  0.7787
18631THY    HM249366   5.579   7.788   4.843 -0.2375 -0.7255  1.2629
18631THY    HM349367   5.428   7.716   4.872 -0.5009  0.3882  1.3870
18631THY    CA649368   5.581   7.746   4.577  0.6651  0.1107 -0.9201
18631THY    HA649369   5.665   7.803   4.617  0.5096 -1.7646  0.7111
18632THY      O49370   0.341   0.592   3.023 -0.2873 -0.3227 -0.2660
18632THY     HO49371   0.289   0.631   2.950  0.4408 -0.2319  0.9174
18632THY    CA149372   0.462   0.560   2.977  0.2298  0.0363 -0.6271
18632THY    CA249373   0.557   0.491   3.059  0.3126 -0.6686 -0.0290
18632THY    CP149374   0.510   0.429   3.191  0.0147  0.2178 -0.5148
18632THY    HP149375   0.424   0.482   3.235  0.6305  1.0949 -0.2046
18632THY    CP249376   0.607   0.441   3.313  0.3071 -0.6651 -0.1703
18632THY    HP249377   0.670   0.352   3.322  2.0253  0.2061  1.0471
18632THY    HP349378   0.550   0.456   3.405  2.6264  0.6795  1.0431
18632THY    HP449379   0.675   0.528   3.309  2.4002  0.0746 -1.6923
18632THY    CP349380   0.480   0.283   3.177  0.8312 -0.2612 -0.2090
18632THY    HP549381   0.395   0.257   3.113 -0.1347  1.0303 -0.3549
18632THY    HP649382   0.465   0.247   3.280  0.1299  0.3464  1.6755
18632THY    HP749383   0.571   0.244   3.131 -0.1567 -2.2102 -0.3373
18632THY    CA349384   0.690   0.487   3.016 -0.3798 -0.4064  0.6874
18632THY    HA349385   0.764   0.457   3.090  0.2222 -0.4423  2.0414
18632THY    CA449386   0.724   0.524   2.882 -0.1003  0.5588 -0.1527
18632THY    HA449387   0.828   0.509   2.852 -0.6024 -0.5207 -1.7280
18632THY    CA549388   0.626   0.589   2.803 -0.2728 -0.7144 -0.0346
18632THY    CM149389   0.652   0.640   2.663  0.4188 -0.2100 -0.7233
18632THY    HM149390   0.664   0.749   2.667  1.3421  3.4415 -0.8432
18632THY    HM249391   0.561   0.634   2.601 -0.1013  0.4122  0.3835
18632THY    HM349392   0.737   0.586   2.622  2.0013  3.7057 -1.4929
18632THY    CA649393   0.497   0.606   2.852  0.6397  0.2123  0.0776
18632THY    HA649394   0.424   0.659   2.790  1.6122 -0.5757  0.5298
18633THY      O49395   6.614   6.122   4.404 -0.7448  0.4834 -0.3826
18633THY     HO49396   6.603   6.097   4.497  1.4566  0.6011 -1.1221
18633THY    CA149397   6.495   6.133   4.352  0.3190 -0.6242 -1.0359
18633THY    CA249398   6.480   6.146   4.213 -0.2110 -0.4861 -0.0255
18633THY    CP149399   6.605   6.150   4.124 -0.0526  0.2442  0.4501
18633THY    HP149400   6.685   6.080   4.148  0.0762 -2.6580 -0.5541
18633THY    CP249401   6.666   6.289   4.129  0.4703 -0.0904 -0.2596
18633THY    HP249402   6.761   6.292   4.074 -0.3945 -1.7886 -1.9591
18633THY    HP349403   6.692   6.309   4.234  0.3287 -0.2479  0.8524
18633THY    HP449404   6.597   6.371   4.106  0.6563  0.0467 -0.0625
18633THY    CP349405   6.580   6.122   3.975 -0.3787  0.4557 -0.3980
18633THY    HP549406   6.676   6.108   3.924  0.4963  1.5621  1.2485
18633THY    HP649407   6.525   6.198   3.918  0.6517 -1.6731 -1.1821
18633THY    HP749408   6.521   6.031   3.958 -0.8961 -0.6647  0.1275
18633THY    CA349409   6.351   6.166   4.164  0.1124  0.0397  0.2182
18633THY    HA349410   6.317   6.167   4.060 -1.0145  0.3804 -0.5388
18633THY    CA449411   6.247   6.174   4.265 -0.9538  0.2076  0.2170
18633THY    HA449412   6.145   6.186   4.231 -0.5053 -1.3290 -0.1085
18633THY    CA549413   6.265   6.167   4.403  0.0082  0.0401  0.1578
18633THY    CM149414   6.149   6.159   4.497 -0.3405  0.5224  0.1345
18633THY    HM149415   6.120   6.256   4.540  1.5334  1.0319  0.5108
18633THY    HM249416   6.179   6.100   4.585  0.7937  0.0119 -0.0740
18633THY    HM349417   6.063   6.109   4.451 -1.2627 -1.0475  2.9475
18633THY    CA649418   6.392   6.140   4.443 -0.3245 -0.0103 -0.5635
18633THY    HA649419   6.410   6.138   4.550  2.0743 -0.2488  1.5296
18634THY      O49420   1.495   8.206   6.886  0.0012  0.8703 -0.0088
18634THY     HO49421   1.473   8.115   6.860  0.0603  0.8930 -0.0297
18634THY    CA149422   1.398   8.279   6.838  0.3997  0.2864  0.5666
18634THY    CA249423   1.428   8.411   6.789  0.0695 -0.0766  0.2308
18634THY    CP149424   1.575   8.453   6.786  0.5334  0.2325  0.1855
18634THY    HP149425   1.635   8.393   6.855 -1.2733  1.0436 -0.7633
18634THY    CP249426   1.599   8.605   6.821 -0.1141  0.2306 -0.1624
18634THY    HP249427   1.577   8.666   6.733 -1.9181 -0.9222 -2.3702
18634THY    HP349428   1.702   8.637   6.845  0.2606 -0.4767 -0.8078
18634THY    HP449429   1.540   8.628   6.911  2.3562  1.4789  1.8927
18634THY    CP349430   1.641   8.424   6.644  0.3427 -0.1243 -0.1661
18634THY    HP549431   1.642   8.317   6.621  0.7268 -3.1354  0.3862
18634THY    HP649432   1.746   8.455   6.638 -0.1287 -1.9169  1.2811
18634THY    HP749433   1.589   8.484   6.569 -0.8601  3.0067  3.0827
18634THY    CA349434   1.319   8.491   6.743 -0.4248  0.0883  0.2185
18634THY    HA349435   1.327   8.592   6.704  1.8134  0.3004  0.1627
18634THY    CA449436   1.192   8.426   6.732 -0.0389 -0.8480  0.0762
18634THY    HA449437   1.106   8.475   6.688 -0.9700 -2.1956 -2.6057
18634THY    CA549438   1.169   8.296   6.784  0.7644  0.8225  0.5436
18634THY    CM149439   1.030   8.243   6.768 -0.3994  0.7727  0.4198
18634THY    HM149440   0.960   8.290   6.837 -2.2771  0.8695 -2.2628
18634THY    HM249441   1.032   8.133   6.772  1.9721  1.3400  0.4282
18634THY    HM349442   0.996   8.267   6.666 -0.0887  0.3910 -0.7017
18634THY    CA649443   1.272   8.218   6.825 -0.2417 -0.7811  0.0244
18634THY    HA649444   1.260   8.118   6.866  2.3290 -0.7675 -0.3479
18635THY      O49445   7.245   1.270   3.888  0.6353  0.4947 -0.2399
18635THY     HO49446   7.194   1.335   3.938 -2.2053 -1.6306 -0.6347
18635THY    CA149447   7.146   1.197   3.835  1.2145  0.0775 -0.2923
18635THY    CA249448   7.164   1.061   3.794  0.4788 -0.7917 -0.1325
18635THY    CP149449   7.293   0.976   3.822 -0.4201 -0.1031  0.5700
18635THY    HP149450   7.360   1.015   3.899  0.9671 -0.4579 -1.0273
18635THY    CP249451   7.365   0.969   3.686 -0.1521  0.5381 -0.4258
18635THY    HP249452   7.297   0.919   3.616 -2.6206  2.3227  0.2234
18635THY    HP349453   7.462   0.921   3.704 -0.3780  1.6925 -0.4927
18635THY    HP449454   7.380   1.071   3.649 -2.0516 -0.3983 -0.4286
18635THY    CP349455   7.259   0.831   3.868 -0.0974  0.2847 -0.2415
18635THY    HP549456   7.202   0.849   3.959  0.2863  0.4740  0.0312
18635THY    HP649457   7.349   0.776   3.897 -0.3895  4.1123  1.0172
18635THY    HP749458   7.195   0.772   3.801 -3.0980  3.2122 -0.5775
18635THY    CA349459   7.056   0.993   3.746 -0.3681  0.5310 -0.0759
18635THY    HA349460   7.068   0.889   3.718 -1.2380  1.6486 -0.4994
18635THY    CA449461   6.932   1.058   3.742  0.4784  0.0614  0.3002
18635THY    HA449462   6.852   0.995   3.705  1.0179 -2.3693  0.9654
18635THY    CA549463   6.910   1.189   3.767 -0.1468  0.3160 -0.3890
18635THY    CM149464   6.770   1.248   3.756 -0.5472 -0.1595  0.6892
18635THY    HM149465   6.703   1.196   3.825 -1.8108 -1.0725  1.0750
18635THY    HM249466   6.728   1.217   3.660 -1.5750  0.8447 -1.2185
18635THY    HM349467   6.764   1.357   3.765 -0.1463 -0.8382  0.7748
18635THY    CA649468   7.019   1.262   3.823  0.6121 -0.4231 -0.3008
18635THY    HA649469   7.000   1.366   3.849 -2.7830 -0.6313 -0.7452
18636THY      O49470   2.413   4.498   3.990  0.2456  0.0749  0.3486
18636THY     HO49471   2.450   4.548   3.915 -2.1494 -1.5671 -0.1772
18636THY    CA149472   2.477   4.378   3.991 -0.6917  0.0663 -0.4082
18636THY    CA249473   2.418   4.263   4.047 -0.2181  0.4588  0.3235
18636THY    CP149474   2.289   4.285   4.131 -0.4945 -0.3563  0.0472
18636THY    HP149475   2.266   4.392   4.142 -0.2543 -0.9542  0.1627
18636THY    CP249476   2.296   4.215   4.274 -0.2478  0.4836  0.9420
18636THY    HP249477   2.219   4.246   4.346 -3.4029 -3.1884  2.5557
18636THY    HP349478   2.391   4.250   4.315  1.1472 -2.0999  0.4484
18636THY    HP449479   2.303   4.106   4.274  0.3551  2.1044  0.9639
18636THY    CP349480   2.163   4.221   4.065 -0.7435  0.3379  0.1944
18636THY    HP549481   2.080   4.224   4.137  0.2510  1.6231 -1.0577
18636THY    HP649482   2.186   4.114   4.055  0.5642  0.5206  0.4410
18636THY    HP749483   2.142   4.260   3.966  1.4430 -0.1639  0.2100
18636THY    CA349484   2.476   4.133   4.026 -0.3143 -0.7267 -0.1091
18636THY    HA349485   2.447   4.041   4.075 -1.5499 -1.0815  0.0715
18636THY    CA449486   2.602   4.135   3.971  0.0868  0.6837 -0.4598
18636THY    HA449487   2.652   4.044   3.938  1.4615 -3.0737  1.4384
18636THY    CA549488   2.656   4.251   3.909 -0.3347  1.1548 -0.0238
18636THY    CM149489   2.781   4.222   3.828  0.8839  0.3092 -0.6326
18636THY    HM149490   2.753   4.149   3.752 -0.1068 -1.1019  1.1297
18636THY    HM249491   2.863   4.184   3.891  1.0285 -0.3078 -1.3459
18636THY    HM349492   2.821   4.305   3.768 -1.3054 -2.6908 -1.5802
18636THY    CA649493   2.596   4.377   3.915 -0.3668 -0.0940  0.4653
18636THY    HA649494   2.626   4.474   3.877 -2.9236  3.7285  3.0522
18637THY      O49495   5.181   5.039   7.358 -0.1237  0.7038 -0.3694
18637THY     HO49496   5.221   4.971   7.302 -0.5048  2.2803 -1.9679
18637THY    CA149497   5.079   5.075   7.279 -0.2800 -0.6424  0.2746
18637THY    CA249498   4.953   5.115   7.332  0.2305  0.4034  0.2085
18637THY    CP149499   4.935   5.126   7.486  0.0716 -0.2612 -0.6009
18637THY    HP149500   5.026   5.094   7.539 -0.8891  0.7424 -1.7869
18637THY    CP249501   4.822   5.039   7.527 -0.4361  0.4297 -0.2697
18637THY    HP249502   4.803   5.054   7.634  1.5794  0.9213 -0.9259
18637THY    HP349503   4.851   4.933   7.517 -1.8729 -0.4545 -0.6070
18637THY    HP449504   4.738   5.051   7.457  0.6834 -0.7221  1.2641
18637THY    CP349505   4.906   5.268   7.516 -0.4848  0.3250 -0.1757
18637THY    HP549506   4.995   5.327   7.491 -0.8142  0.7172  0.5056
18637THY    HP649507   4.890   5.291   7.622  0.2770 -0.1627  3.2025
18637THY    HP749508   4.815   5.302   7.465 -1.3381  0.9712 -1.4050
18637THY    CA349509   4.858   5.158   7.242 -0.8009  0.0440  0.4400
18637THY    HA349510   4.757   5.182   7.274 -0.3134  2.6200 -0.6386
18637THY    CA449511   4.891   5.163   7.101 -0.7993 -0.4035 -0.1680
18637THY    HA449512   4.810   5.186   7.033 -0.3397 -1.1749 -0.7556
18637THY    CA549513   5.013   5.124   7.049 -0.1973  1.0085 -0.1720
18637THY    CM149514   5.054   5.129   6.895  0.0543 -0.3790 -0.1717
18637THY    HM149515   5.015   5.223   6.855 -0.0027  3.2580  1.5096
18637THY    HM249516   5.024   5.036   6.845 -0.1468 -0.7169  0.0734
18637THY    HM349517   5.163   5.129   6.895  0.1009  1.5972 -0.0653
18637THY    CA649518   5.108   5.090   7.146  0.4541  0.0301 -0.1283
18637THY    HA649519   5.211   5.089   7.114  0.2134 -0.7601 -0.2365
18638THY      O49520   6.928   1.234   6.714  0.2382 -0.7076  0.1785
18638THY     HO49521   6.983   1.184   6.652  2.0229  1.1416 -0.3026
18638THY    CA149522   7.017   1.322   6.772  0.5302 -0.4093 -0.0600
18638THY    CA249523   6.997   1.375   6.908 -1.1279 -0.8297  0.1923
18638THY    CP149524   6.877   1.341   6.986  0.2704 -0.2872  0.8861
18638THY    HP149525   6.859   1.237   6.956  0.3858 -1.1380  1.1100
18638THY    CP249526   6.763   1.428   6.941  0.5684 -0.4876 -0.5825
18638THY    HP249527   6.800   1.530   6.955 -2.6968  1.1500  0.5136
18638THY    HP349528   6.673   1.431   7.004 -0.5933 -2.1164  0.4857
18638THY    HP449529   6.745   1.424   6.833 -0.3596 -0.4017  0.7482
18638THY    CP349530   6.886   1.333   7.145 -0.5654 -0.0678 -0.4113
18638THY    HP549531   6.906   1.432   7.186 -0.1903 -0.1123 -0.4680
18638THY    HP649532   6.962   1.260   7.176  0.5282 -1.0453  0.2698
18638THY    HP749533   6.783   1.316   7.180 -1.1806 -1.9438 -0.8431
18638THY    CA349534   7.097   1.459   6.958  0.0485 -0.0197 -0.3536
18638THY    HA349535   7.084   1.495   7.060 -0.3116  0.0220 -0.6004
18638THY    CA449536   7.215   1.482   6.882  0.0624 -1.0135  0.8814
18638THY    HA449537   7.297   1.534   6.932  1.9154 -0.7063 -2.1075
18638THY    CA549538   7.228   1.437   6.758 -1.1320  0.1226 -0.1003
18638THY    CM149539   7.347   1.472   6.675 -0.1119 -0.0698 -0.5324
18638THY    HM149540   7.325   1.493   6.569  0.0231 -0.3688 -1.7990
18638THY    HM249541   7.415   1.389   6.652  0.2495  1.1820 -0.6022
18638THY    HM349542   7.399   1.559   6.716 -0.9248 -0.4864  0.1643
18638THY    CA649543   7.131   1.355   6.701  0.5403 -0.3880 -0.0385
18638THY    HA649544   7.139   1.316   6.600 -0.4376 -0.2423 -0.6411
18639THY      O49545   5.108   3.585   7.222  0.2306 -0.0121  0.1429
18639THY     HO49546   5.105   3.630   7.136  0.3931  0.1167  0.4012
18639THY    CA149547   5.054   3.464   7.195 -0.0741 -0.2275  0.1742
18639THY    CA249548   4.957   3.403   7.285  0.5017 -0.1643  0.5871
18639THY    CP149549   4.900   3.473   7.409  0.6865 -0.0623 -0.3413
18639THY    HP149550   4.851   3.563   7.369  1.2561 -0.4751 -0.2128
18639THY    CP249551   5.006   3.507   7.522  0.7178 -0.8893  0.2458
18639THY    HP249552   5.093   3.565   7.490  1.6778  0.7976 -0.1887
18639THY    HP349553   5.038   3.415   7.572 -2.7078  1.1690  0.0059
18639THY    HP449554   4.955   3.564   7.600 -2.6207 -1.0693 -2.2151
18639THY    CP349555   4.797   3.395   7.481  0.0525 -0.0385  0.6201
18639THY    HP549556   4.701   3.379   7.429 -0.3262 -0.1528  2.9522
18639THY    HP649557   4.767   3.432   7.580  2.1471  0.2106  1.7865
18639THY    HP749558   4.840   3.300   7.514  0.4368  0.4483  0.9570
18639THY    CA349559   4.905   3.285   7.234 -0.5789  0.2971 -0.1281
18639THY    HA349560   4.826   3.229   7.282  0.3656  0.0498 -1.7410
18639THY    CA449561   4.950   3.234   7.108  0.3109  0.3757 -0.1943
18639THY    HA449562   4.916   3.137   7.076  2.4983  0.4876 -1.0578
18639THY    CA549563   5.061   3.286   7.031  0.9454 -0.0654  0.2336
18639THY    CM149564   5.093   3.229   6.892  0.1657  0.1738  0.8696
18639THY    HM149565   5.180   3.283   6.852 -1.2395 -3.1392  0.9145
18639THY    HM249566   5.014   3.260   6.822 -1.0666  1.1121 -0.0549
18639THY    HM349567   5.105   3.121   6.895 -0.3844  2.1255  0.8317
18639THY    CA649568   5.109   3.405   7.082  0.5605  0.7248 -0.0501
18639THY    HA649569   5.190   3.457   7.031 -0.0184  0.1116  0.2641
18640THY      O49570   1.275   3.486   4.138 -0.5532 -0.3683 -0.4856
18640THY     HO49571   1.204   3.506   4.201 -1.0425 -0.6951 -1.1509
18640THY    CA149572   1.312   3.605   4.084  0.3859  0.0649 -0.0994
18640THY    CA249573   1.428   3.601   4.005 -0.2101 -0.1997 -0.0217
18640THY    CP149574   1.510   3.477   3.971 -0.6574  0.2384  0.0391
18640THY    HP149575   1.479   3.389   4.028 -0.2412  0.4230  0.0124
18640THY    CP249576   1.666   3.497   3.971  0.3945 -0.1137 -0.2602
18640THY    HP249577   1.719   3.429   4.039  1.4417  0.5072  1.1341
18640THY    HP349578   1.687   3.598   4.007  2.0797 -1.5562 -0.0695
18640THY    HP449579   1.707   3.474   3.872 -1.6263 -1.1526  0.4027
18640THY    CP349580   1.457   3.440   3.829  0.5545 -0.5673  0.8754
18640THY    HP549581   1.490   3.523   3.765  0.5366  1.6305  2.6838
18640THY    HP649582   1.348   3.435   3.838  0.6857  0.9070 -0.2765
18640THY    HP749583   1.492   3.343   3.791 -0.6346  2.4065 -0.8525
18640THY    CA349584   1.460   3.721   3.949  0.7324 -0.3504 -0.7059
18640THY    HA349585   1.538   3.725   3.873  0.0029 -1.1711 -1.5785
18640THY    CA449586   1.396   3.842   3.975  0.9274  0.6399  0.8949
18640THY    HA449587   1.422   3.934   3.922  0.0845 -0.8526  0.3043
18640THY    CA549588   1.291   3.840   4.066 -0.1276  0.3535 -0.3476
18640THY    CM149589   1.227   3.968   4.111  0.2830 -1.0552 -0.5052
18640THY    HM149590   1.276   4.062   4.084 -0.4925  1.1363  0.6104
18640THY    HM249591   1.218   3.973   4.220 -2.0518 -1.2501  1.6652
18640THY    HM349592   1.125   3.979   4.071 -0.4959  0.5033 -1.4887
18640THY    CA649593   1.235   3.722   4.112 -0.0863 -1.2027 -0.4132
18640THY    HA649594   1.139   3.737   4.160 -0.1495 -1.6284  0.5694
18641THY      O49595   5.800   2.530   2.778  0.2504 -0.2018 -0.2076
18641THY     HO49596   5.829   2.612   2.821  0.2938  0.3630 -0.5130
18641THY    CA149597   5.856   2.427   2.846  0.1631  0.0687 -0.0621
18641THY    CA249598   5.835   2.291   2.818  0.1981 -0.3424  0.0750
18641THY    CP149599   5.743   2.236   2.707 -0.0861 -0.7478  0.3228
18641THY    HP149600   5.678   2.317   2.671 -0.4598 -2.2930 -0.6108
18641THY    CP249601   5.650   2.123   2.753  0.0874  0.5053 -0.5916
18641THY    HP249602   5.588   2.154   2.839  2.6797  1.3959  2.7360
18641THY    HP349603   5.700   2.028   2.772 -1.3812  0.2932 -1.4441
18641THY    HP449604   5.578   2.104   2.673  0.0481 -0.1293  1.8266
18641THY    CP349605   5.823   2.179   2.585  0.2423  0.0881  0.3960
18641THY    HP549606   5.899   2.252   2.556  0.5477 -2.4244 -0.8039
18641THY    HP649607   5.758   2.160   2.498  1.2308 -0.1531 -2.4481
18641THY    HP749608   5.880   2.086   2.597 -1.8684  0.2891 -0.9437
18641THY    CA349609   5.909   2.195   2.891  0.1709 -0.6729 -0.7240
18641THY    HA349610   5.889   2.088   2.885 -0.6547  0.1641 -0.6321
18641THY    CA449611   5.996   2.234   2.993 -0.0060 -0.1788 -0.5210
18641THY    HA449612   6.034   2.160   3.062 -1.4089  1.8738  0.5721
18641THY    CA549613   6.023   2.372   3.013 -0.4870 -0.3145  0.1413
18641THY    CM149614   6.133   2.412   3.111  0.0904 -0.4669 -0.0329
18641THY    HM149615   6.103   2.366   3.206  0.2727 -1.1317 -1.5853
18641THY    HM249616   6.141   2.521   3.125 -0.8425  1.2431 -0.1402
18641THY    HM349617   6.230   2.375   3.078 -0.0337 -1.8479  0.7962
18641THY    CA649618   5.947   2.466   2.945  1.0473 -0.3905 -0.7035
18641THY    HA649619   5.965   2.573   2.958  2.8428 -1.8694 -0.7739
18642THY      O49620   7.643   3.943   6.530 -0.0551  0.4947 -0.5163
18642THY     HO49621   7.696   3.998   6.590  1.2694 -0.9221 -0.1516
18642THY    CA149622   7.640   3.821   6.592  0.2625  0.2327 -0.7129
18642THY    CA249623   7.584   3.698   6.538 -0.2797  0.1234 -0.2970
18642THY    CP149624   7.517   3.694   6.392 -0.1225 -0.1322  0.3098
18642THY    HP149625   7.506   3.799   6.363 -1.2767 -0.2144  0.1764
18642THY    CP249626   7.373   3.636   6.394  0.3118  0.3131 -0.1859
18642THY    HP249627   7.306   3.696   6.455  0.2055 -1.1580  1.2886
18642THY    HP349628   7.371   3.543   6.452 -4.2209 -2.6228 -2.2717
18642THY    HP449629   7.331   3.607   6.297  2.3208 -0.5540 -0.3679
18642THY    CP349630   7.599   3.624   6.294 -0.0597  1.1040 -0.6135
18642THY    HP549631   7.702   3.659   6.308 -0.4554  1.4843  0.4550
18642THY    HP649632   7.559   3.627   6.192  0.2255  0.9670 -1.2505
18642THY    HP749633   7.611   3.518   6.320  1.5641  0.0281 -0.7178
18642THY    CA349634   7.587   3.583   6.617  0.9370 -0.1442 -0.5665
18642THY    HA349635   7.550   3.491   6.573  0.0174  0.5377 -0.5309
18642THY    CA449636   7.646   3.588   6.745  0.7913  0.0577 -0.2171
18642THY    HA449637   7.643   3.504   6.814  0.3592 -1.2943 -1.3356
18642THY    CA549638   7.698   3.708   6.796 -0.7882 -0.3689 -0.0193
18642THY    CM149639   7.762   3.713   6.930 -0.3034 -0.7949 -0.5128
18642THY    HM149640   7.829   3.629   6.951  2.5050  1.7417  2.0558
18642THY    HM249641   7.687   3.698   7.009  1.7910  1.5429  0.4051
18642THY    HM349642   7.812   3.810   6.946 -0.6546  0.0171 -0.4562
18642THY    CA649643   7.709   3.820   6.717 -0.1156 -0.4633  0.6378
18642THY    HA649644   7.756   3.908   6.761  1.0874  1.2964 -0.8175
18643THY      O49645   3.039   8.385   4.564 -0.0391 -0.0979 -0.2292
18643THY     HO49646   3.131   8.417   4.571  1.1133 -2.0832 -2.7134
18643THY    CA149647   3.053   8.271   4.495  0.2257  0.5083 -0.1810
18643THY    CA249648   2.949   8.186   4.471  0.4744 -0.2345  0.5439
18643THY    CP149649   2.811   8.217   4.537 -0.1652 -0.8827  0.2169
18643THY    HP149650   2.800   8.321   4.572 -1.5056  0.7368 -0.4204
18643THY    CP249651   2.812   8.141   4.672  0.5043  0.7188  0.4240
18643THY    HP249652   2.806   8.033   4.657 -1.2680  0.5275  0.5108
18643THY    HP349653   2.722   8.164   4.730 -0.5072 -0.5355 -0.2415
18643THY    HP449654   2.900   8.177   4.726  1.6424 -0.1956 -0.9229
18643THY    CP349655   2.689   8.190   4.453 -0.2274  0.3922 -0.6140
18643THY    HP549656   2.590   8.218   4.492 -1.1953 -2.2122 -0.0955
18643THY    HP649657   2.679   8.083   4.434 -1.2862 -1.6385 -0.2173
18643THY    HP749658   2.690   8.238   4.354  0.1776 -0.2859 -1.9750
18643THY    CA349659   2.979   8.063   4.403 -0.9980  0.8238 -0.1223
18643THY    HA349660   2.900   7.990   4.385 -0.2072  1.4598 -1.1593
18643THY    CA449661   3.110   8.035   4.361 -0.3438  0.4545 -0.2635
18643THY    HA449662   3.135   7.947   4.303  0.7362 -0.1589  0.4178
18643THY    CA549663   3.213   8.127   4.375 -0.0248 -1.2240  0.2140
18643THY    CM149664   3.362   8.110   4.330 -0.6818 -0.1809 -0.4068
18643THY    HM149665   3.374   8.133   4.224  1.3094  0.1823  0.4272
18643THY    HM249666   3.380   8.002   4.340  1.0912 -0.4392 -0.1736
18643THY    HM349667   3.442   8.162   4.385  1.3786 -0.3381 -3.1802
18643THY    CA649668   3.181   8.249   4.440  0.4937  0.5432 -0.0558
18643THY    HA649669   3.255   8.329   4.441  0.4202 -1.1737  0.0709
18644THY      O49670   4.632   4.715   2.503  0.5643  0.2239 -0.1591
18644THY     HO49671   4.696   4.700   2.575  1.5074 -0.5438  0.1008
18644THY    CA149672   4.556   4.601   2.480  0.0247  0.1844 -0.5372
18644THY    CA249673   4.420   4.609   2.427 -0.1817  0.3268  0.9869
18644THY    CP149674   4.356   4.757   2.415  0.0623  0.2178  0.2465
18644THY    HP149675   4.433   4.833   2.399 -0.3737 -0.1971  0.6062
18644THY    CP249676   4.294   4.790   2.548  0.3908  0.0256  0.3241
18644THY    HP249677   4.251   4.890   2.531  0.4140  0.1376  0.3534
18644THY    HP349678   4.370   4.775   2.626  1.1130 -0.4394  1.4260
18644THY    HP449679   4.208   4.726   2.568  0.1441 -1.3311  0.1932
18644THY    CP349680   4.259   4.768   2.297  0.2360 -0.6998 -0.1927
18644THY    HP549681   4.174   4.702   2.316  0.0596 -1.7820 -0.2907
18644THY    HP649682   4.317   4.735   2.210  3.0081  0.7790  0.4891
18644THY    HP749683   4.209   4.864   2.277 -0.3152 -0.9175 -0.5184
18644THY    CA349684   4.351   4.484   2.405  0.3187 -0.2885 -0.0445
18644THY    HA349685   4.245   4.490   2.383  0.8651 -2.9671  1.3416
18644THY    CA449686   4.411   4.366   2.441 -0.7507  0.0066  0.3378
18644THY    HA449687   4.354   4.274   2.431 -0.5853  1.0569  0.1127
18644THY    CA549688   4.541   4.358   2.503  0.2082  0.5979  0.3930
18644THY    CM149689   4.605   4.229   2.543  0.3487  0.4579  0.5928
18644THY    HM149690   4.534   4.154   2.579  0.3154  1.3670  1.0564
18644THY    HM249691   4.663   4.221   2.635 -1.7433  1.9545  1.7882
18644THY    HM349692   4.661   4.188   2.458  0.1096 -0.1040  1.3980
18644THY    CA649693   4.613   4.479   2.520  1.5365 -0.5413 -0.0416
18644THY    HA649694   4.710   4.468   2.568  0.7402  1.7389  1.9447
18645THY      O49695   3.303   4.278   3.961 -0.3160 -0.2770 -0.4432
18645THY     HO49696   3.230   4.340   3.980 -0.4161  0.2149 -0.7054
18645THY    CA149697   3.426   4.344   3.979 -0.3220 -1.1504 -0.7396
18645THY    CA249698   3.536   4.281   4.042  0.4669 -0.4366 -0.6382
18645THY    CP149699   3.528   4.141   4.104  0.1324  0.5469 -0.1176
18645THY    HP149700   3.422   4.112   4.097 -0.1784 -1.2072  1.2985
18645THY    CP249701   3.568   4.133   4.251 -1.0833 -0.1089 -0.6345
18645THY    HP249702   3.555   4.033   4.294  0.6757  1.3659 -0.2911
18645THY    HP349703   3.505   4.199   4.311  1.3642  1.6071  0.3036
18645THY    HP449704   3.674   4.152   4.271 -0.2930 -2.5578 -1.9876
18645THY    CP349705   3.595   4.034   4.025  0.4205 -0.7941  0.0683
18645THY    HP549706   3.564   3.934   4.056  0.9811 -0.9837 -0.1705
18645THY    HP649707   3.703   4.040   4.047  0.2756 -0.0071 -0.1495
18645THY    HP749708   3.585   4.067   3.920  2.1069 -1.7123 -2.0744
18645THY    CA349709   3.666   4.346   4.045  2.1250 -0.2598 -0.0134
18645THY    HA349710   3.743   4.294   4.102  1.2942  0.5275 -0.4195
18645THY    CA449711   3.679   4.476   4.003  0.4127  0.1753  0.2157
18645THY    HA449712   3.776   4.525   4.001 -0.4045 -1.4658  1.8853
18645THY    CA549713   3.566   4.543   3.941  0.0731  0.1503 -0.1574
18645THY    CM149714   3.583   4.682   3.876  0.0549 -0.3007 -0.5214
18645THY    HM149715   3.671   4.737   3.912  0.6233  1.4300 -2.4477
18645THY    HM249716   3.496   4.746   3.897  0.5355 -2.3794  0.9314
18645THY    HM349717   3.606   4.671   3.770 -0.1466 -0.2102 -2.0044
18645THY    CA649718   3.442   4.472   3.936 -0.8370 -0.1316  0.1988
18645THY    HA649719   3.360   4.503   3.872 -0.9500 -1.4371 -2.4753
18646THY      O49720   3.928   6.735   5.745  0.3522 -0.0790 -0.4850
18646THY     HO49721   4.013   6.764   5.783  1.0197 -1.8871  0.0693
18646THY    CA149722   3.949   6.740   5.613  0.4237 -0.3688  0.5637
18646THY    CA249723   3.849   6.683   5.527 -1.1481 -0.1660 -0.1127
18646THY    CP149724   3.706   6.650   5.584 -0.1075 -0.6818  0.5319
18646THY    HP149725   3.700   6.661   5.692  1.0059 -0.6872  1.3364
18646THY    CP249726   3.680   6.500   5.567 -0.4821  0.1269 -0.3702
18646THY    HP249727   3.772   6.446   5.593  0.6285 -1.3346  0.7453
18646THY    HP349728   3.655   6.482   5.462  1.7177 -0.6423  0.6753
18646THY    HP449729   3.600   6.451   5.624 -0.5321 -1.0548 -1.7443
18646THY    CP349730   3.598   6.738   5.518 -0.5222 -0.4096 -0.4198
18646THY    HP549731   3.595   6.750   5.409  2.2223 -0.3956  1.1622
18646THY    HP649732   3.604   6.842   5.553 -0.8367  1.5464 -1.0312
18646THY    HP749733   3.496   6.710   5.545 -1.4822 -0.2781  2.8141
18646THY    CA349734   3.885   6.661   5.386  0.4054  0.1446  0.2279
18646THY    HA349735   3.817   6.616   5.314 -1.3335  2.3452 -0.8130
18646THY    CA449736   4.008   6.706   5.343 -0.4502  0.2189  0.2017
18646THY    HA449737   4.038   6.700   5.239  0.6061  0.5101  0.1345
18646THY    CA549738   4.099   6.762   5.432 -0.5193 -0.0653 -0.4267
18646THY    CM149739   4.231   6.809   5.376 -0.5088 -0.3658  0.2378
18646THY    HM149740   4.304   6.777   5.451 -0.2701 -0.8905 -0.4687
18646THY    HM249741   4.236   6.917   5.358  0.6482  0.6619  0.3801
18646THY    HM349742   4.266   6.760   5.285  0.3204 -0.1521  0.4268
18646THY    CA649743   4.071   6.778   5.566 -0.0979 -0.3552  0.3218
18646THY    HA649744   4.141   6.804   5.645 -1.3638  0.7009  0.6515
18647THY      O49745   3.903   6.214   3.586  0.6049 -0.2446  0.0413
18647THY     HO49746   3.885   6.122   3.612  0.5249 -2.0455 -0.4932
18647THY    CA149747   4.012   6.207   3.499  0.9637  0.0310 -0.3870
18647THY    CA249748   4.082   6.322   3.453 -0.1573 -0.1695  0.5954
18647THY    CP149749   4.034   6.458   3.473 -0.8969 -0.3174 -1.0596
18647THY    HP149750   3.960   6.466   3.554  0.8544  1.5909 -2.9176
18647THY    CP249751   3.971   6.515   3.342 -0.0411 -0.3104  0.1551
18647THY    HP249752   3.928   6.615   3.357  0.4525  1.9144  0.0828
18647THY    HP349753   3.894   6.440   3.317  0.5710  0.9698 -0.9398
18647THY    HP449754   4.047   6.511   3.263 -0.5185 -0.7933  0.4929
18647THY    CP349755   4.146   6.546   3.513 -0.7107  0.9107 -0.0087
18647THY    HP549756   4.195   6.509   3.604 -1.3548  0.7530 -1.2862
18647THY    HP649757   4.097   6.637   3.550 -1.9758  0.7506 -0.6133
18647THY    HP749758   4.217   6.580   3.437 -0.7464  0.9869  0.2390
18647THY    CA349759   4.200   6.303   3.367  0.4405 -0.0289 -0.6882
18647THY    HA349760   4.251   6.389   3.326  0.1441 -0.6549 -0.8099
18647THY    CA449761   4.235   6.168   3.332  0.0399 -0.3009 -0.1814
18647THY    HA449762   4.329   6.157   3.279  0.9239  1.2592 -0.5409
18647THY    CA549763   4.163   6.063   3.373  0.5477 -0.1374 -0.1185
18647THY    CM149764   4.210   5.926   3.350  0.1530 -0.5223  0.9031
18647THY    HM149765   4.131   5.871   3.298 -2.1381  0.6374  2.9138
18647THY    HM249766   4.233   5.871   3.441 -1.0359 -0.7537 -0.0275
18647THY    HM349767   4.287   5.911   3.273 -1.3497 -1.8860 -0.1540
18647THY    CA649768   4.053   6.082   3.463 -0.6416  0.5394 -0.2860
18647THY    HA649769   4.005   5.993   3.502 -2.6527  2.1598  1.4045
18648THY      O49770   3.498   3.319   4.268 -0.0404 -0.6910 -0.0659
18648THY     HO49771   3.426   3.256   4.284 -0.1412  0.6687  0.3614
18648THY    CA149772   3.573   3.255   4.187  0.2891 -0.0956  0.8134
18648THY    CA249773   3.706   3.296   4.166 -0.5325  0.9418 -0.1548
18648THY    CP149774   3.759   3.418   4.240  0.3851  0.6164 -0.4204
18648THY    HP149775   3.671   3.474   4.274 -0.4541  0.3781 -1.5569
18648THY    CP249776   3.830   3.511   4.150 -0.9406  0.1468  0.7055
18648THY    HP249777   3.759   3.525   4.068 -2.0614  0.6279 -1.6219
18648THY    HP349778   3.922   3.465   4.112 -1.6418 -0.5583 -0.1446
18648THY    HP449779   3.848   3.608   4.198  0.0155 -1.1980  1.2252
18648THY    CP349780   3.842   3.380   4.367  0.1378 -0.1074  0.6537
18648THY    HP549781   3.906   3.463   4.398  0.9624 -0.6996  0.2547
18648THY    HP649782   3.916   3.306   4.334 -0.1247  0.3265  0.1985
18648THY    HP749783   3.790   3.334   4.452  0.1970  0.7799  2.1857
18648THY    CA349784   3.784   3.216   4.085 -0.4218  0.5659  0.7390
18648THY    HA349785   3.889   3.237   4.071 -0.1529 -0.8654 -1.2416
18648THY    CA449786   3.731   3.104   4.025 -0.5377  0.1218  0.7431
18648THY    HA449787   3.792   3.044   3.959 -3.6352 -1.9093 -0.3621
18648THY    CA549788   3.598   3.071   4.042 -0.7026 -0.2652 -0.2489
18648THY    CM149789   3.543   2.947   3.977  0.0365 -1.1572 -0.2528
18648THY    HM149790   3.455   2.976   3.918 -1.8067  2.2671  1.7404
18648THY    HM249791   3.490   2.871   4.037  0.8192 -1.1240 -0.7832
18648THY    HM349792   3.607   2.893   3.906 -0.1314 -1.3104 -0.2514
18648THY    CA649793   3.519   3.147   4.124  0.2734  0.3985  0.5086
18648THY    HA649794   3.414   3.120   4.130  0.1036 -0.2418  1.0031
18649THY      O49795   3.800   3.540   3.457  0.2380  0.0762  0.7164
18649THY     HO49796   3.818   3.494   3.373  0.5982 -0.4598  1.7987
18649THY    CA149797   3.891   3.641   3.454  0.6633 -0.0161 -0.8657
18649THY    CA249798   3.942   3.695   3.570  0.3023  0.4233 -0.6785
18649THY    CP149799   3.892   3.646   3.713  0.0896  0.6932  0.1335
18649THY    HP149800   3.804   3.580   3.709  0.0095  2.0317  0.1209
18649THY    CP249801   3.841   3.754   3.798  0.4073 -0.8234 -0.1361
18649THY    HP249802   3.765   3.816   3.747  1.0799 -2.5256 -0.6706
18649THY    HP349803   3.917   3.823   3.838 -1.4833 -1.1356  2.2974
18649THY    HP449804   3.784   3.717   3.884  0.0043 -0.9980  0.0685
18649THY    CP349805   3.996   3.570   3.793  0.5638  0.0534 -0.5792
18649THY    HP549806   4.032   3.485   3.734 -1.9468  0.8494 -2.2963
18649THY    HP649807   3.956   3.557   3.894  0.6601  0.1845  0.1222
18649THY    HP749808   4.085   3.630   3.817 -0.0544  1.9668 -0.3634
18649THY    CA349809   4.030   3.806   3.562 -0.3620  0.2930  0.5951
18649THY    HA349810   4.068   3.852   3.653 -1.1327  0.6801  0.4742
18649THY    CA449811   4.061   3.858   3.437 -0.3232 -0.0213 -0.8005
18649THY    HA449812   4.124   3.946   3.424 -1.1944 -0.9739 -0.3035
18649THY    CA549813   4.009   3.806   3.326  0.0116 -0.1304 -0.7610
18649THY    CM149814   4.018   3.872   3.192 -0.0733  0.2915  0.4686
18649THY    HM149815   3.978   3.808   3.113 -0.3124  0.5104  0.3485
18649THY    HM249816   4.116   3.915   3.169  0.5807  0.5327 -0.8484
18649THY    HM349817   3.942   3.951   3.179 -0.8332 -2.0596 -0.5539
18649THY    CA649818   3.930   3.695   3.336  0.1329  0.0251  0.4717
18649THY    HA649819   3.886   3.657   3.244  1.3054  0.1237 -1.2307
18650THY      O49820   0.627   6.635   3.462  0.2708 -0.1373 -0.2808
18650THY     HO49821   0.698   6.590   3.511  2.2525 -2.7623 -0.2686
18650THY    CA149822   0.689   6.677   3.351 -0.1210  0.8085 -0.4487
18650THY    CA249823   0.631   6.774   3.257  1.0155 -0.0362  0.0920
18650THY    CP149824   0.488   6.828   3.289 -0.1484  0.4005  0.0597
18650THY    HP149825   0.418   6.745   3.307 -1.9676 -2.6152  0.7569
18650THY    CP249826   0.417   6.888   3.173 -0.5485 -0.4849  0.4707
18650THY    HP249827   0.473   6.967   3.122 -1.0829  1.5999  2.2739
18650THY    HP349828   0.316   6.923   3.198 -0.1906 -0.4879  1.5366
18650THY    HP449829   0.404   6.806   3.100  1.0059  0.2621 -0.4964
18650THY    CP349830   0.481   6.921   3.405 -0.2222 -0.4546  0.0499
18650THY    HP549831   0.557   6.919   3.484 -1.3538  0.6619 -1.4882
18650THY    HP649832   0.379   6.908   3.444  0.7527  2.1304 -0.3935
18650THY    HP749833   0.476   7.024   3.369 -4.1374  1.2514  0.6260
18650THY    CA349834   0.709   6.820   3.146  0.1544  0.3298 -0.0443
18650THY    HA349835   0.673   6.899   3.080 -0.3841  2.0013  1.1675
18650THY    CA449836   0.836   6.771   3.139 -0.4871  0.6471 -0.2365
18650THY    HA449837   0.895   6.808   3.056  1.2446  1.5817 -0.8068
18650THY    CA549838   0.895   6.684   3.230 -0.1553 -1.0071  0.2100
18650THY    CM149839   1.036   6.639   3.215 -0.5648  0.3900 -0.5210
18650THY    HM149840   1.066   6.661   3.112  1.9834  1.3404  0.8362
18650THY    HM249841   1.048   6.530   3.229 -1.8006 -0.5857 -0.8085
18650THY    HM349842   1.107   6.683   3.286 -0.2074  0.9636 -1.9543
18650THY    CA649843   0.820   6.642   3.335  0.5452 -0.2453  0.3596
18650THY    HA649844   0.865   6.569   3.403 -3.3915  0.1075 -2.0710
18651THY      O49845   2.408   5.900   4.604  0.2750 -0.0946 -0.2509
18651THY     HO49846   2.353   5.837   4.654  0.4053  0.9056  0.4070
18651THY    CA149847   2.525   5.832   4.590 -0.0189 -0.0757 -0.5975
18651THY    CA249848   2.654   5.886   4.568 -0.0840 -0.5680  0.5988
18651THY    CP149849   2.665   6.043   4.560 -0.0579 -0.2367 -0.7074
18651THY    HP149850   2.570   6.098   4.561  0.0884 -2.5460 -0.2888
18651THY    CP249851   2.751   6.090   4.438 -0.2377 -0.1078  0.5951
18651THY    HP249852   2.736   6.012   4.363  0.4172  1.0751 -0.6980
18651THY    HP349853   2.857   6.092   4.466  0.1295 -0.9825 -2.2401
18651THY    HP449854   2.726   6.192   4.407  1.4957  0.2015  1.1497
18651THY    CP349855   2.725   6.090   4.694 -0.4309  0.1946 -0.5467
18651THY    HP549856   2.832   6.069   4.684 -0.7859  0.0552 -2.5330
18651THY    HP649857   2.677   6.026   4.769  2.2308  0.9516 -1.7716
18651THY    HP749858   2.695   6.192   4.721  0.6459  0.9590 -0.4256
18651THY    CA349859   2.764   5.799   4.554 -0.7767 -0.1614 -0.0237
18651THY    HA349860   2.863   5.835   4.530 -0.9158 -1.4312 -0.4130
18651THY    CA449861   2.749   5.657   4.549  0.4165 -0.7171  0.4809
18651THY    HA449862   2.834   5.593   4.530 -0.3296  0.3949 -0.8774
18651THY    CA549863   2.618   5.600   4.567 -0.0966 -0.0509  0.0797
18651THY    CM149864   2.588   5.455   4.585  0.3380  0.1492 -0.5243
18651THY    HM149865   2.623   5.400   4.497  0.4284  0.9553 -1.7861
18651THY    HM249866   2.482   5.431   4.599  0.0961  1.3758  1.0618
18651THY    HM349867   2.647   5.430   4.674  0.5913  0.5271  1.2721
18651THY    CA649868   2.510   5.692   4.588  0.2269  0.1312  0.5094
18651THY    HA649869   2.411   5.652   4.605 -0.4239  0.5701  2.1956
18652THY      O49870   9.124   5.502   5.717 -0.0530 -0.0365  0.0450
18652THY     HO49871   9.066   5.446   5.662 -0.1118 -0.1555  0.2240
18652THY    CA149872   9.092   5.625   5.676 -0.3457  0.0243  0.2516
18652THY    CA249873   9.137   5.741   5.749 -0.8778  0.3974 -0.1704
18652THY    CP149874   9.224   5.732   5.865 -0.4857  0.3278 -0.0538
18652THY    HP149875   9.290   5.645   5.858  0.2458  1.8686  0.3349
18652THY    CP249876   9.125   5.720   5.988 -0.2623  0.4398 -0.3797
18652THY    HP249877   9.064   5.629   5.985 -0.1977  0.8308 -0.4375
18652THY    HP349878   9.046   5.796   5.989 -0.7567  1.2419 -0.8951
18652THY    HP449879   9.172   5.724   6.087 -2.9058  1.7156  2.0429
18652THY    CP349880   9.331   5.845   5.883 -0.5840  0.6228 -0.7668
18652THY    HP549881   9.279   5.942   5.882 -2.7159 -0.2864 -1.8718
18652THY    HP649882   9.397   5.850   5.795 -0.1291  0.7644 -3.3029
18652THY    HP749883   9.381   5.835   5.980  0.7234  0.3245  1.8069
18652THY    CA349884   9.092   5.864   5.704  0.2466 -0.1717  0.4409
18652THY    HA349885   9.116   5.956   5.757  2.7356 -0.6297  0.1064
18652THY    CA449886   9.002   5.866   5.594  0.2603 -0.0171  0.9407
18652THY    HA449887   8.973   5.962   5.551 -1.7041 -0.7102  0.0979
18652THY    CA549888   8.966   5.753   5.525 -0.6369  0.1861 -0.2615
18652THY    CM149889   8.865   5.756   5.420  0.3312  0.2200  0.4981
18652THY    HM149890   8.883   5.674   5.349 -0.8768 -3.2013  2.9638
18652THY    HM249891   8.870   5.849   5.362  0.1098  1.4660  1.3122
18652THY    HM349892   8.764   5.737   5.457  0.2322 -0.5743 -0.6451
18652THY    CA649893   9.005   5.630   5.568  0.1656 -0.3041  0.8129
18652THY    HA649894   8.966   5.541   5.520  1.9052  2.0323 -1.3714
18653THY      O49895   2.059   6.362   2.375 -0.1903  0.0359 -0.1802
18653THY     HO49896   1.991   6.404   2.320 -0.5103 -1.3149 -2.2983
18653THY    CA149897   2.144   6.286   2.296 -0.6386 -0.3727 -0.5815
18653THY    CA249898   2.225   6.190   2.359  0.0609  0.3341  0.2371
18653THY    CP149899   2.216   6.156   2.509  0.0458  0.4156 -0.0171
18653THY    HP149900   2.142   6.222   2.556  1.4610  2.2621  0.3377
18653THY    CP249901   2.341   6.190   2.593 -0.0402  0.2634  0.1568
18653THY    HP249902   2.315   6.183   2.699 -0.5769  0.4183  3.1862
18653THY    HP349903   2.379   6.289   2.565  0.1056  0.5799  0.1919
18653THY    HP449904   2.417   6.115   2.568 -1.0551 -0.1575 -0.7563
18653THY    CP349905   2.175   6.005   2.520  0.3678 -0.3778 -0.2180
18653THY    HP549906   2.168   5.983   2.627  1.5048  0.1515  1.7358
18653THY    HP649907   2.250   5.932   2.486 -0.0189  1.1409 -1.3672
18653THY    HP749908   2.084   5.994   2.460 -0.4092  0.4214  1.5686
18653THY    CA349909   2.326   6.127   2.282 -0.5058  0.3520 -1.0548
18653THY    HA349910   2.397   6.062   2.332  1.8756 -0.4407  0.7806
18653THY    CA449911   2.341   6.169   2.149 -0.1397  0.0514  0.5321
18653THY    HA449912   2.413   6.125   2.079 -2.1094 -2.4198  1.0195
18653THY    CA549913   2.259   6.266   2.088  0.8601 -0.2653  0.4765
18653THY    CM149914   2.276   6.309   1.947 -0.0899 -0.5737 -0.1041
18653THY    HM149915   2.177   6.311   1.900 -0.0498 -0.6436  0.3927
18653THY    HM249916   2.345   6.234   1.907 -1.9892 -0.8939 -1.7659
18653THY    HM349917   2.315   6.412   1.944 -0.5853 -0.8989  0.0808
18653THY    CA649918   2.153   6.319   2.162 -0.2466  0.0127 -0.1793
18653THY    HA649919   2.093   6.396   2.115 -1.1312 -1.2671 -1.6008
18654THY      O49920   8.064   3.189   4.078  0.4588  0.4928 -0.3277
18654THY     HO49921   8.010   3.119   4.118 -1.7938  2.1533  2.1253
18654THY    CA149922   8.000   3.311   4.104 -0.0405  0.1437  1.1865
18654THY    CA249923   8.029   3.431   4.040  0.2957  0.0034 -0.0926
18654THY    CP149924   8.139   3.443   3.940 -0.8084 -0.3366  0.4237
18654THY    HP149925   8.181   3.343   3.921 -0.1861  1.1424  0.3791
18654THY    CP249926   8.254   3.536   3.991 -0.4267  0.2620 -0.7733
18654THY    HP249927   8.276   3.506   4.094  0.0641  0.5248  0.3986
18654THY    HP349928   8.214   3.639   3.996  0.6670  0.8093 -0.3600
18654THY    HP449929   8.349   3.515   3.942  0.1226  1.5385 -1.3333
18654THY    CP349930   8.099   3.489   3.802  0.4360 -0.1464  0.5029
18654THY    HP549931   8.072   3.596   3.806  4.0951  1.3376  1.5274
18654THY    HP649932   8.015   3.429   3.765  1.6288 -0.1963 -1.2006
18654THY    HP749933   8.180   3.477   3.729  0.1999 -0.3548  0.1822
18654THY    CA349934   7.959   3.544   4.080  0.0994 -1.2546 -1.0435
18654THY    HA349935   7.992   3.642   4.048  0.6598  0.6180 -0.5784
18654THY    CA449936   7.853   3.532   4.171  0.2153  0.5849  0.0862
18654THY    HA449937   7.798   3.620   4.202 -1.4835 -0.3837 -0.6004
18654THY    CA549938   7.824   3.411   4.236 -0.5076  0.6306 -0.3147
18654THY    CM149939   7.721   3.402   4.346 -0.1322  0.2200  0.0808
18654THY    HM149940   7.627   3.396   4.290  0.1356 -0.5237  2.0394
18654THY    HM249941   7.720   3.493   4.407 -0.0933  1.7446 -0.9056
18654THY    HM349942   7.738   3.308   4.401 -0.7231 -3.9813 -2.7665
18654THY    CA649943   7.899   3.303   4.200 -0.1036  0.3745 -0.5837
18654THY    HA649944   7.878   3.209   4.251 -0.0060  1.0963 -0.2200
18655THY      O49945   4.875   2.592   7.504  0.2753 -0.0226 -0.3913
18655THY     HO49946   4.921   2.674   7.481  0.7672  2.9875  0.3123
18655THY    CA149947   4.941   2.551   7.617 -0.0409  0.5927 -0.5071
18655THY    CA249948   4.879   2.466   7.712 -0.9289  0.1958 -0.1149
18655THY    CP149949   4.730   2.444   7.703  0.8234 -0.0379  0.7048
18655THY    HP149950   4.689   2.467   7.604  0.1993 -0.1008 -0.5902
18655THY    CP249951   4.662   2.547   7.802  0.0427  0.2462  0.3241
18655THY    HP249952   4.684   2.520   7.906  0.8739 -0.4108 -1.7319
18655THY    HP349953   4.554   2.540   7.790 -0.0869  2.0002 -2.3153
18655THY    HP449954   4.679   2.652   7.779  2.5183 -1.1374 -0.2829
18655THY    CP349955   4.686   2.300   7.743 -0.0030  0.2526  0.1328
18655THY    HP549956   4.707   2.276   7.848  2.9107  0.0621  1.4301
18655THY    HP649957   4.735   2.224   7.681 -0.3768 -0.7975  0.7273
18655THY    HP749958   4.576   2.304   7.737 -0.0003  0.7632  1.3183
18655THY    CA349959   4.966   2.413   7.812 -0.5564  0.3102 -0.4030
18655THY    HA349960   4.932   2.344   7.888 -1.7092  1.0999  0.9694
18655THY    CA449961   5.100   2.456   7.825  0.5768  0.0961  0.2541
18655THY    HA449962   5.159   2.408   7.902 -0.2890  0.7414  0.1919
18655THY    CA549963   5.152   2.549   7.735 -0.9857 -0.2304 -0.2613
18655THY    CM149964   5.290   2.594   7.750 -0.0825 -0.2194 -0.3330
18655THY    HM149965   5.307   2.696   7.714 -1.7831  3.5850  1.4863
18655THY    HM249966   5.364   2.528   7.702  2.1059 -1.1550  2.5838
18655THY    HM349967   5.305   2.599   7.859 -0.5081 -0.0277 -2.3599
18655THY    CA649968   5.073   2.594   7.631 -0.3542 -0.3584 -0.6537
18655THY    HA649969   5.106   2.671   7.562 -1.4265  1.3551  1.4597
18656THY      O49970   1.003   2.094   5.101 -0.0283  0.0496 -0.5231
18656THY     HO49971   1.024   2.019   5.043  0.1905 -0.5565 -0.0076
18656THY    CA149972   0.916   2.061   5.192  0.6864  0.0049  0.0862
18656THY    CA249973   0.912   2.132   5.314 -0.0017 -0.1338  0.1971
18656THY    CP149974   1.014   2.238   5.356  0.3051 -0.9955 -0.1572
18656THY    HP149975   1.061   2.269   5.262  0.0653 -1.4698 -1.1802
18656THY    CP249976   1.116   2.167   5.443 -0.6722  0.3914  0.2605
18656THY    HP249977   1.147   2.081   5.383 -2.6379 -0.9218  0.4087
18656THY    HP349978   1.091   2.123   5.541  3.3032  0.2814 -2.8558
18656THY    HP449979   1.207   2.226   5.456 -0.8805  1.9615  0.2714
18656THY    CP349980   0.947   2.356   5.420  0.5797 -0.6495 -0.0572
18656THY    HP549981   1.019   2.431   5.454 -1.4245  1.6267  0.9636
18656THY    HP649982   0.894   2.332   5.513  1.5666  1.0271  3.6285
18656THY    HP749983   0.874   2.400   5.351  1.3645 -1.7092 -0.3842
18656THY    CA349984   0.820   2.087   5.416 -0.0944  0.8609 -0.1970
18656THY    HA349985   0.830   2.119   5.520  1.3762  0.4721  0.7313
18656THY    CA449986   0.717   2.006   5.372  0.5985  0.6080  0.3061
18656THY    HA449987   0.635   1.981   5.439 -0.9065 -0.4788  2.0710
18656THY    CA549988   0.724   1.937   5.249  0.3233 -0.0845 -0.0251
18656THY    CM149989   0.622   1.835   5.204 -0.2772  0.3208  0.0133
18656THY    HM149990   0.523   1.881   5.216  0.7168  0.9956  2.0955
18656THY    HM249991   0.618   1.742   5.262 -0.6629 -0.4763 -0.4815
18656THY    HM349992   0.631   1.807   5.099 -0.4623  0.6964 -1.5771
18656THY    CA649993   0.821   1.968   5.158 -0.1873 -0.5066  0.3375
18656THY    HA649994   0.820   1.922   5.060 -1.9460 -0.1753 -0.3748
18657THY      O49995   0.574   2.574   1.696 -0.5622 -0.3948 -0.1322
18657THY     HO49996   0.521   2.555   1.617  0.0113 -1.1475  1.2421
18657THY    CA149997   0.489   2.623   1.780 -0.4892 -0.0368 -0.3357
18657THY    CA249998   0.509   2.737   1.863 -0.3171  0.4775  0.0557
18657THY    CP149999   0.645   2.814   1.849 -0.4956 -0.5607  0.2250
18657THY    HP150000   0.732   2.774   1.797  0.9905  1.0941  1.1791
18657THY    CP250001   0.694   2.842   1.992  0.3312  0.1635 -0.9453
18657THY    HP250002   0.693   2.748   2.048 -0.5032  2.2840  0.2452
18657THY    HP350003   0.630   2.912   2.048  2.0216  1.1439 -0.1406
18657THY    HP450004   0.796   2.880   1.982 -0.4454  1.3556  1.7497
18657THY    CP350005   0.610   2.943   1.776  0.3322 -0.4781 -0.2170
18657THY    HP550006   0.613   2.921   1.668 -0.5740 -0.8577  1.3503
18657THY    HP650007   0.680   3.021   1.808  0.4288 -1.4812  0.1192
18657THY    HP750008   0.514   2.976   1.817  0.7411  0.4739 -0.1834
18657THY    CA350009   0.406   2.778   1.949  0.5940  0.1912  0.7337
18657THY    HA350010   0.402   2.874   2.000  0.7488 -0.3029  1.0013
18657THY    CA450011   0.290   2.693   1.959  0.0580 -0.2657 -0.3123
18657THY    HA450012   0.216   2.725   2.031  1.2618  0.1701  1.6855
18657THY    CA550013   0.276   2.585   1.882 -0.3521 -0.8186  0.2077
18657THY    CM150014   0.154   2.501   1.893 -0.2877  0.0460 -0.2307
18657THY    HM150015   0.063   2.549   1.856 -1.4064  2.6754 -0.1542
18657THY    HM250016   0.144   2.478   2.000  0.9218 -0.0518 -1.3021
18657THY    HM350017   0.160   2.406   1.839  0.9992 -0.9766  0.4090
18657THY    CA650018   0.368   2.552   1.788 -0.1011 -0.6672  0.1145
18657THY    HA650019   0.338   2.466   1.728 -0.2603  1.1704 -1.1801
18658THY      O50020   5.610   3.908   3.780 -0.4615  0.4429 -0.3303
18658THY     HO50021   5.587   3.845   3.850  0.3443  0.5235 -0.5435
18658THY    CA150022   5.571   3.848   3.672 -1.4089  0.6722  0.3492
18658THY    CA250023   5.606   3.892   3.545 -0.3567  0.4417 -0.3615
18658THY    CP150024   5.703   4.014   3.525  0.4979  0.7093  1.2819
18658THY    HP150025   5.722   4.064   3.621  0.7216  0.2606  2.0805
18658THY    CP250026   5.641   4.137   3.443  0.7198  0.3351 -0.6331
18658THY    HP250027   5.535   4.150   3.467  0.7829  0.0736  0.4726
18658THY    HP350028   5.658   4.110   3.339  0.3123  0.4423 -1.3314
18658THY    HP450029   5.698   4.228   3.466 -1.2182  0.3720  0.6233
18658THY    CP350030   5.835   3.981   3.452  0.2059  0.3412 -0.5445
18658THY    HP550031   5.813   3.930   3.358  0.6947  1.4515 -2.9178
18658THY    HP650032   5.896   3.926   3.525  1.0980  0.7762  0.9503
18658THY    HP750033   5.897   4.070   3.432 -1.2134 -1.5150  0.0789
18658THY    CA350034   5.548   3.823   3.437 -0.3163 -1.0042 -0.4058
18658THY    HA350035   5.561   3.869   3.340 -0.1458 -0.0832  1.5939
18658THY    CA450036   5.470   3.712   3.454  0.3237 -0.0216  0.2984
18658THY    HA450037   5.441   3.659   3.364 -1.1998 -0.6522  2.0806
18658THY    CA550038   5.439   3.662   3.576 -0.6436 -0.0125 -0.1178
18658THY    CM150039   5.354   3.538   3.591 -0.2686 -0.4981  0.1257
18658THY    HM150040   5.409   3.457   3.543 -0.9400 -1.4415  0.2101
18658THY    HM250041   5.253   3.542   3.548  0.1686 -1.4698  1.5976
18658THY    HM350042   5.343   3.517   3.698  1.9139 -0.1376  0.5829
18658THY    CA650043   5.491   3.732   3.686  0.0166  0.4514 -0.1861
18658THY    HA650044   5.467   3.696   3.786  0.4373 -0.4164 -3.1119
18659THY      O50045   0.682   1.227   7.789 -0.4746  0.2097  0.0659
18659THY     HO50046   0.608   1.165   7.800 -0.0607  2.1049 -0.1405
18659THY    CA150047   0.667   1.284   7.668 -0.0419  0.2178 -0.5524
18659THY    CA250048   0.742   1.404   7.635 -0.7710 -0.0798  0.6342
18659THY    CP150049   0.827   1.484   7.740 -0.1774  0.5625 -0.4258
18659THY    HP150050   0.834   1.434   7.837  0.0318  1.3712  1.1347
18659THY    CP250051   0.770   1.625   7.753 -0.4721 -0.8082  0.6301
18659THY    HP250052   0.838   1.683   7.817 -0.3756  0.0445 -0.3965
18659THY    HP350053   0.671   1.620   7.799 -0.4965 -0.9988 -1.2231
18659THY    HP450054   0.753   1.680   7.660 -0.2915  0.0745  2.2666
18659THY    CP350055   0.972   1.508   7.683  0.6142  0.3029  0.5664
18659THY    HP550056   1.027   1.413   7.680 -0.5614  3.4844 -0.3211
18659THY    HP650057   1.026   1.567   7.759  0.0774  1.4229 -0.3522
18659THY    HP750058   0.966   1.561   7.587  0.5839 -1.2444 -2.0987
18659THY    CA350059   0.713   1.463   7.508  0.3248 -0.2030 -0.1405
18659THY    HA350060   0.766   1.552   7.474  1.4754 -1.1240 -1.1457
18659THY    CA450061   0.618   1.397   7.422 -0.2064  0.0655 -0.1547
18659THY    HA450062   0.594   1.441   7.326 -0.7647 -0.6044 -1.8462
18659THY    CA550063   0.558   1.281   7.457 -0.2344  0.0265 -0.3247
18659THY    CM150064   0.457   1.216   7.364 -1.2206  0.1581 -0.3127
18659THY    HM150065   0.481   1.226   7.258 -0.8802  0.3742  1.6222
18659THY    HM250066   0.359   1.263   7.380 -0.4102  1.2848  1.0951
18659THY    HM350067   0.433   1.113   7.392  1.5520 -1.7366 -1.5854
18659THY    CA650068   0.577   1.226   7.582 -0.2047 -0.0190 -0.7708
18659THY    HA650069   0.528   1.136   7.617  0.5488  1.3559 -0.6730
18660THY      O50070   6.149   5.663   7.478  0.5333 -0.4044 -0.0740
18660THY     HO50071   6.209   5.596   7.442 -0.5277  2.0048 -2.4818
18660THY    CA150072   6.101   5.721   7.368  0.3360  0.2749 -0.1060
18660THY    CA250073   5.984   5.803   7.371 -0.1393 -0.2077 -0.6131
18660THY    CP150074   5.910   5.836   7.500 -0.8142 -0.0960  0.0904
18660THY    HP150075   5.969   5.828   7.592  0.8314 -0.8371  2.5281
18660THY    CP250076   5.797   5.732   7.535 -0.3318  0.6565 -0.2611
18660THY    HP250077   5.760   5.754   7.636 -0.3283  0.2186  2.0272
18660THY    HP350078   5.838   5.631   7.528 -0.6914 -2.2886 -0.2876
18660THY    HP450079   5.715   5.742   7.463 -0.2775  0.0360 -3.4938
18660THY    CP350080   5.876   5.993   7.509 -0.0507 -0.0642  0.6341
18660THY    HP550081   5.782   6.012   7.455 -1.1594  2.0104  1.4701
18660THY    HP650082   5.951   6.060   7.468  0.2161 -0.3746  0.1452
18660THY    HP750083   5.857   6.026   7.612 -3.9549 -0.7954  1.2045
18660THY    CA350084   5.951   5.864   7.247  0.6254 -0.3701  0.4211
18660THY    HA350085   5.871   5.937   7.254  0.6442  1.4256  0.3075
18660THY    CA450086   6.023   5.847   7.135  0.1173 -0.5452  0.6073
18660THY    HA450087   5.989   5.900   7.046 -1.3821 -2.2066 -2.8524
18660THY    CA550088   6.150   5.783   7.142  0.1408 -0.0767  0.3663
18660THY    CM150089   6.235   5.774   7.013  0.0917  0.1328  0.1078
18660THY    HM150090   6.338   5.746   7.038 -0.3715  1.0314 -0.8478
18660THY    HM250091   6.238   5.871   6.961 -2.0463  0.6790  0.5229
18660THY    HM350092   6.181   5.704   6.949  0.5320 -2.8631  2.3069
18660THY    CA650093   6.179   5.706   7.255 -0.3251 -0.5706  0.1789
18660THY    HA650094   6.277   5.660   7.263  0.8445  1.0971  2.7199
18661THY      O50095   0.589   8.062   5.832 -0.2663 -0.0018  0.4140
18661THY     HO50096   0.557   8.120   5.761  0.9465 -0.0959  0.9936
18661THY    CA150097   0.547   7.933   5.800  0.2627 -0.2422 -0.6054
18661THY    CA250098   0.618   7.826   5.862  0.5732 -0.4159  0.3306
18661THY    CP150099   0.736   7.858   5.963  0.3881  0.2275  0.2438
18661THY    HP150100   0.762   7.964   5.965 -2.3268  3.0697  0.9989
18661THY    CP250101   0.877   7.776   5.946  0.8349  0.1694 -0.5061
18661THY    HP250102   0.857   7.670   5.968 -1.7686 -0.9029 -0.3342
18661THY    HP350103   0.945   7.827   6.014  0.0670 -1.1871  2.5341
18661THY    HP450104   0.918   7.777   5.844  0.0334 -0.1762 -1.0486
18661THY    CP350105   0.684   7.839   6.107  0.6523  0.4520 -0.1778
18661THY    HP550106   0.661   7.731   6.110 -3.5279 -2.4529  0.3958
18661THY    HP650107   0.586   7.883   6.124  0.5436 -0.5711 -0.0001
18661THY    HP750108   0.756   7.866   6.185 -0.3612  1.2599  0.2616
18661THY    CA350109   0.569   7.693   5.842 -0.2534  0.8948  0.0846
18661THY    HA350110   0.615   7.605   5.886 -0.5437  1.2659  0.1176
18661THY    CA450111   0.461   7.674   5.753  0.1257  0.2193  0.8151
18661THY    HA450112   0.425   7.573   5.734 -0.9756  1.6692  0.9053
18661THY    CA550113   0.403   7.777   5.686  0.3897  0.6752  0.1999
18661THY    CM150114   0.293   7.743   5.585 -0.1607 -0.4502 -0.3931
18661THY    HM150115   0.254   7.828   5.528  0.3610  1.7745  1.4121
18661THY    HM250116   0.211   7.714   5.652  0.1037  0.1139  0.1506
18661THY    HM350117   0.326   7.663   5.518  1.3542  0.1749 -0.3182
18661THY    CA650118   0.444   7.908   5.712  0.2680 -0.1266 -0.3372
18661THY    HA650119   0.391   7.990   5.664  0.2692  0.1927 -0.1511
18662THY      O50120   4.354   5.943   4.156 -0.9140  0.2312  0.3853
18662THY     HO50121   4.431   5.912   4.106 -2.4260 -1.4166 -0.9434
18662THY    CA150122   4.279   6.004   4.068 -0.2983  0.2189  0.2442
18662THY    CA250123   4.151   6.053   4.105 -0.1543 -0.2670  0.3570
18662THY    CP150124   4.103   6.052   4.247 -0.5559  0.1083  0.4280
18662THY    HP150125   4.187   6.061   4.317 -1.8192  1.4619  2.3690
18662THY    CP250126   4.053   5.908   4.274  0.5574  0.2070  0.4960
18662THY    HP250127   4.002   5.900   4.370  1.3902  0.5272 -1.3757
18662THY    HP350128   4.139   5.841   4.282  1.0470 -0.2198  1.0597
18662THY    HP450129   3.989   5.870   4.194  1.7213 -1.1786  1.2946
18662THY    CP350130   3.983   6.147   4.285  0.3972  0.0692  0.2917
18662THY    HP550131   4.000   6.250   4.253 -2.2087 -1.2094  0.3719
18662THY    HP650132   3.967   6.145   4.394  0.4199  0.0942 -2.3449
18662THY    HP750133   3.891   6.104   4.245 -0.0035  1.3525 -0.1066
18662THY    CA350134   4.070   6.099   4.000 -0.2067  0.4218 -0.1984
18662THY    HA350135   3.962   6.110   4.007  0.1041  3.1985  2.3085
18662THY    CA450136   4.127   6.112   3.875  0.3808 -0.4769 -0.4079
18662THY    HA450137   4.075   6.166   3.797  1.6576 -0.2552  1.2506
18662THY    CA550138   4.265   6.090   3.850  0.2401  0.7979  0.2886
18662THY    CM150139   4.332   6.134   3.722 -0.2244 -0.2463  0.3743
18662THY    HM150140   4.321   6.061   3.641  1.0635  1.9417 -2.4232
18662THY    HM250141   4.435   6.160   3.747 -0.9751  1.5469  1.8206
18662THY    HM350142   4.294   6.232   3.688  1.4357 -0.3980  1.0038
18662THY    CA650143   4.335   6.025   3.949  0.4580 -0.6581 -0.0149
18662THY    HA650144   4.440   6.007   3.926  1.2816  0.7122  2.5570
18663THY      O50145   9.350   2.190   4.783 -0.7286  0.3204  0.2565
18663THY     HO50146   9.357   2.121   4.851 -1.5060 -0.6586 -0.8499
18663THY    CA150147   9.271   2.290   4.828 -0.1890 -0.0004 -0.0633
18663THY    CA250148   9.206   2.376   4.736 -0.3280 -0.3283  0.8926
18663THY    CP150149   9.203   2.342   4.592  0.2895 -0.7905  1.0932
18663THY    HP150150   9.198   2.233   4.578 -0.9117  0.3860  0.9693
18663THY    CP250151   9.333   2.373   4.535  0.3518  0.4145 -0.4451
18663THY    HP250152   9.349   2.481   4.550 -0.2594  0.8353 -0.4062
18663THY    HP350153   9.333   2.349   4.428  0.7903  0.0443  1.0894
18663THY    HP450154   9.422   2.320   4.569  2.2492 -1.9318  1.0615
18663THY    CP350155   9.077   2.397   4.521  0.4131  0.1626  0.0442
18663THY    HP550156   9.046   2.335   4.436  0.6506  0.1926 -0.1148
18663THY    HP650157   9.087   2.503   4.495 -0.2986 -2.4061 -0.4654
18663THY    HP750158   8.991   2.387   4.589  1.7217  2.1648  1.5002
18663THY    CA350159   9.130   2.476   4.784  1.0077 -0.2051  0.1953
18663THY    HA350160   9.078   2.549   4.723 -0.5382  2.1816  1.2289
18663THY    CA450161   9.112   2.492   4.928 -0.4986 -0.5063  0.2665
18663THY    HA450162   9.055   2.572   4.975 -0.3601  0.3096 -0.0958
18663THY    CA550163   9.183   2.417   5.020 -0.1064  0.6071  1.0656
18663THY    CM150164   9.185   2.446   5.164  0.1975  0.6651 -0.4617
18663THY    HM150165   9.255   2.381   5.219 -0.1639 -0.1126 -1.5324
18663THY    HM250166   9.085   2.436   5.207  0.1622  0.6471 -0.1916
18663THY    HM350167   9.216   2.549   5.188  1.3392  0.1226 -0.6648
18663THY    CA650168   9.264   2.318   4.968  0.9824 -0.3306 -0.5663
18663THY    HA650169   9.322   2.251   5.031 -1.2913 -0.1416 -2.5014
18664THY      O50170   4.872   3.483   4.014 -0.2555  0.1886 -0.2007
18664THY     HO50171   4.852   3.567   4.059  0.8137 -0.9413  0.7039
18664THY    CA150172   4.875   3.375   4.096  0.1843  0.2531 -0.8776
18664THY    CA250173   4.860   3.245   4.049 -0.0271 -0.0765 -0.3674
18664THY    CP150174   4.874   3.221   3.902  0.2659  0.6877  0.1366
18664THY    HP150175   4.892   3.311   3.842  2.7774  1.7578  0.4343
18664THY    CP250176   4.747   3.162   3.844 -0.2609  0.1806 -0.1263
18664THY    HP250177   4.734   3.057   3.874 -0.5168  0.0466 -0.1342
18664THY    HP350178   4.757   3.160   3.735 -0.0916  0.1777  0.6607
18664THY    HP450179   4.652   3.209   3.873 -0.0336  0.0405  0.4149
18664THY    CP350180   4.993   3.125   3.870 -0.6695 -0.2678 -0.8136
18664THY    HP550181   5.005   3.110   3.762 -0.1275 -0.3304 -0.0274
18664THY    HP650182   4.972   3.023   3.904  1.2257 -1.6050 -1.7232
18664THY    HP750183   5.087   3.156   3.918  0.1221 -1.6232 -1.0283
18664THY    CA350184   4.839   3.144   4.143  0.2795  0.1854  0.5500
18664THY    HA350185   4.821   3.041   4.113  0.0481  2.5324 -0.1492
18664THY    CA450186   4.844   3.169   4.281  0.0527  0.0923 -0.6448
18664THY    HA450187   4.822   3.095   4.357  1.4446  0.0717 -1.1113
18664THY    CA550188   4.875   3.299   4.329 -0.0454  0.2054  0.6118
18664THY    CM150189   4.875   3.327   4.478 -0.0243 -0.4921  0.2142
18664THY    HM150190   4.961   3.385   4.513  1.1550 -0.5817 -1.3918
18664THY    HM250191   4.881   3.236   4.540  2.2812  0.9628  1.2560
18664THY    HM350192   4.789   3.382   4.516  1.5625  2.3347  0.9718
18664THY    CA650193   4.888   3.402   4.234  0.7020 -0.2476 -0.2986
18664THY    HA650194   4.905   3.506   4.258  1.0418 -1.7280  0.0080
18665THY      O50195   7.194   3.830   4.032  0.1120 -0.4299  0.1094
18665THY     HO50196   7.192   3.896   4.104  1.9216 -0.2919  0.0706
18665THY    CA150197   7.212   3.899   3.919 -0.4281  0.4262 -0.4670
18665THY    CA250198   7.239   3.834   3.801  0.1222 -0.5692 -0.2467
18665THY    CP150199   7.236   3.681   3.793 -0.0302 -0.0037  0.1158
18665THY    HP150200   7.260   3.637   3.891 -2.0479  0.7084  0.5039
18665THY    CP250201   7.338   3.630   3.688  0.4680 -0.2845 -0.1265
18665THY    HP250202   7.431   3.688   3.681 -0.6017  1.4794  1.9851
18665THY    HP350203   7.288   3.633   3.590  0.8653 -0.4640  2.0854
18665THY    HP450204   7.354   3.524   3.712 -0.9470  1.4579  0.0126
18665THY    CP350205   7.087   3.644   3.764  0.7108 -0.6173  0.2926
18665THY    HP550206   7.069   3.666   3.659  2.0759 -0.9305  0.0057
18665THY    HP650207   7.008   3.696   3.820  0.8072  0.4803 -0.6877
18665THY    HP750208   7.067   3.538   3.782 -2.4984  1.7045  1.1284
18665THY    CA350209   7.263   3.912   3.686  0.7874  0.2211  0.2861
18665THY    HA350210   7.272   3.863   3.589 -2.3833  0.0100 -0.0911
18665THY    CA450211   7.273   4.050   3.691 -1.1389  0.5838  0.5403
18665THY    HA450212   7.303   4.111   3.606  0.2983  1.0396  0.5125
18665THY    CA550213   7.260   4.116   3.811  0.4331 -0.1330  0.3014
18665THY    CM150214   7.276   4.267   3.827 -0.0902  0.7809 -0.3005
18665THY    HM150215   7.240   4.292   3.927  1.7418  1.2739  0.5846
18665THY    HM250216   7.224   4.318   3.745 -1.8974  0.2874 -2.7768
18665THY    HM350217   7.384   4.288   3.825 -0.0247 -0.2300 -0.7184
18665THY    CA650218   7.238   4.037   3.928  0.9720  0.0734  0.1445
18665THY    HA650219   7.240   4.086   4.025 -0.6877 -0.3751  1.1756
18666THY      O50220   2.429   1.674   5.645  0.1380 -0.3069  0.2424
18666THY     HO50221   2.357   1.695   5.583 -0.0856 -0.0329  0.2914
18666THY    CA150222   2.522   1.766   5.652  0.8124  0.3567  0.5855
18666THY    CA250223   2.619   1.764   5.764  0.4662 -0.3344 -0.1722
18666THY    CP150224   2.631   1.659   5.871 -0.0999  0.1369  0.4507
18666THY    HP150225   2.558   1.580   5.851  1.5943 -0.4647 -1.0153
18666THY    CP250226   2.604   1.714   6.008  0.4777 -0.6667  0.3803
18666THY    HP250227   2.671   1.794   6.043 -0.4350  2.1451  0.0529
18666THY    HP350228   2.595   1.635   6.084  0.1080 -0.7502  0.3417
18666THY    HP450229   2.508   1.766   6.011  1.1756 -0.3156  1.7163
18666THY    CP350230   2.771   1.594   5.867 -0.2698 -0.0673  0.4550
18666THY    HP550231   2.773   1.507   5.800  0.4323  0.1940  0.2642
18666THY    HP650232   2.787   1.548   5.965  2.6127 -1.3629 -1.5690
18666THY    HP750233   2.847   1.669   5.844  1.7108  1.0065 -1.1266
18666THY    CA350234   2.707   1.871   5.764  0.2123 -0.3253  0.1884
18666THY    HA350235   2.779   1.874   5.845  0.1509 -0.0351 -2.7578
18666THY    CA450236   2.694   1.978   5.675 -0.1847  0.0904 -0.5991
18666THY    HA450237   2.758   2.064   5.688  0.3468 -0.5733 -0.8847
18666THY    CA550238   2.603   1.969   5.567 -0.0767  0.8267 -0.5153
18666THY    CM150239   2.608   2.077   5.463 -0.3395 -1.2503 -1.1230
18666THY    HM150240   2.569   2.170   5.506  0.2824 -3.1021  0.0476
18666THY    HM250241   2.551   2.049   5.374  0.9881 -2.6368  0.3919
18666THY    HM350242   2.715   2.087   5.438 -0.3645 -0.7284  0.8721
18666THY    CA650243   2.511   1.864   5.559 -0.9326  0.2484 -0.4167
18666THY    HA650244   2.429   1.860   5.487 -0.1687 -0.5911 -1.6833
18667THY      O50245   7.064   1.434   2.587  0.7246 -0.2176 -1.0360
18667THY     HO50246   7.041   1.342   2.562  0.3522 -1.6502 -0.5817
18667THY    CA150247   7.005   1.499   2.487  0.2019  1.3027 -0.2608
18667THY    CA250248   6.983   1.639   2.483 -0.3839 -0.6132  0.0382
18667THY    CP150249   7.014   1.721   2.611  0.1295  0.1265  0.3538
18667THY    HP150250   7.049   1.654   2.690 -1.8165  1.9633  1.3821
18667THY    CP250251   6.882   1.776   2.670  0.4327  0.2433  0.1513
18667THY    HP250252   6.912   1.848   2.747  2.6249 -1.0012  0.6593
18667THY    HP350253   6.824   1.695   2.715 -1.5304 -0.8011  0.9009
18667THY    HP450254   6.826   1.836   2.597  1.2081 -0.8245 -0.3914
18667THY    CP350255   7.105   1.835   2.576 -0.8161  0.1430  0.6174
18667THY    HP550256   7.047   1.906   2.515  1.0675 -2.5946 -0.0242
18667THY    HP650257   7.185   1.795   2.513 -0.2517  1.3682 -0.2416
18667THY    HP750258   7.161   1.874   2.661  0.3942  1.2442 -3.0471
18667THY    CA350259   6.928   1.693   2.366  0.6121  0.9783 -0.0747
18667THY    HA350260   6.885   1.793   2.364 -0.3708 -0.4517 -0.4964
18667THY    CA450261   6.900   1.611   2.254 -0.0144 -0.0391 -0.2437
18667THY    HA450262   6.834   1.650   2.178 -1.6410  0.6523 -1.5511
18667THY    CA550263   6.936   1.476   2.258 -0.3649  0.7463  0.4620
18667THY    CM150264   6.888   1.391   2.145  0.1674  0.2362  0.0873
18667THY    HM150265   6.875   1.285   2.171  1.0940  0.2058 -0.0453
18667THY    HM250266   6.962   1.407   2.066  2.3569  2.0946 -0.2437
18667THY    HM350267   6.786   1.411   2.111 -0.9324  1.5721 -2.7136
18667THY    CA650268   6.994   1.420   2.371  0.7922  0.1021 -0.8972
18667THY    HA650269   6.997   1.312   2.371  1.7688  1.6165 -0.8922
18668THY      O50270   8.688   2.947   5.874  0.0290  0.4392  0.0349
18668THY     HO50271   8.597   2.971   5.900 -0.5408 -1.5547  0.1881
18668THY    CA150272   8.686   2.819   5.836  0.3889 -1.0210 -0.8911
18668THY    CA250273   8.800   2.742   5.804 -0.6960  0.5226  0.2469
18668THY    CP150274   8.938   2.804   5.801  0.1903 -0.0141 -0.6658
18668THY    HP150275   8.942   2.910   5.830  1.0258  2.1633 -1.2541
18668THY    CP250276   9.002   2.797   5.671  0.4050  1.5087 -0.5504
18668THY    HP250277   9.022   2.696   5.632  0.9187  0.2378  0.0278
18668THY    HP350278   9.093   2.858   5.674  0.8233  0.0798 -1.0715
18668THY    HP450279   8.943   2.855   5.600  2.4792 -0.1725 -0.3606
18668THY    CP350280   9.026   2.731   5.903  0.6635 -0.1268 -0.3970
18668THY    HP550281   9.045   2.626   5.878 -1.2715 -1.5521 -0.4620
18668THY    HP650282   8.978   2.748   6.000 -0.3867 -0.4676 -1.2854
18668THY    HP750283   9.122   2.782   5.909  0.8172 -1.0371 -0.5676
18668THY    CA350284   8.782   2.614   5.748 -0.3914  0.1919 -0.0878
18668THY    HA350285   8.863   2.553   5.710 -1.9594  0.5581 -2.5428
18668THY    CA450286   8.651   2.561   5.754  0.1388  0.0178 -0.2529
18668THY    HA450287   8.640   2.456   5.729  1.2960  1.8680 -0.8652
18668THY    CA550288   8.544   2.626   5.807  0.2351 -0.3173 -0.4252
18668THY    CM150289   8.412   2.553   5.826  0.1409  0.7899 -0.5536
18668THY    HM150290   8.340   2.605   5.763  0.9383 -0.3963 -0.8373
18668THY    HM250291   8.371   2.547   5.927 -0.7605  0.4395 -0.4839
18668THY    HM350292   8.422   2.450   5.791  0.0643 -1.1976  0.0692
18668THY    CA650293   8.560   2.757   5.851  0.3615  0.0308 -0.3331
18668THY    HA650294   8.478   2.816   5.890  0.1709  0.8232 -1.1099
18669THY      O50295   5.697   4.270   7.040  0.3056  0.4091  0.0253
18669THY     HO50296   5.645   4.188   7.043 -2.0870  1.0970  1.4769
18669THY    CA150297   5.598   4.364   7.020 -0.3568 -0.3386 -0.0569
18669THY    CA250298   5.623   4.493   6.965 -0.4899  0.7660 -0.9067
18669THY    CP150299   5.768   4.522   6.914 -0.3208 -0.1812  0.3384
18669THY    HP150300   5.817   4.433   6.873  2.0172 -2.7939  2.6343
18669THY    CP250301   5.857   4.587   7.024 -0.0060 -1.1968 -0.1014
18669THY    HP250302   5.868   4.520   7.110 -2.4362 -0.0670  0.8321
18669THY    HP350303   5.811   4.679   7.062 -2.0403  0.6251 -1.7446
18669THY    HP450304   5.955   4.616   6.984  0.3174 -0.1876  0.2359
18669THY    CP350305   5.771   4.620   6.789  0.1465  0.0838  0.2846
18669THY    HP550306   5.722   4.575   6.702 -1.4568 -0.0054  2.0873
18669THY    HP650307   5.869   4.640   6.744 -0.8863 -2.1855  0.5371
18669THY    HP750308   5.738   4.724   6.802 -1.7092 -1.0886 -0.1041
18669THY    CA350309   5.530   4.597   6.987  0.9189  0.6395 -0.1834
18669THY    HA350310   5.543   4.695   6.942  0.5303 -0.0799 -0.4509
18669THY    CA450311   5.401   4.562   7.028 -0.6069 -0.2464 -0.5414
18669THY    HA450312   5.328   4.642   7.017  0.4527 -1.0604  0.3465
18669THY    CA550313   5.376   4.430   7.074 -0.1116 -0.3517  1.1122
18669THY    CM150314   5.239   4.397   7.118  0.3893 -0.5660  0.4445
18669THY    HM150315   5.178   4.372   7.031  1.4720 -1.4229  0.7293
18669THY    HM250316   5.200   4.482   7.175  0.8949 -1.5507  1.3501
18669THY    HM350317   5.223   4.313   7.187 -2.4475 -1.7379 -0.0822
18669THY    CA650318   5.475   4.335   7.073 -0.4979 -1.0480  0.5013
18669THY    HA650319   5.453   4.241   7.122 -0.3203  1.9768  1.9405
18670THY      O50320   2.553   9.182   3.095 -0.6947 -0.1731 -0.0429
18670THY     HO50321   2.576   9.250   3.029 -1.3054 -1.2678 -0.8595
18670THY    CA150322   2.580   9.233   3.220  0.6247 -0.2977 -0.4850
18670THY    CA250323   2.483   9.237   3.323  0.3651 -0.3261 -0.1681
18670THY    CP150324   2.342   9.189   3.299  0.3754  0.0560  0.1473
18670THY    HP150325   2.333   9.159   3.194  1.3935  0.0233 -0.0598
18670THY    CP250326   2.262   9.313   3.332  0.3823  0.0699  0.4237
18670THY    HP250327   2.161   9.292   3.293  0.2001  0.7323  0.0391
18670THY    HP350328   2.298   9.406   3.288 -0.7980 -0.6024  0.5898
18670THY    HP450329   2.265   9.329   3.440  1.4985  0.0736  0.2436
18670THY    CP350330   2.318   9.068   3.389  0.1308  0.0456  1.3363
18670THY    HP550331   2.210   9.053   3.397  0.1386 -0.4330  1.0148
18670THY    HP650332   2.353   9.087   3.491  0.0262  0.6247 -1.2528
18670THY    HP750333   2.363   8.975   3.352  0.7448 -0.7670  1.9451
18670THY    CA350334   2.531   9.289   3.447 -0.4056 -0.1333  0.3837
18670THY    HA350335   2.457   9.289   3.527 -0.8717 -0.5382  1.4626
18670THY    CA450336   2.662   9.337   3.465 -0.2158  0.1217  0.0941
18670THY    HA450337   2.697   9.381   3.558  0.2561 -0.7848  1.7009
18670THY    CA550338   2.747   9.338   3.356 -0.2369 -0.2345  1.1725
18670THY    CM150339   2.886   9.380   3.370  0.1796 -0.0835 -1.0539
18670THY    HM150340   2.903   9.486   3.347  1.9465 -1.0713 -1.5204
18670THY    HM250341   2.949   9.321   3.304  4.0086  2.1398  0.1910
18670THY    HM350342   2.905   9.376   3.478 -1.4239  0.5619  3.0824
18670THY    CA650343   2.707   9.287   3.236  0.4966  0.9011  0.1064
18670THY    HA650344   2.771   9.282   3.148  0.5040  0.8599  0.8159
18671THY      O50345   8.350   0.839   4.397  0.3081 -0.3385  0.0725
18671THY     HO50346   8.392   0.814   4.313 -2.2562 -0.9844 -2.6204
18671THY    CA150347   8.426   0.936   4.450  0.2312  0.0566 -0.0422
18671THY    CA250348   8.423   0.968   4.588  0.0754  0.1500 -0.2255
18671THY    CP150349   8.347   0.880   4.688 -1.0044  0.5220  0.4008
18671THY    HP150350   8.318   0.783   4.646 -1.9401  3.6088 -0.7793
18671THY    CP250351   8.206   0.935   4.723 -0.6617 -0.0339 -0.4836
18671THY    HP250352   8.143   0.864   4.777 -0.7472  0.6350  0.0908
18671THY    HP350353   8.153   0.950   4.628  1.1261 -1.1601 -1.0086
18671THY    HP450354   8.207   1.027   4.783  1.4505 -0.1542 -0.3723
18671THY    CP350355   8.424   0.847   4.813  0.0916  0.0253  0.5634
18671THY    HP550356   8.520   0.809   4.776  0.0751 -1.2504  1.6849
18671THY    HP650357   8.384   0.771   4.881  2.1530 -0.7030 -1.2674
18671THY    HP750358   8.433   0.934   4.879 -2.0054 -0.1167  0.9581
18671THY    CA350359   8.499   1.087   4.626 -0.1675 -0.1588  0.4082
18671THY    HA350360   8.497   1.121   4.729 -0.4172  0.2154 -0.7310
18671THY    CA450361   8.570   1.160   4.532  0.8410 -0.5095  0.0745
18671THY    HA450362   8.643   1.235   4.561 -1.2044  2.1906  1.1949
18671THY    CA550363   8.557   1.129   4.399 -0.2319  0.3967 -0.4539
18671THY    CM150364   8.638   1.196   4.295 -0.9370 -0.1954 -0.3991
18671THY    HM150365   8.724   1.136   4.262 -0.6639  0.1731 -0.2128
18671THY    HM250366   8.680   1.282   4.349 -0.0090 -0.4305 -0.6932
18671THY    HM350367   8.574   1.235   4.215  1.2890 -0.8094  2.3222
18671THY    CA650368   8.491   1.017   4.361  0.2244  0.0098  0.1957
18671THY    HA650369   8.498   0.991   4.256 -2.3605 -0.7414  2.1491
18672THY      O50370   8.481   8.737   3.280 -0.0224 -0.6926 -0.0833
18672THY     HO50371   8.520   8.753   3.368 -3.4847  1.0011  0.2422
18672THY    CA150372   8.446   8.862   3.239 -1.2835 -0.6531 -0.5044
18672THY    CA250373   8.343   8.894   3.152  0.1855 -0.3330 -0.1075
18672THY    CP150374   8.241   8.796   3.108 -0.0891  0.3170  0.0445
18672THY    HP150375   8.272   8.691   3.110 -1.7206  1.5482 -0.4600
18672THY    CP250376   8.224   8.820   2.955  0.0850  0.0856  0.3111
18672THY    HP250377   8.320   8.839   2.905  0.5757  0.4044 -1.2035
18672THY    HP350378   8.157   8.907   2.946  0.4119 -0.1401  0.5409
18672THY    HP450379   8.171   8.735   2.911 -1.7374  1.0778  0.8746
18672THY    CP350380   8.106   8.810   3.183  0.4615 -0.7261  0.1615
18672THY    HP550381   8.062   8.908   3.164 -2.1186  0.0488 -0.7726
18672THY    HP650382   8.120   8.792   3.290 -0.2432 -0.7048 -0.2695
18672THY    HP750383   8.038   8.737   3.139 -0.7829  3.3792 -1.4697
18672THY    CA350384   8.333   9.031   3.112 -0.0919  0.2910  0.3355
18672THY    HA350385   8.255   9.054   3.040 -0.8301  0.7760 -0.5486
18672THY    CA450386   8.402   9.129   3.178 -0.3098  0.2531 -0.1690
18672THY    HA450387   8.374   9.231   3.157  0.8870  2.0490  0.5791
18672THY    CA550388   8.511   9.089   3.264 -0.3934 -0.1673 -0.5358
18672THY    CM150389   8.585   9.198   3.336  0.1779  0.4528 -0.2032
18672THY    HM150390   8.559   9.297   3.298  0.0915 -2.3265 -1.1934
18672THY    HM250391   8.693   9.194   3.318  0.0326 -0.5147 -0.0969
18672THY    HM350392   8.577   9.192   3.445 -0.5006  0.3600 -1.5629
18672THY    CA650393   8.534   8.959   3.289  0.3642  0.3887  0.2427
18672THY    HA650394   8.613   8.943   3.362  0.4010  0.0362 -1.2525
18673THY      O50395   8.136   4.709   4.984 -0.0110 -0.0503 -0.5663
18673THY     HO50396   8.056   4.659   4.962 -1.0844  0.4029  0.8938
18673THY    CA150397   8.110   4.831   4.926  0.0022  0.0477 -0.1038
18673THY    CA250398   8.064   4.934   5.006  0.2889 -0.0434  0.1392
18673THY    CP150399   8.040   4.912   5.157  0.0467 -0.0437  0.7965
18673THY    HP150400   8.073   4.814   5.194  3.0758  0.4162  1.8929
18673THY    CP250401   7.894   4.910   5.190 -0.3651  0.0352  0.4609
18673THY    HP250402   7.843   5.001   5.156  1.6313 -0.8006  1.3173
18673THY    HP350403   7.878   4.885   5.296 -0.9306 -0.1658 -0.0614
18673THY    HP450404   7.862   4.823   5.132 -1.2092  1.0653  0.0566
18673THY    CP350405   8.104   5.029   5.239 -0.2201 -0.0897  0.0722
18673THY    HP550406   8.091   5.012   5.347 -0.4585  0.1316  1.4658
18673THY    HP650407   8.068   5.132   5.228 -0.4962  2.0394  0.2687
18673THY    HP750408   8.212   5.025   5.225 -0.4444 -1.8733 -0.4821
18673THY    CA350409   8.045   5.057   4.947  0.0503 -0.2152 -0.0789
18673THY    HA350410   8.023   5.145   5.007  2.4792  2.0118 -0.8630
18673THY    CA450411   8.057   5.071   4.809 -0.5512 -0.0899 -0.1745
18673THY    HA450412   8.033   5.170   4.769 -4.2501  1.9127 -0.0914
18673THY    CA550413   8.106   4.965   4.731 -1.1535  0.1929 -0.6543
18673THY    CM150414   8.137   5.002   4.585 -0.3427  0.6999 -0.5713
18673THY    HM150415   8.195   5.095   4.586  0.2993 -2.7788 -0.7876
18673THY    HM250416   8.049   5.032   4.527  1.2088 -2.4883 -1.6418
18673THY    HM350417   8.195   4.922   4.536  1.0943  2.9198 -0.9594
18673THY    CA650418   8.139   4.847   4.793 -0.5979 -0.4124 -0.3240
18673THY    HA650419   8.192   4.771   4.736 -0.6585  1.6888 -2.0515
18674THY      O50420   6.067   7.183   5.079  0.0917  0.0332  0.5678
18674THY     HO50421   6.076   7.257   5.016 -0.1353  2.7549  3.1200
18674THY    CA150422   6.053   7.236   5.208  0.7259 -0.1710  0.0611
18674THY    CA250423   6.010   7.164   5.320  0.0434  0.1528 -0.1420
18674THY    CP150424   5.964   7.018   5.309 -0.1896  0.0574  0.2045
18674THY    HP150425   5.924   6.990   5.210  0.9030  0.1608 -1.9768
18674THY    CP250426   5.868   6.964   5.422 -0.1111  0.7770 -0.5555
18674THY    HP250427   5.817   6.872   5.392  0.4476  1.6331 -1.1603
18674THY    HP350428   5.789   7.039   5.435 -1.0696 -0.2285 -1.3518
18674THY    HP450429   5.924   6.935   5.512 -0.6473  0.5262 -2.5413
18674THY    CP350430   6.100   6.930   5.329  0.7101 -0.9391  0.4273
18674THY    HP550431   6.145   6.963   5.424 -0.1079 -0.3898  0.0054
18674THY    HP650432   6.169   6.951   5.247 -0.3757 -2.2545 -0.9283
18674THY    HP750433   6.080   6.823   5.343 -0.5710 -0.6543  0.6817
18674THY    CA350434   6.005   7.235   5.440 -0.3003 -0.4724 -0.2966
18674THY    HA350435   5.979   7.189   5.536  0.4196  0.3401  0.9395
18674THY    CA450436   6.025   7.373   5.446  0.1036 -0.3225 -0.0075
18674THY    HA450437   6.003   7.422   5.541  2.3908  0.8155 -0.9891
18674THY    CA550438   6.075   7.441   5.338  0.1797 -0.3463  0.6857
18674THY    CM150439   6.112   7.583   5.343 -0.1442  0.5096  0.3340
18674THY    HM150440   6.125   7.606   5.237 -0.3022  0.3824 -0.1628
18674THY    HM250441   6.209   7.601   5.390 -1.0697  2.0137  1.6682
18674THY    HM350442   6.029   7.646   5.380 -1.4183 -1.7663  0.0900
18674THY    CA650443   6.091   7.367   5.218 -0.0523  0.7140 -0.5971
18674THY    HA650444   6.134   7.423   5.136 -1.7592 -0.1308 -0.4591
18675THY      O50445   7.175   3.991   4.316  0.1861  0.1784 -0.2250
18675THY     HO50446   7.234   3.998   4.393 -0.1432  0.3915  0.2645
18675THY    CA150447   7.131   4.118   4.287  0.2730  0.0822 -0.2143
18675THY    CA250448   7.006   4.142   4.220  0.1931 -0.1197  0.5786
18675THY    CP150449   6.924   4.024   4.174 -0.4467  0.5324  0.3927
18675THY    HP150450   6.981   3.933   4.192  0.4745 -0.6907  0.6926
18675THY    CP250451   6.883   4.028   4.025 -0.3284 -0.7407 -0.0228
18675THY    HP250452   6.837   3.934   3.993 -0.5541  1.3666 -0.6834
18675THY    HP350453   6.975   4.031   3.964 -0.2762 -0.6669 -0.1299
18675THY    HP450454   6.824   4.117   4.000 -1.3826  3.9904  0.8600
18675THY    CP350455   6.792   4.030   4.264 -0.1301 -0.0152 -0.2826
18675THY    HP550456   6.728   3.942   4.262 -0.5476  1.1178 -0.0257
18675THY    HP650457   6.726   4.106   4.221 -0.8122  1.3579 -0.0577
18675THY    HP750458   6.820   4.059   4.366  2.4456 -0.5283 -0.6623
18675THY    CA350459   6.966   4.277   4.194 -0.5262 -0.0603  0.1026
18675THY    HA350460   6.887   4.305   4.126  2.0762 -3.1509  0.5771
18675THY    CA450461   7.059   4.380   4.231  0.3705  0.0665  0.5754
18675THY    HA450462   7.039   4.486   4.220 -0.0636 -1.8153  0.3310
18675THY    CA550463   7.178   4.349   4.295 -0.4027 -1.0707  1.0002
18675THY    CM150464   7.261   4.453   4.347  0.7913 -0.1433  0.1559
18675THY    HM150465   7.365   4.433   4.320  0.5564 -0.5242 -0.5976
18675THY    HM250466   7.246   4.471   4.454 -0.6960 -0.3020  0.0454
18675THY    HM350467   7.238   4.546   4.292 -2.7198  0.1728 -0.3843
18675THY    CA650468   7.214   4.216   4.327  0.1034  0.4806 -0.4700
18675THY    HA650469   7.313   4.191   4.365 -0.0480  1.4369  0.3155
18676THY      O50470   4.157   6.274   6.270 -0.1428  0.4197  0.1821
18676THY     HO50471   4.073   6.231   6.294  0.5030  0.0484 -1.3493
18676THY    CA150472   4.138   6.331   6.150  0.0118  0.0226  0.1786
18676THY    CA250473   4.243   6.387   6.072 -0.3027  0.2538 -0.2473
18676THY    CP150474   4.388   6.369   6.119  0.3190  0.7599 -0.5164
18676THY    HP150475   4.394   6.316   6.215  1.6961  0.6699 -0.5566
18676THY    CP250476   4.457   6.510   6.138 -0.4007 -0.5031 -0.1274
18676THY    HP250477   4.429   6.569   6.226 -0.5001 -0.3874 -0.3486
18676THY    HP350478   4.461   6.572   6.047 -1.0981 -0.6454 -0.2743
18676THY    HP450479   4.561   6.485   6.159 -1.2141  1.5876 -2.1363
18676THY    CP350480   4.459   6.298   6.011  0.1302  0.9503  0.0428
18676THY    HP550481   4.408   6.203   5.994  1.0902  2.2600 -0.7369
18676THY    HP650482   4.563   6.270   6.031  0.1356 -1.1015 -1.7377
18676THY    HP750483   4.457   6.359   5.919  0.3547 -0.0582 -1.4291
18676THY    CA350484   4.213   6.452   5.954 -0.2041 -0.1083  0.1405
18676THY    HA350485   4.292   6.490   5.891 -0.5864 -1.2312 -0.8580
18676THY    CA450486   4.081   6.463   5.912 -0.4862 -0.3047  0.0839
18676THY    HA450487   4.049   6.503   5.816 -1.6189  0.2321  0.5151
18676THY    CA550488   3.978   6.417   5.990 -0.3412 -0.4022 -0.1139
18676THY    CM150489   3.839   6.405   5.934 -0.4974  0.4848  0.2427
18676THY    HM150490   3.819   6.488   5.864 -0.2211  1.1875  0.9210
18676THY    HM250491   3.762   6.419   6.011 -1.8081 -0.8448  0.6501
18676THY    HM350492   3.821   6.308   5.887 -0.6964 -1.6704  1.2664
18676THY    CA650493   4.004   6.342   6.109  0.1826  0.0607 -0.2329
18676THY    HA650494   3.921   6.301   6.166 -1.7128 -1.9514  0.6119
18677THY      O50495   5.496   4.314   7.834 -0.2789 -0.2216 -0.0993
18677THY     HO50496   5.563   4.314   7.904  1.6456 -1.9662  0.8706
18677THY    CA150497   5.547   4.268   7.715  0.3313 -0.2922  0.4398
18677THY    CA250498   5.684   4.282   7.676  0.0087  0.4880  0.6295
18677THY    CP150499   5.791   4.322   7.778  0.0214 -0.3380 -0.8474
18677THY    HP150500   5.749   4.380   7.861 -1.2159  0.0001 -2.1703
18677THY    CP250501   5.913   4.395   7.724  0.0067 -0.1493 -0.1190
18677THY    HP250502   5.892   4.492   7.678 -0.1441 -0.4992 -0.3145
18677THY    HP350503   5.964   4.339   7.644 -0.6317 -1.6385  1.3397
18677THY    HP450504   5.990   4.417   7.799  1.3381 -1.7961  1.1493
18677THY    CP350505   5.836   4.191   7.843  0.5714  0.1956  0.8805
18677THY    HP550506   5.874   4.124   7.765 -1.8931 -1.2055  1.0188
18677THY    HP650507   5.755   4.131   7.885 -0.5744 -1.4742  1.1821
18677THY    HP750508   5.912   4.212   7.919 -1.6560  3.0588 -0.7341
18677THY    CA350509   5.710   4.248   7.537  0.6191 -0.0636 -0.2304
18677THY    HA350510   5.808   4.259   7.493  0.8797  0.5101 -0.2249
18677THY    CA450511   5.604   4.209   7.450 -0.7220  0.0649  0.1752
18677THY    HA450512   5.628   4.199   7.344  1.2588  0.5813 -0.9814
18677THY    CA550513   5.479   4.179   7.498  0.1844  0.4943  0.1397
18677THY    CM150514   5.364   4.143   7.408 -0.0323  0.2469  0.4695
18677THY    HM150515   5.395   4.145   7.303  0.5719  0.3908 -0.4889
18677THY    HM250516   5.273   4.200   7.429 -2.0536  0.4340 -2.5477
18677THY    HM350517   5.328   4.040   7.421  0.9132 -0.0867  0.0837
18677THY    CA650518   5.452   4.216   7.632  0.6346 -0.3884 -0.2678
18677THY    HA650519   5.349   4.213   7.665  0.9201  0.5759  0.0964
18678THY      O50520   7.945   3.425   7.225 -0.2370 -0.4743  0.0862
18678THY     HO50521   7.868   3.477   7.254 -0.5976 -0.5800 -0.3825
18678THY    CA150522   8.004   3.387   7.340 -0.5665  0.0294  1.1592
18678THY    CA250523   8.131   3.319   7.349 -1.0183  0.7982  0.2140
18678THY    CP150524   8.201   3.262   7.220  0.0483 -0.1784 -0.2514
18678THY    HP150525   8.140   3.274   7.130  0.1319 -0.1182  0.7097
18678THY    CP250526   8.253   3.112   7.230 -0.1454 -0.6155 -0.4856
18678THY    HP250527   8.324   3.085   7.152  2.0750  1.4847 -1.0044
18678THY    HP350528   8.172   3.038   7.234  0.0750 -0.6511 -0.7264
18678THY    HP450529   8.310   3.099   7.323 -2.4838  2.0069  4.7516
18678THY    CP350530   8.330   3.345   7.194  0.3546 -0.1033 -0.1387
18678THY    HP550531   8.363   3.324   7.092  2.5753  0.4833  0.2576
18678THY    HP650532   8.410   3.315   7.262  0.4534 -0.1185  0.0881
18678THY    HP750533   8.307   3.452   7.201 -0.2836  3.3450 -0.3848
18678THY    CA350534   8.179   3.276   7.472 -0.5319 -0.3998  0.4344
18678THY    HA350535   8.266   3.213   7.485 -0.3788 -0.2997  0.6635
18678THY    CA450536   8.117   3.322   7.585 -0.2774 -0.8617  0.2081
18678THY    HA450537   8.165   3.297   7.679  1.8665 -1.2664  2.4004
18678THY    CA550538   7.994   3.391   7.582 -0.5281 -0.2603 -0.4836
18678THY    CM150539   7.926   3.425   7.713  0.1096  0.5714  0.5660
18678THY    HM150540   7.984   3.395   7.801  0.4710 -0.6784 -2.8807
18678THY    HM250541   7.836   3.362   7.723 -0.9810 -0.5485  1.8817
18678THY    HM350542   7.879   3.523   7.715 -0.6016 -0.1668  0.2546
18678THY    CA650543   7.937   3.415   7.459 -0.1031 -0.4784 -0.4360
18678THY    HA650544   7.835   3.454   7.459 -0.1322 -1.6965 -0.4726
18679THY      O50545   8.485   7.327   6.077 -0.1309  0.0583  0.9369
18679THY     HO50546   8.580   7.328   6.058 -0.2090 -0.3493  1.0429
18679THY    CA150547   8.467   7.359   6.204  0.3727  0.6620 -0.0099
18679THY    CA250548   8.358   7.307   6.270  0.6163 -0.3566  0.4871
18679THY    CP150549   8.250   7.229   6.191 -0.1467 -0.2105 -0.0607
18679THY    HP150550   8.300   7.180   6.107 -1.1878  0.2515 -2.0204
18679THY    CP250551   8.147   7.329   6.148  0.2878 -0.4090 -0.1123
18679THY    HP250552   8.066   7.272   6.102  0.6204 -1.3053  0.1154
18679THY    HP350553   8.182   7.392   6.065 -0.5696 -1.6545 -1.2150
18679THY    HP450554   8.111   7.387   6.234 -0.2933 -2.0123  2.0505
18679THY    CP350555   8.186   7.110   6.270  0.1248  0.4848 -0.8668
18679THY    HP550556   8.139   7.035   6.206  0.1362 -0.1963 -0.3022
18679THY    HP650557   8.104   7.149   6.332 -1.0712 -1.7253  0.3201
18679THY    HP750558   8.265   7.077   6.339  1.1442 -0.6711 -0.9148
18679THY    CA350559   8.339   7.345   6.406 -0.3129  0.4697 -0.0203
18679THY    HA350560   8.260   7.306   6.470 -0.1150  0.3627 -0.5983
18679THY    CA450561   8.434   7.419   6.475  0.3368  0.8324 -0.2863
18679THY    HA450562   8.416   7.437   6.580 -0.2700  0.7140 -0.1770
18679THY    CA550563   8.549   7.457   6.404  0.3550  0.6537 -0.1223
18679THY    CM150564   8.658   7.532   6.469 -0.6496 -0.3732  0.0052
18679THY    HM150565   8.624   7.634   6.491 -0.3069 -1.7796  0.4462
18679THY    HM250566   8.749   7.519   6.410  1.0010  1.8096  0.8761
18679THY    HM350567   8.682   7.485   6.565 -0.0930 -0.5413 -0.0609
18679THY    CA650568   8.559   7.440   6.266  0.4711 -0.0917  0.2221
18679THY    HA650569   8.647   7.475   6.213 -0.1135 -2.4100 -1.5694
18680THY      O50570   8.291   7.188   6.710  0.2636  0.0191 -0.1292
18680THY     HO50571   8.354   7.239   6.763 -1.6018  2.7602 -0.4622
18680THY    CA150572   8.322   7.067   6.762  0.3492 -0.4220  0.0551
18680THY    CA250573   8.245   6.954   6.724 -0.1833  0.1653 -0.1972
18680THY    CP150574   8.124   6.959   6.628  0.3314 -0.5320  0.3533
18680THY    HP150575   8.113   7.050   6.569 -1.3286  0.8364  1.1062
18680THY    CP250576   7.996   6.966   6.712  0.1871 -0.2114 -0.4029
18680THY    HP250577   7.911   6.909   6.674  0.1293 -0.1491 -0.3580
18680THY    HP350578   7.959   7.070   6.709  1.6267 -0.1840  0.1337
18680THY    HP450579   8.012   6.924   6.812 -1.7777 -0.0528 -0.8475
18680THY    CP350580   8.110   6.839   6.533 -0.1954  0.4022  0.5071
18680THY    HP550581   8.202   6.788   6.504  0.0360  0.4842  0.8762
18680THY    HP650582   8.073   6.879   6.438  1.4824  0.2963  1.8871
18680THY    HP750583   8.037   6.766   6.571 -0.6437 -2.6650 -0.7910
18680THY    CA350584   8.292   6.828   6.770 -0.5451 -0.3867 -0.6998
18680THY    HA350585   8.241   6.737   6.739  0.8846 -0.2211 -1.5898
18680THY    CA450586   8.403   6.829   6.847 -1.5209 -0.1808 -0.0010
18680THY    HA450587   8.449   6.735   6.875 -0.6911  0.5302  0.5938
18680THY    CA550588   8.474   6.938   6.888  0.2853  0.2419 -0.3550
18680THY    CM150589   8.589   6.929   6.994 -0.0975  0.1691  0.0423
18680THY    HM150590   8.663   7.010   6.994 -1.0044  0.4030  0.8742
18680THY    HM250591   8.652   6.840   6.979 -1.0266 -1.9074 -0.3310
18680THY    HM350592   8.548   6.917   7.094  0.6510  0.5687  0.6914
18680THY    CA650593   8.432   7.059   6.844  0.0355 -0.3528 -0.1171
18680THY    HA650594   8.491   7.147   6.869  0.3346  2.6966 -1.0642
18681THY      O50595   2.355   5.752   3.349  0.2621 -0.2289  0.0289
18681THY     HO50596   2.356   5.690   3.274  0.9360 -0.2717  0.0811
18681THY    CA150597   2.273   5.696   3.440  0.2112 -0.9461 -0.4193
18681THY    CA250598   2.234   5.768   3.557 -0.1654 -0.2200 -0.4988
18681THY    CP150599   2.291   5.908   3.578 -0.7647 -0.3437 -0.6634
18681THY    HP150600   2.379   5.922   3.515  1.7654  3.0340 -0.0864
18681THY    CP250601   2.355   5.927   3.720  0.2572  0.0604  0.6622
18681THY    HP250602   2.291   5.899   3.804  0.9627  0.4149  0.0798
18681THY    HP350603   2.372   6.035   3.728  0.1778 -3.2752  1.0096
18681THY    HP450604   2.457   5.889   3.737  0.1685  0.1587  0.4656
18681THY    CP350605   2.193   6.025   3.557 -0.1599 -0.3036  0.0878
18681THY    HP550606   2.133   6.017   3.465 -0.2206 -0.2251 -0.3860
18681THY    HP650607   2.261   6.110   3.557 -0.1459  0.9899  0.0831
18681THY    HP750608   2.131   6.029   3.647  0.4482  0.4084 -3.4356
18681THY    CA350609   2.144   5.707   3.646 -0.6548  0.3978 -0.1414
18681THY    HA350610   2.106   5.749   3.738 -0.2097  2.1972 -3.3528
18681THY    CA450611   2.103   5.579   3.628  0.2059 -0.0154 -0.1776
18681THY    HA450612   2.032   5.533   3.696 -0.3353 -0.5898 -0.2062
18681THY    CA550613   2.142   5.511   3.519 -0.4428  0.5594  0.0889
18681THY    CM150614   2.116   5.364   3.500 -0.5810  0.3813  0.0864
18681THY    HM150615   2.184   5.313   3.431 -1.2293  0.4300 -0.8734
18681THY    HM250616   2.025   5.344   3.441  0.1783 -0.0769 -2.2238
18681THY    HM350617   2.101   5.318   3.598  0.6884 -0.0372 -1.2671
18681THY    CA650618   2.227   5.566   3.417  0.6275  0.1886  0.0347
18681THY    HA650619   2.248   5.510   3.326  1.5042  1.0288 -1.0476
18682THY      O50620   8.964   5.984   6.768  0.0719 -0.0191  0.2386
18682THY     HO50621   9.015   5.999   6.849  0.4815  0.0192 -1.2327
18682THY    CA150622   8.916   5.857   6.780 -0.4343  0.4736  0.5154
18682THY    CA250623   8.820   5.803   6.692  0.1329  0.1570 -0.8745
18682THY    CP150624   8.753   5.898   6.592  0.2883 -0.5061 -0.1669
18682THY    HP150625   8.746   5.997   6.638  2.2552 -0.4431 -0.0173
18682THY    CP250626   8.602   5.858   6.569 -0.4239  0.2770 -0.8002
18682THY    HP250627   8.555   5.922   6.494 -0.1866  0.5734 -0.2591
18682THY    HP350628   8.552   5.866   6.666 -0.2867  0.2968 -0.0493
18682THY    HP450629   8.586   5.765   6.514 -1.5667 -0.8906  0.0555
18682THY    CP350630   8.821   5.915   6.459  0.7454  0.2329  0.0955
18682THY    HP550631   8.927   5.941   6.464  0.8754  1.6764 -0.6292
18682THY    HP650632   8.768   5.990   6.399  1.2446 -1.2420 -0.6900
18682THY    HP750633   8.813   5.819   6.407 -0.2548 -2.1192  1.3486
18682THY    CA350634   8.796   5.665   6.699  0.5362  0.1772  0.1982
18682THY    HA350635   8.734   5.617   6.624 -1.1300  1.0990  0.8348
18682THY    CA450636   8.853   5.588   6.805  0.4142  0.3781  0.2084
18682THY    HA450637   8.827   5.482   6.808  0.4880  1.6644  0.2124
18682THY    CA550638   8.938   5.649   6.900 -0.3003  0.0425  0.6191
18682THY    CM150639   8.999   5.553   6.998  0.3506 -0.1745  0.0677
18682THY    HM150640   9.100   5.589   7.020  0.0850 -0.3463  0.9450
18682THY    HM250641   9.009   5.451   6.959 -0.1545  2.2080 -0.9580
18682THY    HM350642   8.932   5.538   7.083 -0.0957 -0.5027  0.1880
18682THY    CA650643   8.972   5.781   6.890 -0.1430  0.4079 -0.5686
18682THY    HA650644   9.029   5.833   6.966 -2.5214  0.9047  1.5335
18683THY      O50645   4.273   3.713   7.376 -0.8568  0.4493 -0.3630
18683THY     HO50646   4.290   3.808   7.382  2.5763  0.3210 -0.8176
18683THY    CA150647   4.201   3.669   7.279  0.5329  0.0302  0.5574
18683THY    CA250648   4.213   3.537   7.236 -0.8630 -0.1355  0.1826
18683THY    CP150649   4.288   3.434   7.320  0.3146 -0.5342 -0.5789
18683THY    HP150650   4.307   3.479   7.418  1.5330 -1.2135  0.4336
18683THY    CP250651   4.431   3.404   7.269 -0.5733 -0.3733 -0.2599
18683THY    HP250652   4.489   3.379   7.359 -0.2287 -0.5350 -0.0538
18683THY    HP350653   4.482   3.497   7.240 -0.5476 -0.5471 -0.3286
18683THY    HP450654   4.438   3.334   7.185  3.3526 -0.2931 -0.2097
18683THY    CP350655   4.208   3.308   7.348 -0.4386  0.1636  0.1889
18683THY    HP550656   4.174   3.257   7.257  1.0598 -1.0267  1.2296
18683THY    HP650657   4.125   3.328   7.417 -0.6681  0.4842 -1.7094
18683THY    HP750658   4.265   3.234   7.405  0.2518 -1.9195 -0.9553
18683THY    CA350659   4.148   3.496   7.122  0.3327 -0.0695  0.0360
18683THY    HA350660   4.164   3.396   7.082  0.2936  0.7932 -0.3223
18683THY    CA450661   4.058   3.585   7.054  0.3446  0.1834  0.1110
18683THY    HA450662   3.999   3.535   6.978  0.9814  0.0062 -0.3862
18683THY    CA550663   4.039   3.713   7.103  0.2705 -1.0692  0.2471
18683THY    CM150664   3.916   3.797   7.053 -1.0755 -0.0250 -0.3287
18683THY    HM150665   3.947   3.897   7.021  1.2697 -0.1408 -1.0348
18683THY    HM250666   3.854   3.816   7.141 -1.8218 -0.9311  1.7565
18683THY    HM350667   3.855   3.749   6.976 -1.4941  1.4330 -2.2730
18683THY    CA650668   4.118   3.758   7.210 -0.2417 -0.1534 -0.0740
18683THY    HA650669   4.119   3.864   7.235 -0.1082 -1.5789  0.2830
18684THY      O50670   9.362   8.689   4.055  0.7289 -0.1496 -0.0941
18684THY     HO50671   9.382   8.603   4.096 -1.3711 -0.0136 -0.5583
18684THY    CA150672   9.226   8.676   4.051 -0.2075  0.8534  0.7513
18684THY    CA250673   9.148   8.701   3.939 -0.4358 -0.2449 -0.5874
18684THY    CP150674   9.209   8.727   3.803 -0.1498 -0.1206  0.1658
18684THY    HP150675   9.316   8.708   3.816 -0.1527 -0.6172 -0.2299
18684THY    CP250676   9.189   8.871   3.754 -0.7263 -0.4522 -0.6567
18684THY    HP250677   9.256   8.887   3.669  0.9132  1.0874  1.2489
18684THY    HP350678   9.219   8.940   3.834  0.2119  0.5191 -2.1508
18684THY    HP450679   9.084   8.895   3.735 -0.9555 -0.6591 -1.7965
18684THY    CP350680   9.157   8.627   3.696 -0.5133 -0.3924  0.0900
18684THY    HP550681   9.196   8.660   3.599 -1.3268  0.0005  2.3891
18684THY    HP650682   9.049   8.643   3.689 -0.8132 -1.7965 -2.0981
18684THY    HP750683   9.180   8.521   3.713  3.2986  0.5219  0.9317
18684THY    CA350684   9.007   8.707   3.954  0.5139 -0.2507 -0.3055
18684THY    HA350685   8.934   8.728   3.877 -2.0839  2.2511  0.4408
18684THY    CA450686   8.946   8.680   4.077 -0.8283 -0.5569 -0.7967
18684THY    HA450687   8.839   8.694   4.077 -0.9694 -1.1857 -1.7648
18684THY    CA550688   9.025   8.646   4.186 -0.4441 -0.0412  0.3127
18684THY    CM150689   8.968   8.606   4.323  0.1054  0.2844  0.0685
18684THY    HM150690   8.978   8.689   4.394 -0.9190  0.2960  0.1939
18684THY    HM250691   9.032   8.531   4.371  1.0147  2.1613  1.9403
18684THY    HM350692   8.864   8.572   4.324  0.1140  0.6239  0.0506
18684THY    CA650693   9.162   8.641   4.170  0.3642 -0.0536 -0.4006
18684THY    HA650694   9.230   8.630   4.254  2.2152 -1.2850  1.0683
18685THY      O50695   4.599   2.542   6.583  0.2789  0.7520 -0.3878
18685THY     HO50696   4.550   2.505   6.658 -0.7817  0.4992  0.4489
18685THY    CA150697   4.681   2.642   6.620  0.1499  0.4632 -0.1493
18685THY    CA250698   4.800   2.679   6.541  0.1444  0.0523  0.0332
18685THY    CP150699   4.822   2.615   6.407 -0.6007 -0.3519  0.3566
18685THY    HP150700   4.793   2.510   6.425  1.7501 -1.9259 -0.6456
18685THY    CP250701   4.971   2.605   6.368  0.0146  0.4603  0.1975
18685THY    HP250702   4.999   2.513   6.314  2.0638  0.3323  0.8402
18685THY    HP350703   5.032   2.617   6.459  1.9235 -0.4650 -1.6977
18685THY    HP450704   4.997   2.683   6.296  0.4215 -0.3458 -0.6515
18685THY    CP350705   4.744   2.678   6.297  0.3402  0.3321  0.3715
18685THY    HP550706   4.637   2.669   6.319  0.5477  0.5481 -2.2830
18685THY    HP650707   4.757   2.624   6.203 -1.5291  0.0285  0.3963
18685THY    HP750708   4.770   2.785   6.292  1.5031  3.0590  0.3019
18685THY    CA350709   4.876   2.789   6.584  0.3815 -0.3937 -0.0105
18685THY    HA350710   4.959   2.836   6.533 -1.6707 -2.4496  1.6558
18685THY    CA450711   4.842   2.844   6.712  0.1924 -0.2367  0.2734
18685THY    HA450712   4.899   2.924   6.756 -0.7072 -0.0987  0.8513
18685THY    CA550713   4.725   2.803   6.786  0.8378 -0.4231 -0.2718
18685THY    CM150714   4.686   2.872   6.913  0.2681  0.0220  0.1311
18685THY    HM150715   4.609   2.807   6.956 -1.0905 -0.9061  1.0705
18685THY    HM250716   4.649   2.972   6.887 -0.8442 -3.2780 -1.0223
18685THY    HM350717   4.763   2.886   6.990  1.9391 -1.2652 -1.4713
18685THY    CA650718   4.644   2.700   6.741 -0.0297  0.0886  1.1587
18685THY    HA650719   4.557   2.662   6.794  0.7134 -1.7723 -3.9675
18686THY      O50720   4.325   2.981   6.235 -0.5294 -0.4522 -0.6006
18686THY     HO50721   4.338   3.028   6.151  0.7509 -0.3065 -0.6585
18686THY    CA150722   4.328   3.081   6.327 -0.4930 -0.9265 -0.2784
18686THY    CA250723   4.322   3.066   6.470  0.1732  1.0402  0.1959
18686THY    CP150724   4.304   2.935   6.541 -0.1420  0.2212 -0.0335
18686THY    HP150725   4.275   2.863   6.464  0.5756 -0.5295  0.4623
18686THY    CP250726   4.195   2.934   6.649  0.6323 -0.3083  0.4074
18686THY    HP250727   4.171   2.829   6.670  1.2673 -0.3991  0.2382
18686THY    HP350728   4.101   2.974   6.610 -1.0317  0.2578 -2.6316
18686THY    HP450729   4.224   2.993   6.737  2.5083 -0.5200 -0.1325
18686THY    CP350730   4.429   2.894   6.604  0.0414 -0.5134 -0.0852
18686THY    HP550731   4.430   2.787   6.628 -1.2192  1.6883  0.3337
18686THY    HP650732   4.459   2.952   6.692  1.6225 -1.3753  0.4893
18686THY    HP750733   4.520   2.907   6.544  1.0417  1.3224  1.9727
18686THY    CA350734   4.342   3.185   6.543  0.2373  0.7661  0.4017
18686THY    HA350735   4.343   3.179   6.652 -0.6721  0.7778  0.2088
18686THY    CA450736   4.352   3.307   6.478 -0.8693  0.2437 -0.6214
18686THY    HA450737   4.343   3.396   6.541 -0.1845  2.0483 -1.7746
18686THY    CA550738   4.346   3.316   6.340  0.3652  0.5018 -0.3227
18686THY    CM150739   4.362   3.450   6.272  0.3496 -0.5125 -0.3676
18686THY    HM150740   4.279   3.516   6.300 -1.6373 -1.1127 -2.4773
18686THY    HM250741   4.359   3.446   6.162  0.8091 -0.4905 -2.4621
18686THY    HM350742   4.456   3.499   6.300 -0.1677  0.0343  0.3262
18686THY    CA650743   4.335   3.207   6.263 -0.5813 -0.2685  0.2073
18686THY    HA650744   4.326   3.213   6.155  1.9953 -0.5911 -0.6138
18687THY      O50745   7.693   1.905   3.084 -0.4828  0.1601 -0.4281
18687THY     HO50746   7.762   1.874   3.023 -0.1262  0.9774 -1.3286
18687THY    CA150747   7.590   1.951   3.027  0.6334  0.4783 -0.2385
18687THY    CA250748   7.500   2.022   3.102  0.5514 -0.9239 -0.5197
18687THY    CP150749   7.533   2.042   3.252  0.8636 -0.0692  0.1079
18687THY    HP150750   7.579   1.953   3.295  0.4148  1.8568  0.7452
18687THY    CP250751   7.417   2.062   3.340  0.1360 -0.4100 -0.3273
18687THY    HP250752   7.345   1.980   3.334 -1.2691  1.3790  0.6844
18687THY    HP350753   7.361   2.150   3.304 -1.6045 -0.3678 -1.3602
18687THY    HP450754   7.434   2.076   3.447 -3.2291  0.2332 -0.1203
18687THY    CP350755   7.641   2.148   3.277 -0.4915 -0.5411 -0.0898
18687THY    HP550756   7.584   2.241   3.264  0.0845  0.2335  0.3790
18687THY    HP650757   7.719   2.133   3.201 -0.2581 -0.0510 -1.5099
18687THY    HP750758   7.676   2.142   3.381  2.5802 -1.5263 -0.8554
18687THY    CA350759   7.393   2.093   3.036  0.7269 -0.1725  0.6669
18687THY    HA350760   7.322   2.151   3.094  1.2027  0.3204  0.7581
18687THY    CA450761   7.377   2.074   2.900  0.3405 -0.0176 -0.3790
18687THY    HA450762   7.282   2.103   2.855 -0.3054  1.0688 -0.7594
18687THY    CA550763   7.467   2.004   2.824 -0.2708  0.6031 -0.5988
18687THY    CM150764   7.446   1.988   2.677 -0.5079 -0.0315 -0.7180
18687THY    HM150765   7.535   2.009   2.617 -0.9483 -0.5655 -0.3362
18687THY    HM250766   7.383   2.067   2.634  0.7553 -3.6336 -1.5056
18687THY    HM350767   7.404   1.889   2.659  0.6177 -2.5437 -0.7969
18687THY    CA650768   7.580   1.947   2.881  0.0596 -0.6425 -0.4072
18687THY    HA650769   7.650   1.901   2.812 -0.7272 -1.5743 -0.2402
18688THY      O50770   5.853   6.018   5.565 -0.0009 -0.0884  0.4508
18688THY     HO50771   5.795   6.060   5.631 -0.5703 -0.7248  0.6745
18688THY    CA150772   5.926   5.944   5.645  0.2377 -0.3814  0.7552
18688THY    CA250773   6.008   5.841   5.598  0.5521 -0.0268 -0.7235
18688THY    CP150774   6.034   5.822   5.450  0.3355 -0.1389  0.0929
18688THY    HP150775   6.027   5.921   5.402  0.9650  0.7035  0.5591
18688THY    CP250776   5.928   5.730   5.390  0.3099  0.5206  0.4670
18688THY    HP250777   5.952   5.718   5.283  1.1924  0.6572  0.9291
18688THY    HP350778   5.828   5.774   5.395  0.8307  1.3513  1.6000
18688THY    HP450779   5.933   5.638   5.449  1.5334  2.0892  1.4771
18688THY    CP350780   6.180   5.770   5.411 -0.2513 -0.3484  0.1160
18688THY    HP550781   6.192   5.662   5.420 -0.7181 -2.8496 -0.1947
18688THY    HP650782   6.252   5.818   5.479 -0.6106  0.0883  0.0467
18688THY    HP750783   6.200   5.782   5.304  0.2299 -0.3438 -0.6179
18688THY    CA350784   6.080   5.759   5.688  0.2620 -0.4860 -0.1160
18688THY    HA350785   6.125   5.665   5.656  2.7558 -2.1846  1.4935
18688THY    CA450786   6.076   5.794   5.824 -0.3157 -0.0365 -0.0088
18688THY    HA450787   6.115   5.725   5.899 -1.9921 -1.2503 -2.4313
18688THY    CA550788   6.004   5.905   5.868  0.0354 -0.7585  0.0105
18688THY    CM150789   5.991   5.939   6.010 -0.5384  0.5670  0.1900
18688THY    HM150790   6.060   5.884   6.075 -0.9546  0.4536 -0.4805
18688THY    HM250791   5.895   5.911   6.056 -0.1271  1.0072 -0.5650
18688THY    HM350792   6.017   6.045   6.014 -0.3777 -0.9327  0.2295
18688THY    CA650793   5.927   5.984   5.779 -0.0977 -0.7708  0.0322
18688THY    HA650794   5.865   6.064   5.818  0.1279 -0.0725 -0.1237
18689THY      O50795   7.960   1.067   8.120  0.1742 -0.1435  0.2670
18689THY     HO50796   8.021   0.992   8.132 -1.4627  1.5523 -0.8608
18689THY    CA150797   7.911   1.063   7.996 -0.0805 -0.0253 -0.5699
18689THY    CA250798   7.805   1.146   7.953 -0.1828 -0.1156 -0.4920
18689THY    CP150799   7.736   1.234   8.050 -0.7956  0.1417  0.3418
18689THY    HP150800   7.781   1.229   8.150 -1.4643  0.4064 -0.8469
18689THY    CP250801   7.581   1.198   8.056 -0.1864 -0.8346 -0.4468
18689THY    HP250802   7.540   1.193   7.954 -0.0934 -0.8037 -2.2874
18689THY    HP350803   7.526   1.280   8.104  0.1870 -1.4575  0.1902
18689THY    HP450804   7.563   1.109   8.117  1.8084 -0.5387 -0.6959
18689THY    CP350805   7.758   1.374   8.001 -0.0292 -0.2102 -0.0125
18689THY    HP550806   7.719   1.445   8.074  0.3492 -0.8182  0.8400
18689THY    HP650807   7.715   1.397   7.902  0.6556 -0.6323 -0.5100
18689THY    HP750808   7.866   1.389   8.000  0.1521 -0.6860 -1.2228
18689THY    CA350809   7.759   1.143   7.816 -0.2933 -0.6464  0.2876
18689THY    HA350810   7.675   1.203   7.781  0.1901 -0.3691  1.1358
18689THY    CA450811   7.828   1.057   7.724  0.7363  0.1415  0.0718
18689THY    HA450812   7.811   1.049   7.617 -0.0835  0.3834 -1.8021
18689THY    CA550813   7.931   0.973   7.770  0.0714  0.4717 -0.0696
18689THY    CM150814   8.014   0.885   7.676 -0.0091  0.0801 -0.6190
18689THY    HM150815   8.063   0.809   7.738 -0.0346  0.2013 -0.5379
18689THY    HM250816   8.092   0.943   7.626 -1.4584 -2.0601 -0.3826
18689THY    HM350817   7.964   0.852   7.584 -2.8109  1.7329 -1.3125
18689THY    CA650818   7.979   0.987   7.903 -0.3933 -0.3465  0.4719
18689THY    HA650819   8.068   0.934   7.934  0.0141  0.9401  1.8413
18690THY      O50820   2.948   3.646   2.433  0.0255  0.4229 -0.3801
18690THY     HO50821   2.944   3.580   2.505  0.3153  0.3329 -0.4948
18690THY    CA150822   2.903   3.765   2.468 -0.4506  0.2427 -0.6731
18690THY    CA250823   2.949   3.874   2.392 -0.0802  0.4580  0.4188
18690THY    CP150824   3.051   3.857   2.279  0.2794 -0.5073 -0.0268
18690THY    HP150825   3.048   3.754   2.240 -1.3824  2.1251 -1.0558
18690THY    CP250826   3.191   3.885   2.327  0.6894 -0.2344  0.7053
18690THY    HP250827   3.195   3.991   2.357 -0.5624 -0.9421  0.9743
18690THY    HP350828   3.261   3.875   2.244  1.5825  0.7107 -1.4912
18690THY    HP450829   3.226   3.821   2.410  2.6811 -3.1423 -2.3161
18690THY    CP350830   3.000   3.933   2.158 -1.1379  0.8605  0.1428
18690THY    HP550831   2.898   3.898   2.135 -1.3974  2.2007 -0.0295
18690THY    HP650832   3.071   3.930   2.074  1.5768  3.0215 -0.3575
18690THY    HP750833   2.983   4.038   2.185 -1.0033  1.4667  0.0118
18690THY    CA350834   2.910   4.005   2.445 -0.3531  0.6016 -0.2987
18690THY    HA350835   2.926   4.097   2.388 -1.8364  0.0383 -0.3563
18690THY    CA450836   2.838   4.020   2.564 -0.1729 -0.2249 -0.1460
18690THY    HA450837   2.805   4.119   2.593  1.9139 -0.4462  0.6617
18690THY    CA550838   2.784   3.906   2.624 -0.3957  0.1733 -0.7563
18690THY    CM150839   2.701   3.915   2.740 -0.4425 -0.2547 -0.3153
18690THY    HM150840   2.665   4.016   2.761  2.7501  0.6472  0.7353
18690THY    HM250841   2.737   3.889   2.840 -0.5583 -0.0649  0.2364
18690THY    HM350842   2.617   3.845   2.731  0.5694  0.1230 -1.6139
18690THY    CA650843   2.829   3.777   2.588 -0.2273  0.1479  0.6022
18690THY    HA650844   2.787   3.692   2.641  0.3274 -1.3407 -0.6556
18691THY      O50845   6.755   5.875   7.258  0.2251  0.7235  0.6468
18691THY     HO50846   6.762   5.957   7.310  0.8665 -1.0391  1.7630
18691THY    CA150847   6.758   5.914   7.123 -0.6016 -0.4764  0.5546
18691THY    CA250848   6.817   5.835   7.027  0.3090  0.1049  1.2522
18691THY    CP150849   6.896   5.713   7.072 -0.0612 -0.6298 -0.7468
18691THY    HP150850   6.871   5.685   7.175  0.6435  0.0520  1.0057
18691THY    CP250851   7.043   5.753   7.079 -0.2956 -0.1492  0.0611
18691THY    HP250852   7.064   5.827   7.157 -0.9486  0.5284 -0.4517
18691THY    HP350853   7.083   5.796   6.986  0.7862 -0.7469 -2.0780
18691THY    HP450854   7.099   5.659   7.088 -0.7905 -2.1205 -0.4848
18691THY    CP350855   6.870   5.593   6.989  0.7036 -0.4883  0.0321
18691THY    HP550856   6.895   5.506   7.051  0.1338 -0.1596  0.0962
18691THY    HP650857   6.929   5.588   6.896  1.5632 -0.0017  0.9184
18691THY    HP750858   6.764   5.586   6.962 -0.1631  2.0409  1.9923
18691THY    CA350859   6.820   5.869   6.891  0.4474  0.1370 -0.2359
18691THY    HA350860   6.876   5.811   6.818  1.5902 -0.7844  1.8907
18691THY    CA450861   6.766   5.989   6.856 -0.5081  0.5473 -0.1967
18691THY    HA450862   6.774   6.014   6.751  1.0734 -0.0197 -2.7233
18691THY    CA550863   6.698   6.075   6.948  0.4806  0.1105 -0.1861
18691THY    CM150864   6.615   6.193   6.908  0.3309 -1.0218  0.3415
18691THY    HM150865   6.664   6.281   6.866 -0.6701 -2.6276  0.1839
18691THY    HM250866   6.564   6.220   7.001 -0.0371 -0.7735 -1.1198
18691THY    HM350867   6.540   6.159   6.835 -0.9658  1.6008 -2.9849
18691THY    CA650868   6.694   6.027   7.081  0.0945 -0.3184  0.0327
18691THY    HA650869   6.654   6.091   7.159  1.5017  0.0236  0.5352
18692THY      O50870   7.462   5.861   3.351 -0.1221 -0.1370 -0.5191
18692THY     HO50871   7.472   5.863   3.254 -2.0538 -0.3724  1.1366
18692THY    CA150872   7.505   5.984   3.398 -0.0367 -0.6245 -0.0883
18692THY    CA250873   7.449   6.032   3.522  0.2888 -0.4729  0.1163
18692THY    CP150874   7.353   5.943   3.600 -0.1917  0.0529 -0.2509
18692THY    HP150875   7.335   5.852   3.543  2.0530 -1.9241  0.4491
18692THY    CP250876   7.221   6.025   3.626  0.4247  0.4019 -0.5605
18692THY    HP250877   7.193   6.097   3.548 -3.2006 -1.8951 -4.0969
18692THY    HP350878   7.220   6.087   3.716 -1.1195  0.8459 -1.1958
18692THY    HP450879   7.139   5.953   3.624 -2.5978  0.1551  2.6070
18692THY    CP350880   7.414   5.890   3.735  0.7615  0.6717 -0.4237
18692THY    HP550881   7.424   5.968   3.811 -0.8780  1.4024 -0.8847
18692THY    HP650882   7.514   5.856   3.705 -0.5319 -3.9017 -0.8440
18692THY    HP750883   7.360   5.799   3.763  0.8234 -1.3579 -1.1354
18692THY    CA350884   7.492   6.158   3.562  0.1549 -0.0325  0.7573
18692THY    HA350885   7.455   6.214   3.647  2.8693 -0.4328  3.3918
18692THY    CA450886   7.576   6.224   3.479 -0.2098  0.0425 -0.0228
18692THY    HA450887   7.615   6.321   3.508 -3.5370 -0.9924  1.7878
18692THY    CA550888   7.626   6.181   3.356  0.5362 -0.0088 -0.7634
18692THY    CM150889   7.727   6.250   3.278 -0.5251 -0.0284  0.2340
18692THY    HM150890   7.685   6.348   3.250 -0.5519  0.9598  0.5213
18692THY    HM250891   7.757   6.202   3.185  0.5423  0.3312  0.1857
18692THY    HM350892   7.809   6.270   3.348 -1.3575  0.5883  1.6636
18692THY    CA650893   7.586   6.055   3.315  0.2309  0.9150 -0.1794
18692THY    HA650894   7.617   6.012   3.220 -0.4284  1.5368 -2.1724
18693THY      O50895   5.859   0.777   6.052  0.1405  0.2129  0.1639
18693THY     HO50896   5.801   0.725   5.994 -0.1912 -0.2139  0.9932
18693THY    CA150897   5.884   0.894   5.992  0.7100  0.2975  0.3829
18693THY    CA250898   5.972   0.989   6.042  0.7539 -0.1743 -0.2805
18693THY    CP150899   6.078   0.938   6.140 -0.8844  0.2136  0.9937
18693THY    HP150900   6.053   0.845   6.193  0.7146 -1.8919 -0.7590
18693THY    CP250901   6.109   1.038   6.252  0.2432  0.7114  0.5594
18693THY    HP250902   6.019   1.066   6.306  0.6262  2.1889 -0.8705
18693THY    HP350903   6.160   1.129   6.219 -1.4994  3.0606  2.4973
18693THY    HP450904   6.176   0.995   6.328  0.2247  1.9446  2.5916
18693THY    CP350905   6.210   0.909   6.063 -0.3674 -0.2984 -0.4610
18693THY    HP550906   6.196   0.838   5.981  0.3782 -1.1831  0.3807
18693THY    HP650907   6.294   0.882   6.128 -0.7337 -0.1877 -1.3541
18693THY    HP750908   6.232   1.005   6.014 -2.6174 -1.5979 -0.5283
18693THY    CA350909   5.962   1.122   5.998 -0.4690  0.3904 -0.1204
18693THY    HA350910   6.029   1.205   6.018  0.4609  1.0654 -1.0105
18693THY    CA450911   5.855   1.164   5.910 -0.3513  0.0332 -0.6240
18693THY    HA450912   5.847   1.268   5.880  0.2903  0.1432 -0.5381
18693THY    CA550913   5.772   1.062   5.860  0.3347 -0.2531  0.1647
18693THY    CM150914   5.660   1.086   5.758 -0.4843  0.1777  0.4267
18693THY    HM150915   5.690   1.030   5.668 -0.0692  2.2840 -3.0352
18693THY    HM250916   5.646   1.187   5.719 -0.1242 -1.6275 -0.1670
18693THY    HM350917   5.566   1.038   5.787  1.3590  3.5906 -1.4730
18693THY    CA650918   5.786   0.926   5.903 -0.3085 -0.7773 -0.5642
18693THY    HA650919   5.721   0.846   5.869  0.9207  0.8406 -2.3132
18694THY      O50920   4.011   2.759   7.336  0.4716 -0.4551 -0.3305
18694THY     HO50921   4.040   2.683   7.282  2.4894  0.8840 -0.5963
18694THY    CA150922   4.008   2.716   7.462  0.1694  0.9620  0.0118
18694THY    CA250923   4.002   2.800   7.570 -0.5824 -0.5495  0.4989
18694THY    CP150924   3.981   2.949   7.541 -0.2184  0.0595  0.5560
18694THY    HP150925   3.964   2.971   7.435 -1.4395  0.1952  0.3297
18694THY    CP250926   4.105   3.035   7.581 -0.8934 -0.1329  0.2279
18694THY    HP250927   4.085   3.140   7.555  0.7253 -2.9762 -0.0524
18694THY    HP350928   4.192   3.013   7.518 -1.0292 -0.6921  1.2112
18694THY    HP450929   4.122   3.029   7.689  1.1311 -0.4386 -0.1882
18694THY    CP350930   3.855   3.008   7.613  0.3129  0.0412 -0.1901
18694THY    HP550931   3.763   2.953   7.591 -0.3068 -2.2846  1.6246
18694THY    HP650932   3.849   3.115   7.591  0.9361  0.2890 -0.0988
18694THY    HP750933   3.869   3.001   7.721  1.1194  0.0426  1.0799
18694THY    CA350934   4.002   2.747   7.700 -0.4254 -0.3590  0.4784
18694THY    HA350935   3.995   2.815   7.785 -0.5714 -0.0633  0.1011
18694THY    CA450936   3.998   2.606   7.715  0.1691 -0.4738 -0.3709
18694THY    HA450937   3.993   2.566   7.816 -1.6806 -0.4019 -0.0742
18694THY    CA550938   4.001   2.522   7.611  0.6906  0.7058  0.1881
18694THY    CM150939   4.009   2.369   7.618 -0.1495  0.4809 -0.3293
18694THY    HM150940   3.984   2.332   7.718 -1.0018  1.4454  2.5565
18694THY    HM250941   4.107   2.333   7.587 -0.2528  2.0057 -2.0486
18694THY    HM350942   3.937   2.322   7.550  3.0373 -0.8774 -3.6921
18694THY    CA650943   3.999   2.576   7.484  0.4225 -0.2084  0.2045
18694THY    HA650944   3.995   2.511   7.396  1.9531  0.0666 -0.3063
18695THY      O50945   5.879   2.954   1.942 -0.4744 -0.2526 -1.0299
18695THY     HO50946   5.867   3.050   1.944 -0.7058  0.5363 -1.0717
18695THY    CA150947   5.786   2.896   1.862 -0.5537 -0.6305 -0.1398
18695THY    CA250948   5.793   2.755   1.830 -0.6318 -0.3156 -0.1055
18695THY    CP150949   5.893   2.660   1.897 -0.1510 -0.2352 -0.3581
18695THY    HP150950   5.924   2.697   1.995 -0.0759  0.4083 -2.0324
18695THY    CP250951   6.016   2.626   1.816  0.0800  0.3166 -0.3830
18695THY    HP250952   6.086   2.574   1.883 -1.0022 -0.4621 -3.0271
18695THY    HP350953   6.066   2.718   1.787  0.3340 -1.4219 -1.0322
18695THY    HP450954   6.008   2.565   1.725  2.3881 -1.7701  2.1980
18695THY    CP350955   5.820   2.529   1.930 -0.4446  0.0523  0.1635
18695THY    HP550956   5.739   2.544   2.002  1.2819  2.2213 -0.4146
18695THY    HP650957   5.895   2.462   1.974 -1.1617  3.2123  1.2979
18695THY    HP750958   5.786   2.484   1.835 -1.0086 -0.3340  1.3576
18695THY    CA350959   5.709   2.707   1.721 -0.7002  0.0159 -0.5052
18695THY    HA350960   5.716   2.604   1.686  1.6597  1.1673 -0.8020
18695THY    CA450961   5.610   2.798   1.680 -0.2016 -0.0467  0.2747
18695THY    HA450962   5.539   2.764   1.605 -0.4649  0.1830  0.3146
18695THY    CA550963   5.594   2.926   1.734  0.5376  0.4176  0.2156
18695THY    CM150964   5.481   3.017   1.695 -0.1424 -0.3962  0.5027
18695THY    HM150965   5.437   2.979   1.603 -1.7847  0.4885  0.1499
18695THY    HM250966   5.529   3.109   1.662 -2.1914 -2.1530  1.0232
18695THY    HM350967   5.404   3.029   1.772 -0.5067 -0.8044  0.8022
18695THY    CA650968   5.689   2.980   1.815 -0.7321 -0.0692  0.8031
18695THY    HA650969   5.684   3.082   1.851 -1.0046  1.5483  0.2513
18696THY      O50970   0.535   8.872   6.387 -0.4219 -0.4807  0.3086
18696THY     HO50971   0.591   8.893   6.464 -0.1419 -0.9491  1.3807
18696THY    CA150972   0.609   8.788   6.306  0.0295 -0.2411 -0.2623
18696THY    CA250973   0.561   8.748   6.179  0.7272 -0.1567  0.1698
18696THY    CP150974   0.421   8.798   6.133 -0.1856  0.3074 -0.0840
18696THY    HP150975   0.392   8.889   6.186 -1.8100  0.5421 -0.7155
18696THY    CP250976   0.322   8.677   6.153  0.2062  0.1979 -0.0423
18696THY    HP250977   0.341   8.633   6.252  0.3246  0.0264 -0.3779
18696THY    HP350978   0.331   8.597   6.079  0.4405 -0.5455  0.6557
18696THY    HP450979   0.218   8.712   6.148  0.2274  0.8538  0.1447
18696THY    CP350980   0.427   8.830   5.976  0.2478 -0.0742  0.6160
18696THY    HP550981   0.483   8.923   5.967  0.3747 -0.3385  0.5144
18696THY    HP650982   0.326   8.857   5.943 -0.1554 -0.4103 -1.1737
18696THY    HP750983   0.467   8.746   5.919  2.1775  2.3046 -0.1930
18696THY    CA350984   0.634   8.654   6.105 -0.3070 -0.2965 -0.3742
18696THY    HA350985   0.585   8.608   6.020 -2.5943  0.7715 -0.0882
18696THY    CA450986   0.754   8.610   6.155  0.0301 -0.5189  0.0037
18696THY    HA450987   0.800   8.528   6.101  0.6391  2.8545 -2.0494
18696THY    CA550988   0.800   8.647   6.283 -0.5116 -0.0074  0.4043
18696THY    CM150989   0.938   8.612   6.315  0.0129  0.6901 -0.2459
18696THY    HM150990   0.979   8.653   6.408  0.2680  0.7218 -0.5721
18696THY    HM250991   1.011   8.634   6.236 -1.0114 -0.0797  0.4808
18696THY    HM350992   0.942   8.504   6.329  3.2755 -1.0626 -0.4866
18696THY    CA650993   0.732   8.741   6.357  0.6628 -0.8699 -0.1633
18696THY    HA650994   0.774   8.790   6.444 -0.4363 -1.5167  2.0323
18697THY      O50995   8.915   0.471   4.435  0.3545  0.0254  0.2908
18697THY     HO50996   8.927   0.403   4.504  0.8508 -2.4168 -2.2537
18697THY    CA150997   8.863   0.576   4.497 -0.2467  0.4429 -0.6761
18697THY    CA250998   8.842   0.700   4.429  0.3636 -1.0442  0.3360
18697THY    CP150999   8.874   0.716   4.283  0.4477  0.5571 -0.8252
18697THY    HP151000   8.830   0.633   4.225  1.2375 -0.6283 -0.4485
18697THY    CP251001   9.030   0.721   4.264 -0.2572  0.0437  0.5663
18697THY    HP251002   9.065   0.721   4.160 -0.6660 -0.0959  0.2691
18697THY    HP351003   9.079   0.632   4.305 -1.4648 -1.4759 -0.8538
18697THY    HP451004   9.067   0.808   4.321 -0.0097  1.8776 -0.6847
18697THY    CP351005   8.827   0.845   4.216  0.9875 -0.0220 -0.3101
18697THY    HP551006   8.729   0.873   4.257  2.0275  1.7875  0.8780
18697THY    HP651007   8.817   0.828   4.108  0.1299  0.0081 -0.0412
18697THY    HP751008   8.887   0.935   4.231  0.8537 -0.2909 -0.1762
18697THY    CA351009   8.805   0.812   4.506  1.5672 -0.2463  0.0307
18697THY    HA351010   8.806   0.909   4.459 -0.0487  1.2283  0.8242
18697THY    CA451011   8.773   0.792   4.642 -0.1955 -0.3621 -0.2950
18697THY    HA451012   8.732   0.875   4.698  0.1885 -0.7356  0.1542
18697THY    CA551013   8.801   0.674   4.714 -0.2127  0.0684  0.3043
18697THY    CM151014   8.786   0.658   4.864 -0.1382 -0.4542  0.0388
18697THY    HM151015   8.852   0.579   4.900  1.0196  0.7183  1.4773
18697THY    HM251016   8.687   0.631   4.902  0.8845  2.7051  0.3456
18697THY    HM351017   8.817   0.755   4.905 -0.5557 -1.2418  0.5267
18697THY    CA651018   8.842   0.566   4.639  0.6443 -0.2904 -0.3409
18697THY    HA651019   8.879   0.477   4.689  1.3918 -3.9814 -2.2877
18698THY      O51020   4.858   5.198   5.998  0.3820 -0.2404 -0.1037
18698THY     HO51021   4.855   5.152   6.084  2.3267 -0.7452 -1.2831
18698THY    CA151022   4.874   5.330   6.033  0.4660 -0.2839  1.2285
18698THY    CA251023   4.881   5.418   5.928  0.2996  0.0983 -0.0350
18698THY    CP151024   4.869   5.359   5.779  0.0102  0.8883 -0.1570
18698THY    HP151025   4.921   5.263   5.779 -0.8711  1.6745 -0.6558
18698THY    CP251026   4.940   5.448   5.679  0.2148  0.2518  0.5644
18698THY    HP251027   5.036   5.480   5.721 -0.0806  0.5827  1.0292
18698THY    HP351028   4.884   5.541   5.661  0.5945 -0.0629  0.7363
18698THY    HP451029   4.969   5.405   5.582 -1.5171 -0.6089  1.2290
18698THY    CP351030   4.722   5.323   5.739 -0.1212 -0.3246 -0.6796
18698THY    HP551031   4.717   5.264   5.647  0.9735  0.3245 -1.8333
18698THY    HP651032   4.650   5.405   5.737 -0.1618 -0.3881 -0.7164
18698THY    HP751033   4.674   5.260   5.814  0.2335  1.4855  1.0762
18698THY    CA351034   4.898   5.555   5.951 -0.3525 -0.0094  0.6113
18698THY    HA351035   4.891   5.626   5.869 -0.8601 -1.2051 -0.7628
18698THY    CA451036   4.905   5.599   6.083 -0.0028 -0.4992  0.0008
18698THY    HA451037   4.906   5.706   6.105  0.1179 -2.2885  0.3968
18698THY    CA551038   4.881   5.507   6.196 -0.4881  0.3037 -0.3505
18698THY    CM151039   4.873   5.560   6.344 -0.1358  0.2141 -0.0291
18698THY    HM151040   4.963   5.540   6.403  0.0167  0.2779  0.7835
18698THY    HM251041   4.782   5.519   6.389 -0.5143 -0.4452  0.0709
18698THY    HM351042   4.871   5.670   6.335  1.2332  1.0225  0.0937
18698THY    CA651043   4.862   5.371   6.169  0.0751 -0.2914 -0.8884
18698THY    HA651044   4.829   5.297   6.241  1.4641  0.2666 -1.0032
18699THY      O51045   2.821   7.527   4.835  0.1196 -0.0273 -0.2208
18699THY     HO51046   2.895   7.576   4.796  0.9344 -0.0593 -1.4264
18699THY    CA151047   2.812   7.560   4.965 -0.4573 -0.3136 -0.1180
18699THY    CA251048   2.771   7.469   5.067  0.6217  0.7306  0.2304
18699THY    CP151049   2.727   7.333   5.027  0.2397 -0.0041 -0.4137
18699THY    HP151050   2.742   7.331   4.919 -0.1908 -0.0658 -0.3570
18699THY    CP251051   2.578   7.298   5.058 -0.1282  0.1180 -0.0021
18699THY    HP251052   2.508   7.368   5.010 -1.9892  1.0476 -1.1469
18699THY    HP351053   2.554   7.293   5.165  0.2769  0.1910 -0.4850
18699THY    HP451054   2.552   7.205   5.007  0.5819  1.3768 -0.9212
18699THY    CP351055   2.815   7.228   5.103  0.4410 -0.2251  0.3674
18699THY    HP551056   2.795   7.232   5.211 -1.9749 -0.5369 -1.3028
18699THY    HP651057   2.921   7.252   5.100  0.2846  2.3040  1.7338
18699THY    HP751058   2.784   7.132   5.060 -3.1448  0.6390  0.9928
18699THY    CA351059   2.769   7.511   5.206 -0.2947 -0.2410 -0.4473
18699THY    HA351060   2.737   7.447   5.287 -1.1537  0.1714  0.4852
18699THY    CA451061   2.810   7.643   5.231  0.1298 -0.6792  0.2827
18699THY    HA451062   2.812   7.677   5.334  0.3503 -0.0417 -1.5632
18699THY    CA551063   2.837   7.735   5.133 -0.1482  0.1411  0.8079
18699THY    CM151064   2.874   7.874   5.160 -0.0750  0.3355  0.1602
18699THY    HM151065   2.983   7.868   5.168 -0.1395  1.6362  0.3169
18699THY    HM251066   2.827   7.915   5.251  0.0878  0.9046 -0.8946
18699THY    HM351067   2.852   7.937   5.073  1.3186  0.6195  1.0816
18699THY    CA651068   2.841   7.690   4.997  0.1589  0.3182 -0.0750
18699THY    HA651069   2.863   7.760   4.917 -0.3699  0.4274  0.2243
18700THY      O51070   0.912   3.895   5.299  0.1250 -0.2969 -0.0800
18700THY     HO51071   0.823   3.897   5.260  0.0556 -0.1152  1.0869
18700THY    CA151072   0.973   3.780   5.267 -0.0756  0.1107 -0.5974
18700THY    CA251073   1.097   3.744   5.321 -0.1118  0.2244  0.4950
18700THY    CP151074   1.163   3.842   5.417 -0.6003 -0.1322 -0.1736
18700THY    HP151075   1.123   3.943   5.401 -0.4976 -1.6887 -0.3545
18700THY    CP251076   1.316   3.852   5.387 -0.1373  0.1279 -0.0701
18700THY    HP251077   1.351   3.825   5.287  0.3398  1.1017 -3.6563
18700THY    HP351078   1.364   3.776   5.451  1.0304 -1.6976 -0.9300
18700THY    HP451079   1.357   3.949   5.417  0.5524 -0.2168 -0.2462
18700THY    CP351080   1.138   3.810   5.563  0.3451 -0.0756  0.2591
18700THY    HP551081   1.042   3.857   5.589  0.0596 -2.6537  1.2163
18700THY    HP651082   1.228   3.840   5.619  0.8028 -1.3340  1.3272
18700THY    HP751083   1.125   3.703   5.581  0.3579  0.9422  0.4124
18700THY    CA351084   1.147   3.613   5.296  0.8714  0.1826  0.0681
18700THY    HA351085   1.240   3.581   5.342  1.2023  0.0278  0.7795
18700THY    CA451086   1.068   3.524   5.219 -0.1293  0.5251 -0.4319
18700THY    HA451087   1.101   3.421   5.207 -2.7754 -3.0369 -1.0787
18700THY    CA551088   0.953   3.568   5.155 -0.0014 -0.3136  0.2904
18700THY    CM151089   0.875   3.474   5.070  0.1273 -0.4212  0.6767
18700THY    HM151090   0.853   3.538   4.984 -1.2512 -0.2776  0.4206
18700THY    HM251091   0.786   3.430   5.116  3.0967  4.3156 -1.2493
18700THY    HM351092   0.944   3.399   5.030  1.7425  1.6803  0.9262
18700THY    CA651093   0.902   3.700   5.178  0.1131 -0.7163  0.3549
18700THY    HA651094   0.807   3.737   5.141  1.0564 -2.0610  1.5601
18701THY      O51095   8.474   3.368   5.027  0.3840 -0.7799 -0.2626
18701THY     HO51096   8.478   3.303   5.099  0.7095  0.8638  1.4812
18701THY    CA151097   8.601   3.407   5.001 -0.9492  0.2382  0.8740
18701THY    CA251098   8.639   3.536   4.960  0.6006  0.4234 -0.2759
18701THY    CP151099   8.535   3.655   4.944 -0.1118  1.2444  0.0730
18701THY    HP151100   8.440   3.615   4.983  1.1406  3.3088 -1.1083
18701THY    CP251101   8.516   3.695   4.796 -0.7815  0.0235  0.0180
18701THY    HP251102   8.614   3.685   4.749 -0.4051  0.6895  0.4915
18701THY    HP351103   8.489   3.798   4.767 -1.2728 -1.2496 -0.4417
18701THY    HP451104   8.452   3.626   4.739 -0.1099 -1.4354  0.5567
18701THY    CP351105   8.587   3.778   5.021  0.1007  0.3355 -0.1600
18701THY    HP551106   8.600   3.747   5.125  3.5873 -0.2064 -0.8779
18701THY    HP651107   8.503   3.849   5.017  1.0529 -0.1234  0.9848
18701THY    HP751108   8.676   3.824   4.977  0.2452  0.8518  0.0537
18701THY    CA351109   8.770   3.554   4.919 -0.1105 -0.3743 -0.1930
18701THY    HA351110   8.816   3.642   4.874  1.5678  0.4606 -0.5956
18701THY    CA451111   8.860   3.444   4.915  0.1488  0.2578  0.4478
18701THY    HA451112   8.962   3.461   4.881 -0.0121  0.1664  1.3049
18701THY    CA551113   8.822   3.321   4.965  0.2377  0.0138  0.0633
18701THY    CM151114   8.917   3.214   4.992 -0.2036  0.2200 -0.0894
18701THY    HM151115   8.876   3.139   5.061 -0.5812  0.8915  0.7206
18701THY    HM251116   9.011   3.233   5.043  1.3717 -1.1597 -3.3330
18701THY    HM351117   8.947   3.170   4.896  1.4021  0.0195  1.3696
18701THY    CA651118   8.692   3.301   5.003  0.3401  0.3208 -0.2485
18701THY    HA651119   8.661   3.202   5.034 -2.0485 -0.9116  0.0311
18702THY      O51120   2.899   7.854   3.715  0.1226 -0.4510  0.3739
18702THY     HO51121   2.928   7.825   3.627  0.4598 -0.4349  0.6634
18702THY    CA151122   2.945   7.978   3.741  0.1673  0.6561 -0.0046
18702THY    CA251123   2.930   8.040   3.862 -0.4702  0.2674  0.1370
18702THY    CP151124   2.855   7.974   3.977 -0.2249  0.1780  0.0885
18702THY    HP151125   2.766   7.925   3.938 -1.8389  0.8113  2.3640
18702THY    CP251126   2.799   8.077   4.076  0.5824 -0.9318  0.4386
18702THY    HP251127   2.868   8.108   4.156 -2.4902  2.0405  0.2539
18702THY    HP351128   2.715   8.041   4.137  0.3714  0.2209  2.6890
18702THY    HP451129   2.763   8.170   4.030  0.2966  2.3769  2.1311
18702THY    CP351130   2.943   7.874   4.051 -0.7362  0.1800  0.5512
18702THY    HP551131   2.899   7.835   4.144  0.1595  0.0183 -0.9672
18702THY    HP651132   3.045   7.908   4.071 -0.8938 -0.4673  1.4264
18702THY    HP751133   2.965   7.782   3.995  0.6414  0.2038  0.8455
18702THY    CA351134   3.003   8.160   3.883 -0.2856 -0.2915 -0.6419
18702THY    HA351135   3.007   8.215   3.977 -1.1329 -0.3212 -0.5201
18702THY    CA451136   3.069   8.218   3.778 -0.8560  0.0353 -0.2246
18702THY    HA451137   3.121   8.311   3.799 -0.6654 -0.1035 -0.3003
18702THY    CA551138   3.062   8.158   3.656  0.2489 -0.4740 -0.6467
18702THY    CM151139   3.113   8.241   3.546  0.4159  0.1720 -0.5418
18702THY    HM151140   3.139   8.183   3.456  0.9086  1.1983 -1.9881
18702THY    HM251141   3.209   8.289   3.569  1.5300 -3.2912 -0.8641
18702THY    HM351142   3.038   8.313   3.513 -0.8756  1.6407 -1.1535
18702THY    CA651143   3.010   8.036   3.640 -0.3017 -0.4311 -0.3864
18702THY    HA651144   3.007   7.991   3.541  0.3018 -1.2070  1.2194
18703THY      O51145   9.067   7.373   6.430 -0.3236 -0.2192 -0.2863
18703THY     HO51146   9.024   7.446   6.383  0.0704  2.5661  1.9356
18703THY    CA151147   9.086   7.424   6.556 -0.0198  0.3309 -0.4505
18703THY    CA251148   9.155   7.355   6.662 -0.1406  0.4664 -0.4482
18703THY    CP151149   9.224   7.218   6.636  0.6157  0.7574  0.0717
18703THY    HP151150   9.217   7.189   6.531  1.7796  0.5954  0.3087
18703THY    CP251151   9.151   7.113   6.717  0.0157 -0.0225 -0.4497
18703THY    HP251152   9.160   7.130   6.825 -1.6811  0.0385  0.2052
18703THY    HP351153   9.180   7.015   6.677  1.5704 -2.9019  1.0611
18703THY    HP451154   9.044   7.123   6.697 -0.2838  1.6997  0.1790
18703THY    CP351155   9.374   7.221   6.671  0.2835  0.1562 -0.0009
18703THY    HP551156   9.417   7.121   6.658  0.1157 -0.2165 -0.0255
18703THY    HP651157   9.390   7.246   6.777  2.1034  0.0559 -0.6252
18703THY    HP751158   9.431   7.285   6.604  0.0618 -1.4872 -1.4546
18703THY    CA351159   9.163   7.408   6.791  0.1276 -0.1071  0.2741
18703THY    HA351160   9.214   7.358   6.873 -0.8267  2.4492  3.1414
18703THY    CA451161   9.102   7.529   6.810  0.0487  0.0497  0.8662
18703THY    HA451162   9.104   7.568   6.911 -0.2688  0.4419 -0.1247
18703THY    CA551163   9.042   7.601   6.705  0.1260  0.9337  0.0821
18703THY    CM151164   8.970   7.736   6.737 -0.6833  0.4239 -0.2261
18703THY    HM151165   8.964   7.758   6.845  1.9137  0.5562  0.1843
18703THY    HM251166   8.868   7.738   6.699  0.1350 -1.9015  0.6215
18703THY    HM351167   9.036   7.812   6.695  2.0761  2.5426 -1.2594
18703THY    CA651168   9.041   7.556   6.580 -0.0282  0.3371  0.3728
18703THY    HA651169   9.001   7.625   6.506  0.0157 -0.4642 -0.4474
18704THY      O51170   1.386   1.594   5.016  0.9354  0.2108  0.3809
18704THY     HO51171   1.464   1.540   5.040 -0.4480  1.1987 -1.2643
18704THY    CA151172   1.286   1.561   5.101 -0.1462  0.5817  0.1121
18704THY    CA251173   1.220   1.441   5.096 -0.0855  0.2296 -0.5005
18704THY    CP151174   1.245   1.340   4.984  0.8617 -0.1712 -0.5041
18704THY    HP151175   1.354   1.339   4.971  0.7841 -1.0256  0.6257
18704THY    CP251176   1.191   1.377   4.849 -0.2651 -0.1860 -0.6048
18704THY    HP251177   1.260   1.346   4.770  0.6479  0.7620 -1.0540
18704THY    HP351178   1.185   1.486   4.841  0.8290 -0.8814 -0.5851
18704THY    HP451179   1.089   1.340   4.830 -1.7069 -0.7633  3.2182
18704THY    CP351180   1.209   1.197   5.032 -0.3485  0.2357 -0.2990
18704THY    HP551181   1.118   1.190   5.093 -0.7838 -0.1035  1.6513
18704THY    HP651182   1.291   1.168   5.098  2.0148 -2.6295 -0.6134
18704THY    HP751183   1.216   1.128   4.947  0.3362  1.1142 -1.3504
18704THY    CA351184   1.115   1.422   5.196  0.0340 -0.0306 -0.9928
18704THY    HA351185   1.047   1.337   5.195  1.4016  0.4712 -2.1431
18704THY    CA451186   1.091   1.525   5.290  0.1478  0.5498  0.5602
18704THY    HA451187   1.010   1.515   5.362 -1.3955 -1.0900  0.9032
18704THY    CA551188   1.173   1.636   5.294  0.9140 -0.2230 -0.1814
18704THY    CM151189   1.153   1.738   5.399  0.5604 -0.2937 -0.2118
18704THY    HM151190   1.148   1.707   5.504 -2.5693  0.5830  2.7550
18704THY    HM251191   1.057   1.787   5.381 -0.4189 -0.0776 -1.9507
18704THY    HM351192   1.233   1.813   5.399 -0.7787  0.8454  1.2836
18704THY    CA651193   1.267   1.656   5.197 -0.2634  0.9478  0.0976
18704THY    HA651194   1.319   1.751   5.194  0.5966 -0.7025 -0.3877
18705THY      O51195   5.677   6.415   4.048  0.2952 -0.0209  0.0891
18705THY     HO51196   5.614   6.426   3.975 -0.2569  0.4255 -0.1081
18705THY    CA151197   5.621   6.474   4.159  0.1395  0.1569 -0.6049
18705THY    CA251198   5.697   6.543   4.258  0.9478  0.2593  0.1803
18705THY    CP151199   5.849   6.541   4.246 -0.1007 -0.0691 -0.2101
18705THY    HP151200   5.882   6.473   4.167 -0.2879 -2.4263  2.2719
18705THY    CP251201   5.906   6.488   4.373 -0.9797  0.5430 -0.9860
18705THY    HP251202   5.925   6.574   4.439  0.6865 -0.5395 -0.4772
18705THY    HP351203   6.000   6.435   4.359  0.5016  0.6296  1.4467
18705THY    HP451204   5.838   6.412   4.413 -0.8814 -3.5487 -3.5351
18705THY    CP351205   5.920   6.674   4.200  0.3052 -0.0667  0.1492
18705THY    HP551206   5.903   6.759   4.268  0.3774  0.8520 -0.5528
18705THY    HP651207   5.893   6.697   4.096 -0.3786  0.5044  2.1529
18705THY    HP751208   6.029   6.665   4.205  0.1951  1.6214 -0.6056
18705THY    CA351209   5.627   6.596   4.369  0.2989  0.0929 -1.0234
18705THY    HA351210   5.673   6.637   4.458 -0.4543  1.2070 -2.5163
18705THY    CA451211   5.489   6.595   4.371  1.5002  0.4571 -0.5102
18705THY    HA451212   5.434   6.630   4.458 -1.3618 -1.7138  0.8097
18705THY    CA551213   5.414   6.533   4.268  0.1483 -0.3453 -0.2470
18705THY    CM151214   5.263   6.522   4.293 -0.6777 -0.3820  0.5205
18705THY    HM151215   5.206   6.490   4.205 -0.0716  0.2688 -2.6057
18705THY    HM251216   5.226   6.617   4.334  1.1381 -0.4173  1.2786
18705THY    HM351217   5.254   6.455   4.379 -0.6425 -0.2340  0.7055
18705THY    CA651218   5.478   6.473   4.162  0.1911 -0.2272 -0.4063
18705THY    HA651219   5.425   6.419   4.084  1.5921 -1.0043 -0.7149
18706THY      O51220   0.426   7.408   2.909 -0.2822  0.9699 -0.2306
18706THY     HO51221   0.443   7.504   2.911 -1.1150 -3.0901  0.1951
18706THY    CA151222   0.351   7.397   2.796 -0.2046  0.0545  0.1611
18706THY    CA251223   0.284   7.277   2.771 -0.1125  0.0965 -0.5046
18706THY    CP151224   0.306   7.158   2.866  0.2058  0.0340 -0.0651
18706THY    HP151225   0.386   7.180   2.938 -0.9845  1.0418  1.1316
18706THY    CP251226   0.339   7.022   2.795 -0.2172  0.9621  0.2728
18706THY    HP251227   0.370   6.954   2.875 -1.0564  1.9785  1.0634
18706THY    HP351228   0.422   7.035   2.723 -0.5429  0.6028  0.3776
18706THY    HP451229   0.262   6.975   2.733  2.3833 -3.5126  1.2272
18706THY    CP351230   0.176   7.129   2.960 -0.8984  0.0637 -0.3099
18706THY    HP551231   0.087   7.098   2.904 -0.6643 -2.0917  2.5385
18706THY    HP651232   0.146   7.220   3.015 -0.4383 -0.9224  0.4548
18706THY    HP751233   0.200   7.055   3.037  1.8602 -1.8449 -1.5517
18706THY    CA351234   0.210   7.266   2.651 -1.1278 -0.1246 -0.3685
18706THY    HA351235   0.163   7.170   2.629  1.6365 -1.2698 -1.5813
18706THY    CA451236   0.194   7.378   2.570 -0.3145 -0.2796  0.1500
18706THY    HA451237   0.143   7.368   2.474  1.7835 -1.2975 -2.0691
18706THY    CA551238   0.257   7.498   2.603  0.1818 -0.1056  0.1220
18706THY    CM151239   0.251   7.612   2.507  0.3889  0.1823 -0.5735
18706THY    HM151240   0.269   7.707   2.558  0.0413 -0.4266 -0.1758
18706THY    HM251241   0.156   7.622   2.454  0.0114  0.9224 -0.2316
18706THY    HM351242   0.333   7.592   2.436 -0.5390 -1.7949  2.1104
18706THY    CA651243   0.343   7.502   2.708 -0.1202 -0.5619 -0.3888
18706THY    HA651244   0.397   7.593   2.732  0.5840 -2.0222 -0.4047
18707THY      O51245   8.419   6.067   3.263  0.4685  0.2807 -0.1655
18707THY     HO51246   8.494   6.006   3.263  0.6520  0.5006  0.0558
18707THY    CA151247   8.437   6.152   3.160 -0.0744 -0.2070 -0.2605
18707THY    CA251248   8.328   6.221   3.110 -0.3318  0.8692 -0.4412
18707THY    CP151249   8.188   6.210   3.178  0.5942 -0.4234  0.0214
18707THY    HP151250   8.175   6.119   3.238 -1.9556  0.6785  1.0185
18707THY    CP251251   8.065   6.228   3.089 -0.1908 -0.3617  0.3763
18707THY    HP251252   7.984   6.194   3.155  0.6783  0.7312  0.3616
18707THY    HP351253   8.067   6.164   3.000 -0.9942  1.0468 -1.7262
18707THY    HP451254   8.045   6.336   3.082  3.7885  1.4336  1.4443
18707THY    CP351255   8.191   6.317   3.290  0.1580 -0.2440  0.2574
18707THY    HP551256   8.270   6.298   3.363  0.3419 -0.3103  0.7633
18707THY    HP651257   8.100   6.309   3.352 -0.0944 -0.6949 -0.4527
18707THY    HP751258   8.198   6.417   3.247  2.2132 -2.2686 -0.6811
18707THY    CA351259   8.347   6.311   2.994 -0.7353 -0.5204 -0.4423
18707THY    HA351260   8.267   6.366   2.945 -0.4114 -0.5702 -0.0121
18707THY    CA451261   8.481   6.315   2.940  0.1867 -0.0814 -0.3094
18707THY    HA451262   8.490   6.387   2.859 -0.8086 -0.6275 -0.7755
18707THY    CA551263   8.580   6.229   2.982  1.0041 -0.3920 -0.0362
18707THY    CM151264   8.713   6.250   2.913  0.9266 -0.5079  0.6028
18707THY    HM151265   8.792   6.186   2.954  0.8191  1.6621  1.7568
18707THY    HM251266   8.746   6.352   2.940 -1.8229  0.3937  1.3456
18707THY    HM351267   8.702   6.232   2.806  2.2778 -0.1630 -2.9524
18707THY    CA651268   8.558   6.147   3.097 -0.8976  0.0025 -0.3084
18707THY    HA651269   8.640   6.086   3.133  0.6989  0.5783  2.0377
18708THY      O51270   4.093   3.989   5.044  0.0583 -0.6224 -0.2130
18708THY     HO51271   4.088   3.961   5.137  0.0044 -0.6714 -0.3622
18708THY    CA151272   4.079   3.879   4.968 -0.0710  0.2507  0.2426
18708THY    CA251273   4.084   3.871   4.829  0.6697  0.0312 -0.2792
18708THY    CP151274   4.101   3.992   4.748  0.1453 -0.1757 -0.0064
18708THY    HP151275   4.105   4.077   4.818 -1.0677 -1.7769  1.4239
18708THY    CP251276   3.978   4.027   4.664 -0.5018  0.3603 -0.4478
18708THY    HP251277   4.009   4.110   4.600  0.5851  1.2383 -0.1495
18708THY    HP351278   3.896   4.062   4.727 -0.7942 -0.5076  0.4791
18708THY    HP451279   3.945   3.936   4.612 -0.2947  0.3246 -0.5036
18708THY    CP351280   4.220   3.973   4.662  0.3107  0.1691  0.3467
18708THY    HP551281   4.268   4.058   4.614  0.2852  0.2873  0.4282
18708THY    HP651282   4.195   3.900   4.584  0.2849  1.3040 -0.8912
18708THY    HP751283   4.302   3.925   4.717  1.0858 -1.3038 -0.0892
18708THY    CA351284   4.075   3.737   4.772 -0.2468  0.3252  0.4211
18708THY    HA351285   4.087   3.725   4.665  1.5982  0.1380  2.9569
18708THY    CA451286   4.075   3.619   4.849 -0.0827  0.7521  0.4465
18708THY    HA451287   4.074   3.523   4.799 -1.4598  0.0503  0.7930
18708THY    CA551288   4.070   3.630   4.982 -0.0670  0.1034  1.2978
18708THY    CM151289   4.079   3.499   5.066 -0.0283  0.4544 -0.2310
18708THY    HM151290   4.175   3.504   5.118  0.0559  0.3600 -0.8229
18708THY    HM251291   4.086   3.405   5.011  3.2924  0.2227  0.0311
18708THY    HM351292   3.995   3.481   5.133 -0.2755  0.5144  1.0455
18708THY    CA651293   4.072   3.760   5.040  0.0175 -0.0500  0.5333
18708THY    HA651294   4.087   3.754   5.147 -0.1774 -0.0943 -1.2021
18709THY      O51295   8.213   3.131   5.022  0.3605 -1.0311  1.0302
18709THY     HO51296   8.240   3.080   4.943  2.0859  1.2697 -1.9069
18709THY    CA151297   8.107   3.210   4.996 -0.3365  0.3921 -0.2210
18709THY    CA251298   8.045   3.285   5.098 -0.3430  0.0867 -0.0366
18709THY    CP151299   8.086   3.254   5.245  0.0850  0.3123 -0.2316
18709THY    HP151300   8.193   3.236   5.255  0.4583 -1.2127  0.9309
18709THY    CP251301   8.008   3.131   5.301 -0.3665  0.3392 -0.7116
18709THY    HP251302   7.900   3.149   5.295 -0.6518 -1.2907 -2.6209
18709THY    HP351303   8.020   3.107   5.407 -1.9209  0.6558 -0.1709
18709THY    HP451304   8.040   3.042   5.245  2.8397 -1.4641  1.3894
18709THY    CP351305   8.051   3.376   5.337 -0.7426 -0.6683 -0.1120
18709THY    HP551306   8.121   3.371   5.422 -1.4986 -0.0771 -1.1876
18709THY    HP651307   7.952   3.374   5.383 -0.6195 -0.4249 -1.6597
18709THY    HP751308   8.066   3.474   5.291 -0.0566  2.5281  1.4090
18709THY    CA351309   7.949   3.383   5.064 -0.4922 -0.1511 -0.0054
18709THY    HA351310   7.897   3.436   5.143  0.5301  1.0573 -0.7474
18709THY    CA451311   7.918   3.407   4.929 -0.3662  0.0630 -1.1122
18709THY    HA451312   7.848   3.488   4.912 -0.5183  1.0742 -1.0189
18709THY    CA551313   7.971   3.329   4.826  0.1473 -0.2292 -0.3761
18709THY    CM151314   7.936   3.336   4.672  0.4793 -0.2706  0.5014
18709THY    HM151315   7.837   3.375   4.648  0.7528  0.5827  1.8125
18709THY    HM251316   7.951   3.244   4.616  0.8013  0.4809  0.0836
18709THY    HM351317   8.006   3.402   4.619  0.7043 -0.9268 -0.2420
18709THY    CA651318   8.065   3.222   4.862 -0.5976  0.7673  0.4527
18709THY    HA651319   8.118   3.166   4.786  0.0018 -0.6655  2.8111
18710THY      O51320   8.371   8.694   4.518  0.1636 -0.0257 -1.0601
18710THY     HO51321   8.363   8.635   4.595  0.1928  0.0726 -0.9375
18710THY    CA151322   8.502   8.733   4.506 -0.0335 -0.1036 -0.1693
18710THY    CA251323   8.555   8.784   4.390 -0.6575 -0.0804 -0.5585
18710THY    CP151324   8.479   8.792   4.263  0.1895  0.3914  0.0647
18710THY    HP151325   8.385   8.737   4.279  1.0786  0.9047 -1.3622
18710THY    CP251326   8.553   8.724   4.152 -0.7383  0.2432 -0.1677
18710THY    HP251327   8.483   8.709   4.070  1.2449 -0.9474 -4.6444
18710THY    HP351328   8.582   8.621   4.177  2.3419 -0.5976  0.3960
18710THY    HP451329   8.645   8.777   4.124  0.4535  1.2163 -1.5958
18710THY    CP351330   8.456   8.938   4.226 -0.1540 -0.4990  0.0729
18710THY    HP551331   8.540   8.988   4.177  1.5602 -1.6472 -3.6316
18710THY    HP651332   8.435   8.994   4.318 -0.8266 -0.9775  0.6340
18710THY    HP751333   8.374   8.946   4.153 -0.5868  0.0604  0.8390
18710THY    CA351334   8.696   8.823   4.397 -0.1448  0.4844  0.7951
18710THY    HA351335   8.737   8.883   4.316 -0.0767  0.5029  0.7720
18710THY    CA451336   8.772   8.811   4.509 -0.0672 -0.3149 -0.5502
18710THY    HA451337   8.877   8.838   4.503 -0.3161 -1.0186  0.2789
18710THY    CA551338   8.716   8.747   4.621  0.1538  0.4768  0.2144
18710THY    CM151339   8.813   8.720   4.736 -0.3594 -0.1936 -0.2988
18710THY    HM151340   8.822   8.803   4.807  0.4985  0.2928 -0.7900
18710THY    HM251341   8.916   8.714   4.699 -0.6118 -1.0592  0.5451
18710THY    HM351342   8.783   8.629   4.790  1.4992  4.7057  1.6217
18710THY    CA651343   8.584   8.703   4.616 -0.5389  0.8812 -0.9086
18710THY    HA651344   8.543   8.656   4.705 -2.6754 -1.5225 -4.0443
18711THY      O51345   0.585   8.223   5.621 -0.2081 -0.4479 -0.3608
18711THY     HO51346   0.677   8.245   5.600 -0.4725 -0.3476  0.8793
18711THY    CA151347   0.515   8.316   5.546  0.4545 -0.2678 -0.3407
18711THY    CA251348   0.401   8.376   5.596  1.1019 -0.0253 -0.3644
18711THY    CP151349   0.348   8.341   5.733  0.1464  0.1458  0.2472
18711THY    HP151350   0.390   8.245   5.764 -2.4411 -1.0400 -1.3842
18711THY    CP251351   0.199   8.310   5.726  0.3441 -0.6405 -0.1356
18711THY    HP251352   0.179   8.222   5.663 -4.3669  0.8655 -0.4051
18711THY    HP351353   0.140   8.396   5.693  0.6223  1.2840  0.8505
18711THY    HP451354   0.168   8.300   5.831  1.9502 -0.1394 -0.0942
18711THY    CP351355   0.386   8.443   5.839 -0.6849 -0.4483 -0.4721
18711THY    HP551356   0.335   8.539   5.824  1.2395  0.1713  0.6879
18711THY    HP651357   0.492   8.468   5.840 -0.7270  0.7526 -0.2460
18711THY    HP751358   0.350   8.407   5.936 -0.8249  0.0598  0.9797
18711THY    CA351359   0.348   8.480   5.513 -0.2228  0.2352  0.4110
18711THY    HA351360   0.261   8.541   5.537 -1.1119  0.6329 -0.9662
18711THY    CA451361   0.387   8.496   5.384 -0.7483  0.0526  0.1821
18711THY    HA451362   0.333   8.565   5.320  2.8662 -3.7993 -0.1729
18711THY    CA551363   0.505   8.429   5.331  0.8886  0.3401  1.0023
18711THY    CM151364   0.557   8.450   5.195  0.6125  0.0510  0.8725
18711THY    HM151365   0.526   8.378   5.119  0.6310  0.2392  0.6641
18711THY    HM251366   0.667   8.454   5.200  0.7748  1.4383 -2.1686
18711THY    HM351367   0.525   8.550   5.167  0.1448  2.0536  1.3173
18711THY    CA651368   0.572   8.347   5.422 -0.3688  0.1384 -0.2900
18711THY    HA651369   0.669   8.305   5.398 -0.5517  0.2270 -0.7647
18712THY      O51370   6.430   2.947   5.756 -0.7303 -0.1047  0.1120
18712THY     HO51371   6.415   2.939   5.661 -2.0071 -0.2548  2.8912
18712THY    CA151372   6.534   2.863   5.798 -0.0036  0.7406 -0.1539
18712THY    CA251373   6.595   2.882   5.923  0.2180  0.1948  0.0324
18712THY    CP151374   6.552   2.989   6.014 -0.7594  0.5275  0.1412
18712THY    HP151375   6.513   3.073   5.955  3.9499 -1.9298  0.9375
18712THY    CP251376   6.666   3.058   6.093 -0.2052 -0.7156  0.0833
18712THY    HP251377   6.657   3.166   6.110 -0.9890 -1.1786  0.0992
18712THY    HP351378   6.762   3.048   6.040  0.1057  0.1606 -2.0618
18712THY    HP451379   6.693   2.995   6.178  2.6367 -0.9092  0.8693
18712THY    CP351380   6.436   2.955   6.104 -0.2996 -0.4411  0.2305
18712THY    HP551381   6.470   2.867   6.160  0.5191 -0.5088  0.5012
18712THY    HP651382   6.359   2.926   6.032  0.1912 -0.8268 -0.1309
18712THY    HP751383   6.408   3.037   6.172 -0.1729 -0.5351  0.3508
18712THY    CA351384   6.683   2.784   5.967  0.1886 -0.5988 -0.3249
18712THY    HA351385   6.732   2.784   6.064  0.7357 -0.7996 -2.8125
18712THY    CA451386   6.722   2.685   5.873  0.0875 -0.2284  0.2120
18712THY    HA451387   6.793   2.611   5.906  0.1208 -1.3379 -0.2684
18712THY    CA551388   6.668   2.684   5.738  0.6038  0.7003 -0.2221
18712THY    CM151389   6.702   2.577   5.643 -0.4110  0.5020  0.2037
18712THY    HM151390   6.624   2.501   5.637  0.7599  1.4805 -1.1264
18712THY    HM251391   6.785   2.507   5.663 -2.2063  0.7234 -1.9876
18712THY    HM351392   6.719   2.635   5.552  2.3997 -0.3388 -1.7210
18712THY    CA651393   6.573   2.772   5.704  0.5578  0.1354 -0.4830
18712THY    HA651394   6.531   2.781   5.604 -0.0758  0.3984 -0.4864
18713THY      O51395   7.257   8.243   5.022  0.1493 -0.2063  0.0048
18713THY     HO51396   7.244   8.178   5.093 -2.8470 -0.1746  0.5153
18713THY    CA151397   7.175   8.351   5.061  0.0076 -0.2558  0.1219
18713THY    CA251398   7.186   8.477   5.003  0.6535  0.0430  0.7932
18713THY    CP151399   7.279   8.503   4.880 -0.0288  0.4600  0.1015
18713THY    HP151400   7.293   8.416   4.814  2.7433 -2.2325  2.3901
18713THY    CP251401   7.419   8.555   4.930 -0.0520 -0.5216 -0.6629
18713THY    HP251402   7.452   8.485   5.007  1.9581 -0.7488 -0.0324
18713THY    HP351403   7.412   8.653   4.979  7.5321  1.7834 -0.6214
18713THY    HP451404   7.497   8.562   4.852 -1.7389 -2.3682 -1.3726
18713THY    CP351405   7.217   8.606   4.784  0.7478 -0.3681 -0.8905
18713THY    HP551406   7.225   8.710   4.818 -0.7662  0.4458 -1.0113
18713THY    HP651407   7.112   8.581   4.762  0.7652 -0.3886 -0.9428
18713THY    HP751408   7.272   8.605   4.689  1.2844 -0.0816  0.1278
18713THY    CA351409   7.118   8.584   5.065 -0.4846  0.0853 -0.5483
18713THY    HA351410   7.117   8.683   5.019 -0.9330  1.2496  0.0026
18713THY    CA451411   7.048   8.561   5.187  0.1192  0.2306 -0.0368
18713THY    HA451412   6.990   8.644   5.227  0.5043 -0.0454  0.3641
18713THY    CA551413   7.039   8.430   5.234 -0.0085 -0.4300  0.4584
18713THY    CM151414   6.964   8.394   5.356 -0.2746  0.4807  0.3341
18713THY    HM151415   6.906   8.301   5.346  0.0410 -0.3916  0.2152
18713THY    HM251416   6.893   8.475   5.376  0.3994 -1.5556  1.5031
18713THY    HM351417   7.021   8.382   5.448  0.0592  0.3025  0.5303
18713THY    CA651418   7.109   8.324   5.177 -0.6399  0.2961  0.1385
18713THY    HA651419   7.103   8.228   5.226  0.6889 -2.5272 -1.5106
18714THY      O51420   3.609   0.690   3.263  0.7682  0.0709 -0.5852
18714THY     HO51421   3.547   0.746   3.313  1.2056  0.1069 -0.1309
18714THY    CA151422   3.686   0.628   3.350  0.0939  0.2616  0.2195
18714THY    CA251423   3.792   0.545   3.307 -0.4634 -0.5455 -0.4011
18714THY    CP151424   3.830   0.534   3.160 -0.1709  0.1221  0.0217
18714THY    HP151425   3.785   0.615   3.102 -0.8646 -0.2352 -0.6030
18714THY    CP251426   3.777   0.413   3.096  0.6191  0.5582 -0.0256
18714THY    HP251427   3.668   0.411   3.103  0.6519  1.8664  1.2373
18714THY    HP351428   3.804   0.315   3.136 -1.1096  4.9857  1.0717
18714THY    HP451429   3.807   0.412   2.990 -1.2146  0.0096  0.0052
18714THY    CP351430   3.980   0.553   3.146 -0.2689 -0.0793  0.3213
18714THY    HP551431   4.025   0.459   3.180 -1.9773  1.5586  0.0483
18714THY    HP651432   4.017   0.643   3.195  0.0854 -1.7521  1.1348
18714THY    HP751433   4.006   0.571   3.040 -2.7087 -1.1412 -1.8467
18714THY    CA351434   3.856   0.460   3.407 -0.0339 -0.0094  0.4312
18714THY    HA351435   3.937   0.393   3.379  1.3210 -1.0597  2.4212
18714THY    CA451436   3.814   0.472   3.541 -0.3626  0.0522 -0.2114
18714THY    HA451437   3.863   0.409   3.615 -0.2681  1.4332  1.4267
18714THY    CA551438   3.720   0.567   3.584 -0.6107  0.0775  0.1612
18714THY    CM151439   3.677   0.570   3.724  0.3900  1.1181  0.1529
18714THY    HM151440   3.646   0.672   3.748  0.1762  2.5382 -0.2222
18714THY    HM251441   3.757   0.549   3.796  0.1544  1.4496  0.3882
18714THY    HM351442   3.589   0.507   3.741 -0.7932 -0.7333  1.2288
18714THY    CA651443   3.651   0.638   3.483  0.2256 -0.2819  0.5346
18714THY    HA651444   3.580   0.714   3.515  0.2043 -0.1281  0.4493
18715THY      O51445   5.419   4.178   6.339  0.4442 -0.5700 -0.2291
18715THY     HO51446   5.345   4.130   6.299  1.1898 -1.9471 -0.2948
18715THY    CA151447   5.500   4.074   6.377 -0.1018 -0.3044 -0.0767
18715THY    CA251448   5.635   4.111   6.404  0.2667  0.6235 -0.0953
18715THY    CP151449   5.677   4.256   6.413 -0.0146 -0.1901  0.3141
18715THY    HP151450   5.615   4.325   6.355  1.1307  0.8436  2.3149
18715THY    CP251451   5.822   4.275   6.367  0.0737  0.0133  0.6972
18715THY    HP251452   5.839   4.382   6.349  0.5961  0.6045  0.7169
18715THY    HP351453   5.841   4.230   6.268 -0.4800 -0.1391  0.7984
18715THY    HP451454   5.898   4.251   6.442  0.5253  0.0237  2.0908
18715THY    CP351455   5.673   4.301   6.560  0.0706  0.5373  0.4044
18715THY    HP551456   5.707   4.406   6.568  1.2545 -0.7207  0.1412
18715THY    HP651457   5.742   4.242   6.622 -1.0481 -0.7739 -2.4445
18715THY    HP751458   5.575   4.298   6.608 -0.3738 -0.2572  1.5401
18715THY    CA351459   5.723   4.005   6.453  0.3161 -0.0947 -0.2104
18715THY    HA351460   5.822   4.023   6.493  0.9354 -2.2572  1.5630
18715THY    CA451461   5.677   3.873   6.437  0.2774  0.9268  1.1495
18715THY    HA451462   5.738   3.788   6.465 -2.4658 -1.3716 -1.8136
18715THY    CA551463   5.548   3.845   6.389 -0.4388  0.3922 -0.5038
18715THY    CM151464   5.506   3.701   6.372 -0.0262  0.5251  0.3803
18715THY    HM151465   5.420   3.677   6.436  0.8990  1.9417  0.7056
18715THY    HM251466   5.589   3.637   6.405  0.5965  1.3936  1.5832
18715THY    HM351467   5.477   3.685   6.268  0.3510  0.2128  1.5892
18715THY    CA651468   5.458   3.942   6.364  0.6420  0.6980 -0.4778
18715THY    HA651469   5.356   3.923   6.330  0.0918  0.6911  2.1903
18716THY      O51470   3.561   8.103   2.633 -0.7154 -0.2705 -0.7021
18716THY     HO51471   3.562   8.197   2.658 -1.7630 -2.3351 -0.0832
18716THY    CA151472   3.645   8.040   2.720 -0.1155  0.1022  0.6908
18716THY    CA251473   3.658   7.898   2.724  0.1328  0.1771  0.5329
18716THY    CP151474   3.573   7.813   2.623  0.0358  0.0294  0.0749
18716THY    HP151475   3.497   7.881   2.585  0.6307 -2.1405 -0.4025
18716THY    CP251476   3.506   7.691   2.687 -0.0774  0.2728 -0.4610
18716THY    HP251477   3.425   7.728   2.751  1.3858  1.9733 -0.1090
18716THY    HP351478   3.585   7.631   2.733  1.7248  1.1751  2.3912
18716THY    HP451479   3.467   7.636   2.600  0.1462  0.9824 -1.7753
18716THY    CP351480   3.657   7.773   2.512  0.2516  0.4739  0.2802
18716THY    HP551481   3.725   7.697   2.553  3.1061 -0.7054  2.0694
18716THY    HP651482   3.716   7.852   2.464  0.2374 -0.7645 -0.4332
18716THY    HP751483   3.605   7.726   2.427 -2.7882  0.4524  3.2636
18716THY    CA351484   3.750   7.842   2.812  0.4933  0.2545  0.5235
18716THY    HA351485   3.770   7.735   2.821 -1.3555  0.9512  0.2057
18716THY    CA451486   3.835   7.929   2.884 -0.5764 -0.2843  0.4440
18716THY    HA451487   3.924   7.890   2.933 -0.4359  0.7756  2.0162
18716THY    CA551488   3.832   8.065   2.861  0.1415  0.5832 -0.1313
18716THY    CM151489   3.936   8.149   2.933  0.1872  0.4024 -0.1096
18716THY    HM151490   3.910   8.255   2.934  1.1735 -1.5696  0.1812
18716THY    HM251491   4.038   8.149   2.895 -0.2466 -0.7984  0.7556
18716THY    HM351492   3.940   8.119   3.039  3.2141  1.1300  2.3775
18716THY    CA651493   3.738   8.122   2.777  0.5906  0.7487  0.2503
18716THY    HA651494   3.739   8.228   2.755  0.0724 -0.8579 -0.0418
18717THY      O51495   6.151   8.822   7.737 -0.2638  0.0057  0.0544
18717THY     HO51496   6.117   8.733   7.753 -1.1065 -2.5098 -0.1642
18717THY    CA151497   6.052   8.891   7.672 -0.1039 -0.1332 -0.4038
18717THY    CA251498   6.079   8.999   7.583  0.6877  0.2654  0.1642
18717THY    CP151499   6.225   9.044   7.559  0.1546  0.2288  0.1139
18717THY    HP151500   6.285   9.028   7.650 -1.4420  1.5387  1.2891
18717THY    CP251501   6.249   9.189   7.511 -0.3538 -0.5569  0.1473
18717THY    HP251502   6.354   9.216   7.522 -0.1121 -1.2880 -0.4660
18717THY    HP351503   6.195   9.258   7.576 -0.3981 -0.9044  0.4453
18717THY    HP451504   6.221   9.217   7.409  0.4167 -0.4705  1.3062
18717THY    CP351505   6.281   8.938   7.460 -0.4018 -0.7533  0.3746
18717THY    HP551506   6.242   8.836   7.466 -1.6074 -1.1457  0.8019
18717THY    HP651507   6.391   8.943   7.467 -0.3726 -1.5611  1.3020
18717THY    HP751508   6.252   8.971   7.359 -1.8272 -0.1969  0.8948
18717THY    CA351509   5.976   9.052   7.505  0.5069  0.1293  0.0679
18717THY    HA351510   5.984   9.130   7.431  0.2276 -0.0553 -0.0782
18717THY    CA451511   5.850   9.008   7.530 -0.3639 -0.2696 -0.1930
18717THY    HA451512   5.779   9.065   7.471 -0.1335 -0.8447 -0.4956
18717THY    CA551513   5.815   8.904   7.625  0.1594 -1.0292  0.4390
18717THY    CM151514   5.673   8.869   7.656  0.1850 -0.4886 -0.5072
18717THY    HM151515   5.603   8.919   7.588  0.2406 -2.7702 -3.2692
18717THY    HM251516   5.649   8.895   7.760 -1.9440 -1.6013  2.6805
18717THY    HM351517   5.664   8.760   7.657  0.7069 -0.6900 -0.5538
18717THY    CA651518   5.918   8.846   7.692 -0.6069 -0.6075  0.3122
18717THY    HA651519   5.901   8.768   7.766  0.6860 -1.8491 -1.2158
18718THY      O51520   0.601   2.505   4.122  0.0193  0.2477 -0.5006
18718THY     HO51521   0.540   2.479   4.052  0.3112 -1.4073  2.7798
18718THY    CA151522   0.569   2.433   4.241  0.5001  0.5013 -0.0147
18718THY    CA251523   0.617   2.465   4.368  0.2132 -0.5882 -0.1960
18718THY    CP151524   0.721   2.579   4.380  0.4827  0.7320 -0.7029
18718THY    HP151525   0.705   2.641   4.291  1.3879  0.6235 -0.5983
18718THY    CP251526   0.865   2.524   4.380 -0.0388  0.8644 -0.3004
18718THY    HP251527   0.867   2.471   4.475 -3.6379  0.0739 -2.2380
18718THY    HP351528   0.944   2.598   4.388 -2.0868 -0.0768  2.1374
18718THY    HP451529   0.894   2.458   4.297 -0.0094  2.1456 -1.9524
18718THY    CP351530   0.709   2.664   4.507  0.3745  0.3681 -0.3815
18718THY    HP551531   0.608   2.706   4.512  1.1278 -0.4142  1.6611
18718THY    HP651532   0.781   2.746   4.503 -1.3511  1.2641  1.2665
18718THY    HP751533   0.727   2.605   4.598  1.8429 -0.8102 -1.8443
18718THY    CA351534   0.578   2.387   4.477 -1.1591 -0.1885  0.2151
18718THY    HA351535   0.613   2.410   4.578  0.0667 -0.4418 -0.4340
18718THY    CA451536   0.497   2.279   4.454  0.2349 -0.9163 -0.1627
18718THY    HA451537   0.458   2.223   4.538  0.1652  0.8826  2.3997
18718THY    CA551538   0.447   2.254   4.329  0.1337 -0.1079  0.0762
18718THY    CM151539   0.341   2.143   4.307  0.3423 -0.4194  0.0960
18718THY    HM151540   0.392   2.054   4.267 -1.5255 -1.3572 -0.6127
18718THY    HM251541   0.271   2.192   4.239  1.6192 -0.3379  2.1643
18718THY    HM351542   0.276   2.124   4.393 -0.9656 -1.7145 -1.5764
18718THY    CA651543   0.492   2.321   4.219  0.3665 -0.1373 -0.5058
18718THY    HA651544   0.457   2.289   4.121 -0.7073 -0.0188  0.2378
18719THY      O51545   3.995   6.748   3.117  0.6732 -0.1104 -0.8184
18719THY     HO51546   3.961   6.673   3.170 -2.5284 -1.0292 -0.1701
18719THY    CA151547   4.131   6.749   3.124  0.9656 -0.6096  0.0594
18719THY    CA251548   4.193   6.857   3.179  0.1903 -0.2527  0.0585
18719THY    CP151549   4.106   6.962   3.248  0.2782  0.3246  0.0170
18719THY    HP151550   4.004   6.963   3.208 -0.6729  2.3613 -2.8285
18719THY    CP251551   4.150   7.100   3.198  0.1558  0.4046 -1.1052
18719THY    HP251552   4.162   7.106   3.089  0.2737  0.4455 -0.5280
18719THY    HP351553   4.243   7.137   3.243 -0.3947  0.3511  0.3995
18719THY    HP451554   4.080   7.178   3.229  0.7204 -1.6333  0.2785
18719THY    CP351555   4.102   6.939   3.397 -0.1073  0.1782  0.0785
18719THY    HP551556   4.038   7.017   3.441  0.5218  0.5003  0.4210
18719THY    HP651557   4.196   6.956   3.451 -2.1444  3.8231  0.8726
18719THY    HP751558   4.060   6.838   3.408  1.7158  1.3155 -0.6052
18719THY    CA351559   4.326   6.849   3.206 -0.1354  0.4393 -0.1134
18719THY    HA351560   4.382   6.921   3.265 -0.5324  1.1732 -0.3962
18719THY    CA451561   4.405   6.744   3.157 -0.5280 -0.4985  0.9688
18719THY    HA451562   4.510   6.735   3.183 -0.4001 -0.1200  3.0995
18719THY    CA551563   4.339   6.630   3.109  0.0202  0.3405 -0.5788
18719THY    CM151564   4.424   6.512   3.075  0.3891  0.1219  0.4368
18719THY    HM151565   4.376   6.422   3.034  0.6778  1.9553 -0.6110
18719THY    HM251566   4.463   6.462   3.165 -1.1973  0.3603 -0.4435
18719THY    HM351567   4.493   6.544   2.996 -1.5592 -1.5686  0.6942
18719THY    CA651568   4.201   6.638   3.089  0.2289 -0.1781  0.9488
18719THY    HA651569   4.142   6.553   3.057  0.6060 -0.0820  0.6433
18720THY      O51570   3.401   3.692   5.744  0.3442  0.4274 -0.4106
18720THY     HO51571   3.345   3.639   5.685  1.3674  0.3654 -1.4402
18720THY    CA151572   3.505   3.617   5.776 -0.2934 -0.1017  0.4803
18720THY    CA251573   3.618   3.676   5.822 -0.4680  0.1977  0.7649
18720THY    CP151574   3.625   3.826   5.826  0.2224  0.3144 -0.3138
18720THY    HP151575   3.577   3.862   5.735  0.2306  0.2161 -0.5485
18720THY    CP251576   3.766   3.887   5.836  0.0520  0.2411  0.1475
18720THY    HP251577   3.821   3.852   5.924  1.9767 -0.9453  0.0152
18720THY    HP351578   3.753   3.996   5.830 -1.3561 -0.2165 -0.0232
18720THY    HP451579   3.818   3.849   5.747  0.4357  0.4172  0.2587
18720THY    CP351580   3.536   3.887   5.934 -0.5209 -0.5355  0.0199
18720THY    HP551581   3.596   3.907   6.024 -1.3615 -0.1712  1.0174
18720THY    HP651582   3.463   3.814   5.971 -0.5576 -0.5628  0.0429
18720THY    HP751583   3.475   3.975   5.910 -3.0547 -0.1571 -1.5276
18720THY    CA351584   3.730   3.585   5.848  0.2137  0.0087  0.2034
18720THY    HA351585   3.830   3.622   5.871  0.0921 -0.7399  1.0408
18720THY    CA451586   3.719   3.446   5.839 -0.0385 -0.7077  0.2299
18720THY    HA451587   3.806   3.385   5.858  0.3106  1.1632  1.2464
18720THY    CA551588   3.594   3.387   5.808 -0.4431  0.2759 -0.4341
18720THY    CM151589   3.575   3.243   5.808  0.4003 -0.7931  0.8235
18720THY    HM151590   3.547   3.202   5.906  0.7300 -0.4324  1.4395
18720THY    HM251591   3.668   3.188   5.787  1.3653  0.9709  1.6888
18720THY    HM351592   3.501   3.220   5.731  0.7862 -1.3834  1.4980
18720THY    CA651593   3.484   3.475   5.779 -0.8057 -0.2444  0.5965
18720THY    HA651594   3.384   3.440   5.756 -0.9784  0.3196  0.6961
18721THY      O51595   1.071   7.228   4.585  0.1483 -0.8938  0.1690
18721THY     HO51596   1.098   7.265   4.499  0.9615 -0.8005 -0.1902
18721THY    CA151597   1.089   7.324   4.683 -0.8675  0.1751 -0.9572
18721THY    CA251598   1.023   7.322   4.806 -0.2329 -0.5129 -0.1236
18721THY    CP151599   0.917   7.212   4.829 -0.2032  0.0267  0.0688
18721THY    HP151600   0.925   7.134   4.752 -1.5032  0.6105 -0.6736
18721THY    CP251601   0.770   7.262   4.839 -0.3417  0.0500 -0.0703
18721THY    HP251602   0.761   7.320   4.932  0.0313 -0.1787  0.3643
18721THY    HP351603   0.704   7.177   4.853 -0.8575 -1.1101  0.1232
18721THY    HP451604   0.744   7.300   4.740 -0.5877  0.5214  1.0411
18721THY    CP351605   0.952   7.129   4.962  0.2005  0.7772  0.1730
18721THY    HP551606   0.918   7.025   4.954  1.1160  0.6735 -0.1280
18721THY    HP651607   0.906   7.181   5.047  2.4436  1.1469  1.6913
18721THY    HP751608   1.060   7.134   4.978  0.5576 -1.3576  0.0393
18721THY    CA351609   1.066   7.407   4.912  0.6764  0.4603  0.7480
18721THY    HA351610   1.017   7.398   5.009 -0.4032 -0.2674 -2.9787
18721THY    CA451611   1.174   7.502   4.889 -0.3796  0.0402  0.0382
18721THY    HA451612   1.206   7.558   4.976 -0.4288  0.0961 -0.0203
18721THY    CA551613   1.222   7.516   4.755 -0.3798  0.2842 -0.5051
18721THY    CM151614   1.323   7.618   4.720  0.5815  0.4233 -0.4198
18721THY    HM151615   1.285   7.683   4.640 -0.3355  0.4951 -0.8591
18721THY    HM251616   1.417   7.581   4.677  0.8689 -0.1737  0.9151
18721THY    HM351617   1.345   7.683   4.805 -1.4978  0.3084  0.5092
18721THY    CA651618   1.187   7.422   4.653 -0.3616  0.1039  0.4129
18721THY    HA651619   1.233   7.421   4.555 -1.7448 -0.6091 -1.6050
18722THY      O51620   9.460   1.188   4.333 -0.2344  0.7412 -0.4082
18722THY     HO51621   9.539   1.143   4.299  0.6217 -0.7308  2.0034
18722THY    CA151622   9.358   1.135   4.264  0.3233  0.2506  0.2897
18722THY    CA251623   9.222   1.173   4.282 -0.0367  0.4664 -0.1180
18722THY    CP151624   9.178   1.305   4.356  0.0437 -0.2277  0.6469
18722THY    HP151625   9.076   1.316   4.319 -0.4708  0.4070 -1.4496
18722THY    CP251626   9.239   1.436   4.309 -0.0478  0.3212  0.5433
18722THY    HP251627   9.195   1.521   4.363  1.2955 -0.3728  1.7345
18722THY    HP351628   9.211   1.447   4.204 -0.8044  0.5861  1.2345
18722THY    HP451629   9.349   1.433   4.308 -0.0345 -1.2594  0.6753
18722THY    CP351630   9.171   1.293   4.511 -0.4207  0.8996  0.8223
18722THY    HP551631   9.262   1.237   4.534 -0.2032 -1.5162  0.0463
18722THY    HP651632   9.086   1.232   4.545 -0.4746 -0.8321 -0.1501
18722THY    HP751633   9.164   1.390   4.562  0.3076  0.0724  1.3223
18722THY    CA351634   9.116   1.104   4.209  0.1662  0.1576  0.1754
18722THY    HA351635   9.014   1.142   4.218 -0.4033  1.5148 -1.5141
18722THY    CA451636   9.150   0.999   4.126 -0.3699 -0.0674 -0.5333
18722THY    HA451637   9.081   0.956   4.053 -0.3874 -0.6637  0.4894
18722THY    CA551638   9.279   0.946   4.128 -0.2070  0.2447 -0.8095
18722THY    CM151639   9.309   0.825   4.043  0.1429  0.1037  0.0402
18722THY    HM151640   9.236   0.809   3.963  0.1440  0.0915  0.0962
18722THY    HM251641   9.305   0.725   4.090  1.1590 -0.2118 -0.1613
18722THY    HM351642   9.407   0.836   3.994  0.3054  0.1444 -1.0262
18722THY    CA651643   9.381   1.017   4.192  0.7707 -0.3674  0.0643
18722THY    HA651644   9.483   0.983   4.186  0.6061 -0.5428 -0.4092
18723THY      O51645   6.307   1.723   5.886  0.1410  0.1274 -0.1019
18723THY     HO51646   6.303   1.717   5.789 -2.4309  0.1308  0.5531
18723THY    CA151647   6.280   1.599   5.928  0.8992  0.2077 -0.4328
18723THY    CA251648   6.204   1.580   6.050 -0.5322 -0.0438  0.2336
18723THY    CP151649   6.145   1.701   6.133 -0.6698 -0.0709 -0.1670
18723THY    HP151650   6.201   1.795   6.129 -0.9561  2.1764  0.1422
18723THY    CP251651   6.135   1.674   6.273  0.5632  0.3646 -0.6709
18723THY    HP251652   6.068   1.594   6.305  0.1665 -1.4059 -1.0813
18723THY    HP351653   6.101   1.767   6.320 -0.4782 -1.0196 -0.3250
18723THY    HP451654   6.237   1.650   6.306  1.0371  0.0876  0.8325
18723THY    CP351655   6.011   1.739   6.071  0.2793 -0.4227  0.3840
18723THY    HP551656   5.930   1.684   6.121 -0.1744 -1.9662 -0.4205
18723THY    HP651657   5.999   1.721   5.963 -0.9418 -0.6028  2.0723
18723THY    HP751658   6.004   1.847   6.087  3.6249  1.9079  0.4209
18723THY    CA351659   6.195   1.443   6.100 -0.6779 -0.4180  0.3553
18723THY    HA351660   6.135   1.417   6.187  0.7260  0.0831 -1.4053
18723THY    CA451661   6.257   1.336   6.022 -0.4655 -0.0213 -0.0950
18723THY    HA451662   6.251   1.232   6.052  0.7808 -0.1648 -0.2294
18723THY    CA551663   6.338   1.364   5.915  0.2283 -0.4594 -0.2477
18723THY    CM151664   6.403   1.248   5.837 -0.2156  0.8058  0.3451
18723THY    HM151665   6.465   1.190   5.906 -1.8358  2.2348  0.2406
18723THY    HM251666   6.468   1.277   5.753 -2.5049 -0.5794  1.7970
18723THY    HM351667   6.326   1.174   5.815 -0.9109  0.7380  1.0708
18723THY    CA651668   6.336   1.493   5.856  0.1329 -0.5910  0.3380
18723THY    HA651669   6.377   1.515   5.759 -0.5763 -1.4606 -1.8794
18724THY      O51670   5.847   9.007   2.875 -0.5532  0.4675  0.5165
18724THY     HO51671   5.787   8.937   2.907  1.2502  0.4642 -1.1188
18724THY    CA151672   5.771   9.119   2.851 -0.0380  0.0333 -0.2003
18724THY    CA251673   5.821   9.245   2.811 -0.5871 -0.3670 -1.0348
18724THY    CP151674   5.968   9.244   2.778 -0.0538  0.0191 -0.4284
18724THY    HP151675   6.000   9.145   2.744 -0.9627  1.9651 -1.4369
18724THY    CP251676   6.048   9.298   2.894 -0.4984  0.0157 -0.2602
18724THY    HP251677   6.013   9.399   2.920 -0.8815  0.1636 -0.4302
18724THY    HP351678   6.154   9.306   2.869 -0.8881 -1.1223  2.2122
18724THY    HP451679   6.053   9.238   2.986  1.0701  0.2025  0.0994
18724THY    CP351680   5.998   9.342   2.658  0.1089  0.5656 -0.5330
18724THY    HP551681   6.104   9.340   2.631 -0.2122 -0.8168 -0.1243
18724THY    HP651682   5.972   9.447   2.675 -0.7639  0.4735 -0.7235
18724THY    HP751683   5.943   9.303   2.571 -1.1203  0.8714  0.4580
18724THY    CA351684   5.735   9.352   2.779  0.3967 -0.0472  0.5197
18724THY    HA351685   5.780   9.441   2.737  1.6692  0.0298 -0.0723
18724THY    CA451686   5.594   9.330   2.797 -0.1027  0.2718  0.4957
18724THY    HA451687   5.528   9.414   2.775 -0.1283  2.1946  1.0201
18724THY    CA551688   5.543   9.206   2.838 -0.2743  0.8222  0.0735
18724THY    CM151689   5.396   9.179   2.828 -0.9037 -0.1743 -0.0886
18724THY    HM151690   5.343   9.261   2.777  2.0484 -0.1104  2.0293
18724THY    HM251691   5.358   9.182   2.930 -1.5751 -0.4137 -0.2334
18724THY    HM351692   5.382   9.074   2.800  1.2137  1.2425 -0.7998
18724THY    CA651693   5.632   9.105   2.868 -0.2148  0.4619 -0.1326
18724THY    HA651694   5.591   9.008   2.897 -0.2718  0.6287 -0.0586
18725THY      O51695   6.450   1.973   4.672 -0.0226  0.2118 -0.6255
18725THY     HO51696   6.353   1.978   4.684  0.0277  0.2488  0.7506
18725THY    CA151697   6.468   2.042   4.554 -0.2330 -0.4025 -0.3842
18725THY    CA251698   6.590   2.032   4.477  0.2622  0.5372  0.2791
18725THY    CP151699   6.706   1.950   4.526 -0.0124  0.2233  0.7467
18725THY    HP151700   6.666   1.872   4.591  1.0787 -0.9692 -0.8625
18725THY    CP251701   6.822   2.019   4.605  0.7889 -0.7503 -0.1021
18725THY    HP251702   6.881   2.097   4.555  0.8826  1.9706  1.6867
18725THY    HP351703   6.895   1.942   4.635 -0.0048  0.4887 -0.3983
18725THY    HP451704   6.777   2.068   4.692  0.2307 -1.5370  0.7960
18725THY    CP351705   6.778   1.893   4.399  0.5737  0.6995 -0.1481
18725THY    HP551706   6.860   1.957   4.364 -1.4175  0.1719  2.2261
18725THY    HP651707   6.716   1.866   4.313  0.5938  0.5888  0.1556
18725THY    HP751708   6.830   1.800   4.428 -1.0469 -0.0043 -1.3128
18725THY    CA351709   6.604   2.119   4.365  0.4224 -0.0687  0.1122
18725THY    HA351710   6.687   2.115   4.295 -1.3751 -2.3528  0.5730
18725THY    CA451711   6.492   2.190   4.325 -0.3564 -0.1204 -0.1108
18725THY    HA451712   6.505   2.257   4.240  1.2603 -0.0412 -0.2765
18725THY    CA551713   6.375   2.200   4.409  0.5579  0.0299  0.0538
18725THY    CM151714   6.262   2.288   4.354 -0.1971 -0.0318  0.4963
18725THY    HM151715   6.188   2.295   4.435  0.3202  0.6952 -1.8472
18725THY    HM251716   6.208   2.241   4.270  0.9939 -0.8916  0.6202
18725THY    HM351717   6.308   2.380   4.315  1.2738 -0.4386 -0.3889
18725THY    CA651718   6.360   2.120   4.520 -0.6390  0.3546 -1.2356
18725THY    HA651719   6.275   2.138   4.585  0.5654  1.3374  1.3543
18726THY      O51720   7.493   5.284   3.528 -0.1487 -0.2415  0.3312
18726THY     HO51721   7.577   5.302   3.572 -0.6276  0.6024  0.5577
18726THY    CA151722   7.413   5.238   3.627  0.5784  0.0873  0.2767
18726THY    CA251723   7.303   5.155   3.594 -0.2313  0.6110 -0.3146
18726THY    CP151724   7.291   5.094   3.457  0.0106  0.5847  1.0220
18726THY    HP151725   7.333   5.149   3.372 -0.4406 -1.1757 -1.1841
18726THY    CP251726   7.145   5.082   3.417 -0.3749  0.0571  0.5546
18726THY    HP251727   7.104   4.989   3.458  2.8303  0.4974 -0.7906
18726THY    HP351728   7.152   5.081   3.308 -0.4738 -0.0437  3.0711
18726THY    HP451729   7.085   5.171   3.443 -2.8959 -3.1739  0.0315
18726THY    CP351730   7.353   4.956   3.450  0.2754 -0.8184  0.3072
18726THY    HP551731   7.330   4.893   3.537  1.9815  0.1227  0.9187
18726THY    HP651732   7.462   4.972   3.452  0.4804  1.8250 -0.8415
18726THY    HP751733   7.322   4.905   3.359 -0.6614 -0.7815  0.7966
18726THY    CA351734   7.218   5.123   3.696 -0.9805  0.3918 -0.2706
18726THY    HA351735   7.126   5.071   3.672 -0.3911 -1.0599 -0.7099
18726THY    CA451736   7.246   5.167   3.826  0.7564 -0.4084  0.0866
18726THY    HA451737   7.179   5.131   3.903 -0.0697 -1.7344 -1.3593
18726THY    CA551738   7.344   5.260   3.854 -0.4227 -0.3499 -0.1161
18726THY    CM151739   7.361   5.323   3.989 -0.2009 -0.5907 -0.0554
18726THY    HM151740   7.459   5.366   4.011 -0.5140 -0.7709  0.7829
18726THY    HM251741   7.335   5.247   4.064 -2.2972  0.4043  1.5399
18726THY    HM351742   7.291   5.407   4.001  0.8388 -0.0537  0.7560
18726THY    CA651743   7.438   5.291   3.753 -0.1174  0.2658 -0.6724
18726THY    HA651744   7.512   5.368   3.769 -1.7173 -2.9880  1.8239
18727THY      O51745   8.144   2.274   2.108  0.2722  0.3044  0.2849
18727THY     HO51746   8.059   2.259   2.063  1.4823 -2.3814  0.8366
18727THY    CA151747   8.130   2.221   2.230 -0.4008  0.0325  0.0455
18727THY    CA251748   8.182   2.284   2.339 -0.5499 -0.0633 -0.1288
18727THY    CP151749   8.274   2.411   2.326 -0.3572 -0.2590 -0.3278
18727THY    HP151750   8.333   2.399   2.234  1.1455  0.8741 -2.3807
18727THY    CP251751   8.391   2.419   2.433  0.4860 -0.4837  0.4476
18727THY    HP251752   8.470   2.487   2.400  0.7328 -0.9780 -0.0747
18727THY    HP351753   8.431   2.318   2.451  1.3897  1.8497  1.1542
18727THY    HP451754   8.350   2.451   2.529  2.0958  1.1729 -2.1088
18727THY    CP351755   8.188   2.533   2.308  0.0644 -0.1077  0.2383
18727THY    HP551756   8.103   2.517   2.242 -0.4195  0.3729  0.7970
18727THY    HP651757   8.255   2.601   2.254  0.6151 -0.7857 -0.8067
18727THY    HP751758   8.151   2.566   2.406  0.4094  1.2315 -2.9696
18727THY    CA351759   8.143   2.239   2.466  0.5157 -0.3057 -0.0171
18727THY    HA351760   8.187   2.288   2.553  1.9154 -0.5589 -0.7652
18727THY    CA451761   8.058   2.125   2.485  0.0541  0.2831 -0.1126
18727THY    HA451762   8.032   2.077   2.578 -0.3542 -0.9527 -2.4119
18727THY    CA551763   8.020   2.057   2.372  0.2271 -0.1544  1.1684
18727THY    CM151764   7.936   1.928   2.398 -0.0315  0.6885 -0.1466
18727THY    HM151765   7.885   1.918   2.495 -0.2794  0.3491 -3.4296
18727THY    HM251766   7.991   1.835   2.379  1.8618 -2.2660  1.4037
18727THY    HM351767   7.847   1.932   2.333  0.3718  0.1896  1.4009
18727THY    CA651768   8.044   2.115   2.248  0.7878  0.0098  0.6823
18727THY    HA651769   8.005   2.067   2.158 -0.4617  0.4733  0.8134
18728THY      O51770   5.767   0.380   6.323 -0.1894  0.1809 -0.1717
18728THY     HO51771   5.745   0.450   6.387 -1.9457 -0.5037 -0.0438
18728THY    CA151772   5.748   0.433   6.198 -0.4811  0.0772 -0.2145
18728THY    CA251773   5.836   0.404   6.086 -0.1658  0.1094  0.4514
18728THY    CP151774   5.976   0.344   6.106 -0.0803  0.1158  0.4755
18728THY    HP151775   5.978   0.303   6.208 -0.4804 -0.1033 -0.1110
18728THY    CP251776   6.078   0.459   6.109  0.4058 -0.0629 -0.7146
18728THY    HP251777   6.074   0.516   6.016 -2.3671  0.9431  0.9551
18728THY    HP351778   6.182   0.430   6.128  1.6530 -2.6387  1.6557
18728THY    HP451779   6.045   0.529   6.187 -1.8715 -0.2926 -1.4804
18728THY    CP351780   6.023   0.245   5.992  0.1631 -0.8401  0.2730
18728THY    HP551781   5.976   0.146   6.002 -0.8823  0.1485  0.8465
18728THY    HP651782   6.131   0.229   6.004  0.4100  2.0042  3.1512
18728THY    HP751783   5.998   0.278   5.891 -0.3860 -1.4476 -1.8453
18728THY    CA351784   5.798   0.463   5.956  0.0882 -0.2202 -0.2045
18728THY    HA351785   5.852   0.453   5.862 -2.0369 -1.6219  0.7605
18728THY    CA451786   5.681   0.535   5.937  0.5172 -0.3362  0.1059
18728THY    HA451787   5.645   0.570   5.840 -1.7911 -0.1358 -1.4634
18728THY    CA551788   5.598   0.565   6.050 -0.0968 -0.6817  0.1530
18728THY    CM151789   5.466   0.638   6.024  0.2602  0.1560  0.5581
18728THY    HM151790   5.447   0.648   5.917  0.4541  0.3253  3.6099
18728THY    HM251791   5.470   0.735   6.074  0.3883  1.4621 -0.0964
18728THY    HM351792   5.377   0.588   6.065  0.4195  1.3886  1.2441
18728THY    CA651793   5.630   0.507   6.170  0.6879  0.8245  0.1190
18728THY    HA651794   5.548   0.504   6.241 -1.4285 -1.5028 -1.4150
18729THY      O51795   3.927   7.609   4.118 -0.7764  0.2262  0.0422
18729THY     HO51796   3.936   7.684   4.057 -2.0732  0.1557  0.1749
18729THY    CA151797   4.036   7.606   4.188  0.0263  0.6498 -0.0802
18729THY    CA251798   4.085   7.483   4.232 -0.3630  0.1845  0.2072
18729THY    CP151799   4.011   7.351   4.225  0.1175 -0.1550  0.3438
18729THY    HP151800   3.904   7.366   4.241  0.3290  1.1241  0.6543
18729THY    CP251801   4.051   7.238   4.319  0.1661 -0.1214  0.4105
18729THY    HP251802   4.052   7.274   4.423  1.3315 -0.2076  0.6904
18729THY    HP351803   4.150   7.200   4.289  0.2655  2.2135 -1.3486
18729THY    HP451804   3.981   7.155   4.304  1.1015 -0.2741 -0.3678
18729THY    CP351805   4.011   7.297   4.086 -0.3960  0.4354 -0.1112
18729THY    HP551806   3.964   7.378   4.029 -1.2064 -0.6345 -1.3000
18729THY    HP651807   3.953   7.204   4.085  0.3901 -0.5081 -0.5997
18729THY    HP751808   4.111   7.282   4.044 -0.7119 -0.6159  0.6101
18729THY    CA351809   4.212   7.493   4.305 -0.1738 -0.0919  0.0946
18729THY    HA351810   4.253   7.402   4.347 -2.7725  2.3960 -0.0775
18729THY    CA451811   4.274   7.622   4.321 -0.5783  0.7702  0.7655
18729THY    HA451812   4.362   7.627   4.385 -0.1743  0.3598 -0.6488
18729THY    CA551813   4.223   7.739   4.258 -0.7702  0.9974  1.0483
18729THY    CM151814   4.288   7.872   4.254 -0.2683 -0.4864 -0.2320
18729THY    HM151815   4.398   7.865   4.260 -0.2520 -1.6668 -1.2895
18729THY    HM251816   4.259   7.925   4.346  2.0229 -0.2827  0.8046
18729THY    HM351817   4.271   7.936   4.167  2.8865 -0.8497  0.3122
18729THY    CA651818   4.100   7.728   4.197  0.1454 -0.0189 -0.0486
18729THY    HA651819   4.058   7.824   4.168 -0.1935  1.0763  0.1375
18730THY      O51820   0.849   6.734   6.705 -0.2247 -0.6272  0.0337
18730THY     HO51821   0.910   6.807   6.721 -0.5455  1.5509 -0.1214
18730THY    CA151822   0.927   6.656   6.631 -0.5238 -0.1708 -0.0151
18730THY    CA251823   0.893   6.567   6.528 -0.5688  0.0270  0.2525
18730THY    CP151824   0.751   6.549   6.482 -0.5042  0.2852  0.4652
18730THY    HP151825   0.687   6.628   6.522  0.7414 -0.6709  2.0012
18730THY    CP251826   0.701   6.416   6.533  0.4603 -0.5291  1.3081
18730THY    HP251827   0.711   6.418   6.642  0.2360 -0.4600 -0.0542
18730THY    HP351828   0.761   6.333   6.494  1.1956  0.6026  1.2906
18730THY    HP451829   0.596   6.401   6.505  0.5879 -0.3038 -0.2100
18730THY    CP351830   0.735   6.566   6.328  0.3070 -0.6124 -0.3258
18730THY    HP551831   0.795   6.495   6.270  0.5526  0.3530 -0.9219
18730THY    HP651832   0.750   6.670   6.294 -1.0578  0.7906  0.3807
18730THY    HP751833   0.630   6.541   6.309 -0.0739 -1.0700  1.4211
18730THY    CA351834   0.994   6.490   6.456 -0.3000  0.3861 -0.7857
18730THY    HA351835   0.961   6.424   6.376 -0.6544 -0.0318 -0.1077
18730THY    CA451836   1.131   6.508   6.489  0.0391  0.8323  0.0772
18730THY    HA451837   1.212   6.458   6.437 -0.7336  0.1150 -0.4719
18730THY    CA551838   1.164   6.593   6.595 -0.7032  0.7469 -0.2666
18730THY    CM151839   1.309   6.624   6.620 -0.2659  0.2841 -0.4031
18730THY    HM151840   1.377   6.605   6.536 -1.3045 -0.1099 -2.6580
18730THY    HM251841   1.345   6.563   6.704 -0.1131  1.8207  1.6831
18730THY    HM351842   1.317   6.727   6.657 -2.1253 -1.5014  0.4572
18730THY    CA651843   1.062   6.663   6.673  0.1589  0.0578  0.6669
18730THY    HA651844   1.090   6.735   6.749  1.3450 -0.1582  0.4566
18731THY      O51845   5.228   5.303   5.277  0.1150  0.3302  0.4622
18731THY     HO51846   5.252   5.374   5.215 -2.9346 -0.4560  0.9473
18731THY    CA151847   5.147   5.222   5.208  0.2309 -0.1077  0.9237
18731THY    CA251848   5.078   5.114   5.268  0.4814  0.7213  0.2617
18731THY    CP151849   5.086   5.081   5.418  0.1235  0.1991  0.2506
18731THY    HP151850   5.172   5.134   5.460 -0.3444  0.9821  0.4086
18731THY    CP251851   5.112   4.923   5.445  0.1916  0.0097 -0.4239
18731THY    HP251852   5.146   4.893   5.544  0.0217 -0.2705 -1.5920
18731THY    HP351853   5.204   4.891   5.396 -0.4928 -0.6145 -1.4947
18731THY    HP451854   5.023   4.864   5.418  0.2937 -0.2502 -0.4594
18731THY    CP351855   4.975   5.124   5.504  0.0875  0.5802  0.4655
18731THY    HP551856   4.927   5.219   5.477 -0.8505 -0.6803 -0.3262
18731THY    HP651857   5.006   5.134   5.608 -0.3363  0.6886  0.6907
18731THY    HP751858   4.901   5.044   5.494  2.0391 -0.6993 -1.2861
18731THY    CA351859   4.987   5.045   5.189 -0.0849  0.0051  1.3113
18731THY    HA351860   4.916   4.976   5.233 -0.5419  1.5497  2.7145
18731THY    CA451861   4.987   5.060   5.052 -0.5194 -0.8592 -0.3445
18731THY    HA451862   4.925   5.001   4.985  1.3881 -1.8369 -1.3495
18731THY    CA551863   5.068   5.166   4.995 -0.3073 -0.2033  1.4257
18731THY    CM151864   5.051   5.183   4.845 -0.4034  0.2634  0.0639
18731THY    HM151865   5.117   5.114   4.791 -1.9686 -2.3738  0.5074
18731THY    HM251866   5.086   5.285   4.826  0.9793  0.5942 -0.3131
18731THY    HM351867   4.951   5.161   4.808 -0.0463  0.9331 -3.1548
18731THY    CA651868   5.142   5.250   5.075  0.1404  0.1398 -0.0194
18731THY    HA651869   5.211   5.318   5.025  0.0928 -1.0104 -0.7832
18732THY      O51870   6.706   8.427   4.486 -0.1878 -0.7798  0.5489
18732THY     HO51871   6.736   8.397   4.398  0.9232 -0.1640 -0.2127
18732THY    CA151872   6.792   8.376   4.581 -0.2543 -0.1030 -0.3291
18732THY    CA251873   6.772   8.392   4.719  0.1222  0.5597  0.5306
18732THY    CP151874   6.660   8.479   4.770 -0.4301 -0.8460 -0.3631
18732THY    HP151875   6.608   8.540   4.695  0.0770  0.2002  1.4050
18732THY    CP251876   6.702   8.589   4.872 -0.5157 -0.8309  0.8880
18732THY    HP251877   6.621   8.663   4.872 -0.2975 -2.7773  1.1722
18732THY    HP351878   6.792   8.635   4.829 -0.4330 -0.2766  1.2617
18732THY    HP451879   6.725   8.539   4.967 -0.1816 -1.0477  0.6282
18732THY    CP351880   6.551   8.394   4.839  0.4011  0.8733  0.0216
18732THY    HP551881   6.484   8.452   4.903  0.8067  0.2706  1.1848
18732THY    HP651882   6.597   8.316   4.901  0.5384 -0.7604 -1.2535
18732THY    HP751883   6.493   8.345   4.760  3.9291 -1.5161 -0.6793
18732THY    CA351884   6.858   8.331   4.809 -0.0151 -0.4593 -0.4849
18732THY    HA351885   6.835   8.346   4.914  2.9917  0.1684  0.2785
18732THY    CA451886   6.969   8.258   4.767 -0.2843 -0.0584 -0.4878
18732THY    HA451887   7.042   8.216   4.837 -2.0583  1.1904 -1.6338
18732THY    CA551888   6.997   8.265   4.629 -0.2041  0.2819  0.5016
18732THY    CM151889   7.131   8.210   4.593 -0.1733 -0.1687  0.3940
18732THY    HM151890   7.148   8.216   4.485 -2.6982 -0.6428  0.1394
18732THY    HM251891   7.158   8.111   4.631 -0.3169  0.3376  0.5462
18732THY    HM351892   7.211   8.277   4.627  0.4291 -1.6964  0.4878
18732THY    CA651893   6.912   8.320   4.538 -0.2463  0.3015 -0.0292
18732THY    HA651894   6.945   8.328   4.435 -1.0538 -0.0094 -0.5748
18733THY      O51895   4.523   1.152   4.966 -0.0941  0.4267 -0.0997
18733THY     HO51896   4.435   1.162   4.926 -0.4044  0.3409 -2.5528
18733THY    CA151897   4.484   1.111   5.092 -0.1066  0.4630  0.9494
18733THY    CA251898   4.573   1.053   5.178  0.1652 -0.6292  0.5863
18733THY    CP151899   4.720   1.025   5.139 -0.7831 -0.4056  0.3328
18733THY    HP151900   4.722   0.965   5.048 -1.6948  0.2840 -0.7860
18733THY    CP251901   4.797   0.935   5.230  0.4924  0.5537 -0.6497
18733THY    HP251902   4.752   0.836   5.240 -0.6663 -2.3859 -0.5263
18733THY    HP351903   4.818   0.970   5.332  0.1941 -0.1932  1.9855
18733THY    HP451904   4.895   0.930   5.181  0.8211  0.8909  1.3051
18733THY    CP351905   4.810   1.154   5.124  0.7951 -1.0591 -0.3382
18733THY    HP551906   4.769   1.237   5.067 -0.9278  2.8291  1.7373
18733THY    HP651907   4.912   1.133   5.088  1.6590  1.5909 -1.1163
18733THY    HP751908   4.826   1.204   5.220 -0.4751 -0.8052 -0.3975
18733THY    CA351909   4.531   1.017   5.307  0.2899  0.4501 -0.0353
18733THY    HA351910   4.598   0.970   5.378  2.5049  0.0791  2.3412
18733THY    CA451911   4.390   1.036   5.339 -0.2082 -0.8538  0.4540
18733THY    HA451912   4.350   1.017   5.437 -1.5207 -1.4287  0.1819
18733THY    CA551913   4.293   1.082   5.240 -0.2755 -0.4808 -0.2341
18733THY    CM151914   4.143   1.094   5.266  0.5832  0.3899  0.2842
18733THY    HM151915   4.096   1.039   5.348 -1.1069  0.1295  1.2719
18733THY    HM251916   4.087   1.065   5.175  0.6977  0.9918 -2.0403
18733THY    HM351917   4.116   1.195   5.299 -0.0629  0.4059  0.1093
18733THY    CA651918   4.337   1.126   5.115 -0.3578 -0.0116  0.0534
18733THY    HA651919   4.265   1.172   5.046  0.9628 -1.0423  0.6534
18734THY      O51920   5.369   2.135   1.970  0.1588  0.0235 -0.1374
18734THY     HO51921   5.459   2.114   1.940  0.4551  2.5949 -3.5047
18734THY    CA151922   5.391   2.173   2.098  0.1893  0.2758  0.4745
18734THY    CA251923   5.315   2.110   2.195  0.2427 -1.2484 -0.0898
18734THY    CP151924   5.199   2.019   2.158 -0.2762 -0.4225  0.4097
18734THY    HP151925   5.162   2.057   2.062  0.2378 -0.0923  1.8517
18734THY    CP251926   5.076   2.034   2.260 -0.7197 -0.5193  0.8289
18734THY    HP251927   4.988   1.996   2.207 -0.6356  1.2756 -2.1077
18734THY    HP351928   5.064   2.141   2.280 -3.4376  0.4241  0.4162
18734THY    HP451929   5.108   1.973   2.345 -0.2162  0.2300  2.0937
18734THY    CP351930   5.245   1.869   2.141  0.1856 -0.6018 -0.6449
18734THY    HP551931   5.257   1.815   2.236  1.9810 -1.2647 -1.4868
18734THY    HP651932   5.343   1.867   2.092  1.0769  1.0143  0.6341
18734THY    HP751933   5.179   1.809   2.077  2.4524 -0.6825 -3.2590
18734THY    CA351934   5.340   2.144   2.334  0.0793  0.2155  0.1265
18734THY    HA351935   5.282   2.094   2.411 -1.2622 -0.6178  0.3676
18734THY    CA451936   5.453   2.229   2.359  0.2686 -0.0256  0.2612
18734THY    HA451937   5.482   2.255   2.460  1.4931 -0.6359  1.3516
18734THY    CA551938   5.514   2.296   2.259  0.3243  0.2918  0.1245
18734THY    CM151939   5.634   2.388   2.289  0.1983  0.0695 -0.5150
18734THY    HM151940   5.665   2.464   2.216  1.7931  0.1364 -1.0695
18734THY    HM251941   5.724   2.337   2.324  1.4177  1.2303  2.1865
18734THY    HM351942   5.608   2.446   2.379  0.4135 -0.7012  0.8311
18734THY    CA651943   5.489   2.262   2.131  0.5271  0.0586  0.9341
18734THY    HA651944   5.545   2.307   2.050  1.1644  0.5788  1.0896
18735THY      O51945   0.874   3.671   3.539 -0.5482 -0.1622 -0.3365
18735THY     HO51946   0.853   3.653   3.445 -1.7715 -0.0891  0.5688
18735THY    CA151947   1.003   3.670   3.564 -0.6759  0.8464 -0.1876
18735THY    CA251948   1.054   3.758   3.654  0.0586  1.1861 -0.1327
18735THY    CP151949   0.969   3.843   3.749  0.7288  0.2333 -0.1004
18735THY    HP151950   0.877   3.874   3.698  0.7299  0.5367  0.4112
18735THY    CP251951   1.024   3.981   3.775  0.5133  0.0639  1.2280
18735THY    HP251952   1.125   3.973   3.816  0.3274  0.1209 -2.0548
18735THY    HP351953   0.959   4.040   3.842 -0.9729  0.0874 -0.3570
18735THY    HP451954   1.024   4.042   3.684  1.1862  0.0928  1.2760
18735THY    CP351955   0.925   3.767   3.875  0.2031 -0.2528 -0.8041
18735THY    HP551956   0.868   3.837   3.937 -1.3378 -1.2608 -1.1036
18735THY    HP651957   1.009   3.728   3.933  2.6307 -1.3444  2.4208
18735THY    HP751958   0.860   3.681   3.853 -0.0525  1.4404 -1.0789
18735THY    CA351959   1.197   3.758   3.672  0.3474  0.5004 -0.2593
18735THY    HA351960   1.242   3.819   3.749  0.8599 -0.2614  0.3291
18735THY    CA451961   1.278   3.686   3.582 -0.1037  0.8061  0.2617
18735THY    HA451962   1.386   3.684   3.592  0.0667 -0.5381  1.3105
18735THY    CA551963   1.221   3.601   3.486 -0.1201  0.7136  0.0883
18735THY    CM151964   1.305   3.533   3.388  0.1966  0.1644  0.7951
18735THY    HM151965   1.349   3.443   3.432 -0.9663 -0.3199 -0.0247
18735THY    HM251966   1.386   3.604   3.364  1.0916 -0.4887 -0.4165
18735THY    HM351967   1.256   3.501   3.296  0.6963  0.6647 -1.6224
18735THY    CA651968   1.078   3.591   3.473  1.0852 -0.9093 -0.0066
18735THY    HA651969   1.026   3.531   3.398 -0.1669 -1.0922  1.2620
18736THY      O51970   4.464   7.350   6.537  0.6164  0.4228  0.2945
18736THY     HO51971   4.454   7.259   6.569 -0.5179  1.7599  0.8666
18736THY    CA151972   4.427   7.351   6.410 -0.0727 -0.2184 -0.0290
18736THY    CA251973   4.474   7.446   6.321  0.6740  0.5920  0.6427
18736THY    CP151974   4.568   7.554   6.357 -0.8632  0.4414 -0.1460
18736THY    HP151975   4.619   7.537   6.452 -0.1597  0.1631  0.3518
18736THY    CP251976   4.488   7.677   6.379  0.5018 -0.0343 -0.2847
18736THY    HP251977   4.541   7.769   6.408 -0.9713 -1.1983  0.9764
18736THY    HP351978   4.417   7.666   6.462 -0.9358 -0.9203  1.6871
18736THY    HP451979   4.431   7.711   6.292 -0.9640 -0.0120 -2.5031
18736THY    CP351980   4.673   7.592   6.252 -0.1535 -0.0471 -0.3712
18736THY    HP551981   4.713   7.498   6.211  3.7940 -0.3968  1.2499
18736THY    HP651982   4.739   7.661   6.306  0.5189 -0.2100 -0.8791
18736THY    HP751983   4.636   7.638   6.160 -1.1538 -1.2163 -3.3268
18736THY    CA351984   4.424   7.430   6.185  0.1462  0.1124  0.3675
18736THY    HA351985   4.446   7.512   6.117 -0.6811  0.3226  0.7748
18736THY    CA451986   4.324   7.334   6.147 -0.4354  0.5226 -0.3699
18736THY    HA451987   4.282   7.341   6.048 -0.4781  0.6079  0.8543
18736THY    CA551988   4.279   7.252   6.238 -0.0533  0.2084  0.5204
18736THY    CM151989   4.174   7.154   6.213  0.6915  0.4465  0.1342
18736THY    HM151990   4.089   7.191   6.272  0.6492  0.4226  0.0740
18736THY    HM251991   4.203   7.055   6.250 -1.7260  1.5083 -0.2459
18736THY    HM351992   4.147   7.147   6.107 -0.5788  0.6641  1.2108
18736THY    CA651993   4.327   7.264   6.368 -0.2415 -0.4831  0.2768
18736THY    HA651994   4.292   7.199   6.447 -0.6264  2.1031  3.3426
18737THY      O51995   0.659   6.702   7.264  0.0592 -0.3888 -0.6841
18737THY     HO51996   0.591   6.710   7.195 -0.7455  0.5575  1.7037
18737THY    CA151997   0.730   6.583   7.241 -0.0737 -0.4192 -0.7161
18737THY    CA251998   0.778   6.495   7.342  0.0519  0.6263  0.0418
18737THY    CP151999   0.719   6.515   7.481 -0.0860  0.4208 -0.9000
18737THY    HP152000   0.690   6.621   7.493  0.5205 -0.8160 -0.5779
18737THY    CP252001   0.816   6.478   7.591 -0.3744  0.2077 -0.0167
18737THY    HP252002   0.912   6.531   7.588  0.3180  0.2748 -1.2177
18737THY    HP352003   0.847   6.372   7.596  1.4437 -0.3391  0.4418
18737THY    HP452004   0.776   6.506   7.690  1.7562  0.6455  1.7972
18737THY    CP352005   0.598   6.433   7.507 -0.0140 -0.0604  0.2403
18737THY    HP552006   0.610   6.325   7.489 -2.7464 -2.5422  0.2245
18737THY    HP652007   0.524   6.474   7.438 -0.1316  0.2003  0.4673
18737THY    HP752008   0.552   6.445   7.606  0.4676  0.1624  0.2639
18737THY    CA352009   0.856   6.377   7.308  0.0870 -0.7765  0.3174
18737THY    HA352010   0.874   6.302   7.385 -1.3625  0.8241  1.5296
18737THY    CA452011   0.882   6.346   7.169  0.0476  0.1401  0.1878
18737THY    HA452012   0.924   6.252   7.137 -1.1451  1.7654 -0.9498
18737THY    CA552013   0.848   6.440   7.067  0.5154  0.1688 -0.3473
18737THY    CM152014   0.860   6.421   6.919 -0.1221  0.8471 -0.1654
18737THY    HM152015   0.876   6.321   6.879 -0.2949 -1.5692  0.7248
18737THY    HM252016   0.938   6.485   6.876  0.4491  1.5120 -0.3987
18737THY    HM352017   0.772   6.464   6.871 -1.0989  2.0411 -0.7662
18737THY    CA652018   0.775   6.556   7.110  0.8066  0.0591  0.1679
18737THY    HA652019   0.749   6.621   7.027  1.0182 -1.7509 -1.9488
18738THY      O52020   1.043   6.374   1.736 -0.4946  0.0810  0.0842
18738THY     HO52021   1.072   6.296   1.785 -2.9165  0.0361 -0.9321
18738THY    CA152022   0.910   6.370   1.761 -0.4701  0.1353  0.1797
18738THY    CA252023   0.819   6.476   1.750  0.1618  0.5476  0.4051
18738THY    CP152024   0.866   6.617   1.704 -0.0172  0.0109  0.1407
18738THY    HP152025   0.969   6.609   1.667  0.8068  0.5314  5.0034
18738THY    CP252026   0.888   6.712   1.823  0.4306 -0.3176  0.5146
18738THY    HP252027   0.953   6.667   1.899 -0.8710 -0.3697 -1.5880
18738THY    HP352028   0.796   6.715   1.883  0.9221  0.7207 -2.3105
18738THY    HP452029   0.937   6.804   1.790 -3.0678 -1.3842  2.1778
18738THY    CP352030   0.798   6.676   1.580  0.5546 -0.0949 -0.0652
18738THY    HP552031   0.858   6.751   1.527  0.6740 -1.4109 -1.0504
18738THY    HP652032   0.709   6.735   1.606  1.4873 -1.6354  2.1631
18738THY    HP752033   0.763   6.607   1.502 -0.0871  0.0149  0.1351
18738THY    CA352034   0.684   6.454   1.779  0.5122 -0.2481  0.3630
18738THY    HA352035   0.607   6.530   1.780  0.7159  2.7507  0.6644
18738THY    CA452036   0.649   6.326   1.813  0.1093 -0.0453 -0.5043
18738THY    HA452037   0.543   6.306   1.829  0.0932 -0.1132 -0.4753
18738THY    CA552038   0.741   6.221   1.818 -0.0113 -0.2658 -0.0997
18738THY    CM152039   0.690   6.081   1.863 -0.3925 -0.1260 -0.1363
18738THY    HM152040   0.776   6.013   1.872 -0.4763 -0.3444 -0.2724
18738THY    HM252041   0.635   6.039   1.778  0.5526 -2.1871  2.4896
18738THY    HM352042   0.643   6.094   1.961  1.1112  0.3197  2.6285
18738THY    CA652043   0.874   6.240   1.803  0.0676  0.3522  1.0836
18738THY    HA652044   0.941   6.155   1.802 -1.3236 -0.7737 -0.0493
18739THY      O52045   4.620   6.991   7.482 -0.3437 -0.4430  0.0172
18739THY     HO52046   4.705   7.031   7.508 -1.0662 -1.6515  2.5622
18739THY    CA152047   4.613   7.028   7.357  0.4507  0.4378 -0.2453
18739THY    CA252048   4.489   7.084   7.310  0.2461 -0.2558  1.5850
18739THY    CP152049   4.370   7.082   7.399  0.2413  0.7194  0.0541
18739THY    HP152050   4.387   7.037   7.498  2.5540 -1.0546 -3.4038
18739THY    CP252051   4.259   6.997   7.318  0.3191 -0.1585 -0.7833
18739THY    HP252052   4.160   6.986   7.363 -0.7937 -2.1902  0.2516
18739THY    HP352053   4.303   6.897   7.324  0.5579  1.2351 -0.6075
18739THY    HP452054   4.238   7.031   7.216  0.5414  0.7626  2.4911
18739THY    CP352055   4.314   7.229   7.402 -0.2464 -0.2545 -0.2111
18739THY    HP552056   4.234   7.240   7.476  0.7524  0.6126  1.7401
18739THY    HP652057   4.280   7.259   7.302  2.0690 -1.0877 -0.1547
18739THY    HP752058   4.389   7.305   7.428 -0.6557  2.1565 -0.5547
18739THY    CA352059   4.482   7.125   7.180 -0.2834 -0.4005  0.8284
18739THY    HA352060   4.386   7.157   7.139 -1.0085 -0.0178 -0.7639
18739THY    CA452061   4.590   7.104   7.095 -0.4319 -0.4075  0.7506
18739THY    HA452062   4.583   7.125   6.988  1.0587 -1.0338 -1.4986
18739THY    CA552063   4.714   7.070   7.144  0.3673  0.1954  0.1510
18739THY    CM152064   4.825   7.058   7.043 -0.4101  0.9440  0.1073
18739THY    HM152065   4.795   7.018   6.945 -1.9362  1.9264 -1.2719
18739THY    HM252066   4.910   7.001   7.081  0.5477  2.3416  2.3301
18739THY    HM352067   4.865   7.158   7.021 -0.9005  1.7171  0.4789
18739THY    CA652068   4.726   7.031   7.275 -0.1909 -0.2091  0.7242
18739THY    HA652069   4.822   7.003   7.318 -0.7544  0.8613  0.3725
18740THY      O52070   3.519   3.833   6.461  0.3063 -0.5802 -0.4352
18740THY     HO52071   3.423   3.843   6.475  0.7291  1.1018  2.0974
18740THY    CA152072   3.545   3.744   6.355  0.8748 -0.3943 -0.5469
18740THY    CA252073   3.671   3.744   6.288  0.5331 -0.3223 -0.1489
18740THY    CP152074   3.788   3.828   6.339  0.1005 -0.3844  0.6765
18740THY    HP152075   3.798   3.810   6.447  3.1849 -0.6702  0.1922
18740THY    CP252076   3.769   3.972   6.306 -0.3392  0.3276 -0.7703
18740THY    HP252077   3.863   4.028   6.313  0.1338 -0.6347 -1.4181
18740THY    HP352078   3.694   4.017   6.372  0.6651 -0.3373  2.1696
18740THY    HP452079   3.741   3.986   6.201 -1.2851  0.6431 -0.2022
18740THY    CP352080   3.924   3.772   6.289  0.2526 -0.4604  0.4707
18740THY    HP552081   4.009   3.810   6.347 -0.9778  2.8099 -1.3394
18740THY    HP652082   3.943   3.794   6.184 -1.2276 -1.4172 -2.3347
18740THY    HP752083   3.938   3.665   6.306  0.8973 -0.3607  0.5693
18740THY    CA352084   3.679   3.662   6.170 -0.3212 -0.6179  0.8236
18740THY    HA352085   3.770   3.662   6.111 -0.5337 -0.9523  0.4060
18740THY    CA452086   3.576   3.571   6.143 -0.0364 -0.1487  0.3194
18740THY    HA452087   3.589   3.505   6.057 -1.7588  1.3811 -2.1431
18740THY    CA552088   3.451   3.582   6.209 -0.2778  0.4937 -0.3631
18740THY    CM152089   3.338   3.499   6.155  0.0612  0.4996 -0.2454
18740THY    HM152090   3.372   3.440   6.070  2.9279  1.4317 -0.1337
18740THY    HM252091   3.255   3.563   6.123  0.7009 -1.1117 -0.1761
18740THY    HM352092   3.295   3.431   6.230 -2.9486 -1.9308 -1.1955
18740THY    CA652093   3.438   3.666   6.312 -0.1306  0.4022 -0.5930
18740THY    HA652094   3.344   3.659   6.367 -1.0012 -0.8246  0.7244
18741THY      O52095   5.053   5.790   7.724  0.0703 -0.4407  0.7202
18741THY     HO52096   5.104   5.795   7.807 -0.5713 -0.0717  1.5052
18741THY    CA152097   5.125   5.857   7.637 -0.3437  0.3850  0.6047
18741THY    CA252098   5.066   5.907   7.517  0.1344 -0.4147 -0.1399
18741THY    CP152099   4.923   5.865   7.480  0.3298 -0.1789 -0.1155
18741THY    HP152100   4.900   5.779   7.543 -1.1470  1.3222  1.2781
18741THY    CP252101   4.898   5.834   7.332  0.5609  0.0528 -0.0487
18741THY    HP252102   4.804   5.779   7.325  0.6919  0.9488 -0.3939
18741THY    HP352103   4.979   5.766   7.304  0.7031 -0.9613  0.5050
18741THY    HP452104   4.896   5.931   7.280  0.9744  0.2943  0.0932
18741THY    CP352105   4.829   5.973   7.540  0.2400 -0.5910  0.7485
18741THY    HP552106   4.729   5.962   7.497  0.3502 -1.2820  2.2542
18741THY    HP652107   4.860   6.075   7.519  1.5240 -0.0841  0.4854
18741THY    HP752108   4.827   5.967   7.650  0.6343 -0.6002  0.4051
18741THY    CA352109   5.140   5.988   7.429  0.0446  0.3863 -0.3895
18741THY    HA352110   5.101   6.011   7.331  1.8071 -0.1191  0.6220
18741THY    CA452111   5.273   6.019   7.460  0.8114 -0.1741 -0.8305
18741THY    HA452112   5.336   6.078   7.394  0.7618  0.9217  0.4814
18741THY    CA552113   5.336   5.966   7.572 -0.4628  0.2394  0.2848
18741THY    CM152114   5.488   5.984   7.588  0.0407 -0.5385 -0.3225
18741THY    HM152115   5.533   5.923   7.667 -0.0395  0.8661  1.3848
18741THY    HM252116   5.518   6.087   7.608  0.4035  0.4660 -0.6140
18741THY    HM352117   5.529   5.948   7.493  0.8806 -0.5403  0.5937
18741THY    CA652118   5.259   5.892   7.662  0.3052  0.4394 -0.4285
18741THY    HA652119   5.313   5.854   7.749 -0.6514  1.8902  1.3866
18742THY      O52120   4.652   2.614   4.044  0.6702 -0.3750 -0.0808
18742THY     HO52121   4.659   2.666   3.962  0.7055 -1.1791 -1.3170
18742THY    CA152122   4.556   2.673   4.120  0.0468 -0.1056  0.5171
18742THY    CA252123   4.460   2.598   4.188 -1.2152  0.2362 -0.3408
18742THY    CP152124   4.476   2.445   4.207 -0.9027 -0.0605  0.4265
18742THY    HP152125   4.583   2.423   4.216 -0.2610  1.8256  3.5993
18742THY    CP252126   4.426   2.350   4.098  0.4611 -0.5040 -0.5174
18742THY    HP252127   4.317   2.355   4.095  0.3458  2.4648  1.0164
18742THY    HP352128   4.444   2.243   4.116 -1.6724 -0.3382 -0.8884
18742THY    HP452129   4.469   2.370   3.999 -0.8128 -1.0587 -0.4624
18742THY    CP352130   4.422   2.393   4.347  0.7750 -0.4713  0.0435
18742THY    HP552131   4.484   2.440   4.425  0.5736  1.4026 -2.6089
18742THY    HP652132   4.426   2.284   4.354 -2.1954 -2.5180 -0.3118
18742THY    HP752133   4.319   2.422   4.367  0.9925 -1.3242  1.5128
18742THY    CA352134   4.347   2.665   4.244  0.1769  0.4165 -0.1922
18742THY    HA352135   4.278   2.618   4.313 -0.1687  1.3815  1.6227
18742THY    CA452136   4.351   2.805   4.235  0.6899  0.4450 -0.0448
18742THY    HA452137   4.271   2.849   4.294  2.2122  3.6668 -1.2671
18742THY    CA552138   4.452   2.876   4.168 -0.7745 -0.0792  0.1568
18742THY    CM152139   4.457   3.026   4.173  0.5122 -0.3826  0.0565
18742THY    HM152140   4.372   3.072   4.224  1.3612  2.6725 -1.4392
18742THY    HM252141   4.469   3.080   4.079 -1.3020  0.7545  2.6586
18742THY    HM352142   4.538   3.057   4.240 -1.4795  0.6752  3.5143
18742THY    CA652143   4.551   2.804   4.103 -0.6243 -0.1173 -0.7222
18742THY    HA652144   4.622   2.858   4.041 -1.1137 -0.3214 -0.3109
18743THY      O52145   3.637   0.457   5.092 -0.3812 -0.0823 -0.3007
18743THY     HO52146   3.599   0.409   5.167 -0.2659  0.8862  1.0685
18743THY    CA152147   3.716   0.560   5.135  0.6750  0.5592 -0.3420
18743THY    CA252148   3.770   0.649   5.041 -0.1082  0.9879 -0.5875
18743THY    CP152149   3.766   0.606   4.887 -0.1668 -0.2882 -0.2347
18743THY    HP152150   3.718   0.509   4.874  2.2292 -1.1124 -1.3738
18743THY    CP252151   3.900   0.592   4.825 -0.4898 -0.0880  0.6654
18743THY    HP252152   3.970   0.553   4.900 -2.3953  0.3754 -2.1544
18743THY    HP352153   3.926   0.695   4.797 -3.0690  0.7966  1.6638
18743THY    HP452154   3.898   0.529   4.735 -0.8926 -0.2506  0.9046
18743THY    CP352155   3.695   0.711   4.799 -0.2536 -0.2093 -0.3880
18743THY    HP552156   3.721   0.812   4.832 -2.2782 -0.4194  0.2483
18743THY    HP652157   3.586   0.718   4.807 -0.2095 -0.0038  0.1121
18743THY    HP752158   3.720   0.702   4.693  0.8209  0.1160 -1.6395
18743THY    CA352159   3.845   0.757   5.080 -0.4463 -0.4337 -0.0120
18743THY    HA352160   3.888   0.832   5.014 -0.2083  0.8974  1.0580
18743THY    CA452161   3.866   0.769   5.219 -0.0946 -0.4987 -0.4578
18743THY    HA452162   3.920   0.853   5.262 -2.0136  1.3325 -0.1093
18743THY    CA552163   3.814   0.684   5.312  0.4778 -0.3191  0.2785
18743THY    CM152164   3.843   0.711   5.458  0.0800 -0.8160  1.3499
18743THY    HM152165   3.758   0.750   5.513 -0.8648 -0.2366 -1.2991
18743THY    HM252166   3.931   0.777   5.463  1.2396  0.0945 -0.1917
18743THY    HM352167   3.871   0.619   5.511 -1.2580 -2.5221 -0.1342
18743THY    CA652168   3.737   0.577   5.269  0.0112  0.2713 -0.1422
18743THY    HA652169   3.705   0.500   5.338  0.7215 -0.2492 -0.9201
18744THY      O52170   1.087   9.391   1.684  0.0361 -0.7293  0.0524
18744THY     HO52171   1.040   9.475   1.673  1.2654 -1.0314  0.7122
18744THY    CA152172   1.025   9.328   1.786 -0.1422  0.0432  0.3592
18744THY    CA252173   1.040   9.192   1.804  0.0440 -0.2007  0.0278
18744THY    CP152174   1.142   9.111   1.725  0.2587  0.5330  0.2643
18744THY    HP152175   1.194   9.173   1.651 -0.2058  0.3593  0.4535
18744THY    CP252176   1.073   9.000   1.648  0.8350 -0.2407 -0.3096
18744THY    HP252177   0.980   9.039   1.606  0.4653 -2.3982 -3.1849
18744THY    HP352178   1.047   8.924   1.723  1.4810  1.4164  1.0520
18744THY    HP452179   1.133   8.967   1.562  1.3935  0.0591 -0.0950
18744THY    CP352180   1.254   9.052   1.821  0.1556 -0.2703  0.2503
18744THY    HP552181   1.351   9.023   1.779  0.9325  2.1943 -1.0419
18744THY    HP652182   1.225   8.958   1.869  1.4355 -0.7307 -0.4010
18744THY    HP752183   1.269   9.130   1.896  1.1208  0.5309 -0.6745
18744THY    CA352184   0.965   9.135   1.896 -0.1041 -0.3803 -0.2843
18744THY    HA352185   0.975   9.029   1.916 -2.5431  0.3703 -0.4291
18744THY    CA452186   0.879   9.206   1.978  0.0917 -0.3414  0.3170
18744THY    HA452187   0.821   9.154   2.053  2.6280  1.6363  0.1177
18744THY    CA552188   0.857   9.341   1.963  0.4408 -0.3035  0.0152
18744THY    CM152189   0.750   9.417   2.045 -0.3583  0.3850 -0.4564
18744THY    HM152190   0.663   9.434   1.980 -0.2677  0.6163  1.0516
18744THY    HM252191   0.789   9.518   2.060 -1.3217 -2.3158  0.4097
18744THY    HM352192   0.726   9.368   2.139  0.2627 -0.9800 -3.6016
18744THY    CA652193   0.928   9.400   1.858 -0.2575 -0.4416  0.0769
18744THY    HA652194   0.913   9.506   1.842  1.6426 -0.6846  0.3534
18745THY      O52195   7.557   0.891   7.076  0.3070 -0.2845  0.2944
18745THY     HO52196   7.550   0.796   7.099 -0.4738  1.6794  0.7702
18745THY    CA152197   7.439   0.937   7.027  0.2915 -0.0402 -0.5830
18745THY    CA252198   7.436   1.060   6.964 -0.7150 -0.1225 -0.6685
18745THY    CP152199   7.569   1.148   6.963 -0.0201 -0.4418  0.6319
18745THY    HP152200   7.656   1.084   6.983  0.0582 -3.5842 -0.4321
18745THY    CP252201   7.562   1.266   7.058 -0.2221  0.6331  0.2736
18745THY    HP252202   7.638   1.344   7.050 -1.2890 -1.3395  1.1990
18745THY    HP352203   7.563   1.234   7.163  0.0042  1.2650  2.2395
18745THY    HP452204   7.462   1.307   7.041 -1.1045 -0.1081 -2.0052
18745THY    CP352205   7.596   1.190   6.828 -0.0291 -0.4807 -0.3312
18745THY    HP552206   7.700   1.223   6.823 -0.1791  1.5382  0.6580
18745THY    HP652207   7.540   1.283   6.815  0.7855  0.0327  0.2496
18745THY    HP752208   7.575   1.119   6.748 -2.3787 -0.6445  0.4432
18745THY    CA352209   7.317   1.116   6.926 -0.3001  0.4813  0.3960
18745THY    HA352210   7.310   1.215   6.881 -1.2046 -0.9754 -0.3078
18745THY    CA452211   7.202   1.047   6.935 -0.1815  0.2353  1.1008
18745THY    HA452212   7.112   1.106   6.920 -1.4296  0.3529 -0.6613
18745THY    CA552213   7.204   0.916   6.990 -0.5905  0.5654  0.1794
18745THY    CM152214   7.078   0.839   6.989 -0.4758 -0.2661 -0.8064
18745THY    HM152215   7.042   0.817   6.888 -2.4668  0.4391 -1.0033
18745THY    HM252216   7.002   0.900   7.040  0.3452 -0.2479  0.2464
18745THY    HM352217   7.070   0.758   7.061  0.4204 -0.1450 -0.7977
18745THY    CA652218   7.321   0.864   7.036 -0.3254 -1.0388  0.3339
18745THY    HA652219   7.317   0.769   7.088  0.3634 -0.1212  0.7957
18746THY      O52220   5.609   3.054   4.099 -0.4584 -0.2148 -0.1479
18746THY     HO52221   5.575   3.092   4.016 -2.0546 -0.2215 -1.4774
18746THY    CA152222   5.654   2.929   4.067  0.3373  0.3772  0.3163
18746THY    CA252223   5.644   2.825   4.152 -0.5762 -1.2429  0.0103
18746THY    CP152224   5.604   2.842   4.298  0.6275 -0.2164  0.6822
18746THY    HP152225   5.562   2.941   4.319 -1.9370 -1.3261 -0.0942
18746THY    CP252226   5.725   2.810   4.391 -0.7330  0.9553  0.5040
18746THY    HP252227   5.708   2.840   4.495 -0.8290  0.9036  0.6341
18746THY    HP352228   5.807   2.876   4.359  1.5764  2.3087 -1.5597
18746THY    HP452229   5.748   2.704   4.379 -1.6456 -0.3216  0.4261
18746THY    CP352230   5.483   2.749   4.332  0.4842  0.4273 -0.3552
18746THY    HP552231   5.468   2.748   4.441 -1.9528  0.1592  0.9814
18746THY    HP652232   5.489   2.651   4.284 -3.0230 -0.9114 -0.0416
18746THY    HP752233   5.400   2.806   4.290  1.0053 -1.5660 -0.9947
18746THY    CA352234   5.681   2.697   4.114 -0.3341  0.5310  0.2310
18746THY    HA352235   5.680   2.612   4.182 -0.4464 -0.0539 -0.2437
18746THY    CA452236   5.698   2.669   3.980 -0.2890 -0.3365  0.2155
18746THY    HA452237   5.697   2.564   3.949 -2.3797 -3.1819  0.9502
18746THY    CA552238   5.712   2.776   3.887  0.3996 -0.0508  0.0392
18746THY    CM152239   5.744   2.761   3.743  0.2901 -0.5655  0.5303
18746THY    HM152240   5.661   2.782   3.675  0.4678 -1.1444 -0.5707
18746THY    HM252241   5.785   2.660   3.730 -0.7472  2.3517 -0.3797
18746THY    HM352242   5.822   2.835   3.720  1.3124  0.4520 -0.1949
18746THY    CA652243   5.682   2.907   3.931 -0.5371  0.7521  0.1015
18746THY    HA652244   5.692   2.989   3.861 -2.7851  1.4425  1.0302
18747THY      O52245   4.876   6.946   4.798  0.0288  0.2290 -0.7766
18747THY     HO52246   4.897   7.038   4.774 -0.5307  0.2289 -0.6487
18747THY    CA152247   4.977   6.918   4.879 -0.0558  0.3645 -0.2316
18747THY    CA252248   4.978   6.798   4.947  0.0209 -1.0591 -0.3276
18747THY    CP152249   4.850   6.705   4.946 -0.6562  0.0676 -0.6981
18747THY    HP152250   4.797   6.733   4.854  1.0518 -0.7431  0.0100
18747THY    CP252251   4.771   6.732   5.075  0.5009  0.6104 -0.1042
18747THY    HP252252   4.724   6.830   5.090  1.7497  1.5536  0.3704
18747THY    HP352253   4.842   6.724   5.158  1.2778  0.2892  2.4956
18747THY    HP452254   4.699   6.650   5.089 -0.7295 -0.3205  0.7865
18747THY    CP352255   4.886   6.558   4.931  0.0866  0.1817 -0.4040
18747THY    HP552256   4.798   6.496   4.914 -0.5524  2.0718 -0.0880
18747THY    HP652257   4.944   6.530   5.020  0.9660 -0.5642 -1.0260
18747THY    HP752258   4.955   6.552   4.846 -1.2148 -0.9050 -0.2496
18747THY    CA352259   5.086   6.765   5.033 -0.1633 -0.5777  0.5406
18747THY    HA352260   5.078   6.677   5.096  2.3421 -0.1910  0.5330
18747THY    CA452261   5.193   6.865   5.058 -0.1051  0.2937 -0.4766
18747THY    HA452262   5.270   6.844   5.131  0.1379 -0.6033 -3.0923
18747THY    CA552263   5.194   6.981   4.980  0.0230  0.0737  0.2114
18747THY    CM152264   5.313   7.070   4.987  0.6155 -0.6427 -0.0747
18747THY    HM152265   5.329   7.138   4.903  0.7454 -1.1619 -0.7276
18747THY    HM252266   5.406   7.016   5.008 -0.9846  2.1272 -2.0938
18747THY    HM352267   5.308   7.129   5.079 -1.0853 -1.1328  0.6087
18747THY    CA652268   5.085   7.009   4.895  0.0010 -0.7633 -0.4308
18747THY    HA652269   5.081   7.103   4.841  1.7259 -0.5736 -0.2145
18748THY      O52270   5.526   1.649   6.564  0.4956  0.4081 -0.0822
18748THY     HO52271   5.591   1.712   6.599  1.8748  0.7212 -1.6187
18748THY    CA152272   5.605   1.579   6.477 -0.3643  0.0263 -0.9844
18748THY    CA252273   5.568   1.563   6.337  0.1921  0.0065  0.1723
18748THY    CP152274   5.443   1.632   6.289 -0.2372 -0.3444 -0.2090
18748THY    HP152275   5.364   1.606   6.360  1.3342  0.4284 -3.2543
18748THY    CP252276   5.383   1.580   6.157 -0.4091  0.3233 -1.2234
18748THY    HP252277   5.303   1.647   6.123  2.2708 -0.9914  1.5688
18748THY    HP352278   5.338   1.482   6.176  1.5642  1.5961 -1.9449
18748THY    HP452279   5.461   1.581   6.079  0.1087  0.7179  2.4030
18748THY    CP352280   5.452   1.781   6.283  0.1593 -0.0785  0.4619
18748THY    HP552281   5.508   1.823   6.368  0.1599  0.8868 -1.3644
18748THY    HP652282   5.349   1.818   6.286  0.1128  0.2123  0.3091
18748THY    HP752283   5.502   1.813   6.191  0.5244 -0.0674 -0.0557
18748THY    CA352284   5.661   1.500   6.256 -0.4493 -0.0552 -0.1550
18748THY    HA352285   5.648   1.491   6.148  1.1896 -0.1971 -1.1327
18748THY    CA452286   5.782   1.446   6.312  0.5936  0.1291  0.2047
18748THY    HA452287   5.848   1.387   6.249 -0.5573 -0.7327 -0.2161
18748THY    CA552288   5.815   1.452   6.444  0.0684 -0.5208 -0.8762
18748THY    CM152289   5.930   1.386   6.513 -0.0885  0.2398 -0.5912
18748THY    HM152290   6.025   1.419   6.471  0.5159  0.2759 -2.1713
18748THY    HM252291   5.934   1.276   6.503  0.4573  2.3432 -0.7995
18748THY    HM352292   5.937   1.409   6.620  0.5103  0.1892 -0.5150
18748THY    CA652293   5.720   1.523   6.529  0.0520  0.4743  0.5492
18748THY    HA652294   5.739   1.525   6.636 -1.2236  0.7138  0.6527
18749THY      O52295   6.417   8.645   3.376  0.2643  0.3119 -0.2947
18749THY     HO52296   6.503   8.690   3.371 -0.1628 -0.0780  0.4878
18749THY    CA152297   6.335   8.702   3.284 -0.0245  1.0646 -1.3514
18749THY    CA252298   6.221   8.645   3.226  0.1449  0.1150 -0.2375
18749THY    CP152299   6.203   8.497   3.249 -0.0383  0.9673  0.3433
18749THY    HP152300   6.261   8.458   3.334  0.6425 -0.2365 -1.3637
18749THY    CP252301   6.244   8.410   3.125  0.1143  0.1503 -0.7354
18749THY    HP252302   6.188   8.425   3.031  1.8445 -0.9640 -1.0181
18749THY    HP352303   6.231   8.304   3.148 -0.5893 -0.4314 -0.7828
18749THY    HP452304   6.348   8.437   3.104 -0.2669  0.5828  1.2527
18749THY    CP352305   6.054   8.456   3.291 -0.4686  0.2735  0.4756
18749THY    HP552306   6.044   8.348   3.306 -1.6920 -1.9178  0.2503
18749THY    HP652307   5.984   8.471   3.209 -2.3717  1.8322  0.5105
18749THY    HP752308   6.015   8.505   3.381 -2.3585  0.1941 -0.7849
18749THY    CA352309   6.128   8.720   3.150 -0.3434  1.3065  0.2641
18749THY    HA352310   6.047   8.679   3.090  1.4231 -1.4814  0.5525
18749THY    CA452311   6.165   8.851   3.129  0.1266  0.4029 -0.0367
18749THY    HA452312   6.103   8.911   3.062 -0.3262 -1.3057 -2.2700
18749THY    CA552313   6.272   8.908   3.192 -0.3544  0.3586 -1.3768
18749THY    CM152314   6.298   9.053   3.171 -0.2944  0.2161  0.3011
18749THY    HM152315   6.202   9.099   3.147 -0.8191 -1.9404 -1.7218
18749THY    HM252316   6.378   9.072   3.098  0.1761  1.1111  1.9395
18749THY    HM352317   6.335   9.093   3.266 -0.1367  0.2172  0.1543
18749THY    CA652318   6.364   8.836   3.262  0.0193 -0.1906  0.0015
18749THY    HA652319   6.450   8.884   3.308  1.0557 -2.1180  0.1112
18750THY      O52320   1.707   0.778   3.773  0.1593 -0.2751 -0.3523
18750THY     HO52321   1.644   0.851   3.758 -0.6114 -0.5297 -1.0617
18750THY    CA152322   1.723   0.713   3.661 -0.5291 -0.3347 -0.5072
18750THY    CA252323   1.749   0.574   3.661  0.2577  0.1911  0.7176
18750THY    CP152324   1.770   0.495   3.792  0.3444  0.3027  0.7212
18750THY    HP152325   1.786   0.571   3.869 -0.6009 -0.2170  1.4723
18750THY    CP252326   1.888   0.399   3.788  0.7352 -0.4117  0.2869
18750THY    HP252327   1.974   0.455   3.749 -0.0594 -0.7005  1.3282
18750THY    HP352328   1.873   0.315   3.719 -0.7036 -0.4590  0.5551
18750THY    HP452329   1.904   0.337   3.877  1.2379 -0.2496  0.6449
18750THY    CP352330   1.646   0.418   3.824 -0.0437 -0.3186  0.4543
18750THY    HP552331   1.621   0.340   3.751 -0.5894  0.2705  0.0616
18750THY    HP652332   1.559   0.485   3.824  1.0892  2.5398  2.0765
18750THY    HP752333   1.652   0.370   3.922 -0.0079 -0.8206 -0.6077
18750THY    CA352334   1.779   0.511   3.540 -0.6264 -0.0603  0.3266
18750THY    HA352335   1.794   0.404   3.530 -1.2546  2.0748  0.0005
18750THY    CA452336   1.765   0.581   3.420  0.0459 -0.3945 -0.5410
18750THY    HA452337   1.790   0.536   3.324  0.3936 -1.3636  1.5903
18750THY    CA552338   1.724   0.711   3.421  0.1631  0.0821 -0.3351
18750THY    CM152339   1.709   0.786   3.294 -0.0241  0.1027 -0.2974
18750THY    HM152340   1.618   0.847   3.302  0.2192 -1.2220  0.2737
18750THY    HM252341   1.700   0.715   3.210 -0.9385  0.8465 -1.0929
18750THY    HM352342   1.795   0.853   3.286  0.4650  1.1824 -0.7734
18750THY    CA652343   1.701   0.780   3.542  0.5256 -0.0608  0.2416
18750THY    HA652344   1.678   0.886   3.540 -0.1855  0.9905  0.1228
18751THY      O52345   6.175   1.178   1.982  0.2913  0.4544  0.2693
18751THY     HO52346   6.085   1.143   1.987  1.4596  1.5242 -3.0028
18751THY    CA152347   6.169   1.294   2.049  0.0780 -0.2585  0.2474
18751THY    CA252348   6.275   1.374   2.089 -0.3750 -0.3623  0.5351
18751THY    CP152349   6.418   1.326   2.067 -1.1220  0.8397  0.1575
18751THY    HP152350   6.418   1.282   1.966  0.8675  1.7417 -2.1230
18751THY    CP252351   6.484   1.225   2.156 -0.2146 -0.1130  0.5921
18751THY    HP252352   6.428   1.131   2.152 -0.2097  1.8145  0.4845
18751THY    HP352353   6.486   1.261   2.259 -0.7358  0.1161 -0.0195
18751THY    HP452354   6.589   1.207   2.130  0.5626  1.4897  2.4905
18751THY    CP352355   6.528   1.442   2.055  0.6266 -0.7214 -0.2525
18751THY    HP552356   6.485   1.528   2.001 -2.9040  0.3303 -1.1684
18751THY    HP652357   6.615   1.407   1.999  1.9767  0.6104  0.8438
18751THY    HP752358   6.555   1.485   2.152  0.0087 -0.9622  0.7116
18751THY    CA352359   6.256   1.496   2.153 -0.2448 -0.4833 -0.3237
18751THY    HA352360   6.333   1.572   2.153  1.0118 -0.3400 -1.5727
18751THY    CA452361   6.122   1.534   2.178  0.0789 -0.3142 -0.4252
18751THY    HA452362   6.108   1.634   2.218  1.3477 -0.2452 -0.2498
18751THY    CA552363   6.012   1.457   2.136 -0.1575 -0.0948 -0.3388
18751THY    CM152364   5.870   1.510   2.148 -0.6845 -0.0594 -0.0108
18751THY    HM152365   5.854   1.577   2.234 -1.0333  1.4472 -1.9618
18751THY    HM252366   5.797   1.428   2.147 -1.5899 -0.4617  0.7700
18751THY    HM352367   5.839   1.561   2.055  2.0039 -2.2083 -1.9630
18751THY    CA652368   6.037   1.333   2.074 -0.1956  0.0101 -0.6813
18751THY    HA652369   5.951   1.268   2.063  1.0702 -1.3858 -2.2071
18752THY      O52370   4.205   5.631   5.863 -0.3927  0.0770 -0.0750
18752THY     HO52371   4.127   5.627   5.805 -1.2913  0.9810  2.6239
18752THY    CA152372   4.260   5.750   5.826 -0.0728 -0.3250  0.1865
18752THY    CA252373   4.372   5.802   5.893 -0.1568  0.3070  0.4349
18752THY    CP152374   4.451   5.713   5.991  0.5886 -0.1478  0.3408
18752THY    HP152375   4.400   5.624   6.027  1.9071  0.5402 -0.1613
18752THY    CP252376   4.456   5.788   6.119 -0.1345 -0.8780  0.4144
18752THY    HP252377   4.354   5.819   6.144  0.4551  2.0632  0.2764
18752THY    HP352378   4.517   5.877   6.102  1.0212 -1.3703 -0.4565
18752THY    HP452379   4.491   5.718   6.197 -2.6073 -0.0064  0.0343
18752THY    CP352380   4.579   5.658   5.929  0.4574 -0.7808  0.1360
18752THY    HP552381   4.632   5.594   6.000  0.5703 -1.8706 -1.0252
18752THY    HP652382   4.647   5.740   5.904 -1.2651 -2.6117  1.0986
18752THY    HP752383   4.563   5.596   5.840 -1.3834 -1.9533  2.1356
18752THY    CA352384   4.422   5.931   5.850  0.2479  0.1944 -0.0508
18752THY    HA352385   4.517   5.974   5.880  0.8754  0.2852 -1.4460
18752THY    CA452386   4.371   5.986   5.731  0.1459  1.0441 -0.7019
18752THY    HA452387   4.415   6.073   5.684  1.1797 -1.5092 -2.4874
18752THY    CA552388   4.260   5.928   5.664  0.2829  0.1631  0.1526
18752THY    CM152389   4.200   5.995   5.546 -0.5897  0.4378  0.1137
18752THY    HM152390   4.148   5.927   5.477 -0.9956  1.7546 -0.9644
18752THY    HM252391   4.279   6.035   5.482 -1.5463 -0.8087  0.0815
18752THY    HM352392   4.138   6.077   5.585  3.7298  3.0489  2.5027
18752THY    CA652393   4.202   5.811   5.720  0.3754 -0.5634  0.5060
18752THY    HA652394   4.117   5.766   5.671  0.2522  1.5663 -1.7596
18753THY      O52395   5.280   8.537   5.390  0.2287 -0.0454 -0.0273
18753THY     HO52396   5.373   8.557   5.410  0.3348 -1.4133  1.0268
18753THY    CA152397   5.262   8.579   5.259  0.3017 -0.6443 -0.3116
18753THY    CA252398   5.144   8.549   5.184 -0.9086  0.1138  0.3271
18753THY    CP152399   5.041   8.457   5.251  0.4648  0.7170  0.0970
18753THY    HP152400   5.035   8.482   5.358  0.2037  0.4326  1.3046
18753THY    CP252401   5.073   8.310   5.218  0.2601 -0.5456 -0.5809
18753THY    HP252402   5.171   8.271   5.250 -0.3552 -0.7995 -2.4217
18753THY    HP352403   5.059   8.301   5.109  3.5530 -1.2119  0.8207
18753THY    HP452404   4.999   8.248   5.269  0.8267 -0.6527 -1.3610
18753THY    CP352405   4.891   8.482   5.214  0.6371 -0.0976 -0.2897
18753THY    HP552406   4.851   8.583   5.230  1.5188  0.4744 -0.0232
18753THY    HP652407   4.825   8.416   5.271 -0.5184  0.4313  1.2466
18753THY    HP752408   4.887   8.452   5.109  1.6303 -0.0699 -0.5405
18753THY    CA352409   5.136   8.614   5.054 -0.1243 -0.2020  0.3545
18753THY    HA352410   5.048   8.595   4.992  1.1275 -2.2017  0.8150
18753THY    CA452411   5.233   8.709   5.014  0.0175 -0.1909 -0.0096
18753THY    HA452412   5.208   8.759   4.921 -0.0620 -0.3841 -0.4046
18753THY    CA552413   5.340   8.744   5.093 -0.2815  0.0413 -0.0049
18753THY    CM152414   5.439   8.860   5.068 -0.0656  0.4297 -0.0109
18753THY    HM152415   5.526   8.827   5.010  0.2278  1.6589 -1.5489
18753THY    HM252416   5.466   8.916   5.159  1.5676  0.0101 -0.0811
18753THY    HM352417   5.380   8.926   5.004 -0.2340 -2.9419 -3.1380
18753THY    CA652418   5.354   8.672   5.213  0.1027  0.2441 -0.6372
18753THY    HA652419   5.433   8.707   5.279  1.2244 -1.7853  0.8070
18754THY      O52420   7.812   2.091   4.773  0.2195 -0.0788  0.4914
18754THY     HO52421   7.817   2.000   4.739 -0.3028 -0.0507  0.4501
18754THY    CA152422   7.870   2.075   4.899  0.3413  0.0730 -0.3932
18754THY    CA252423   7.894   2.182   4.987  0.5675  0.4260 -0.1125
18754THY    CP152424   7.836   2.325   4.960 -0.1222 -0.5086 -0.5429
18754THY    HP152425   7.842   2.352   4.854  3.0844 -0.2029  0.4764
18754THY    CP252426   7.924   2.445   4.994  0.4257  0.7124  0.3093
18754THY    HP252427   8.015   2.446   4.931 -0.7083 -0.9927  0.6367
18754THY    HP352428   7.950   2.458   5.100  0.8399  0.8209 -1.2554
18754THY    HP452429   7.870   2.539   4.977  0.3497 -0.8552  0.0146
18754THY    CP352430   7.704   2.354   5.024 -0.0613  0.7283 -0.0094
18754THY    HP552431   7.657   2.430   4.961  2.9166  0.5813  1.8535
18754THY    HP652432   7.725   2.404   5.119 -0.9935  1.2618 -0.6162
18754THY    HP752433   7.645   2.262   5.033 -1.4210  0.4369  0.8090
18754THY    CA352434   7.966   2.158   5.107  1.1343 -0.6982  0.0340
18754THY    HA352435   7.984   2.237   5.179  1.0488 -0.2102 -0.3818
18754THY    CA452436   8.002   2.023   5.142 -0.2162 -0.0652 -0.3695
18754THY    HA452437   8.064   2.005   5.229 -1.2190  0.6370 -0.4596
18754THY    CA552438   7.979   1.921   5.044 -0.0658 -0.3333 -0.0999
18754THY    CM152439   8.009   1.773   5.073  0.0737  0.1074 -0.6256
18754THY    HM152440   8.085   1.729   5.006 -1.5827 -0.3756 -2.9354
18754THY    HM252441   7.920   1.711   5.057 -1.5421  0.3297  1.5558
18754THY    HM352442   8.037   1.755   5.178 -0.0430  0.2651  0.1073
18754THY    CA652443   7.912   1.945   4.929  0.5154 -0.1938 -0.7164
18754THY    HA652444   7.892   1.868   4.855 -1.8507 -2.6024  1.9851
18755THY      O52445   1.712   8.965   6.578 -0.4051 -0.3911  0.4653
18755THY     HO52446   1.679   9.010   6.658 -1.5712 -0.5130 -0.1311
18755THY    CA152447   1.816   8.880   6.611  0.3138  0.9071  0.1490
18755THY    CA252448   1.857   8.790   6.512 -0.3518  0.0890 -0.4558
18755THY    CP152449   1.789   8.770   6.372 -0.8204 -0.1008  0.6853
18755THY    HP152450   1.712   8.846   6.355  0.6733 -2.0073  1.8766
18755THY    CP252451   1.723   8.639   6.354  0.2104 -0.4846 -0.5130
18755THY    HP252452   1.634   8.636   6.417  0.7433  0.2395 -1.4693
18755THY    HP352453   1.785   8.552   6.378 -0.9999 -2.4474 -2.0041
18755THY    HP452454   1.676   8.640   6.255  2.6810 -1.7444 -0.3278
18755THY    CP352455   1.896   8.784   6.260  0.5069 -0.7649  0.0513
18755THY    HP552456   1.964   8.698   6.253 -0.0662  1.7845 -0.7043
18755THY    HP652457   1.955   8.871   6.288 -2.1484 -0.2474  1.8044
18755THY    HP752458   1.850   8.804   6.163 -1.3242 -0.0927 -0.5768
18755THY    CA352459   1.967   8.713   6.552  0.6389  0.2191 -0.4182
18755THY    HA352460   2.004   8.645   6.477 -0.9047 -1.6959  0.7499
18755THY    CA452461   2.032   8.727   6.671  0.2197  0.2175  0.2593
18755THY    HA452462   2.123   8.672   6.693  0.9200  1.4492  1.8342
18755THY    CA552463   1.984   8.811   6.765 -0.0964  0.0880  0.6388
18755THY    CM152464   2.047   8.823   6.904 -0.5116  0.3653  0.7151
18755THY    HM152465   1.987   8.760   6.970 -0.1531  0.3472  0.3542
18755THY    HM252466   2.057   8.928   6.934  2.3090  0.9204  0.3497
18755THY    HM352467   2.142   8.769   6.905 -1.6601 -0.4207 -1.4062
18755THY    CA652468   1.871   8.887   6.735 -0.2928  0.5167 -0.4038
18755THY    HA652469   1.825   8.957   6.805  0.7780 -2.1844  3.3412
18756THY      O52470   3.380   4.880   2.922  0.9725  0.1585  0.7202
18756THY     HO52471   3.413   4.950   2.863  0.7389 -2.3566 -1.1461
18756THY    CA152472   3.448   4.875   3.037 -0.1354 -0.0570  0.5819
18756THY    CA252473   3.384   4.839   3.151  0.6678  1.1063  0.2518
18756THY    CP152474   3.232   4.797   3.149  1.0995 -0.2118 -0.1458
18756THY    HP152475   3.184   4.805   3.051  1.2701 -0.2449  0.5257
18756THY    CP252476   3.153   4.881   3.253  0.5565  1.1579  0.3171
18756THY    HP252477   3.180   4.868   3.359  1.5926  0.7955 -0.5941
18756THY    HP352478   3.047   4.864   3.235  0.8753 -0.2504 -0.2977
18756THY    HP452479   3.174   4.989   3.246  0.1527  0.7155  0.3658
18756THY    CP352480   3.216   4.650   3.184 -0.0980  0.4725  0.1659
18756THY    HP552481   3.244   4.624   3.286 -3.0526  0.9754 -1.5666
18756THY    HP652482   3.269   4.592   3.108  0.6602  2.0765 -1.2944
18756THY    HP752483   3.112   4.616   3.172  0.0118  1.4108 -0.5394
18756THY    CA352484   3.459   4.831   3.272 -0.2332  0.5020 -0.8324
18756THY    HA352485   3.407   4.791   3.358  0.3288  2.4336  2.2541
18756THY    CA452486   3.594   4.870   3.269  0.2557  0.2739 -0.0378
18756THY    HA452487   3.648   4.870   3.362 -0.3251  0.6296 -0.8353
18756THY    CA552488   3.657   4.907   3.153  0.6787  0.0763  0.5732
18756THY    CM152489   3.800   4.950   3.150 -0.1211 -0.2375  0.5150
18756THY    HM152490   3.811   5.053   3.115  0.3163 -1.4381  0.0863
18756THY    HM252491   3.855   4.875   3.091  0.7223  0.5705  0.4907
18756THY    HM352492   3.830   4.944   3.255  0.1217 -0.3073  0.4832
18756THY    CA652493   3.588   4.908   3.034 -0.2371  0.0556 -0.0739
18756THY    HA652494   3.641   4.928   2.941  1.0059  1.1669  2.1285
18757THY      O52495   5.115   0.685   4.269  0.1004 -0.3056  0.3280
18757THY     HO52496   5.107   0.593   4.236  1.5072  0.8064 -0.2279
18757THY    CA152497   5.254   0.694   4.279  0.7652  0.3471 -1.2822
18757THY    CA252498   5.309   0.773   4.385  0.5647 -0.0753  0.0788
18757THY    CP152499   5.213   0.853   4.482 -0.9032  0.0956 -0.1024
18757THY    HP152500   5.150   0.907   4.410  0.1214 -1.3352 -0.7543
18757THY    CP252501   5.278   0.967   4.558 -0.4341  0.7793 -0.3065
18757THY    HP252502   5.342   0.936   4.641  0.0324  0.5793  0.1164
18757THY    HP352503   5.209   1.049   4.582  0.7617 -2.2566  1.7545
18757THY    HP452504   5.343   1.018   4.487 -0.3671  1.6278  0.8334
18757THY    CP352505   5.145   0.759   4.579 -0.6421  0.4832  0.1815
18757THY    HP552506   5.082   0.686   4.527 -0.3566 -0.6959  0.7496
18757THY    HP652507   5.077   0.821   4.640 -1.2686 -1.5961  1.6542
18757THY    HP752508   5.219   0.709   4.641 -0.1435 -0.6124 -0.4708
18757THY    CA352509   5.448   0.775   4.389 -0.4781 -0.1142 -0.8050
18757THY    HA352510   5.499   0.837   4.463  0.7968 -2.7881  1.5515
18757THY    CA452511   5.521   0.698   4.304 -0.9763  0.5086 -0.1030
18757THY    HA452512   5.629   0.694   4.310 -0.8635 -0.7940  0.4742
18757THY    CA552513   5.466   0.620   4.212 -0.0406  0.5978  0.2741
18757THY    CM152514   5.560   0.526   4.131  0.1640 -0.1286  0.6600
18757THY    HM152515   5.521   0.517   4.029 -0.8150  0.2089  0.9559
18757THY    HM252516   5.558   0.421   4.163 -0.5386  0.0101  0.7058
18757THY    HM352517   5.664   0.559   4.129 -0.5267 -2.8806  3.0926
18757THY    CA652518   5.327   0.621   4.192 -0.5409  0.2902 -0.4099
18757THY    HA652519   5.281   0.573   4.107 -1.6464  0.2367  0.6836
18758THY      O52520   5.886   4.857   4.737 -0.2152 -0.4214 -0.2209
18758THY     HO52521   5.913   4.792   4.803 -0.4302 -1.8139 -1.7842
18758THY    CA152522   6.009   4.894   4.690  0.0373  0.8461  0.1770
18758THY    CA252523   6.034   5.023   4.644 -0.1610 -0.1409 -0.2079
18758THY    CP152524   5.929   5.136   4.658 -0.4193 -0.8535  0.6740
18758THY    HP152525   5.839   5.095   4.707 -0.1280  1.1114  2.2374
18758THY    CP252526   5.875   5.169   4.524  0.5718  0.6149 -0.1059
18758THY    HP252527   5.874   5.083   4.456 -2.4669 -0.9313  0.9985
18758THY    HP352528   5.939   5.237   4.466 -0.4442 -0.0396  0.3131
18758THY    HP452529   5.777   5.218   4.529  0.7653 -2.3580  0.7830
18758THY    CP352530   5.979   5.261   4.721  0.3462 -0.0084 -0.3082
18758THY    HP552531   6.081   5.290   4.696  0.4741 -0.5420 -1.1872
18758THY    HP652532   5.971   5.240   4.829 -0.5949 -0.3442 -1.8638
18758THY    HP752533   5.906   5.342   4.717 -1.4158 -0.5290 -1.8473
18758THY    CA352534   6.158   5.051   4.579  0.3116  0.0313  0.2390
18758THY    HA352535   6.176   5.150   4.539 -1.2957 -0.8639  0.2033
18758THY    CA452536   6.259   4.960   4.591 -0.1934 -0.7131 -0.0236
18758THY    HA452537   6.360   4.982   4.556  0.5520 -0.3309 -2.5397
18758THY    CA552538   6.240   4.835   4.636  0.0761 -0.0720 -0.2925
18758THY    CM152539   6.352   4.735   4.637  0.1458 -0.4655  0.4984
18758THY    HM152540   6.404   4.727   4.541  1.6565  0.2712  0.9718
18758THY    HM252541   6.321   4.636   4.673 -0.5650 -1.1449  0.4729
18758THY    HM352542   6.424   4.769   4.712  2.0805 -2.3014  0.6562
18758THY    CA652543   6.110   4.802   4.684  0.2369 -0.8487  0.0629
18758THY    HA652544   6.085   4.703   4.721 -1.2995 -0.3658  0.5987
18759THY      O52545   9.269   4.096   5.293 -0.2392 -0.0110  0.2846
18759THY     HO52546   9.272   4.004   5.324  0.1556 -1.3507 -0.1795
18759THY    CA152547   9.141   4.133   5.285 -0.0834 -0.7109  0.0748
18759THY    CA252548   9.095   4.255   5.229  0.0293  0.5140  0.0322
18759THY    CP152549   9.203   4.349   5.181  0.7500  0.3184  0.1073
18759THY    HP152550   9.298   4.299   5.157  1.2484 -1.3956  1.7634
18759THY    CP252551   9.237   4.452   5.288  0.1720  0.0422  0.9264
18759THY    HP252552   9.143   4.484   5.335 -0.0976  1.2027 -1.3863
18759THY    HP352553   9.292   4.535   5.243 -0.5275  2.0000  2.5542
18759THY    HP452554   9.299   4.404   5.365  2.3615 -1.9596  0.4009
18759THY    CP352555   9.162   4.425   5.057 -0.1333  0.3019  0.3588
18759THY    HP552556   9.087   4.504   5.071 -0.2583  0.3410  0.2347
18759THY    HP652557   9.103   4.357   4.995 -0.9107  1.5618 -0.1615
18759THY    HP752558   9.245   4.456   4.993 -0.4640  1.1133  3.2173
18759THY    CA352559   8.956   4.271   5.200  0.1674 -0.3838 -0.1048
18759THY    HA352560   8.923   4.367   5.162 -0.5099 -0.7827 -0.4819
18759THY    CA452561   8.870   4.165   5.229  0.4274 -0.0177 -0.2973
18759THY    HA452562   8.763   4.183   5.217  0.1041  2.3412 -0.1964
18759THY    CA552563   8.917   4.054   5.301 -0.3233 -0.4795 -0.2806
18759THY    CM152564   8.813   3.945   5.342  0.3239 -0.4015 -0.2369
18759THY    HM152565   8.870   3.880   5.409 -1.5167  0.6062 -0.8818
18759THY    HM252566   8.774   3.896   5.252 -0.6597 -0.7807  1.1925
18759THY    HM352567   8.731   3.981   5.404 -1.1997 -2.0825 -0.6775
18759THY    CA652568   9.051   4.033   5.315  0.6614 -0.5035 -0.4907
18759THY    HA652569   9.082   3.937   5.354  0.5962 -2.5492 -1.3985
18760THY      O52570   7.524   3.958   7.662 -0.2860  0.3929 -0.4424
18760THY     HO52571   7.584   4.032   7.643  0.5225  2.9222 -0.3348
18760THY    CA152572   7.552   3.941   7.794  0.3101 -0.1874  0.6567
18760THY    CA252573   7.469   3.878   7.892  0.3683 -0.1184 -1.2614
18760THY    CP152574   7.320   3.865   7.862  0.3434 -0.3378 -0.9826
18760THY    HP152575   7.292   3.892   7.759  0.0799  0.1256  0.5899
18760THY    CP252576   7.248   3.979   7.949  0.3185  0.4219 -0.9456
18760THY    HP252577   7.276   3.965   8.054 -0.6905  0.8228 -0.0585
18760THY    HP352578   7.141   3.985   7.927  0.4053  0.2802  0.4856
18760THY    HP452579   7.292   4.075   7.919  1.5799  0.8917 -1.3542
18760THY    CP352580   7.259   3.726   7.893  0.4778  0.0654  0.2772
18760THY    HP552581   7.301   3.647   7.829 -0.8976 -0.9782  0.3583
18760THY    HP652582   7.153   3.728   7.864  0.5953 -0.5545 -1.3974
18760THY    HP752583   7.268   3.695   7.998 -0.1575  0.0811  0.1230
18760THY    CA352584   7.521   3.851   8.021  0.0342 -0.0984 -0.3739
18760THY    HA352585   7.457   3.797   8.090 -0.8335 -2.0437 -1.9747
18760THY    CA452586   7.647   3.880   8.047  0.2399 -0.2806 -0.0827
18760THY    HA452587   7.687   3.864   8.147 -0.3314  0.1841  1.2670
18760THY    CA552588   7.732   3.944   7.959 -0.2659  0.6620 -0.2696
18760THY    CM152589   7.871   3.982   8.001 -0.0428  0.0820 -1.0056
18760THY    HM152590   7.903   4.067   7.940 -1.2776 -0.2513 -0.7675
18760THY    HM252591   7.936   3.895   7.982  0.1914 -0.0516 -0.8036
18760THY    HM352592   7.875   4.009   8.107 -0.8569 -0.0205 -0.4729
18760THY    CA652593   7.683   3.974   7.837 -0.6278  0.5426 -0.1524
18760THY    HA652594   7.749   4.032   7.772 -0.2734 -0.0501 -1.1961
18761THY      O52595   3.959   7.886   2.592  0.0145 -0.5058 -0.3738
18761THY     HO52596   3.915   7.905   2.676 -0.5701 -0.5096 -1.6376
18761THY    CA152597   4.004   7.757   2.583  0.0918  0.0559  0.0134
18761THY    CA252598   4.037   7.711   2.453 -0.8978  0.0796 -0.4872
18761THY    CP152599   4.021   7.802   2.327  0.1385 -1.2809  0.4402
18761THY    HP152600   3.954   7.887   2.344  0.8138  0.6197  0.6206
18761THY    CP252601   3.964   7.728   2.202 -0.3689  0.7142  0.0353
18761THY    HP252602   3.869   7.675   2.216 -0.8018  1.4396  0.9926
18761THY    HP352603   4.034   7.654   2.160 -0.8104 -0.1509  0.0967
18761THY    HP452604   3.946   7.802   2.123 -1.0595  0.9950  0.1741
18761THY    CP352605   4.159   7.857   2.294  0.0199  0.5196  0.7109
18761THY    HP552606   4.224   7.770   2.273 -0.8658 -2.0823  0.5642
18761THY    HP652607   4.211   7.917   2.369 -0.2180  0.0422  1.5265
18761THY    HP752608   4.159   7.915   2.201 -1.1101  0.0338 -0.0246
18761THY    CA352609   4.116   7.585   2.447 -0.1520  0.6984 -0.5859
18761THY    HA352610   4.143   7.545   2.349  1.3697 -0.7390  3.4681
18761THY    CA452611   4.154   7.521   2.568 -0.2595  0.6152 -0.2551
18761THY    HA452612   4.208   7.427   2.561  0.4235 -1.4441  0.2284
18761THY    CA552613   4.117   7.574   2.694  0.4915  0.6846  0.1988
18761THY    CM152614   4.165   7.498   2.805 -1.4458  0.2131  0.0905
18761THY    HM152615   4.223   7.411   2.772 -0.0525  0.2996  0.9637
18761THY    HM252616   4.082   7.448   2.857 -0.7791  0.7958 -0.4270
18761THY    HM352617   4.223   7.565   2.869  0.7192 -1.1782 -0.3367
18761THY    CA652618   4.035   7.686   2.699  0.1480  0.1826  0.2229
18761THY    HA652619   4.005   7.729   2.794  1.1166 -0.1343  1.6932
18762THY      O52620   5.085   2.179   5.837  0.2014 -0.0525  0.3249
18762THY     HO52621   5.115   2.167   5.929  0.8026 -0.3264 -0.2850
18762THY    CA152622   5.045   2.307   5.820 -0.0513 -0.7142 -0.2231
18762THY    CA252623   4.999   2.351   5.696  1.1591 -0.6006 -0.9471
18762THY    CP152624   4.987   2.256   5.575 -0.6851 -0.1462  0.1493
18762THY    HP152625   5.083   2.204   5.586  0.2542  1.1897  2.0286
18762THY    CP252626   4.975   2.325   5.437 -0.3772  0.2282 -0.4784
18762THY    HP252627   4.881   2.381   5.434  1.2518  1.3235  2.5353
18762THY    HP352628   4.971   2.241   5.366  0.6131 -1.4743  0.8585
18762THY    HP452629   5.066   2.383   5.417 -0.0086 -0.7449 -1.3642
18762THY    CP352630   4.858   2.156   5.582 -0.4201  0.3669  0.1161
18762THY    HP552631   4.765   2.215   5.576  0.4075 -0.5631  1.3644
18762THY    HP652632   4.864   2.090   5.670 -4.4734  1.0200  0.3371
18762THY    HP752633   4.865   2.085   5.499 -1.2198  0.2445  0.1634
18762THY    CA352634   4.947   2.482   5.689 -0.3932  1.2883 -0.2096
18762THY    HA352635   4.895   2.527   5.605  0.4356  0.3308 -0.9922
18762THY    CA452636   4.969   2.566   5.792 -0.2064 -0.0137 -0.0466
18762THY    HA452637   4.922   2.663   5.788  0.5252  0.8413  0.3663
18762THY    CA552638   5.038   2.529   5.909  0.3166  0.2739  0.2704
18762THY    CM152639   5.049   2.639   6.019 -0.5351 -0.3328  0.8424
18762THY    HM152640   4.951   2.687   6.035  0.2122  0.2158  2.2467
18762THY    HM252641   5.130   2.712   6.009  0.0239  1.8558  0.5981
18762THY    HM352642   5.082   2.596   6.115  1.2538 -0.4446  1.8913
18762THY    CA652643   5.075   2.392   5.930 -0.0355  0.1361 -0.4162
18762THY    HA652644   5.124   2.363   6.023  0.1499 -0.2718 -1.4582
18763THY      O52645   8.739   4.492   7.426 -0.1880  0.3619  0.3939
18763THY     HO52646   8.696   4.528   7.506  0.2717  0.6192  0.3839
18763THY    CA152647   8.847   4.570   7.387 -0.3409  0.7540 -0.2668
18763THY    CA252648   8.978   4.527   7.412  0.2641  0.7666  0.3730
18763THY    CP152649   9.003   4.400   7.497 -0.0197  0.1329  0.9793
18763THY    HP152650   8.916   4.381   7.563 -0.5201  0.0889  2.9305
18763THY    CP252651   9.125   4.405   7.590  0.1070  0.2655  0.3574
18763THY    HP252652   9.157   4.309   7.633 -0.0942 -1.6247 -0.6139
18763THY    HP352653   9.108   4.478   7.670  3.5023  0.2620  1.3382
18763THY    HP452654   9.213   4.454   7.546 -0.0939  0.0511  0.5254
18763THY    CP352655   9.008   4.278   7.401 -0.6063 -0.2182 -0.9694
18763THY    HP552656   9.096   4.280   7.336 -1.2148 -1.0413  0.5563
18763THY    HP652657   8.926   4.286   7.329 -0.3347 -0.6833 -2.2027
18763THY    HP752658   9.002   4.180   7.450 -0.7885  3.1803  0.5962
18763THY    CA352659   9.081   4.583   7.339 -0.0218  0.3712 -0.0677
18763THY    HA352660   9.180   4.541   7.348 -0.4898  1.2438 -1.0419
18763THY    CA452661   9.049   4.692   7.252  0.0266 -0.0219  0.0232
18763THY    HA452662   9.129   4.733   7.191  0.2226  1.1315  1.4283
18763THY    CA552663   8.919   4.748   7.245  0.2824 -0.0110  1.1594
18763THY    CM152664   8.890   4.868   7.164  0.3828 -0.0297  0.7712
18763THY    HM152665   8.926   4.848   7.063  2.5101  1.1343 -1.8399
18763THY    HM252666   8.942   4.952   7.212 -1.0439  0.9622  1.1224
18763THY    HM352667   8.782   4.886   7.157  0.4977 -3.2727  0.8237
18763THY    CA652668   8.816   4.692   7.320  0.7764 -0.3389 -0.6549
18763THY    HA652669   8.716   4.732   7.314 -0.0530  2.1029 -2.1053
18764THY      O52670   1.251   3.741   7.414 -0.0449 -0.4179 -0.1577
18764THY     HO52671   1.253   3.780   7.503  1.3600 -0.3546 -0.3460
18764THY    CA152672   1.335   3.815   7.343  0.4697 -0.1830  0.1193
18764THY    CA252673   1.341   3.812   7.201 -0.7427  0.4929  0.2772
18764THY    CP152674   1.269   3.699   7.132  0.5949 -0.2309 -0.1683
18764THY    HP152675   1.245   3.619   7.204 -4.1640  0.2246  1.3061
18764THY    CP252676   1.349   3.637   7.018 -0.1305  1.0748 -0.8251
18764THY    HP252677   1.302   3.562   6.953 -0.4255  1.0300 -0.6027
18764THY    HP352678   1.436   3.589   7.064  0.4935  1.0863  0.2759
18764THY    HP452679   1.380   3.713   6.945 -1.2074  0.0820 -1.3007
18764THY    CP352680   1.135   3.750   7.078 -0.5795 -0.4319  0.0211
18764THY    HP552681   1.073   3.664   7.051 -1.8551  1.0309  0.4403
18764THY    HP652682   1.158   3.816   6.993  0.2058  0.4002  0.8594
18764THY    HP752683   1.073   3.807   7.149 -2.1855 -0.9463 -1.0069
18764THY    CA352684   1.426   3.900   7.133  0.2259  0.3985  0.1052
18764THY    HA352685   1.418   3.902   7.025  1.3440  0.3149  0.8441
18764THY    CA452686   1.494   4.000   7.203  0.7823 -0.7789 -0.1027
18764THY    HA452687   1.551   4.076   7.150  2.1931 -0.1726 -0.6985
18764THY    CA552688   1.483   4.010   7.345  0.3497 -0.0220 -0.2723
18764THY    CM152689   1.550   4.120   7.420 -0.0087  0.4051  0.2849
18764THY    HM152690   1.589   4.202   7.359  1.1826 -1.6160 -1.6868
18764THY    HM252691   1.634   4.083   7.481 -1.0746  0.8221 -1.5511
18764THY    HM352692   1.474   4.156   7.491  0.7474  3.5529 -3.6390
18764THY    CA652693   1.402   3.916   7.410  0.3972 -0.2404  0.1996
18764THY    HA652694   1.403   3.924   7.519  1.7179 -0.1792 -0.4509
18765THY      O52695   1.643   2.589   5.478  0.0090  0.1303 -0.3157
18765THY     HO52696   1.621   2.627   5.392 -2.3148  0.9493  0.3401
18765THY    CA152697   1.763   2.514   5.460  0.2170  0.2594  0.1795
18765THY    CA252698   1.840   2.474   5.572 -0.0483  0.0494  0.0850
18765THY    CP152699   1.795   2.514   5.714 -0.5470 -0.2655 -0.1408
18765THY    HP152700   1.688   2.537   5.712 -0.3623 -0.4543  0.7280
18765THY    CP252701   1.874   2.629   5.773 -0.2218  0.3904  0.7802
18765THY    HP252702   1.862   2.714   5.705  2.8528 -0.9851  0.2388
18765THY    HP352703   1.977   2.591   5.782 -0.7227 -0.4020 -0.8249
18765THY    HP452704   1.831   2.644   5.873 -3.2387 -0.7436  0.3713
18765THY    CP352705   1.814   2.398   5.804  0.5162 -0.1727 -0.0541
18765THY    HP552706   1.763   2.314   5.756 -0.9449 -0.3101  0.8802
18765THY    HP652707   1.760   2.419   5.897  0.2943 -0.1757 -0.5819
18765THY    HP752708   1.919   2.376   5.828  0.5092  2.3313  2.1054
18765THY    CA352709   1.960   2.410   5.540  0.4332  0.5876  0.0118
18765THY    HA352710   2.035   2.376   5.611  2.3405 -1.0241  0.6012
18765THY    CA452711   1.997   2.370   5.411  0.2273  0.0945  0.1738
18765THY    HA452712   2.089   2.316   5.390  0.2503 -3.0217  1.2399
18765THY    CA552713   1.914   2.409   5.304  0.2022 -0.5773  0.0764
18765THY    CM152714   1.929   2.363   5.165 -0.0545  0.5953  0.5767
18765THY    HM152715   2.013   2.292   5.159 -0.2484  0.2027  0.3787
18765THY    HM252716   1.949   2.446   5.097 -0.8342 -0.8943 -0.4122
18765THY    HM352717   1.842   2.310   5.125 -0.1316  0.5917  0.7078
18765THY    CA652718   1.800   2.484   5.331 -0.1486 -0.3771  0.6988
18765THY    HA652719   1.739   2.500   5.243  1.0025 -1.2537  0.4186
18766THY      O52720   3.146   1.450   4.806  0.0239 -0.5131 -0.3719
18766THY     HO52721   3.228   1.410   4.840  0.6464 -1.0696  0.4025
18766THY    CA152722   3.063   1.465   4.906 -0.2332 -0.4608 -0.6671
18766THY    CA252723   2.930   1.483   4.887  0.7243  0.1427  0.0822
18766THY    CP152724   2.881   1.521   4.744  0.1497  0.6190 -0.2049
18766THY    HP152725   2.965   1.559   4.684 -2.0095 -3.6339 -1.4974
18766THY    CP252726   2.778   1.633   4.744 -0.0577 -0.1559 -0.7108
18766THY    HP252727   2.783   1.677   4.644  0.3240 -0.1523 -0.7435
18766THY    HP352728   2.800   1.709   4.820  0.4902 -0.2302 -0.7918
18766THY    HP452729   2.675   1.600   4.760  0.3874  1.8930 -1.2809
18766THY    CP352730   2.826   1.404   4.664 -0.2490 -0.2538  0.2189
18766THY    HP552731   2.739   1.372   4.721  0.0580  0.4970  0.7006
18766THY    HP652732   2.901   1.324   4.664 -0.7159 -0.5797 -0.2278
18766THY    HP752733   2.802   1.419   4.557  1.2989 -0.5506  0.7525
18766THY    CA352734   2.838   1.478   5.001 -0.3493  0.7770 -0.3057
18766THY    HA352735   2.731   1.485   4.985 -0.1359 -0.7282 -0.0541
18766THY    CA452736   2.893   1.447   5.126  0.7529  0.3667  0.3149
18766THY    HA452737   2.839   1.439   5.220  0.5058  0.2798  0.9513
18766THY    CA552738   3.033   1.440   5.139 -0.7262 -0.2828  0.3019
18766THY    CM152739   3.083   1.429   5.274  0.0536 -0.0421  0.1708
18766THY    HM152740   3.054   1.507   5.345 -0.0830  1.3396 -1.1108
18766THY    HM252741   3.192   1.433   5.278  0.0461  0.0780  0.2424
18766THY    HM352742   3.041   1.332   5.305  0.2254  0.9793  0.4131
18766THY    CA652743   3.118   1.452   5.026 -0.2875  0.2763  0.6760
18766THY    HA652744   3.226   1.453   5.024 -0.2910 -1.7582  0.8506
18767THY      O52745   1.939   7.392   2.506  0.1273  0.2531 -0.0875
18767THY     HO52746   1.906   7.456   2.571 -3.1822 -2.2537  1.0356
18767THY    CA152747   1.921   7.265   2.548 -0.0262  0.1301  0.5691
18767THY    CA252748   1.988   7.156   2.491  0.2653  0.0189  0.3252
18767THY    CP152749   2.097   7.179   2.377  0.8213 -0.6657  0.3878
18767THY    HP152750   2.061   7.261   2.314 -2.0460 -0.6888 -0.7472
18767THY    CP252751   2.111   7.059   2.287  0.5195 -0.4513 -0.2485
18767THY    HP252752   2.019   7.044   2.230 -0.8917  1.3812  1.1270
18767THY    HP352753   2.124   6.967   2.346 -1.0366  0.9438  0.3883
18767THY    HP452754   2.183   7.075   2.205 -0.3717 -1.4970 -1.3414
18767THY    CP352755   2.232   7.209   2.444 -0.2652  0.1355  0.0864
18767THY    HP552756   2.242   7.142   2.530 -1.7098  0.5518  0.3705
18767THY    HP652757   2.226   7.310   2.487 -2.6215 -0.1831  0.1480
18767THY    HP752758   2.317   7.211   2.375 -0.6916 -0.4344  2.7966
18767THY    CA352759   1.955   7.023   2.537 -0.2767  0.2761  0.1026
18767THY    HA352760   2.011   6.936   2.505  0.0997 -0.7817  0.7174
18767THY    CA452761   1.867   7.012   2.646 -0.3852 -0.1947 -0.5733
18767THY    HA452762   1.853   6.914   2.691  0.0580  1.8474  0.2694
18767THY    CA552763   1.812   7.123   2.705 -0.1022 -0.1858 -0.0500
18767THY    CM152764   1.752   7.118   2.844 -0.3027 -0.0353 -0.3970
18767THY    HM152765   1.772   7.208   2.904  2.3092 -1.9739  0.4499
18767THY    HM252766   1.779   7.028   2.900 -0.0515  1.1842  0.4185
18767THY    HM352767   1.643   7.123   2.839 -0.1941 -1.7703  1.9063
18767THY    CA652768   1.835   7.248   2.653  0.2414 -0.0086 -0.0504
18767THY    HA652769   1.804   7.337   2.708  0.5704 -0.5619  0.4069
18768THY      O52770   3.756   2.565   7.193  0.4308  0.1380 -0.2873
18768THY     HO52771   3.737   2.660   7.196 -1.1917  0.2960 -0.5871
18768THY    CA152772   3.727   2.519   7.319  0.0485  0.7120  0.3835
18768THY    CA252773   3.715   2.384   7.345 -0.6921 -1.0187  0.4076
18768THY    CP152774   3.739   2.279   7.239  0.2371 -0.0100  0.3011
18768THY    HP152775   3.769   2.325   7.145  0.6064 -0.2906 -0.4960
18768THY    CP252776   3.613   2.205   7.194  0.2035 -0.3134  0.2814
18768THY    HP252777   3.566   2.158   7.281 -1.0670 -1.2017 -0.1277
18768THY    HP352778   3.636   2.130   7.117  1.2515 -0.4178  0.6859
18768THY    HP452779   3.544   2.281   7.157 -0.0722 -0.8817 -0.2452
18768THY    CP352780   3.849   2.179   7.269 -0.5369 -0.1570  0.5131
18768THY    HP552781   3.949   2.223   7.278 -0.1854  0.8993 -0.4344
18768THY    HP652782   3.861   2.112   7.183 -0.6168  0.2706 -0.0661
18768THY    HP752783   3.837   2.114   7.357 -0.1288  1.7848  2.8952
18768THY    CA352784   3.673   2.343   7.477 -0.0405  0.0242  0.1108
18768THY    HA352785   3.655   2.237   7.497  0.6723  0.9305  0.1522
18768THY    CA452786   3.649   2.436   7.576 -0.1442  0.6633  0.3862
18768THY    HA452787   3.612   2.400   7.672  1.2466  0.1218 -2.7519
18768THY    CA552788   3.669   2.571   7.550 -0.2681 -0.1332  0.7118
18768THY    CM152789   3.645   2.674   7.654  0.2726 -0.0065  0.2488
18768THY    HM152790   3.737   2.718   7.694 -0.1233 -0.9172  1.9738
18768THY    HM252791   3.599   2.632   7.745  1.2911  1.4585  2.1578
18768THY    HM352792   3.580   2.757   7.624 -1.3910 -1.6451 -1.5429
18768THY    CA652793   3.705   2.612   7.420  0.5972  0.1093  0.7379
18768THY    HA652794   3.712   2.720   7.404  1.3681 -1.4086  0.4904
18769THY      O52795   2.833   0.836   2.442  0.3206  0.2839  0.6750
18769THY     HO52796   2.767   0.785   2.493  1.1175  0.6291 -0.0218
18769THY    CA152797   2.766   0.920   2.360 -0.0276 -0.4675  0.7376
18769THY    CA252798   2.829   1.024   2.296 -0.5765 -0.2024  0.4687
18769THY    CP152799   2.979   1.055   2.302 -0.0697  0.1181  0.4211
18769THY    HP152800   3.036   0.976   2.352  3.3984 -2.7650  0.8082
18769THY    CP252801   3.007   1.200   2.350  0.4570  0.2400  0.6649
18769THY    HP252802   3.112   1.221   2.372  0.5054 -1.8993  3.2961
18769THY    HP352803   2.955   1.217   2.446 -1.8898 -1.0349  1.1681
18769THY    HP452804   2.970   1.277   2.281  0.3168  0.8415  1.1441
18769THY    CP352805   3.038   1.034   2.165 -0.3865  0.7508  0.4266
18769THY    HP552806   2.999   1.102   2.089  0.7465 -0.2455  0.0064
18769THY    HP652807   3.017   0.930   2.135  2.5049  0.9214 -0.2967
18769THY    HP752808   3.147   1.044   2.166 -0.2384 -0.7490 -0.7393
18769THY    CA352809   2.752   1.103   2.209 -0.1339 -0.0727 -0.4523
18769THY    HA352810   2.794   1.181   2.146 -3.4468 -0.0183  1.5760
18769THY    CA452811   2.616   1.069   2.190  0.6453 -0.7230 -0.0865
18769THY    HA452812   2.551   1.120   2.119  1.3404 -2.7975 -1.9150
18769THY    CA552813   2.555   0.962   2.258  0.4348  0.1311 -0.1781
18769THY    CM152814   2.401   0.936   2.234  0.2050 -0.0176  0.5499
18769THY    HM152815   2.381   0.868   2.150  0.3511  0.6947 -0.4027
18769THY    HM252816   2.345   1.025   2.204  0.5956 -0.8747  0.5185
18769THY    HM352817   2.345   0.894   2.319  1.1065  0.2403 -0.1639
18769THY    CA652818   2.636   0.881   2.340  0.0943  0.4090 -0.2156
18769THY    HA652819   2.591   0.792   2.385 -1.7513  2.0377  1.4472
18770THY      O52820   7.381   3.005   5.216 -0.1314 -0.2801 -0.3163
18770THY     HO52821   7.385   3.102   5.205 -1.3424 -1.0443 -0.3275
18770THY    CA152822   7.477   2.956   5.130  0.4066 -0.4122  0.1186
18770THY    CA252823   7.459   2.820   5.085  0.3610 -0.2387 -0.2090
18770THY    CP152824   7.329   2.747   5.099  0.7004 -0.0311  0.7535
18770THY    HP152825   7.251   2.817   5.131  0.5349  0.2209  0.4510
18770THY    CP252826   7.353   2.626   5.199  0.0740 -0.2071 -0.3438
18770THY    HP252827   7.439   2.564   5.173  0.4540  3.0881 -1.3734
18770THY    HP352828   7.270   2.554   5.197  0.6777  1.3491 -1.1357
18770THY    HP452829   7.377   2.652   5.303  1.8239 -0.8040  0.5587
18770THY    CP352830   7.279   2.685   4.965  0.4430  0.3409  0.0193
18770THY    HP552831   7.354   2.625   4.912 -0.4372 -2.4234  1.2266
18770THY    HP652832   7.242   2.771   4.909 -1.1994  1.5011  0.1190
18770THY    HP752833   7.188   2.626   4.982 -1.2988 -4.2364  1.0358
18770THY    CA352834   7.568   2.763   5.015  0.0812 -0.1416  0.5916
18770THY    HA352835   7.566   2.663   4.974  0.0814  0.6659  0.2554
18770THY    CA452836   7.680   2.840   4.991 -0.5168 -0.1752 -0.7366
18770THY    HA452837   7.762   2.782   4.949  0.4198 -0.9732  1.1024
18770THY    CA552838   7.689   2.977   5.024  0.4451  0.2109  0.0123
18770THY    CM152839   7.813   3.051   4.991 -0.8389  0.1793 -0.6208
18770THY    HM152840   7.908   3.015   5.032 -0.7168 -1.1108 -1.8274
18770THY    HM252841   7.806   3.156   5.021 -0.7547 -0.9352 -0.2867
18770THY    HM352842   7.827   3.066   4.884  0.0509  0.1029 -1.9105
18770THY    CA652843   7.584   3.032   5.097  0.6550 -0.3215 -0.4290
18770THY    HA652844   7.591   3.136   5.125 -0.2931  0.0471 -0.4578
18771THY      O52845   3.735   8.815   7.455 -0.0903 -0.3806  0.0632
18771THY     HO52846   3.821   8.776   7.433 -0.4573 -0.4804 -0.7078
18771THY    CA152847   3.745   8.819   7.596 -0.0330 -0.0960 -0.1281
18771THY    CA252848   3.635   8.862   7.676  1.0773  0.3772  0.6447
18771THY    CP152849   3.497   8.900   7.612 -1.0374  0.1593 -0.7398
18771THY    HP152850   3.515   8.912   7.504 -1.1588  0.2217  0.0202
18771THY    CP252851   3.446   9.041   7.659 -0.3145  0.2787 -0.6361
18771THY    HP252852   3.520   9.121   7.649  0.5647 -1.5169 -1.6102
18771THY    HP352853   3.405   9.031   7.760  0.1830  0.6834  1.1120
18771THY    HP452854   3.363   9.068   7.592  0.7971  0.2533  3.2778
18771THY    CP352855   3.390   8.777   7.626 -0.3187 -0.5231 -0.4123
18771THY    HP552856   3.426   8.682   7.585 -2.5046 -1.0454 -1.0634
18771THY    HP652857   3.298   8.811   7.578 -0.2196 -0.9304 -0.7047
18771THY    HP752858   3.370   8.775   7.733 -0.2250 -0.4562  1.1511
18771THY    CA352859   3.648   8.864   7.814 -0.1280  0.5693  0.8927
18771THY    HA352860   3.568   8.898   7.879 -0.6068  0.4794 -0.0447
18771THY    CA452861   3.769   8.836   7.870  0.0990 -0.1501 -0.0768
18771THY    HA452862   3.782   8.849   7.977 -0.7965 -0.2076  1.5991
18771THY    CA552863   3.886   8.800   7.797 -0.1455  0.3651 -0.0394
18771THY    CM152864   4.013   8.766   7.871 -0.2454 -0.4971 -0.6820
18771THY    HM152865   4.003   8.661   7.901 -0.2442 -2.2576 -1.2214
18771THY    HM252866   4.034   8.827   7.960  0.1558 -2.4091  2.1753
18771THY    HM352867   4.095   8.782   7.800  0.5782  0.7413  0.9145
18771THY    CA652868   3.874   8.791   7.655 -0.3538 -0.6560 -0.3151
18771THY    HA652869   3.959   8.752   7.600  0.4378 -0.0253  0.4943
18772THY      O52870   5.536   4.978   2.959  0.5399  0.0950 -0.5137
18772THY     HO52871   5.489   5.062   2.971  0.7589  1.4550 -0.5589
18772THY    CA152872   5.508   4.942   2.833 -0.1958  0.2259 -0.0910
18772THY    CA252873   5.545   4.824   2.772 -0.5759  0.0535 -0.5123
18772THY    CP152874   5.634   4.722   2.849  0.3917 -0.1670 -0.1533
18772THY    HP152875   5.678   4.743   2.947 -0.5155 -0.2005  2.2116
18772THY    CP252876   5.764   4.708   2.769  0.0413  0.0634 -0.8759
18772THY    HP252877   5.833   4.640   2.820 -0.0924  2.2563  0.5263
18772THY    HP352878   5.809   4.807   2.766 -1.1006 -2.7193 -0.3520
18772THY    HP452879   5.732   4.682   2.667  3.5419 -0.8149 -2.2383
18772THY    CP352880   5.563   4.579   2.864 -0.1020  0.0928 -0.8848
18772THY    HP552881   5.463   4.592   2.907  0.6113  1.6178 -0.1773
18772THY    HP652882   5.606   4.507   2.935 -2.0696  1.4369 -0.8279
18772THY    HP752883   5.558   4.524   2.769 -0.7069 -0.5957  0.3292
18772THY    CA352884   5.514   4.798   2.636 -0.1326 -0.7372  0.1816
18772THY    HA352885   5.547   4.712   2.578  0.7340 -3.3834  2.1849
18772THY    CA452886   5.436   4.890   2.563  0.1191  0.1273 -0.2119
18772THY    HA452887   5.394   4.880   2.463  0.6113 -0.2142  0.9733
18772THY    CA552888   5.399   5.008   2.625 -0.2378 -0.6559 -0.0819
18772THY    CM152889   5.309   5.100   2.554  0.9037  0.0498 -0.4688
18772THY    HM152890   5.218   5.045   2.526 -0.0258 -1.2449  1.5961
18772THY    HM252891   5.351   5.135   2.459  1.7792  0.3859 -0.5798
18772THY    HM352892   5.284   5.190   2.612  2.6514 -0.2767  0.2580
18772THY    CA652893   5.439   5.039   2.759  0.4667  0.5996 -0.2296
18772THY    HA652894   5.391   5.122   2.809 -1.4757  0.8981 -1.4691
18773THY      O52895   1.479   5.734   2.428  0.1227  0.1961  0.0693
18773THY     HO52896   1.393   5.688   2.428 -0.2651  0.0368  0.7872
18773THY    CA152897   1.503   5.781   2.305 -0.4386 -0.3050 -0.6615
18773THY    CA252898   1.565   5.912   2.287 -0.3403 -0.2441  0.4480
18773THY    CP152899   1.616   5.990   2.406  0.7483 -0.9560 -0.1465
18773THY    HP152900   1.625   5.923   2.493 -2.4285 -0.5552 -0.1889
18773THY    CP252901   1.535   6.113   2.450  0.2505  0.0224 -0.5024
18773THY    HP252902   1.451   6.080   2.511  1.2111  0.7578 -1.6782
18773THY    HP352903   1.505   6.164   2.358 -0.5918  0.8678  0.5772
18773THY    HP452904   1.593   6.183   2.512 -1.9176  0.5418  0.9248
18773THY    CP352905   1.761   6.032   2.371 -0.1249  0.3461 -0.4265
18773THY    HP552906   1.762   6.122   2.309  1.3099 -1.4020 -1.5783
18773THY    HP652907   1.808   5.951   2.314 -0.9339  1.1744 -1.5121
18773THY    HP752908   1.823   6.052   2.459  0.2026 -0.0963  0.6104
18773THY    CA352909   1.577   5.961   2.159  0.1564 -0.0137  0.0920
18773THY    HA352910   1.611   6.063   2.144 -2.4527 -0.7969  0.9333
18773THY    CA452911   1.542   5.880   2.051  0.2602 -0.6021 -0.1980
18773THY    HA452912   1.554   5.926   1.953  4.3505  0.1339  0.7602
18773THY    CA552913   1.494   5.746   2.072  0.1982  0.4922 -0.3384
18773THY    CM152914   1.450   5.668   1.956  0.5268 -0.0946  0.0114
18773THY    HM152915   1.413   5.568   1.979 -2.1328 -2.3381  0.3462
18773THY    HM252916   1.532   5.668   1.884  2.7987  2.2818  2.7578
18773THY    HM352917   1.364   5.712   1.904  1.2018 -0.1341  1.3387
18773THY    CA652918   1.475   5.699   2.202 -0.5186  1.0960 -0.4048
18773THY    HA652919   1.442   5.597   2.220 -0.3991  0.3672 -0.5770
18774THY      O52920   6.204   3.344   6.879  0.6865 -0.3165  0.0475
18774THY     HO52921   6.224   3.300   6.795 -0.4489 -0.6117  0.0767
18774THY    CA152922   6.098   3.432   6.860  0.1945 -0.2142  0.1972
18774THY    CA252923   6.020   3.482   6.965  0.4037  0.0114 -0.2476
18774THY    CP152924   6.032   3.427   7.103  0.1203 -0.5030 -0.5801
18774THY    HP152925   6.139   3.406   7.113  0.0041 -0.0804 -0.9994
18774THY    CP252926   5.964   3.297   7.128 -0.1414  0.3378 -0.1806
18774THY    HP252927   5.856   3.294   7.107  0.1841 -1.5122 -0.4138
18774THY    HP352928   5.981   3.280   7.235 -0.8498  0.4236 -0.4141
18774THY    HP452929   6.018   3.214   7.082  0.4180 -0.3208  0.5348
18774THY    CP352930   6.011   3.536   7.214 -0.3383  0.8026 -0.0346
18774THY    HP552931   5.902   3.543   7.221 -0.3916  0.5340 -0.5372
18774THY    HP652932   6.057   3.628   7.175  1.1605  2.3533 -0.0720
18774THY    HP752933   6.051   3.501   7.310  2.4324 -0.3198 -0.2505
18774THY    CA352934   5.907   3.560   6.944  0.1046  0.3502  0.4597
18774THY    HA352935   5.839   3.603   7.017 -0.5857  0.0352 -0.0760
18774THY    CA452936   5.893   3.598   6.809  0.2737 -0.0568 -0.1135
18774THY    HA452937   5.810   3.660   6.777  0.6100 -0.1106  0.3149
18774THY    CA552938   5.974   3.560   6.703  0.1421 -0.4813 -0.4941
18774THY    CM152939   5.954   3.617   6.570 -0.3102 -0.3784  0.1257
18774THY    HM152940   5.960   3.727   6.566  0.2066  0.7699  0.1538
18774THY    HM252941   5.855   3.589   6.533  0.2484 -2.0418  0.2600
18774THY    HM352942   6.029   3.578   6.501 -0.3810  0.3984 -1.4834
18774THY    CA652943   6.075   3.471   6.730  0.3363  0.8132 -0.1630
18774THY    HA652944   6.153   3.443   6.660  2.0415  1.2890  2.8822
18775THY      O52945   7.167   8.428   7.600  0.0074 -0.2208 -0.1639
18775THY     HO52946   7.210   8.405   7.515  1.6544  0.4448  0.3604
18775THY    CA152947   7.241   8.534   7.631 -0.7950  0.2339 -0.1109
18775THY    CA252948   7.260   8.570   7.762 -0.1573  0.5730 -0.7979
18775THY    CP152949   7.226   8.479   7.879  0.7931  0.3543 -0.6419
18775THY    HP152950   7.169   8.396   7.835  2.5125 -1.3760 -0.9704
18775THY    CP252951   7.137   8.557   7.977 -0.0066 -0.1236 -0.1536
18775THY    HP252952   7.060   8.616   7.927  0.8168  0.1069  1.1609
18775THY    HP352953   7.202   8.623   8.035 -0.4403  0.2471 -0.0495
18775THY    HP452954   7.089   8.492   8.051 -3.1469 -1.6858  0.1867
18775THY    CP352955   7.348   8.425   7.950 -0.4887 -0.1701 -0.3177
18775THY    HP552956   7.405   8.505   7.998 -0.1522 -2.1599  0.6957
18775THY    HP652957   7.414   8.371   7.880  1.1230  0.3472  0.9209
18775THY    HP752958   7.330   8.345   8.023 -2.1080 -1.5580 -1.2904
18775THY    CA352959   7.337   8.685   7.788 -0.3195 -0.4159  0.3713
18775THY    HA352960   7.354   8.727   7.887 -1.1705  0.2581 -0.8111
18775THY    CA452961   7.396   8.755   7.679  0.2418  0.2103  0.1484
18775THY    HA452962   7.452   8.847   7.694 -0.6254 -2.5727  1.2067
18775THY    CA552963   7.379   8.719   7.548  0.3512  0.2722 -0.0270
18775THY    CM152964   7.443   8.800   7.440  0.2372 -0.1768 -0.2918
18775THY    HM152965   7.471   8.735   7.357  0.3673 -0.2543 -0.1381
18775THY    HM252966   7.531   8.850   7.483 -0.0426  0.7368 -0.5612
18775THY    HM352967   7.371   8.871   7.398 -0.8583  3.4136  0.9223
18775THY    CA652968   7.305   8.600   7.526 -0.8049 -0.3782  0.6087
18775THY    HA652969   7.283   8.569   7.424 -0.4684 -0.1268 -0.5075
18776THY      O52970   2.062   7.726   5.817  0.2454  0.4711  0.2805
18776THY     HO52971   2.027   7.805   5.861  2.1203  0.0321  1.4096
18776THY    CA152972   2.072   7.629   5.915 -0.0092  0.4601 -0.9700
18776THY    CA252973   2.111   7.497   5.890  0.6626 -0.2019 -0.1095
18776THY    CP152974   2.109   7.440   5.755  0.6177  0.2248  0.0789
18776THY    HP152975   2.080   7.521   5.686 -1.8330  1.8921  0.7614
18776THY    CP252976   1.995   7.340   5.746 -0.2754 -0.3345  0.0332
18776THY    HP252977   1.904   7.391   5.779 -0.1744  1.0819 -0.6415
18776THY    HP352978   2.026   7.264   5.819 -1.5005 -0.1626 -0.3290
18776THY    HP452979   1.984   7.279   5.656 -1.3785  1.8599 -3.2879
18776THY    CP352980   2.242   7.365   5.719  0.3870 -0.2162  0.3355
18776THY    HP552981   2.317   7.432   5.761  0.5649 -0.0268  0.0182
18776THY    HP652982   2.249   7.343   5.612 -0.7053 -0.2020 -0.2098
18776THY    HP752983   2.249   7.269   5.771 -0.5540 -1.9560 -0.7317
18776THY    CA352984   2.138   7.410   5.999 -0.6988 -0.6813  0.3663
18776THY    HA352985   2.158   7.304   5.988 -1.0215  0.9125  0.1215
18776THY    CA452986   2.127   7.455   6.128 -0.1675  0.0386  0.1194
18776THY    HA452987   2.148   7.382   6.205  1.0032 -0.3692  0.0018
18776THY    CA552988   2.079   7.592   6.153 -0.8248  0.0402  0.3677
18776THY    CM152989   2.076   7.640   6.298  0.2655  0.5120  0.7922
18776THY    HM152990   2.078   7.750   6.297 -1.9102 -2.7535  0.9525
18776THY    HM252991   2.162   7.601   6.354  0.3620 -1.2268 -1.7196
18776THY    HM352992   1.984   7.609   6.348  0.1286  1.0182  1.9724
18776THY    CA652993   2.047   7.676   6.049  0.2115  0.3937  0.3021
18776THY    HA652994   2.017   7.779   6.068  2.3007  0.4278  0.9672
18777THY      O52995   7.512   3.945   4.015  0.2610 -0.2085  0.1323
18777THY     HO52996   7.449   3.954   3.942 -2.2886  1.5959 -1.4437
18777THY    CA152997   7.620   4.016   3.981  0.2384  0.3543 -0.0678
18777THY    CA252998   7.728   4.039   4.069  0.3168 -0.2457  0.9476
18777THY    CP152999   7.741   3.970   4.199 -0.2006 -1.1954 -0.0427
18777THY    HP153000   7.670   3.893   4.232 -2.1006  0.5232  2.2723
18777THY    CP253001   7.716   4.069   4.316 -0.1081  0.0471 -0.1659
18777THY    HP253002   7.788   4.152   4.325  0.0926  2.0675 -0.5102
18777THY    HP353003   7.723   4.027   4.417  1.8504  0.2878  0.6181
18777THY    HP453004   7.615   4.106   4.296  0.5997 -0.7447  1.4467
18777THY    CP353005   7.884   3.909   4.233  0.1537  0.2394  0.1203
18777THY    HP553006   7.908   3.830   4.162 -0.9956 -0.3229  0.2555
18777THY    HP653007   7.878   3.869   4.335  0.0411 -0.0458 -0.6051
18777THY    HP753008   7.965   3.983   4.231 -0.3041  0.7184  0.6466
18777THY    CA353009   7.827   4.126   4.024 -0.0412  0.4607  0.2226
18777THY    HA353010   7.912   4.154   4.086  0.0512  0.4728 -0.0879
18777THY    CA453011   7.821   4.190   3.897 -0.2240 -0.4451  0.1102
18777THY    HA453012   7.899   4.257   3.861 -0.0326  0.5460  0.4309
18777THY    CA553013   7.720   4.157   3.815 -0.0671 -0.3880 -0.2211
18777THY    CM153014   7.718   4.210   3.673  0.2369 -0.4685  0.0948
18777THY    HM153015   7.761   4.311   3.670 -1.2185  1.2190  0.8194
18777THY    HM253016   7.614   4.221   3.641 -0.3610  0.5275 -2.2384
18777THY    HM353017   7.777   4.148   3.604  1.5115  0.1945  0.5215
18777THY    CA653018   7.617   4.075   3.852  0.2343 -0.4561 -0.8835
18777THY    HA653019   7.538   4.052   3.781  0.3752 -0.1542 -2.3789
18778THY      O53020   4.084   1.537   7.618  0.3135  0.1334 -0.8632
18778THY     HO53021   4.160   1.595   7.603  0.9150  1.9532 -1.1220
18778THY    CA153022   4.136   1.432   7.697 -0.4753  0.4492  0.6965
18778THY    CA253023   4.052   1.343   7.776  0.7693 -0.1500  0.1425
18778THY    CP153024   3.896   1.356   7.770  0.0074  0.5041  0.0938
18778THY    HP153025   3.865   1.454   7.729  0.2058  0.5676  0.1833
18778THY    CP253026   3.835   1.325   7.905 -0.1687 -0.0202 -1.1021
18778THY    HP253027   3.828   1.217   7.922 -0.3208 -0.6783 -1.1969
18778THY    HP353028   3.734   1.366   7.920 -0.0781 -2.0470  0.0309
18778THY    HP453029   3.897   1.373   7.982 -0.8697 -0.0470 -0.1213
18778THY    CP353030   3.829   1.269   7.666 -0.1696 -0.3080 -0.2302
18778THY    HP553031   3.824   1.165   7.701 -2.0437 -0.3160 -0.1696
18778THY    HP653032   3.890   1.276   7.575  0.6290  0.0647 -1.7748
18778THY    HP753033   3.729   1.306   7.641  0.1503 -1.3151 -0.0217
18778THY    CA353034   4.108   1.232   7.841 -0.6290 -0.2114  0.4608
18778THY    HA353035   4.042   1.159   7.886  1.0910  0.2872 -0.8427
18778THY    CA453036   4.249   1.224   7.841  0.2822  0.1309  0.4397
18778THY    HA453037   4.294   1.149   7.906 -0.0164 -0.0830  0.0675
18778THY    CA553038   4.327   1.315   7.772  0.6325  0.0055 -0.0406
18778THY    CM153039   4.475   1.313   7.787  0.4272  0.5183  0.5250
18778THY    HM153040   4.532   1.307   7.694 -0.8760 -0.2365 -0.5288
18778THY    HM253041   4.506   1.224   7.844  2.0335  0.5274  1.0490
18778THY    HM353042   4.514   1.399   7.843 -1.2751  2.8695 -0.1255
18778THY    CA653043   4.275   1.419   7.700  0.0936 -0.0859 -0.3829
18778THY    HA653044   4.343   1.484   7.646  1.5508  1.2238 -0.7547
18779THY      O53045   7.416   4.069   3.332  0.5895 -0.4096 -0.3496
18779THY     HO53046   7.489   4.133   3.336  0.2407  0.0647  0.0247
18779THY    CA153047   7.461   3.951   3.374  0.3825 -0.0434 -0.0490
18779THY    CA253048   7.421   3.834   3.310 -0.2185  0.7695 -0.5969
18779THY    CP153049   7.309   3.832   3.206 -0.1084 -1.3025 -0.1861
18779THY    HP153050   7.294   3.934   3.171  1.1514  1.7990  1.1898
18779THY    CP253051   7.174   3.799   3.277 -0.3423 -0.2344 -0.0343
18779THY    HP253052   7.189   3.701   3.324 -1.2320  0.4179  0.1276
18779THY    HP353053   7.102   3.792   3.194 -0.8111 -0.0328  1.9530
18779THY    HP453054   7.144   3.877   3.348  3.0078  0.2961  0.9324
18779THY    CP353055   7.336   3.748   3.085  0.5233 -0.6025  0.5598
18779THY    HP553056   7.442   3.720   3.077  0.7389  1.1236  0.7798
18779THY    HP653057   7.294   3.789   2.992 -3.9170  1.1804  0.5837
18779THY    HP753058   7.293   3.648   3.101  3.5080 -0.2921 -0.7720
18779THY    CA353059   7.481   3.705   3.345 -0.2796  0.4028 -0.1411
18779THY    HA353060   7.449   3.611   3.300 -0.3443 -0.4794  0.2987
18779THY    CA453061   7.579   3.705   3.442  0.0107  0.3336 -0.0554
18779THY    HA453062   7.628   3.616   3.481  0.9776 -0.3019  0.1817
18779THY    CA553063   7.621   3.820   3.508  0.1802 -0.5924 -0.4833
18779THY    CM153064   7.744   3.809   3.597 -0.1323  0.5439 -0.3094
18779THY    HM153065   7.798   3.904   3.590 -1.8413  1.1439  0.7537
18779THY    HM253066   7.807   3.723   3.572 -1.3390  4.0377 -2.3923
18779THY    HM353067   7.719   3.824   3.703 -0.8370  0.0278  3.0557
18779THY    CA653068   7.556   3.947   3.474  0.2396 -0.6691 -0.1059
18779THY    HA653069   7.608   4.037   3.505 -1.5427 -1.5843  1.2967
18780THY      O53070   5.920   7.750   6.513  0.1264 -0.1282 -0.2396
18780THY     HO53071   5.826   7.725   6.515  0.6439  0.8600 -2.2658
18780THY    CA153072   5.949   7.792   6.384  0.1973 -0.5022  0.5268
18780THY    CA253073   6.077   7.807   6.336  0.0735  0.1802 -0.5097
18780THY    CP153074   6.190   7.778   6.434  0.5007  0.3027 -0.0291
18780THY    HP153075   6.165   7.740   6.533 -0.3302  0.0607 -0.1170
18780THY    CP253076   6.257   7.921   6.457  0.0655 -0.1342  0.7945
18780THY    HP253077   6.295   7.967   6.366  1.4827  0.1740  0.3021
18780THY    HP353078   6.337   7.906   6.530 -1.8102  1.8581 -0.1788
18780THY    HP453079   6.188   7.985   6.513 -1.0593 -0.0002 -0.4844
18780THY    CP353080   6.290   7.671   6.381 -0.2730 -0.1929 -0.5339
18780THY    HP553081   6.372   7.665   6.454  0.7599 -1.2970 -0.2711
18780THY    HP653082   6.342   7.712   6.293  0.2915  1.5227  2.7636
18780THY    HP753083   6.251   7.570   6.366 -1.8408 -1.4178  0.2222
18780THY    CA353084   6.101   7.852   6.207  0.3940  0.2069  0.1616
18780THY    HA353085   6.201   7.863   6.167  0.0676 -0.7302 -0.1916
18780THY    CA453086   5.990   7.890   6.122 -0.0159 -0.8602  0.5810
18780THY    HA453087   6.004   7.922   6.019  1.7009 -1.0402 -0.6083
18780THY    CA553088   5.865   7.881   6.170 -0.1596 -0.6051  0.4008
18780THY    CM153089   5.747   7.914   6.077 -0.0856 -0.5177 -0.1420
18780THY    HM153090   5.753   8.017   6.042  4.0160 -0.2662 -0.1128
18780THY    HM253091   5.653   7.913   6.132 -0.7293 -1.4298  2.5950
18780THY    HM353092   5.726   7.845   5.994 -0.1576 -0.3097 -0.3732
18780THY    CA653093   5.845   7.830   6.302  0.5419 -0.0780  0.4690
18780THY    HA653094   5.744   7.821   6.340  0.8543  0.2630 -2.7839
18781THY      O53095   5.501   0.495   3.061  0.5836  0.2850  0.2763
18781THY     HO53096   5.409   0.462   3.063  0.2661 -0.7805  1.0278
18781THY    CA153097   5.560   0.413   2.970 -0.4516  0.0893 -0.4813
18781THY    CA253098   5.579   0.448   2.841 -0.1754  0.1619 -0.2806
18781THY    CP153099   5.524   0.581   2.797 -0.3722 -0.5754  0.1828
18781THY    HP153100   5.550   0.644   2.884 -1.6962  0.1652 -0.2638
18781THY    CP253101   5.376   0.568   2.785  0.5721 -0.2263  0.0059
18781THY    HP253102   5.324   0.662   2.764  0.3650 -0.1813 -0.0989
18781THY    HP353103   5.330   0.541   2.880  1.7611  0.4261  0.2097
18781THY    HP453104   5.358   0.495   2.705 -1.7344 -0.8613  1.1955
18781THY    CP353105   5.599   0.652   2.682  0.5957 -0.1169  0.8244
18781THY    HP553106   5.552   0.750   2.673 -0.0333 -0.2009  0.5222
18781THY    HP653107   5.573   0.593   2.592 -1.0390  0.4419  0.6251
18781THY    HP753108   5.708   0.651   2.694  0.5795  0.7271  3.2855
18781THY    CA353109   5.660   0.369   2.756  0.4788 -0.6080  0.0767
18781THY    HA353110   5.670   0.396   2.652 -0.5350 -0.6855  0.2237
18781THY    CA453111   5.725   0.257   2.814  0.1206 -1.0335  0.0006
18781THY    HA453112   5.785   0.191   2.753  1.3167  1.5763 -1.4703
18781THY    CA553113   5.711   0.232   2.949 -0.3578  0.3950  0.4624
18781THY    CM153114   5.766   0.114   3.005 -0.5327  0.1825  0.0594
18781THY    HM153115   5.756   0.119   3.114 -1.2557  0.0776  1.8569
18781THY    HM253116   5.872   0.106   2.977 -0.8573 -1.2344  0.3932
18781THY    HM353117   5.703   0.031   2.971 -4.4680  1.1200  2.3947
18781THY    CA653118   5.626   0.305   3.027  0.4089 -0.5291  0.9271
18781THY    HA653119   5.600   0.281   3.130  0.0865 -1.4022 -3.1620
18782THY      O53120   8.903   5.957   3.243 -0.7490  0.3878  0.3423
18782THY     HO53121   8.936   5.900   3.171 -2.1517  0.2294 -0.3059
18782THY    CA153122   8.792   5.894   3.288  0.3939 -0.9220 -0.4002
18782THY    CA253123   8.720   5.949   3.401 -0.5259  0.4521 -0.5529
18782THY    CP153124   8.766   6.067   3.482 -0.0000  0.2519 -0.2886
18782THY    HP153125   8.873   6.078   3.463  0.1565  1.4873  0.5489
18782THY    CP253126   8.746   6.060   3.636 -0.3524 -0.7316 -0.7209
18782THY    HP253127   8.806   6.136   3.688 -0.6808  1.0249 -1.6247
18782THY    HP353128   8.767   5.968   3.691 -0.7006  1.1073  0.2603
18782THY    HP453129   8.640   6.076   3.657 -0.2167 -0.3281 -0.3459
18782THY    CP353130   8.708   6.201   3.426 -0.1842 -0.3684  0.3886
18782THY    HP553131   8.599   6.195   3.418 -0.0663 -1.0380 -1.6224
18782THY    HP653132   8.749   6.219   3.326 -1.8936 -0.9896  1.0053
18782THY    HP753133   8.717   6.287   3.493 -1.2263  1.3033 -0.7299
18782THY    CA353134   8.604   5.882   3.435  0.2290 -0.7374  0.1621
18782THY    HA353135   8.556   5.907   3.529 -1.2219 -1.0014 -1.4569
18782THY    CA453136   8.559   5.767   3.364 -0.0565  0.0972  0.2121
18782THY    HA453137   8.458   5.732   3.386 -1.4927 -0.0567  3.8337
18782THY    CA553138   8.631   5.722   3.252  0.1258  0.5495  0.0665
18782THY    CM153139   8.588   5.600   3.172  0.0296 -0.3468  0.0089
18782THY    HM153140   8.638   5.508   3.207 -1.2772  2.4660  0.2595
18782THY    HM253141   8.585   5.623   3.065  0.9686 -0.1743  1.0639
18782THY    HM353142   8.483   5.589   3.200  0.3054  0.8771  0.3357
18782THY    CA653143   8.743   5.786   3.212 -0.3203 -0.4839 -0.0317
18782THY    HA653144   8.793   5.748   3.124 -1.2548 -0.6541 -0.9001
18783THY      O53145   9.276   4.923   4.633  0.9676 -0.2372  0.2262
18783THY     HO53146   9.338   4.917   4.708 -0.1728  0.7990  0.8347
18783THY    CA153147   9.313   5.032   4.559 -0.8721  0.4333  0.5396
18783THY    CA253148   9.288   5.040   4.419  0.1614 -0.1636 -0.4228
18783THY    CP153149   9.235   4.921   4.335  0.3274  0.0339 -0.0270
18783THY    HP153150   9.160   4.869   4.396 -1.1198  1.4468  3.3988
18783THY    CP253151   9.345   4.824   4.291 -0.5005  0.4212  0.3866
18783THY    HP253152   9.324   4.748   4.215  0.3673 -1.4252  1.9121
18783THY    HP353153   9.392   4.777   4.378 -1.9785  0.8590 -0.3497
18783THY    HP453154   9.435   4.871   4.251 -0.3992 -0.7077 -0.7344
18783THY    CP353155   9.152   4.982   4.213  0.1253 -0.2856  0.7786
18783THY    HP553156   9.068   5.049   4.237 -0.3359  0.4328 -0.0347
18783THY    HP653157   9.104   4.898   4.162  1.6987  1.9697 -1.6368
18783THY    HP753158   9.217   5.031   4.140  0.2879  0.4956  1.7636
18783THY    CA353159   9.341   5.155   4.353 -0.2810  0.0133 -0.5783
18783THY    HA353160   9.347   5.153   4.244  1.9648  0.0936 -1.5045
18783THY    CA453161   9.407   5.257   4.428 -0.3561  0.2645 -0.0342
18783THY    HA453162   9.458   5.334   4.372 -1.5371 -0.0638  0.5322
18783THY    CA553163   9.429   5.245   4.566 -0.1966 -0.2745 -0.3015
18783THY    CM153164   9.516   5.348   4.632 -0.2181  0.5026  0.5400
18783THY    HM153165   9.582   5.290   4.698  0.5266  1.6766  2.6134
18783THY    HM253166   9.460   5.424   4.688  0.1914  0.1684  1.0924
18783THY    HM353167   9.575   5.401   4.556  0.6071  1.1663  0.6010
18783THY    CA653168   9.380   5.133   4.634  0.1686  0.0311 -0.2692
18783THY    HA653169   9.377   5.120   4.741  0.2452  0.0130 -0.4341
18784THY      O53170   0.446   8.141   6.595 -0.1082 -0.0857 -0.0304
18784THY     HO53171   0.383   8.068   6.583 -0.8506  0.2710  0.5426
18784THY    CA153172   0.460   8.212   6.476  0.2493 -0.2772 -0.0826
18784THY    CA253173   0.512   8.340   6.481  0.6358  0.2525  0.6157
18784THY    CP153174   0.556   8.413   6.605 -0.1844 -0.7091 -0.1660
18784THY    HP153175   0.520   8.365   6.698  0.1712 -0.9105 -0.8431
18784THY    CP253176   0.508   8.562   6.624  0.5582  0.0773  0.3723
18784THY    HP253177   0.474   8.582   6.727  3.1558  1.0266  0.3716
18784THY    HP353178   0.420   8.584   6.563  1.0759 -0.8804 -0.1473
18784THY    HP453179   0.587   8.635   6.603  0.6048 -4.2100 -0.6606
18784THY    CP353180   0.706   8.403   6.615 -0.0806 -0.6997 -0.2902
18784THY    HP553181   0.756   8.470   6.544 -0.2860 -0.7948 -0.2384
18784THY    HP653182   0.725   8.297   6.595 -2.3168 -1.5468 -0.5779
18784THY    HP753183   0.726   8.424   6.721  0.1477 -0.1884 -2.8372
18784THY    CA353184   0.520   8.405   6.356 -0.4500  0.2380 -0.4768
18784THY    HA353185   0.565   8.504   6.346 -2.9549  2.1092  0.9697
18784THY    CA453186   0.485   8.336   6.238 -0.2887  0.0227  0.5657
18784THY    HA453187   0.504   8.385   6.143 -1.3862 -0.2877  0.4092
18784THY    CA553188   0.428   8.207   6.242 -0.0264  0.0186 -0.1290
18784THY    CM153189   0.369   8.143   6.123  0.2103  0.2570 -0.2693
18784THY    HM153190   0.352   8.035   6.132  0.1582  0.5531 -0.2362
18784THY    HM253191   0.432   8.150   6.034 -0.7599 -0.4315 -0.0761
18784THY    HM353192   0.268   8.177   6.099  0.5477 -0.2995  0.3708
18784THY    CA653193   0.420   8.145   6.365 -0.1401 -0.0304  0.9611
18784THY    HA653194   0.378   8.045   6.376 -0.7380 -1.3167  1.0622
18785THY      O53195   2.120   5.024   4.491  0.1026  0.0306 -0.6942
18785THY     HO53196   2.032   5.048   4.527 -0.1498 -0.9874 -0.0014
18785THY    CA153197   2.196   4.983   4.600  0.4075  0.3747  0.3910
18785THY    CA253198   2.337   4.955   4.591  0.2483  0.1069  0.1869
18785THY    CP153199   2.413   4.982   4.469 -0.9938 -0.5141 -0.5099
18785THY    HP153200   2.352   4.949   4.384 -0.1382 -1.5179  0.4237
18785THY    CP253201   2.540   4.894   4.452 -0.3618 -0.4918 -0.0295
18785THY    HP253202   2.522   4.787   4.462 -1.9364 -2.2693  0.0096
18785THY    HP353203   2.619   4.936   4.515 -1.8381 -1.0062  3.9633
18785THY    HP453204   2.567   4.907   4.347 -0.3150 -0.5147 -0.3155
18785THY    CP353205   2.452   5.138   4.454  0.0702 -0.0855 -0.0453
18785THY    HP553206   2.489   5.162   4.354 -0.6293 -0.8553 -1.9613
18785THY    HP653207   2.528   5.161   4.529  1.2656 -1.1331 -0.4863
18785THY    HP753208   2.365   5.202   4.473  0.3034  0.4393  0.1115
18785THY    CA353209   2.392   4.910   4.716 -0.5355  0.1126 -0.1398
18785THY    HA353210   2.498   4.885   4.720 -0.6373  0.4065 -0.5265
18785THY    CA453211   2.315   4.891   4.836  0.2701 -0.1077 -0.5361
18785THY    HA453212   2.362   4.856   4.928 -0.5930  0.7336  0.4449
18785THY    CA553213   2.182   4.944   4.834 -0.5013  0.3528  0.2939
18785THY    CM153214   2.093   4.933   4.961 -0.4725  0.0260  0.2423
18785THY    HM153215   2.010   4.869   4.929 -0.5695 -1.7459  1.1893
18785THY    HM253216   2.063   5.035   4.989  0.9708  0.3973  0.5877
18785THY    HM353217   2.152   4.889   5.041 -0.4197 -0.2997 -0.2834
18785THY    CA653218   2.128   4.985   4.719  0.2771  0.2917  0.5565
18785THY    HA653219   2.025   5.016   4.726 -0.0408 -0.7204 -0.2430
18786THY      O53220   3.631   5.643   6.227  0.4217 -0.3706 -0.0852
18786THY     HO53221   3.678   5.714   6.273  0.9197  1.3129 -1.4364
18786THY    CA153222   3.729   5.547   6.203 -0.4678 -0.6781  0.0807
18786THY    CA253223   3.691   5.411   6.174  0.7915 -0.4053  0.2060
18786THY    CP153224   3.540   5.381   6.151  0.1680 -0.5709 -0.2181
18786THY    HP153225   3.482   5.432   6.229  0.6518  0.7619 -1.6416
18786THY    CP253226   3.500   5.234   6.153  0.1041  0.6304  0.1335
18786THY    HP253227   3.510   5.192   6.052 -1.8386  1.4931 -2.7202
18786THY    HP353228   3.394   5.225   6.179  0.7014  3.8769  1.3518
18786THY    HP453229   3.544   5.156   6.216 -0.8311 -1.1103 -1.8889
18786THY    CP353230   3.501   5.433   6.016  0.5270 -0.1367 -0.3713
18786THY    HP553231   3.409   5.383   5.985  0.9984  1.0476 -2.0855
18786THY    HP653232   3.578   5.398   5.947  0.0933 -1.1629  0.6631
18786THY    HP753233   3.495   5.542   6.008 -0.4365 -0.5118 -0.4505
18786THY    CA353234   3.789   5.314   6.155 -0.8009 -0.6480  0.3078
18786THY    HA353235   3.768   5.214   6.117  2.6183 -0.8824 -0.4259
18786THY    CA453236   3.924   5.348   6.160 -0.6329 -0.1149 -0.2393
18786THY    HA453237   4.003   5.275   6.146 -0.8194  0.6443 -0.5931
18786THY    CA553238   3.958   5.477   6.194  0.1340 -0.4681 -1.0716
18786THY    CM153239   4.100   5.525   6.199  1.0256  0.2304  0.3471
18786THY    HM153240   4.129   5.585   6.112 -2.1601 -0.2446  1.3857
18786THY    HM253241   4.160   5.433   6.197  0.3034 -1.3978 -0.1274
18786THY    HM353242   4.139   5.589   6.279  0.9643 -0.6946  1.5819
18786THY    CA653243   3.864   5.582   6.214 -0.5948 -0.1683  0.3358
18786THY    HA653244   3.896   5.686   6.219 -0.3679 -1.2574  0.3272
18787THY      O53245   5.973   7.813   6.804 -0.0495  0.2014  0.4418
18787THY     HO53246   5.940   7.821   6.712 -1.3435  0.6921  1.1898
18787THY    CA153247   6.078   7.901   6.816  1.4491 -0.1590 -0.0694
18787THY    CA253248   6.206   7.864   6.827 -0.2169 -0.0488 -0.3035
18787THY    CP153249   6.238   7.717   6.854  0.1366  0.2651 -0.5644
18787THY    HP153250   6.166   7.659   6.796 -1.5619 -0.6053  2.2053
18787THY    CP253251   6.223   7.686   7.009 -0.0221  0.4248 -0.6043
18787THY    HP253252   6.126   7.716   7.048 -0.2782 -1.7993  1.9157
18787THY    HP353253   6.302   7.746   7.056  0.1198 -0.1982 -0.2948
18787THY    HP453254   6.226   7.577   7.019  1.6026 -2.5665 -0.9576
18787THY    CP353255   6.379   7.681   6.807  0.1341  0.7454 -0.4615
18787THY    HP553256   6.466   7.736   6.844 -1.1687  3.1894  0.0689
18787THY    HP653257   6.385   7.702   6.699  0.5020  0.4936 -1.7958
18787THY    HP753258   6.401   7.576   6.829  0.6475  0.5882 -0.3908
18787THY    CA353259   6.307   7.960   6.812  0.0267 -0.0490  0.3178
18787THY    HA353260   6.414   7.939   6.807  0.2005 -1.2304  1.3439
18787THY    CA453261   6.266   8.094   6.783 -0.5361  0.3000  0.0214
18787THY    HA453262   6.337   8.175   6.794  1.7351 -2.4505 -1.4453
18787THY    CA553263   6.127   8.129   6.788 -0.0716  0.1554 -0.1711
18787THY    CM153264   6.077   8.269   6.779 -0.4736  0.2224  0.6695
18787THY    HM153265   5.971   8.284   6.803 -0.4546  0.6259  0.1879
18787THY    HM253266   6.097   8.294   6.674  1.0074  0.2528 -0.2609
18787THY    HM353267   6.138   8.342   6.833 -1.1960  0.3199  1.2030
18787THY    CA653268   6.035   8.032   6.813 -0.0552 -0.1384 -0.3876
18787THY    HA653269   5.930   8.057   6.810 -0.0392 -1.7090 -0.3614
18788THY      O53270   5.552   5.521   3.839  0.1961 -0.1331  0.1847
18788THY     HO53271   5.504   5.586   3.893 -2.0673 -1.5176 -0.2132
18788THY    CA153272   5.582   5.421   3.923  0.5809  0.4736 -0.6042
18788THY    CA253273   5.695   5.335   3.898  0.3305  0.4210 -0.8299
18788THY    CP153274   5.772   5.331   3.768  0.6543  0.5149 -0.0436
18788THY    HP153275   5.758   5.417   3.702 -0.4068  0.6374 -0.1095
18788THY    CP253276   5.728   5.209   3.677 -0.1404  0.0978 -0.2500
18788THY    HP253277   5.774   5.212   3.577 -0.7270 -0.1857 -0.5388
18788THY    HP353278   5.620   5.195   3.662  0.0268 -1.9368  0.2981
18788THY    HP453279   5.765   5.118   3.725 -1.5612  0.7163 -0.5285
18788THY    CP353280   5.925   5.318   3.787  0.2342  0.4945  0.1190
18788THY    HP553281   5.956   5.398   3.855 -1.6480  3.0998 -1.2398
18788THY    HP653282   5.965   5.335   3.686 -1.6440  0.0704  2.8324
18788THY    HP753283   5.954   5.217   3.818 -0.2338 -0.3627 -0.2875
18788THY    CA353284   5.723   5.242   4.001 -0.7004  0.0190  0.1994
18788THY    HA353285   5.805   5.172   3.985 -0.7650 -0.5155  0.2471
18788THY    CA453286   5.657   5.237   4.126 -0.8629  0.4886 -0.1368
18788THY    HA453287   5.696   5.173   4.204 -0.9923 -0.3414 -1.2577
18788THY    CA553288   5.564   5.339   4.152 -0.1679  0.6838  0.1217
18788THY    CM153289   5.497   5.331   4.292 -0.1589  0.6719  0.0698
18788THY    HM153290   5.433   5.417   4.314  0.4596 -0.1340  0.7568
18788THY    HM253291   5.583   5.318   4.358  1.3001 -0.9455  1.0647
18788THY    HM353292   5.430   5.244   4.297  1.3499  4.4057 -1.0659
18788THY    CA653293   5.529   5.428   4.051 -0.3111 -0.0082  0.0528
18788THY    HA653294   5.452   5.504   4.062 -0.5188 -2.7814  0.3410
18789THY      O53295   8.323   1.765   7.095 -0.5174  0.0382 -0.2205
18789THY     HO53296   8.364   1.681   7.123  0.1438 -1.4179 -0.4218
18789THY    CA153297   8.266   1.746   6.974 -0.2959 -0.0424 -0.3624
18789THY    CA253298   8.194   1.847   6.908  0.5479  0.5432  0.4160
18789THY    CP153299   8.176   1.985   6.966  0.1069 -0.0204  0.5639
18789THY    HP153300   8.176   1.973   7.075 -2.6701  0.0091  0.1466
18789THY    CP253301   8.034   2.046   6.943 -0.2598 -0.0338 -0.1796
18789THY    HP253302   7.957   1.970   6.957 -0.6017 -0.3543  0.1065
18789THY    HP353303   8.022   2.098   6.847  0.4114 -0.5008 -0.8671
18789THY    HP453304   8.020   2.112   7.029 -1.3350  0.7323 -1.3666
18789THY    CP353305   8.293   2.079   6.937 -0.4991 -0.4097  1.1183
18789THY    HP553306   8.271   2.169   6.878  0.4149 -1.2487  0.8040
18789THY    HP653307   8.368   2.027   6.878 -0.6356 -0.9054  1.4764
18789THY    HP753308   8.349   2.106   7.028 -2.0777  0.7627  0.6031
18789THY    CA353309   8.134   1.820   6.780  0.1733 -0.1064  0.7111
18789THY    HA353310   8.069   1.888   6.726 -1.2715 -0.2002 -0.6888
18789THY    CA453311   8.138   1.689   6.736  0.1716  0.4165  0.2817
18789THY    HA453312   8.082   1.659   6.648  0.5522  0.2133  0.1535
18789THY    CA553313   8.209   1.588   6.805  0.2926 -0.8965  0.3457
18789THY    CM153314   8.209   1.441   6.761  0.1415 -0.1801  0.0204
18789THY    HM153315   8.238   1.438   6.656  2.6583  0.4694 -0.2684
18789THY    HM253316   8.105   1.408   6.776  0.1673  3.5821  1.1467
18789THY    HM353317   8.270   1.370   6.818  0.0774  2.3643  1.8838
18789THY    CA653318   8.275   1.618   6.923  0.2266 -0.5098 -0.0478
18789THY    HA653319   8.323   1.532   6.969  2.3005  1.9527  2.2760
18790THY      O53320   3.473   1.997   3.819 -0.0349  0.0883  0.1711
18790THY     HO53321   3.493   2.089   3.843 -2.5844  1.1303  0.5480
18790THY    CA153322   3.338   1.996   3.802 -0.2213 -0.1121 -0.5160
18790THY    CA253323   3.254   1.909   3.866  0.4075 -0.3204  0.4362
18790THY    CP153324   3.310   1.814   3.973 -0.2818  0.1836 -0.6798
18790THY    HP153325   3.417   1.804   3.953  0.0730 -0.4883  3.0357
18790THY    CP253326   3.234   1.683   3.990  0.2808 -0.4088 -0.0402
18790THY    HP253327   3.247   1.623   3.900 -1.5630 -1.1466  0.5780
18790THY    HP353328   3.125   1.693   3.999  0.3116  2.2397 -1.3695
18790THY    HP453329   3.270   1.623   4.074 -0.9465 -1.3471 -2.1842
18790THY    CP353330   3.294   1.892   4.101 -0.3169  0.1965 -0.3938
18790THY    HP553331   3.316   1.834   4.191 -0.5844  0.9614  0.6513
18790THY    HP653332   3.189   1.918   4.122  0.0281  0.0094  1.2806
18790THY    HP753333   3.354   1.983   4.108 -1.7440 -3.6119  1.0292
18790THY    CA353334   3.116   1.914   3.850 -0.0975 -0.3334 -0.9006
18790THY    HA353335   3.043   1.870   3.917 -0.4034  0.7877  1.2007
18790THY    CA453336   3.063   2.013   3.760 -0.0889  0.9088  0.5757
18790THY    HA453337   2.956   2.025   3.743 -0.1871 -0.0807 -1.3785
18790THY    CA553338   3.153   2.099   3.689 -0.0221 -0.4435  0.2061
18790THY    CM153339   3.107   2.205   3.603 -0.5547  0.8487  0.3836
18790THY    HM153340   3.121   2.300   3.656 -1.0671  1.1985  0.2684
18790THY    HM253341   3.002   2.196   3.574  0.0702 -0.9710 -2.2043
18790THY    HM353342   3.177   2.226   3.521 -0.8388  1.2861  3.4590
18790THY    CA653343   3.284   2.088   3.712 -0.5684  0.5548  0.4006
18790THY    HA653344   3.350   2.168   3.680  1.3174  2.0799 -0.4496
18791THY      O53345   3.755   4.084   7.886  0.6552 -0.5929  0.6086
18791THY     HO53346   3.825   4.050   7.944 -0.5051 -0.9135 -2.6387
18791THY    CA153347   3.753   4.214   7.887  0.0484  0.4416 -0.1672
18791THY    CA253348   3.658   4.287   7.808 -0.8278 -0.0145 -0.2733
18791THY    CP153349   3.552   4.214   7.718  0.0234  0.0785 -0.0221
18791THY    HP153350   3.582   4.114   7.684 -0.5338 -0.9373  0.1400
18791THY    CP253351   3.529   4.281   7.587 -0.7038  0.5814 -0.4367
18791THY    HP253352   3.457   4.363   7.595 -1.3172 -2.2247 -0.6173
18791THY    HP353353   3.471   4.219   7.518 -0.4691  0.1787 -0.2140
18791THY    HP453354   3.616   4.319   7.532 -1.7838 -0.7582  0.1707
18791THY    CP353355   3.423   4.177   7.784 -0.2332  0.0096  0.6641
18791THY    HP553356   3.450   4.120   7.873 -1.0333  1.2995  2.2153
18791THY    HP653357   3.360   4.115   7.719 -0.8634 -0.1287  1.4243
18791THY    HP753358   3.375   4.270   7.816 -0.5232 -0.1839  0.5817
18791THY    CA353359   3.683   4.429   7.801  0.4568 -0.0179  0.2877
18791THY    HA353360   3.616   4.493   7.745  0.2790  0.0114  0.1305
18791THY    CA453361   3.791   4.484   7.867  0.0465  0.5239 -0.1440
18791THY    HA453362   3.812   4.590   7.866 -0.1923  0.8367 -0.0909
18791THY    CA553363   3.881   4.410   7.949 -0.3609 -0.2867 -0.4218
18791THY    CM153364   3.991   4.480   8.031  0.3992  0.1850  0.0474
18791THY    HM153365   3.973   4.469   8.139 -0.1141 -0.0355 -1.4643
18791THY    HM253366   4.015   4.587   8.018  1.4656  1.0700 -0.0600
18791THY    HM353367   4.080   4.417   8.030  0.6653 -1.1693  0.4205
18791THY    CA653368   3.857   4.278   7.966  0.2421  0.4235  0.2670
18791THY    HA653369   3.929   4.228   8.029  0.8207 -0.0391  0.5059
18792THY      O53370   2.075   7.147   7.101 -0.1911  0.0286  0.1323
18792THY     HO53371   2.079   7.155   7.005  0.8943  0.1861  2.4939
18792THY    CA153372   2.033   7.265   7.154  0.2883  0.0985 -0.3694
18792THY    CA253373   1.982   7.272   7.289  0.5446 -0.5474 -1.0925
18792THY    CP153374   1.980   7.155   7.386  0.7203  0.6735 -0.0019
18792THY    HP153375   2.028   7.069   7.339  0.0865 -1.2479  0.6346
18792THY    CP253376   1.834   7.119   7.412  0.1496  0.0369 -0.3595
18792THY    HP253377   1.780   7.092   7.320 -0.1102  0.6393 -1.9724
18792THY    HP353378   1.779   7.209   7.444 -2.3531 -0.5719 -1.5787
18792THY    HP453379   1.831   7.036   7.482  0.6055  0.8245  0.2732
18792THY    CP353380   2.035   7.188   7.529 -0.0183  0.5981 -0.0681
18792THY    HP553381   2.034   7.098   7.591 -0.5631 -0.3103 -0.6938
18792THY    HP653382   1.983   7.269   7.582  0.8473  0.9040  0.3053
18792THY    HP753383   2.136   7.233   7.530 -0.3621  1.1975  0.7289
18792THY    CA353384   1.930   7.398   7.329 -0.0487  0.2735 -0.4660
18792THY    HA353385   1.887   7.414   7.427 -0.0441  0.2977 -0.5993
18792THY    CA453386   1.942   7.512   7.234  0.0050  0.0658  0.1133
18792THY    HA453387   1.904   7.609   7.266 -0.6059  0.9014 -0.3917
18792THY    CA553388   2.001   7.501   7.111  0.3694  0.1253  0.0326
18792THY    CM153389   2.002   7.621   7.023 -0.2626  0.3401 -0.1932
18792THY    HM153390   1.901   7.662   7.010  0.0281  1.5330  0.9421
18792THY    HM253391   2.057   7.606   6.929  0.3476  0.9445 -2.0194
18792THY    HM353392   2.050   7.708   7.069  1.5651 -1.8295  0.0271
18792THY    CA653393   2.036   7.375   7.066  0.5979  0.6598  0.3275
18792THY    HA653394   2.066   7.364   6.962  0.3215  0.6213 -0.0897
18793THY      O53395   4.855   8.165   7.516  0.0308 -0.6555 -0.2026
18793THY     HO53396   4.799   8.239   7.487  1.7030  1.9695  2.3042
18793THY    CA153397   4.786   8.050   7.484  0.2434  0.4423 -0.3209
18793THY    CA253398   4.861   7.928   7.479 -0.5257 -0.7480 -0.1795
18793THY    CP153399   5.001   7.919   7.540 -0.1594 -0.0240  0.5595
18793THY    HP153400   5.022   8.022   7.570 -1.5245  0.5546  0.6800
18793THY    CP253401   5.093   7.894   7.419  0.2550 -0.2355  0.7138
18793THY    HP253402   5.078   7.980   7.353  2.5995 -0.3882  1.0481
18793THY    HP353403   5.053   7.806   7.367 -1.0217  0.9455  0.5582
18793THY    HP453404   5.196   7.883   7.454  0.1783 -0.3419 -0.5273
18793THY    CP353405   5.024   7.825   7.654 -0.2049 -0.7408  0.1489
18793THY    HP553406   4.950   7.834   7.734  0.3219 -0.2628  0.2688
18793THY    HP653407   5.120   7.863   7.690  0.1497  0.4674 -1.7522
18793THY    HP753408   5.035   7.718   7.629  0.7611  1.8993 -0.4472
18793THY    CA353409   4.789   7.816   7.435 -1.0231 -0.2310  0.0704
18793THY    HA353410   4.845   7.723   7.427 -0.6580 -0.7567  0.3270
18793THY    CA453411   4.658   7.829   7.388 -0.0260 -0.4416 -0.1407
18793THY    HA453412   4.614   7.737   7.351  1.6239  1.4267 -1.7845
18793THY    CA553413   4.595   7.950   7.386  0.7793 -0.2060  0.2721
18793THY    CM153414   4.451   7.966   7.332 -0.6717  0.3759  0.4983
18793THY    HM153415   4.390   8.038   7.388  0.4916  0.3256  1.5585
18793THY    HM253416   4.403   7.868   7.329 -1.6869 -2.0739  0.9899
18793THY    HM353417   4.444   7.997   7.227 -2.6275  0.8230  1.7117
18793THY    CA653418   4.661   8.065   7.425  0.0749  0.2529  0.4065
18793THY    HA653419   4.609   8.160   7.431  1.1303 -1.7936  1.1758
18794THY      O53420   9.155   3.568   5.573  0.4998 -0.0301 -0.2167
18794THY     HO53421   9.173   3.636   5.640 -1.1735  0.4950 -0.2385
18794THY    CA153422   9.197   3.626   5.456  0.0106  1.1819 -0.8077
18794THY    CA253423   9.125   3.622   5.338  0.1456 -0.1563  0.2608
18794THY    CP153424   8.989   3.545   5.336  0.5881 -0.3812  0.6178
18794THY    HP153425   8.939   3.559   5.432  0.1212 -0.3972 -0.7871
18794THY    CP253426   9.010   3.392   5.329 -0.2031 -0.1241 -0.1560
18794THY    HP253427   9.086   3.356   5.258  2.1534  2.4505 -0.6286
18794THY    HP353428   8.915   3.345   5.302  0.2467  1.3137 -2.0021
18794THY    HP453429   9.032   3.365   5.433  2.2343  0.3539  3.1443
18794THY    CP353430   8.904   3.590   5.215 -0.1677 -1.1169  0.6456
18794THY    HP553431   8.950   3.559   5.120  1.0733  0.0482 -1.2478
18794THY    HP653432   8.903   3.699   5.219 -1.4344 -0.4912  0.6348
18794THY    HP753433   8.800   3.557   5.229 -0.5065  0.7749  2.3442
18794THY    CA353434   9.179   3.685   5.232  0.1080 -0.4529 -0.3295
18794THY    HA353435   9.141   3.669   5.132  1.4618 -1.5100  2.4144
18794THY    CA453436   9.301   3.762   5.240  0.2416  0.4194  0.2020
18794THY    HA453437   9.339   3.818   5.155 -2.5823  0.8563  3.0447
18794THY    CA553438   9.365   3.773   5.360 -0.1201  0.3891  0.6170
18794THY    CM153439   9.486   3.864   5.382  0.6841 -0.5841 -0.2070
18794THY    HM153440   9.464   3.952   5.444 -0.6133 -0.0202 -0.8984
18794THY    HM253441   9.514   3.887   5.279 -1.4176 -1.7723 -2.5401
18794THY    HM353442   9.558   3.801   5.436 -1.0867  1.4895 -0.5948
18794THY    CA653443   9.315   3.693   5.466 -0.5781  0.1836  0.6608
18794THY    HA653444   9.376   3.687   5.555 -0.9512  0.4503  0.7771
18795THY      O53445   1.801   4.806   4.361  0.4218  0.4346  0.0564
18795THY     HO53446   1.881   4.790   4.308 -1.6496 -2.4084 -1.8197
18795THY    CA153447   1.722   4.724   4.298  0.2052 -0.0748  0.2679
18795THY    CA253448   1.588   4.702   4.340 -0.1979 -0.6984  0.4518
18795THY    CP153449   1.532   4.777   4.463  0.2922  0.5864 -0.1592
18795THY    HP153450   1.621   4.809   4.519  0.4068 -0.3312  1.2211
18795THY    CP253451   1.439   4.700   4.552  0.3969  0.0019 -0.0002
18795THY    HP253452   1.352   4.664   4.495 -0.4494  0.3799  1.3959
18795THY    HP353453   1.406   4.766   4.633  1.0703  0.3103 -0.0329
18795THY    HP453454   1.495   4.618   4.598 -0.1628  2.1990  0.7867
18795THY    CP353455   1.462   4.907   4.417 -0.3306  0.1046 -0.3364
18795THY    HP553456   1.367   4.890   4.365 -0.1935 -0.4951  0.6129
18795THY    HP653457   1.536   4.964   4.358  0.3506 -1.0750 -2.3402
18795THY    HP753458   1.432   4.976   4.497  0.7113  0.6076 -0.4517
18795THY    CA353459   1.503   4.609   4.270  0.1673  0.0127  0.1883
18795THY    HA353460   1.399   4.598   4.298  0.2662  0.2523 -0.1319
18795THY    CA453461   1.562   4.543   4.159 -0.0507 -0.3968 -0.2825
18795THY    HA453462   1.502   4.472   4.104 -1.1673 -0.7147  0.8638
18795THY    CA553463   1.696   4.554   4.127 -0.2924 -0.0827  0.4223
18795THY    CM153464   1.751   4.471   4.013  0.1032  0.3184 -0.2255
18795THY    HM153465   1.826   4.522   3.951 -2.1421 -2.4751 -0.0592
18795THY    HM253466   1.680   4.449   3.932  0.2817 -0.4989  1.9625
18795THY    HM353467   1.786   4.372   4.044  0.2009  1.0905  0.0465
18795THY    CA653468   1.777   4.648   4.191 -0.2182 -0.2717  0.3800
18795THY    HA653469   1.878   4.668   4.156 -0.8621 -1.2866  2.0793
18796THY      O53470   6.851   5.861   3.687 -0.9309 -0.7595  0.3874
18796THY     HO53471   6.855   5.871   3.591  0.3037 -0.7585  0.1201
18796THY    CA153472   6.943   5.765   3.720 -0.1128  0.2753  0.3034
18796THY    CA253473   6.995   5.750   3.850 -0.0382  0.2624  1.1768
18796THY    CP153474   6.935   5.822   3.966  0.5662  0.2457  0.1020
18796THY    HP153475   6.834   5.855   3.939 -0.3322  2.7570 -0.3569
18796THY    CP253476   7.024   5.940   3.999 -0.9355 -0.0369  0.9928
18796THY    HP253477   6.991   5.992   4.089 -0.6026  0.1507  0.8815
18796THY    HP353478   7.045   6.000   3.909  0.8930 -0.3119  0.0381
18796THY    HP453479   7.119   5.899   4.035 -2.1735  1.8265 -0.3672
18796THY    CP353480   6.921   5.751   4.099 -0.1216  0.7569  0.4531
18796THY    HP553481   6.862   5.806   4.172  0.4004  0.8352  0.9222
18796THY    HP653482   7.016   5.714   4.140  0.5431 -1.6637 -0.8130
18796THY    HP753483   6.868   5.658   4.076  0.7253  1.9721 -0.3636
18796THY    CA353484   7.102   5.651   3.869 -0.6043 -0.2504  0.5614
18796THY    HA353485   7.153   5.642   3.964  3.4351 -2.2760 -0.1834
18796THY    CA453486   7.155   5.585   3.756 -0.2521 -0.2292 -0.1831
18796THY    HA453487   7.244   5.524   3.766  0.5878 -2.2754  0.6176
18796THY    CA553488   7.107   5.611   3.629  0.7982  0.2013  0.5555
18796THY    CM153489   7.171   5.541   3.518  0.2567  0.5776  0.3901
18796THY    HM153490   7.192   5.610   3.435  0.0310  2.5122  2.9075
18796THY    HM253491   7.101   5.470   3.472  0.2642 -0.6546  1.1419
18796THY    HM353492   7.255   5.482   3.555  0.4896 -1.2978 -0.5280
18796THY    CA653493   7.005   5.705   3.604  0.4361  0.7542 -0.6091
18796THY    HA653494   6.976   5.717   3.500 -1.5609  1.3932  0.7569
18797THY      O53495   0.899   5.830   2.344 -0.3348 -0.3339  0.1338
18797THY     HO53496   0.862   5.772   2.275  0.8662  0.3261 -1.5205
18797THY    CA153497   1.004   5.765   2.411  0.4328 -0.1035  0.2636
18797THY    CA253498   1.086   5.820   2.512  0.5768  0.1385  0.2266
18797THY    CP153499   1.067   5.962   2.560 -0.4934  0.3918  0.2624
18797THY    HP153500   0.960   5.986   2.562 -0.6847  1.9968 -0.5701
18797THY    CP253501   1.144   6.053   2.468  0.1178  0.8206  0.1086
18797THY    HP253502   1.160   6.149   2.517  2.2827  0.1009  0.1679
18797THY    HP353503   1.090   6.064   2.373  2.1243 -0.5044 -0.7921
18797THY    HP453504   1.246   6.019   2.445  0.3608 -0.3745  1.5388
18797THY    CP353505   1.119   5.989   2.704  0.0454  0.8873 -0.2471
18797THY    HP553506   1.062   5.919   2.766  1.3041  2.8178  0.3768
18797THY    HP653507   1.091   6.094   2.718  1.0289  1.2133 -0.0176
18797THY    HP753508   1.228   5.986   2.710  0.1678 -0.9614 -0.4890
18797THY    CA353509   1.190   5.734   2.560  0.7850  0.4749 -0.3937
18797THY    HA353510   1.250   5.769   2.644  1.5085  0.3772 -1.3475
18797THY    CA453511   1.222   5.613   2.508  0.0185 -0.2889  0.2949
18797THY    HA453512   1.295   5.548   2.556 -1.4401  1.3484 -0.2203
18797THY    CA553513   1.143   5.563   2.415  0.3451  0.1864  0.4680
18797THY    CM153514   1.177   5.427   2.350 -0.0502 -0.0914  0.1892
18797THY    HM153515   1.272   5.398   2.396  0.1298  0.7011  1.9525
18797THY    HM253516   1.194   5.443   2.243 -2.1236 -0.1242  2.9676
18797THY    HM353517   1.092   5.358   2.358  2.1451 -2.8750 -3.2232
18797THY    CA653518   1.039   5.639   2.358  0.4969  0.0172  0.5874
18797THY    HA653519   0.979   5.586   2.285  3.9376 -1.1785 -2.0108
18798THY      O53520   6.389   5.874   5.720  0.4137  0.0681  0.0767
18798THY     HO53521   6.349   5.962   5.708 -0.9677 -1.5523 -0.7111
18798THY    CA153522   6.391   5.834   5.855  0.5726  0.2181 -0.2533
18798THY    CA253523   6.418   5.707   5.892 -0.3629  1.0754 -0.0677
18798THY    CP153524   6.443   5.596   5.794 -0.0143  0.0709  0.2922
18798THY    HP153525   6.435   5.627   5.689 -0.9807  0.6087  1.9954
18798THY    CP253526   6.340   5.477   5.815  0.4296  0.2463 -0.1324
18798THY    HP253527   6.364   5.401   5.739  0.2741  0.1461 -0.0803
18798THY    HP353528   6.244   5.527   5.802 -0.1871  2.6011 -0.6086
18798THY    HP453529   6.339   5.429   5.913  3.8550  0.6924  0.4825
18798THY    CP353530   6.580   5.538   5.815 -0.3055 -0.2428  0.4731
18798THY    HP553531   6.598   5.458   5.742 -1.6688 -0.2819  0.1675
18798THY    HP653532   6.593   5.503   5.918 -0.0102 -1.2136 -2.5768
18798THY    HP753533   6.663   5.607   5.800  0.1802 -1.2974 -0.3205
18798THY    CA353534   6.428   5.679   6.026  0.1258 -0.0043  0.6955
18798THY    HA353535   6.451   5.581   6.067 -1.6770  4.6370  1.9319
18798THY    CA453536   6.422   5.782   6.115  0.0552  0.5656  0.1991
18798THY    HA453537   6.435   5.762   6.220  1.3211  0.6484  1.3305
18798THY    CA553538   6.392   5.911   6.082  0.2406 -0.1125 -0.2976
18798THY    CM153539   6.383   6.011   6.186  0.5792  0.5400  0.0196
18798THY    HM153540   6.476   6.005   6.244 -0.1682  2.0164  1.5408
18798THY    HM253541   6.300   5.982   6.252 -0.8356 -1.7192 -1.3683
18798THY    HM353542   6.373   6.110   6.140  0.2245 -1.4970 -0.9338
18798THY    CA653543   6.378   5.936   5.949 -0.4684 -0.1533 -0.3014
18798THY    HA653544   6.363   6.038   5.917  1.1236  1.6894  0.5799
18799THY      O53545   7.041   8.397   2.870  0.2164 -0.0390 -0.5925
18799THY     HO53546   7.132   8.431   2.878 -0.6236 -0.0273  1.8344
18799THY    CA153547   7.054   8.261   2.880 -0.2542 -0.0176 -0.0366
18799THY    CA253548   6.947   8.176   2.862  0.7680  0.3403  0.2697
18799THY    CP153549   6.802   8.233   2.827 -0.3279 -0.0190  0.3283
18799THY    HP153550   6.818   8.336   2.795  1.7461 -1.9465 -0.5086
18799THY    CP253551   6.722   8.233   2.957 -0.1069 -0.7414  0.8966
18799THY    HP253552   6.615   8.253   2.947 -0.1822  0.1067  0.9896
18799THY    HP353553   6.762   8.303   3.031  1.9273  0.6476 -1.5192
18799THY    HP453554   6.723   8.128   2.992 -0.3860  1.6303  1.6123
18799THY    CP353555   6.734   8.152   2.722 -0.8120 -0.8395 -0.3802
18799THY    HP553556   6.670   8.229   2.677 -0.0538  0.4385  1.0362
18799THY    HP653557   6.689   8.057   2.755  1.9540 -1.5268 -2.0556
18799THY    HP753558   6.814   8.128   2.650 -0.5410 -0.8595  0.5380
18799THY    CA353559   6.973   8.034   2.873 -0.3956  0.1282 -0.4073
18799THY    HA353560   6.894   7.964   2.851 -1.2892 -0.0365  0.6337
18799THY    CA453561   7.104   7.993   2.911  0.5858  0.7031  0.0647
18799THY    HA453562   7.121   7.886   2.917 -0.5418  2.5625 -0.0417
18799THY    CA553563   7.203   8.079   2.938  0.0804 -0.6627 -0.2744
18799THY    CM153564   7.337   8.036   2.985  0.0385  0.3774 -0.7670
18799THY    HM153565   7.351   7.928   2.967  1.3492 -0.6573 -0.4432
18799THY    HM253566   7.358   8.063   3.089 -2.2099  0.6050  0.3094
18799THY    HM353567   7.419   8.071   2.922 -0.0364 -0.2138 -1.6076
18799THY    CA653568   7.177   8.216   2.921 -0.3458  0.3027  0.3627
18799THY    HA653569   7.259   8.282   2.948  1.5248 -0.9615 -1.3511
18800THY      O53570   1.030   8.657   3.033  0.1341 -0.5887  0.9234
18800THY     HO53571   1.013   8.739   3.083 -1.0713  1.7923 -0.6983
18800THY    CA153572   1.147   8.678   2.968  0.2085  0.3954  0.2015
18800THY    CA253573   1.206   8.588   2.870 -0.1610 -1.1126  0.1399
18800THY    CP153574   1.126   8.468   2.840 -0.1511 -0.0558 -0.1588
18800THY    HP153575   1.025   8.489   2.877 -0.1496  1.6383 -2.6683
18800THY    CP253576   1.186   8.340   2.907 -0.2005 -0.0282  0.5194
18800THY    HP253577   1.286   8.324   2.865 -0.4090 -0.8053  1.1780
18800THY    HP353578   1.128   8.256   2.867 -1.5557 -0.9310  1.8367
18800THY    HP453579   1.187   8.346   3.016  1.9983 -0.0238  0.8206
18800THY    CP353580   1.119   8.455   2.682 -0.2773 -0.1456 -1.0790
18800THY    HP553581   1.041   8.386   2.650 -1.2493 -0.6246  0.2040
18800THY    HP653582   1.207   8.409   2.635 -0.9310 -1.7050 -0.8156
18800THY    HP753583   1.120   8.556   2.639  1.5905 -0.0193 -0.9996
18800THY    CA353584   1.326   8.624   2.800 -0.4611  0.5792 -0.1191
18800THY    HA353585   1.365   8.566   2.717 -0.5195  0.6469 -0.2567
18800THY    CA453586   1.400   8.735   2.844  0.4510  0.2875 -0.2588
18800THY    HA453587   1.495   8.761   2.798  0.4111  1.3103  1.9030
18800THY    CA553588   1.347   8.815   2.947 -0.3628  0.5499  0.4342
18800THY    CM153589   1.419   8.939   2.989 -0.6792 -0.2568 -0.1395
18800THY    HM153590   1.524   8.907   2.986 -0.7406 -1.3367 -0.2581
18800THY    HM253591   1.385   8.964   3.090 -0.6544 -0.4762  0.7946
18800THY    HM353592   1.401   9.023   2.921 -1.8690 -1.1567 -1.0860
18800THY    CA653593   1.221   8.791   3.003  0.8172  0.0692 -0.3838
18800THY    HA653594   1.179   8.866   3.070  0.8721 -1.3794  0.9852
18801THY      O53595   0.670   8.759   3.237 -0.2301  0.3377 -0.2981
18801THY     HO53596   0.645   8.687   3.176 -0.7007  1.6355 -1.2593
18801THY    CA153597   0.564   8.771   3.321 -0.0514  0.7303  0.7381
18801THY    CA253598   0.521   8.894   3.376 -1.5181 -0.0719  0.8509
18801THY    CP153599   0.577   9.026   3.323  0.3338 -0.5144 -0.7583
18801THY    HP153600   0.661   9.014   3.253  1.0877  0.0905  0.6694
18801THY    CP253601   0.632   9.116   3.440 -0.2968  0.9897 -0.3107
18801THY    HP253602   0.713   9.051   3.477  1.9080 -1.5151  0.8274
18801THY    HP353603   0.549   9.141   3.507 -1.4496  1.0773 -3.8169
18801THY    HP453604   0.674   9.213   3.413  0.2119  1.4886 -0.3828
18801THY    CP353605   0.474   9.109   3.241  0.6501 -0.3455 -0.9695
18801THY    HP553606   0.382   9.131   3.297  1.4970  0.8991 -0.5368
18801THY    HP653607   0.435   9.049   3.157 -0.8618 -1.9984  2.0803
18801THY    HP753608   0.513   9.201   3.195  1.8801  0.9522 -0.8131
18801THY    CA353609   0.420   8.896   3.465  0.8597 -0.2678  0.4771
18801THY    HA353610   0.370   8.983   3.507 -1.6445 -0.3143 -0.8251
18801THY    CA453611   0.354   8.776   3.501  0.4272 -0.4072  0.0259
18801THY    HA453612   0.268   8.774   3.568 -0.1768 -1.0984  1.5259
18801THY    CA553613   0.392   8.656   3.448 -0.2691 -0.3994  0.5750
18801THY    CM153614   0.325   8.531   3.488 -0.1297 -0.4291 -0.4453
18801THY    HM153615   0.340   8.492   3.589 -0.4779 -0.3395 -0.3557
18801THY    HM253616   0.350   8.443   3.427  2.0428  1.5452 -1.3064
18801THY    HM353617   0.220   8.540   3.458  0.5474 -3.3539 -1.0317
18801THY    CA653618   0.493   8.655   3.355 -0.1745 -0.2099 -0.1060
18801THY    HA653619   0.522   8.555   3.321 -0.7764  2.1071 -1.1299
18802THY      O53620   8.850   1.509   2.325  0.0840 -0.2797  0.7563
18802THY     HO53621   8.830   1.418   2.298  3.0116  0.4185 -0.1847
18802THY    CA153622   8.949   1.548   2.241 -0.3645 -0.5831 -0.3301
18802THY    CA253623   8.948   1.677   2.180  0.3667 -0.2248  0.3831
18802THY    CP153624   8.823   1.770   2.212 -0.2305 -0.3685  0.5249
18802THY    HP153625   8.794   1.764   2.318  0.5295  0.1510  3.8925
18802THY    CP253626   8.705   1.731   2.122 -0.5145 -1.1140 -0.6015
18802THY    HP253627   8.718   1.756   2.016  0.2115 -0.7352  0.7635
18802THY    HP353628   8.622   1.801   2.139 -0.1442 -1.2610 -0.1176
18802THY    HP453629   8.664   1.631   2.142 -2.2636  1.2916  0.4826
18802THY    CP353630   8.853   1.922   2.199 -0.5663 -0.5472 -1.2847
18802THY    HP553631   8.884   1.943   2.096 -1.5449 -0.4271  1.0291
18802THY    HP653632   8.929   1.959   2.268  0.3127 -1.6995 -0.8581
18802THY    HP753633   8.756   1.974   2.201 -0.5304  0.4727 -1.2521
18802THY    CA353634   9.045   1.715   2.087  0.2214 -0.1935  0.7320
18802THY    HA353635   9.030   1.802   2.024  0.9769 -1.3387  0.0673
18802THY    CA453636   9.156   1.626   2.066 -0.2694 -0.0102 -0.4179
18802THY    HA453637   9.236   1.661   2.001 -1.1962  0.1562  2.1807
18802THY    CA553638   9.161   1.501   2.128  0.0147  0.8979 -0.1037
18802THY    CM153639   9.268   1.402   2.091 -0.1556  0.5628 -0.0907
18802THY    HM153640   9.247   1.368   1.989  0.1504 -0.4072  2.4531
18802THY    HM253641   9.296   1.329   2.168 -2.3675  0.6526 -0.9142
18802THY    HM353642   9.357   1.466   2.081 -0.2138  2.3471  0.3225
18802THY    CA653643   9.057   1.464   2.209  0.6941  0.3558  0.9301
18802THY    HA653644   9.063   1.370   2.264 -0.7826  1.2071  1.2881
18803THY      O53645   4.742   7.423   6.644 -0.2116 -0.2895 -0.4441
18803THY     HO53646   4.667   7.483   6.656  0.4207  0.6028  0.1960
18803THY    CA153647   4.857   7.495   6.635 -0.4099  0.1813 -0.8017
18803THY    CA253648   4.928   7.555   6.740  0.7632 -0.0503  0.1576
18803THY    CP153649   4.859   7.548   6.866 -0.1632 -1.2579 -0.7560
18803THY    HP153650   4.751   7.567   6.863  0.1214  1.4179  2.0271
18803THY    CP253651   4.912   7.651   6.974 -0.2986  0.2447  0.3773
18803THY    HP253652   4.849   7.661   7.063  0.0888  0.3835  1.9644
18803THY    HP353653   4.915   7.754   6.937  0.6320  1.6125  0.8728
18803THY    HP453654   5.017   7.627   6.996 -0.4534  1.3424  0.6200
18803THY    CP353655   4.876   7.413   6.932  0.1160 -0.8111  0.5610
18803THY    HP553656   4.812   7.349   6.870 -0.3513 -1.2857  1.4684
18803THY    HP653657   4.820   7.406   7.026 -0.9702 -1.4736 -0.0885
18803THY    HP753658   4.977   7.388   6.965 -0.6986 -0.4322 -2.6848
18803THY    CA353659   5.055   7.606   6.721 -0.2130  0.1476 -0.0741
18803THY    HA353660   5.114   7.648   6.801 -1.7379  1.0144  0.4939
18803THY    CA453661   5.106   7.617   6.590  0.3111  0.8196 -0.0347
18803THY    HA453662   5.206   7.657   6.576  0.9774  2.2516 -1.1538
18803THY    CA553663   5.036   7.564   6.479 -0.3860 -0.2147  0.1071
18803THY    CM153664   5.080   7.563   6.341  0.5112 -0.0709  0.1188
18803THY    HM153665   5.186   7.545   6.316  1.1491 -1.0146  4.1430
18803THY    HM253666   5.079   7.668   6.310  3.3317  0.9722  0.5427
18803THY    HM353667   5.016   7.514   6.267  1.2630 -1.9219  1.7849
18803THY    CA653668   4.912   7.504   6.506 -0.0034  0.1756 -0.0194
18803THY    HA653669   4.854   7.455   6.429 -1.1071  0.8298  0.2223
18804THY      O53670   3.406   6.211   1.960  0.1703 -0.4087 -0.0358
18804THY     HO53671   3.345   6.136   1.974  0.4251  0.8045 -0.0292
18804THY    CA153672   3.534   6.169   1.942  0.0485  0.2165  1.5294
18804THY    CA253673   3.644   6.250   1.927  0.0080  0.7027  0.6192
18804THY    CP153674   3.636   6.405   1.917 -0.2416  0.1523  0.7910
18804THY    HP153675   3.540   6.425   1.965 -1.6342 -1.2799 -1.9192
18804THY    CP253676   3.627   6.450   1.764  0.3734 -1.0058  0.6148
18804THY    HP253677   3.562   6.384   1.706  0.8642 -2.6624  1.5331
18804THY    HP353678   3.728   6.433   1.723  1.0593  0.1835  1.6023
18804THY    HP453679   3.599   6.555   1.755 -1.0242  1.2126  0.4857
18804THY    CP353680   3.739   6.485   1.994 -0.0366  0.9018 -0.4650
18804THY    HP553681   3.731   6.459   2.100  2.7645  1.3238  0.0717
18804THY    HP653682   3.728   6.593   1.979  0.9207  1.4945 -0.2730
18804THY    HP753683   3.837   6.458   1.952 -0.5350 -0.5656 -0.1221
18804THY    CA353684   3.777   6.196   1.928 -0.6058 -0.6502  0.4339
18804THY    HA353685   3.865   6.259   1.918 -0.8818 -2.1361  0.6300
18804THY    CA453686   3.783   6.053   1.933  0.4989  0.0096  0.0473
18804THY    HA453687   3.884   6.011   1.932  1.1397 -0.2958  1.5206
18804THY    CA553688   3.672   5.974   1.944 -0.2211 -0.4077 -0.4249
18804THY    CM153689   3.686   5.824   1.949  0.2736  0.4739 -0.3177
18804THY    HM153690   3.789   5.796   1.972  1.1889 -1.5441  1.1705
18804THY    HM253691   3.673   5.779   1.849  2.2626  0.5273 -1.0962
18804THY    HM353692   3.621   5.773   2.021 -3.1072 -2.5666 -0.7805
18804THY    CA653693   3.547   6.028   1.953  0.2401  0.3440 -0.1305
18804THY    HA653694   3.457   5.968   1.960 -0.1273 -1.7067  0.1228
18805THY      O53695   6.484   3.382   6.740 -0.2851  0.1746 -0.3920
18805THY     HO53696   6.547   3.313   6.766  1.4839 -0.6140  0.8369
18805THY    CA153697   6.541   3.429   6.626 -0.0946  0.2207 -0.0960
18805THY    CA253698   6.514   3.564   6.586 -0.7138 -0.4588 -0.0732
18805THY    CP153699   6.406   3.644   6.662 -0.3182  0.2371  0.0969
18805THY    HP153700   6.331   3.572   6.697  0.2089  1.1382 -0.0329
18805THY    CP253701   6.337   3.748   6.569  0.4922 -0.3287  1.2379
18805THY    HP253702   6.407   3.830   6.546  3.4665  1.0335 -0.7545
18805THY    HP353703   6.252   3.785   6.628  0.8660 -0.3717  2.1918
18805THY    HP453704   6.288   3.700   6.484 -2.3790  1.5455  0.5538
18805THY    CP353705   6.482   3.722   6.782  0.8990  0.1367 -0.2227
18805THY    HP553706   6.550   3.653   6.834  1.9698 -0.2501  0.5202
18805THY    HP653707   6.407   3.764   6.849  3.3782  2.1804  1.1930
18805THY    HP753708   6.531   3.809   6.737 -1.5168  0.4390  1.4033
18805THY    CA353709   6.574   3.613   6.473  0.7927 -0.2427  0.0666
18805THY    HA353710   6.561   3.714   6.437  2.3651 -0.3129  0.2751
18805THY    CA453711   6.674   3.531   6.409 -0.8589  0.0317  0.0127
18805THY    HA453712   6.735   3.564   6.326 -0.1303 -0.0569 -1.5242
18805THY    CA553713   6.706   3.402   6.448  0.4357  0.4365 -0.5367
18805THY    CM153714   6.807   3.326   6.369  0.1708 -0.3999  0.1434
18805THY    HM153715   6.794   3.347   6.262 -0.4466 -0.4442 -0.4244
18805THY    HM253716   6.775   3.222   6.367 -1.2335 -0.4879  0.5515
18805THY    HM353717   6.911   3.335   6.400  0.8386 -2.2070 -0.9077
18805THY    CA653718   6.637   3.351   6.554  0.6223  0.1562  0.5204
18805THY    HA653719   6.650   3.246   6.579  0.5990 -2.1377 -0.0827
18806THY      O53720   8.358   7.410   6.907 -0.0850  0.4038  0.0925
18806THY     HO53721   8.262   7.426   6.907  0.0792 -1.3960  1.3435
18806THY    CA153722   8.400   7.478   7.012 -0.4361  0.9621 -0.3774
18806THY    CA253723   8.540   7.495   7.042  0.7716 -0.4597  1.1695
18806THY    CP153724   8.645   7.417   6.960  0.2413 -0.4044 -0.5603
18806THY    HP153725   8.598   7.363   6.877 -0.3790  0.8618 -2.0442
18806THY    CP253726   8.714   7.306   7.027 -0.2395  0.5096 -0.3057
18806THY    HP253727   8.768   7.247   6.952  0.3651  0.1443  0.6806
18806THY    HP353728   8.653   7.239   7.090 -1.0784 -0.7421 -0.7562
18806THY    HP453729   8.793   7.346   7.092  2.3630 -2.1332 -0.8098
18806THY    CP353730   8.748   7.514   6.900 -0.5543  0.0999  0.0430
18806THY    HP553731   8.693   7.592   6.845  1.9302  1.8144  3.2654
18806THY    HP653732   8.823   7.471   6.832 -1.7048 -0.7706 -0.6459
18806THY    HP753733   8.795   7.578   6.975 -0.8137  0.1604  0.1627
18806THY    CA353734   8.572   7.572   7.154 -0.4628 -0.1457 -0.1918
18806THY    HA353735   8.676   7.585   7.181 -0.5069  0.2230 -0.5823
18806THY    CA453736   8.476   7.630   7.233  0.5656  0.2614  0.1736
18806THY    HA453737   8.509   7.699   7.310 -0.5586 -0.1333  1.1947
18806THY    CA553738   8.336   7.602   7.210 -0.4034 -0.0901  0.6974
18806THY    CM153739   8.233   7.647   7.314  0.6584 -0.2506 -0.3060
18806THY    HM153740   8.185   7.565   7.369 -1.0336  0.4121  1.0803
18806THY    HM253741   8.159   7.718   7.274  0.2186  2.7403  1.0482
18806THY    HM353742   8.288   7.700   7.393  0.3235  0.5408 -1.1148
18806THY    CA653743   8.303   7.522   7.093  0.8637 -0.3832 -0.2262
18806THY    HA653744   8.201   7.489   7.081  0.4934  1.4315  0.1192
18807THY      O53745   6.928   3.610   1.772  0.3382  0.0542 -0.4467
18807THY     HO53746   6.981   3.619   1.692 -2.7415 -1.9323  3.8415
18807THY    CA153747   7.015   3.585   1.876  0.4762 -0.6816 -0.4306
18807THY    CA253748   6.996   3.630   2.014 -1.1600  0.5750 -0.1205
18807THY    CP153749   6.871   3.701   2.059  0.2090 -0.6018 -0.0789
18807THY    HP153750   6.831   3.758   1.975 -1.5358 -1.3989 -2.3613
18807THY    CP253751   6.894   3.802   2.169 -0.2360 -0.0363  0.1618
18807THY    HP253752   6.802   3.862   2.181  0.1060 -0.1312  0.7142
18807THY    HP353753   6.976   3.861   2.126 -0.2400 -0.5447 -0.1974
18807THY    HP453754   6.931   3.759   2.262  1.2546 -0.0152  1.4062
18807THY    CP353755   6.774   3.600   2.114 -0.1540  0.3951 -0.3686
18807THY    HP553756   6.820   3.547   2.198  0.1615  0.2159 -0.3865
18807THY    HP653757   6.738   3.524   2.044 -0.0946 -0.0747  0.0295
18807THY    HP753758   6.688   3.656   2.153 -0.0792 -0.7879  0.6250
18807THY    CA353759   7.102   3.603   2.104 -0.3733  0.3631  0.1543
18807THY    HA353760   7.099   3.637   2.207  0.6664  0.0641  1.1879
18807THY    CA453761   7.218   3.531   2.062  0.6915  0.6705  0.3043
18807THY    HA453762   7.305   3.509   2.123  0.4503  1.2314  0.8760
18807THY    CA553763   7.226   3.482   1.933 -0.1500  0.0948  0.2043
18807THY    CM153764   7.335   3.393   1.892 -1.0580  1.0538 -0.0096
18807THY    HM153765   7.385   3.429   1.801 -1.4770  0.2792 -1.2994
18807THY    HM253766   7.293   3.296   1.864  1.8389 -2.9719 -0.3813
18807THY    HM353767   7.413   3.377   1.967 -2.1389  2.0723 -0.6195
18807THY    CA653768   7.132   3.518   1.844  0.3705  0.2009 -0.8846
18807THY    HA653769   7.139   3.488   1.740  0.5207  0.0767 -0.4223
18808THY      O53770   3.453   7.874   6.656  0.2437 -0.2823 -0.2790
18808THY     HO53771   3.378   7.933   6.678  1.0540 -1.5627  1.3233
18808THY    CA153772   3.419   7.818   6.538  0.0610 -0.2662  0.1188
18808THY    CA253773   3.520   7.758   6.454  0.2339  0.0124  0.5086
18808THY    CP153774   3.670   7.762   6.488  0.4414  0.0355  0.7048
18808THY    HP153775   3.679   7.760   6.597  3.1914 -0.1159  1.3037
18808THY    CP253776   3.731   7.890   6.437  0.0231  0.3084 -0.4671
18808THY    HP253777   3.830   7.909   6.481  0.7904 -2.1672  2.1394
18808THY    HP353778   3.665   7.976   6.454  0.6326 -1.6683  0.4644
18808THY    HP453779   3.751   7.885   6.329  1.8893  0.4562  1.8047
18808THY    CP353780   3.751   7.636   6.445 -0.0421  0.4719 -0.3062
18808THY    HP553781   3.756   7.620   6.337 -0.1854  0.4029  0.0888
18808THY    HP653782   3.720   7.547   6.500 -1.0289 -0.6328 -0.6688
18808THY    HP753783   3.857   7.652   6.468 -0.0596  0.6114 -0.3973
18808THY    CA353784   3.480   7.710   6.327 -0.3902  0.1397 -0.4794
18808THY    HA353785   3.550   7.684   6.248  0.4419  0.7293 -0.0957
18808THY    CA453786   3.344   7.709   6.293 -0.9898  0.0210  0.0198
18808THY    HA453787   3.310   7.677   6.195 -0.4957 -0.4833  0.9840
18808THY    CA553788   3.246   7.770   6.374 -0.2968 -0.9341 -0.1452
18808THY    CM153789   3.105   7.785   6.318  0.3586  0.6125 -0.1374
18808THY    HM153790   3.088   7.706   6.244  1.7543  0.0284  0.0648
18808THY    HM253791   3.099   7.881   6.264 -0.8210 -1.0099 -1.0784
18808THY    HM353792   3.034   7.782   6.401 -2.2765 -1.5100 -3.1551
18808THY    CA653793   3.289   7.825   6.494  0.2705  0.2122  0.5545
18808THY    HA653794   3.220   7.882   6.556  0.0948 -0.7223  1.3968
18809THY      O53795   0.263   6.925   4.624  0.0626 -0.2031 -0.1626
18809THY     HO53796   0.297   6.875   4.700 -0.9804  1.3691  1.3791
18809THY    CA153797   0.375   6.964   4.562  0.4863 -0.3495 -0.5311
18809THY    CA253798   0.364   7.049   4.450  0.6680 -0.0858  0.6216
18809THY    CP153799   0.230   7.114   4.412  0.4092 -0.0885 -0.1289
18809THY    HP153800   0.167   7.129   4.501 -2.3334 -1.5507 -2.2131
18809THY    CP253801   0.144   7.020   4.324  0.0777  0.4174 -0.3304
18809THY    HP253802   0.044   7.063   4.315  0.4849  2.2130  1.1193
18809THY    HP353803   0.116   6.926   4.374  0.0815  0.9647 -0.0432
18809THY    HP453804   0.186   7.000   4.224 -0.7359 -0.6412  2.6731
18809THY    CP353805   0.245   7.249   4.352 -0.2097  0.0020 -0.2987
18809THY    HP553806   0.141   7.281   4.349 -1.8155  1.7509 -4.5963
18809THY    HP653807   0.286   7.241   4.250  1.6741  0.5104  1.7246
18809THY    HP753808   0.305   7.310   4.421 -0.1791 -0.3159  0.0383
18809THY    CA353809   0.486   7.107   4.397 -0.6180 -0.1989 -0.2965
18809THY    HA353810   0.474   7.179   4.317 -2.1555 -2.3832 -2.7652
18809THY    CA453811   0.612   7.071   4.448 -0.4253  0.2311  0.2128
18809THY    HA453812   0.698   7.121   4.405  2.4953  1.8054 -3.0435
18809THY    CA553813   0.615   6.982   4.555  0.4337  0.0888 -0.2194
18809THY    CM153814   0.746   6.937   4.614 -0.1735  0.6349  0.2801
18809THY    HM153815   0.821   7.017   4.605 -0.7907 -0.1777  0.7823
18809THY    HM253816   0.797   6.868   4.547  2.0969 -1.4731  3.6702
18809THY    HM353817   0.756   6.903   4.718  1.2646 -0.1817 -2.0431
18809THY    CA653818   0.499   6.929   4.614 -0.7914  0.5448  0.5759
18809THY    HA653819   0.499   6.863   4.700 -0.2391 -0.6556 -1.0318
18810THY      O53820   7.397   5.984   5.412 -0.0372  0.0053 -0.0527
18810THY     HO53821   7.388   6.019   5.502 -0.8603  1.1263 -2.8638
18810THY    CA153822   7.458   6.067   5.330  0.1302  0.4786 -0.7608
18810THY    CA253823   7.481   6.034   5.196 -0.4064  0.3237 -0.2024
18810THY    CP153824   7.444   5.896   5.145  0.3381  0.3161 -0.3651
18810THY    HP153825   7.359   5.855   5.201  0.5389 -0.2602 -1.6247
18810THY    CP253826   7.566   5.805   5.152 -0.4303  0.1628  0.3856
18810THY    HP253827   7.650   5.865   5.114 -1.6512 -3.4037  0.0497
18810THY    HP353828   7.560   5.706   5.106 -2.7204 -0.3320  0.7137
18810THY    HP453829   7.591   5.787   5.257  1.7468 -0.5710 -1.3862
18810THY    CP353830   7.387   5.891   4.998 -0.0246 -0.0064 -0.3003
18810THY    HP553831   7.326   5.803   4.972 -1.5516 -0.0168  0.7305
18810THY    HP653832   7.465   5.895   4.921 -0.1364 -0.1425 -0.7038
18810THY    HP753833   7.309   5.968   4.994 -0.9567  0.1158 -1.2081
18810THY    CA353834   7.544   6.127   5.112  0.2709  0.7565 -0.7628
18810THY    HA353835   7.563   6.115   5.006  1.3189  0.7536  0.6645
18810THY    CA453836   7.575   6.257   5.166 -0.3222  0.1378 -0.0151
18810THY    HA453837   7.633   6.338   5.122  0.5166  2.1774  0.5557
18810THY    CA553838   7.558   6.286   5.297  0.1945  0.0074  0.6072
18810THY    CM153839   7.616   6.416   5.353  0.4900 -0.9281  0.0404
18810THY    HM153840   7.607   6.410   5.462 -0.1039 -1.0456 -2.4018
18810THY    HM253841   7.578   6.503   5.299 -0.0311 -1.0551 -0.2596
18810THY    HM353842   7.725   6.409   5.340  0.3249 -1.8916 -1.1694
18810THY    CA653843   7.500   6.192   5.383 -0.0346 -0.1242  0.3154
18810THY    HA653844   7.474   6.226   5.483 -0.5823 -1.0995  2.9578
18811THY      O53845   1.103   0.987   5.535  0.0669 -0.2309 -0.2115
18811THY     HO53846   1.028   0.924   5.535 -0.2483  3.7866 -0.1054
18811THY    CA153847   1.031   1.103   5.520  0.0815 -0.2766 -0.1592
18811THY    CA253848   1.080   1.223   5.572  0.2939 -0.1217 -0.2150
18811THY    CP153849   1.230   1.224   5.618 -0.3517 -0.2047 -0.5715
18811THY    HP153850   1.287   1.139   5.579  1.4147  0.4977  0.2395
18811THY    CP253851   1.244   1.225   5.771  0.5866 -0.1199  0.4262
18811THY    HP253852   1.350   1.215   5.796  0.6931 -0.8368 -0.3213
18811THY    HP353853   1.186   1.143   5.816  0.6852 -0.8070 -0.0271
18811THY    HP453854   1.197   1.318   5.804 -0.3353  0.1631 -0.1155
18811THY    CP353855   1.294   1.349   5.558  0.5417  0.6889  1.1376
18811THY    HP553856   1.403   1.355   5.567  0.5735  1.9257 -0.4904
18811THY    HP653857   1.256   1.434   5.616 -0.8932  1.4994 -0.0175
18811THY    HP753858   1.255   1.361   5.456  1.9577  0.0202  0.3616
18811THY    CA353859   1.001   1.343   5.566 -0.6949  0.2253  0.7194
18811THY    HA353860   1.046   1.440   5.589 -0.6156  1.4402  0.4187
18811THY    CA453861   0.874   1.333   5.505  0.0690  0.3874  0.2649
18811THY    HA453862   0.805   1.416   5.497 -0.4142  1.9891  0.0608
18811THY    CA553863   0.820   1.211   5.457 -0.1546  0.2454 -0.7255
18811THY    CM153864   0.688   1.219   5.385 -0.4826  0.2697  0.5289
18811THY    HM153865   0.618   1.154   5.438  0.5719  1.4027  0.2905
18811THY    HM253866   0.706   1.187   5.281 -1.4680 -0.2844  1.6783
18811THY    HM353867   0.644   1.319   5.373 -0.7695  1.8739  0.6073
18811THY    CA653868   0.903   1.098   5.471  0.4993 -0.1492  0.2930
18811THY    HA653869   0.872   1.000   5.435  2.4135  0.9344 -0.7752
18812THY      O53870   1.754   8.898   3.229 -0.0372  0.1546 -0.1127
18812THY     HO53871   1.734   8.839   3.304 -0.8439 -0.5960 -0.8025
18812THY    CA153872   1.652   8.980   3.241 -0.7520  0.5352 -0.2999
18812THY    CA253873   1.666   9.111   3.195 -0.6718  0.1383 -0.0738
18812THY    CP153874   1.783   9.148   3.101 -0.5409 -0.1002 -0.3203
18812THY    HP153875   1.873   9.098   3.138 -0.1020 -1.6617 -0.7114
18812THY    CP253876   1.812   9.296   3.107 -0.0821 -0.6066  0.2439
18812THY    HP253877   1.792   9.341   3.205  2.4599 -0.0293  0.2560
18812THY    HP353878   1.761   9.347   3.024 -2.8025  0.4117 -0.6716
18812THY    HP453879   1.919   9.312   3.090 -0.2287 -1.6356  0.2272
18812THY    CP353880   1.764   9.097   2.954 -0.2120 -0.7797 -0.2748
18812THY    HP553881   1.680   9.161   2.924 -0.4141  1.7156  0.7759
18812THY    HP653882   1.731   8.993   2.951  0.2910  1.5937 -0.5748
18812THY    HP753883   1.853   9.117   2.894  1.7819  1.6892 -1.1537
18812THY    CA353884   1.554   9.197   3.201  0.0321  1.0330  0.2226
18812THY    HA353885   1.553   9.293   3.151  1.4832 -1.2620 -0.8479
18812THY    CA453886   1.439   9.163   3.276 -0.5753  0.2557 -0.2899
18812THY    HA453887   1.361   9.238   3.284  0.2924  1.5309  0.5073
18812THY    CA553888   1.432   9.038   3.339 -0.3191  0.6198 -0.7373
18812THY    CM153889   1.307   8.998   3.413 -0.1377 -0.3056  0.1605
18812THY    HM153890   1.227   8.962   3.347 -0.4628  1.4128 -2.5980
18812THY    HM253891   1.272   9.084   3.471 -1.2325  0.9542 -1.0801
18812THY    HM353892   1.329   8.926   3.493  0.7579  3.1533  3.8459
18812THY    CA653893   1.540   8.942   3.314 -0.5280 -0.3995 -0.4554
18812THY    HA653894   1.535   8.839   3.347  1.4995  0.0526 -0.4417
18813THY      O53895   1.326   6.773   5.643  0.5303  0.0026 -0.3529
18813THY     HO53896   1.367   6.709   5.704 -1.7522  0.9299 -1.0335
18813THY    CA153897   1.409   6.876   5.617 -0.7448  0.4630 -0.5322
18813THY    CA253898   1.367   6.997   5.558 -0.0241  0.0233 -0.4573
18813THY    CP153899   1.224   7.010   5.518 -0.3515 -0.7102  0.2021
18813THY    HP153900   1.163   6.922   5.537  0.7489 -0.4793 -0.5313
18813THY    CP253901   1.201   7.026   5.362 -0.2415 -0.0837 -0.3466
18813THY    HP253902   1.240   7.123   5.329  0.5947 -0.8545 -0.9283
18813THY    HP353903   1.095   7.023   5.334 -0.4002  0.5880 -1.5984
18813THY    HP453904   1.251   6.948   5.303 -0.7502 -0.7214 -0.2035
18813THY    CP353905   1.162   7.130   5.592  0.6775 -0.3071 -0.1926
18813THY    HP553906   1.052   7.128   5.597  0.6002  1.0154  2.4137
18813THY    HP653907   1.189   7.230   5.557  1.5129  0.5200 -0.1096
18813THY    HP753908   1.183   7.121   5.700 -1.2515  0.1578  0.2368
18813THY    CA353909   1.464   7.098   5.543 -0.4660  0.2907  0.4794
18813THY    HA353910   1.443   7.190   5.490  2.2544  0.0867  1.0697
18813THY    CA453911   1.593   7.080   5.593  0.0257 -0.2244  0.2818
18813THY    HA453912   1.663   7.163   5.589 -2.7834  0.7139  2.8791
18813THY    CA553913   1.628   6.963   5.659  0.4871 -0.2324  0.2856
18813THY    CM153914   1.759   6.950   5.734  0.0127 -0.8879  0.2429
18813THY    HM153915   1.798   7.052   5.740 -1.5263 -0.4280  0.8357
18813THY    HM253916   1.823   6.888   5.671 -0.6008 -1.6370  0.3668
18813THY    HM353917   1.754   6.907   5.835 -0.1550 -1.1414 -0.3458
18813THY    CA653918   1.540   6.865   5.673  0.6641  0.3853  0.1003
18813THY    HA653919   1.561   6.773   5.726  0.2428 -0.5307 -0.5344
18814THY      O53920   4.044   3.953   5.316  0.8698  0.0815  0.2216
18814THY     HO53921   4.119   3.992   5.364  2.6992 -2.6424  0.3302
18814THY    CA153922   3.990   3.861   5.394  0.0385 -0.1295 -0.5838
18814THY    CA253923   3.871   3.785   5.372  0.1490  0.2592  0.1755
18814THY    CP153924   3.771   3.822   5.254  0.0648 -0.0431  0.0730
18814THY    HP153925   3.810   3.906   5.195 -3.5701  1.0526  2.8290
18814THY    CP253926   3.650   3.888   5.320 -0.3808 -0.9969  0.7246
18814THY    HP253927   3.589   3.814   5.372 -0.1496 -0.2902  1.0231
18814THY    HP353928   3.587   3.932   5.242 -0.0502 -1.7732 -0.1492
18814THY    HP453929   3.681   3.972   5.384  1.0284 -1.4454  0.5885
18814THY    CP353930   3.721   3.705   5.166  0.3805  0.6083 -0.2393
18814THY    HP553931   3.670   3.627   5.224  1.9700  0.6306 -1.3118
18814THY    HP653932   3.806   3.666   5.109  1.4047  1.6124  0.4618
18814THY    HP753933   3.648   3.748   5.097  1.4210 -0.0888  0.4623
18814THY    CA353934   3.837   3.682   5.460 -0.6450 -0.4739 -0.1784
18814THY    HA353935   3.739   3.638   5.451 -0.5348 -0.1612 -0.4927
18814THY    CA453936   3.915   3.661   5.568 -0.2204 -0.6389  0.3426
18814THY    HA453937   3.892   3.587   5.645 -1.0900  0.9815  2.1913
18814THY    CA553938   4.030   3.737   5.593  0.2638  0.0969 -0.5770
18814THY    CM153939   4.108   3.719   5.721 -0.1239  0.2038 -0.2179
18814THY    HM153940   4.134   3.614   5.740  0.1889 -0.1667 -0.2102
18814THY    HM253941   4.051   3.760   5.805 -0.3952 -0.4321  0.7388
18814THY    HM353942   4.201   3.776   5.714 -0.9616 -0.9654  1.0732
18814THY    CA653943   4.072   3.832   5.504  0.2484 -0.2272 -0.4600
18814THY    HA653944   4.161   3.890   5.528  0.2027 -1.9455  0.3740
18815THY      O53945   2.452   7.437   3.642  0.6129 -0.0864 -0.3962
18815THY     HO53946   2.390   7.457   3.570  0.1227  0.8117  1.5959
18815THY    CA153947   2.469   7.551   3.716 -0.3458 -0.6391 -0.7031
18815THY    CA253948   2.563   7.556   3.821  0.7944 -0.3469 -0.1044
18815THY    CP153949   2.653   7.435   3.854  0.1704 -0.3046  0.5031
18815THY    HP153950   2.633   7.361   3.777 -1.3141  0.4194  0.1199
18815THY    CP253951   2.639   7.383   3.999 -0.2181  0.2074  0.1976
18815THY    HP253952   2.536   7.359   4.028  0.6994  2.4390 -1.3236
18815THY    HP353953   2.687   7.453   4.068 -1.9497 -0.5525  2.2417
18815THY    HP453954   2.694   7.289   4.012 -1.1759 -0.7721 -0.5270
18815THY    CP353955   2.798   7.467   3.825  0.3576  0.0298  0.4230
18815THY    HP553956   2.862   7.379   3.837 -2.3486  0.3615 -1.6423
18815THY    HP653957   2.835   7.555   3.879 -3.7213 -0.6614  2.7836
18815THY    HP753958   2.804   7.496   3.720  0.1181 -0.3389 -0.7838
18815THY    CA353959   2.561   7.670   3.910  0.0590  0.1909  0.6064
18815THY    HA353960   2.632   7.687   3.990  0.6473  0.0449 -1.0213
18815THY    CA453961   2.471   7.776   3.887  0.2263 -0.0850 -0.0905
18815THY    HA453962   2.474   7.862   3.953  0.6244  1.4631 -1.2434
18815THY    CA553963   2.380   7.777   3.785  0.1505  0.5226  0.3739
18815THY    CM153964   2.268   7.876   3.769 -0.6303  0.0267  0.4680
18815THY    HM153965   2.231   7.894   3.871  1.5180  0.6438  1.7715
18815THY    HM253966   2.179   7.836   3.720 -0.4186  2.0191 -2.8289
18815THY    HM353967   2.308   7.967   3.723  1.9004  1.1879  0.0303
18815THY    CA653968   2.377   7.660   3.700 -0.4504 -0.4528 -0.5111
18815THY    HA653969   2.303   7.646   3.622  0.2002 -0.9476 -1.2625
18816THY      O53970   4.316   2.718   5.216 -0.1578 -0.6562 -0.2655
18816THY     HO53971   4.231   2.702   5.260 -1.0640 -2.4140 -0.4838
18816THY    CA153972   4.337   2.604   5.142 -0.0009  0.1032  0.1706
18816THY    CA253973   4.456   2.537   5.129 -0.7000 -0.6393 -0.2259
18816THY    CP153974   4.589   2.603   5.181 -0.1795  0.1290  0.0573
18816THY    HP153975   4.560   2.704   5.212 -2.7518 -0.1628 -0.5483
18816THY    CP253976   4.695   2.607   5.063 -0.0144 -0.1020  0.6007
18816THY    HP253977   4.723   2.503   5.042 -2.0186  1.6442 -0.3865
18816THY    HP353978   4.778   2.669   5.098  0.7963 -1.1939  0.1418
18816THY    HP453979   4.639   2.652   4.981 -2.0958  1.9337  1.9907
18816THY    CP353980   4.647   2.535   5.310  0.3133  0.0411 -0.8023
18816THY    HP553981   4.670   2.431   5.286 -1.7108 -1.9658 -0.8596
18816THY    HP653982   4.584   2.528   5.399 -1.2062 -0.8767  0.5677
18816THY    HP753983   4.738   2.589   5.340 -1.4771  0.0118  2.4896
18816THY    CA353984   4.455   2.406   5.070 -0.1468  0.1511 -0.6748
18816THY    HA353985   4.544   2.349   5.044 -0.3414  1.8291 -1.8514
18816THY    CA453986   4.338   2.350   5.024 -0.0636 -0.1295  0.5870
18816THY    HA453987   4.331   2.262   4.960 -0.7602 -2.1667  2.0504
18816THY    CA553988   4.220   2.421   5.039  0.1256  0.0285  0.9931
18816THY    CM153989   4.088   2.373   4.986  0.2992 -0.5536  0.5481
18816THY    HM153990   4.096   2.369   4.877  1.0913 -0.4866 -0.0424
18816THY    HM253991   4.002   2.439   5.003  0.0348  0.7067 -0.0934
18816THY    HM353992   4.071   2.272   5.024 -2.1482  0.2012  1.1783
18816THY    CA653993   4.220   2.546   5.100  0.4906  0.1074 -0.5136
18816THY    HA653994   4.123   2.591   5.121  0.6723  0.9112 -0.4786
18817THY      O53995   0.462   3.785   5.145 -0.5185  0.4132 -0.6320
18817THY     HO53996   0.400   3.790   5.070  1.9197 -1.7866 -1.1143
18817THY    CA153997   0.498   3.649   5.153 -0.5376 -0.0622 -0.2787
18817THY    CA253998   0.533   3.583   5.274 -0.4066 -1.0833 -0.0360
18817THY    CP153999   0.560   3.668   5.400  0.1657  0.5317 -0.0448
18817THY    HP154000   0.582   3.769   5.362  3.7015  0.3993 -0.7456
18817THY    CP254001   0.678   3.617   5.478 -0.0496 -0.2977  0.5556
18817THY    HP254002   0.644   3.536   5.544 -1.7335  0.4461  1.8019
18817THY    HP354003   0.737   3.694   5.529 -0.3049  0.6387  0.1495
18817THY    HP454004   0.752   3.582   5.405  1.9993  1.7714  0.3540
18817THY    CP354005   0.441   3.682   5.494 -0.1787 -0.4161  0.0488
18817THY    HP554006   0.375   3.762   5.460 -0.2620  0.3002  0.2897
18817THY    HP654007   0.472   3.740   5.581  2.5071 -1.3042  0.1083
18817THY    HP754008   0.388   3.591   5.524  0.0064  0.2805  0.1639
18817THY    CA354009   0.552   3.443   5.283 -0.6660  0.3081 -0.3542
18817THY    HA354010   0.574   3.391   5.376 -0.4116  0.3114 -0.2423
18817THY    CA454011   0.555   3.366   5.162 -0.1988 -0.0987  0.0418
18817THY    HA454012   0.585   3.261   5.168  0.5194 -1.3882  0.1543
18817THY    CA554013   0.538   3.439   5.038 -0.1849 -0.8444  0.5899
18817THY    CM154014   0.544   3.363   4.913  0.5543  0.6678  0.1106
18817THY    HM154015   0.470   3.282   4.914  2.3006 -1.8365 -1.6676
18817THY    HM254016   0.644   3.320   4.902  0.4508  0.7924 -0.1654
18817THY    HM354017   0.516   3.430   4.830  1.5459 -1.6457 -2.1602
18817THY    CA654018   0.503   3.573   5.038 -0.1300 -0.3458  0.1597
18817THY    HA654019   0.481   3.620   4.942 -0.7618 -0.1359  0.3030
18818THY      O54020   3.169   6.504   3.941 -0.2057  0.6407 -0.1419
18818THY     HO54021   3.164   6.542   3.852 -0.7621 -0.2036 -2.0993
18818THY    CA154022   3.282   6.425   3.931 -0.2195  0.1475 -0.0082
18818THY    CA254023   3.309   6.336   4.034  0.0710  0.1736 -0.7299
18818THY    CP154024   3.221   6.335   4.159  0.4021  0.1623  0.3515
18818THY    HP154025   3.183   6.437   4.171 -1.4232 -0.3375 -0.2320
18818THY    CP254026   3.290   6.294   4.287 -0.0011 -0.2811  0.0527
18818THY    HP254027   3.396   6.319   4.293  0.6451  0.2415 -2.5360
18818THY    HP354028   3.298   6.184   4.284  0.5780 -0.7531  0.0976
18818THY    HP454029   3.231   6.320   4.375 -0.6042 -0.6662  0.0234
18818THY    CP354030   3.095   6.239   4.152  0.5220  0.6185 -0.0124
18818THY    HP554031   3.131   6.137   4.133 -2.4124 -1.6398 -0.7745
18818THY    HP654032   3.021   6.275   4.079 -0.0034  1.4057  0.5499
18818THY    HP754033   3.042   6.239   4.247 -0.7006 -0.0075  1.6730
18818THY    CA354034   3.404   6.241   4.014 -0.3776 -0.2983  0.0495
18818THY    HA354035   3.413   6.167   4.093 -2.1237 -1.5302 -1.5559
18818THY    CA454036   3.475   6.229   3.891  0.2540 -0.5508 -0.0499
18818THY    HA454037   3.543   6.146   3.872  1.1330 -0.1555  0.5530
18818THY    CA554038   3.441   6.314   3.790 -0.5475  0.4892  0.2305
18818THY    CM154039   3.493   6.290   3.648  0.0534 -0.2131 -0.0119
18818THY    HM154040   3.470   6.186   3.621  0.5828  3.4528 -1.2211
18818THY    HM254041   3.600   6.310   3.637 -0.4972 -2.2463  2.2891
18818THY    HM354042   3.450   6.349   3.567 -0.2396  0.4635  0.7188
18818THY    CA654043   3.350   6.424   3.813  0.3498  0.1253  0.6105
18818THY    HA654044   3.326   6.493   3.732  0.1317 -0.3604 -0.0200
18819THY      O54045   1.981   6.297   6.735 -0.1239  0.4128 -0.4386
18819THY     HO54046   1.975   6.290   6.639  1.6652  0.2547 -0.1685
18819THY    CA154047   1.917   6.409   6.773 -0.0432 -0.3404 -0.4124
18819THY    CA254048   1.941   6.470   6.898  0.7309 -0.5535  0.2766
18819THY    CP154049   2.042   6.413   6.997  0.1828  0.6222 -0.4565
18819THY    HP154050   2.066   6.311   6.965 -0.5493 -1.4703 -0.0194
18819THY    CP254051   1.980   6.399   7.137 -0.1098 -0.0558 -0.1401
18819THY    HP254052   1.902   6.324   7.121 -1.3877  1.4190  0.8226
18819THY    HP354053   1.924   6.488   7.166  0.5731  0.1247  0.2376
18819THY    HP454054   2.044   6.361   7.218 -0.4781  0.3119  0.0156
18819THY    CP354055   2.174   6.487   6.993 -0.2157  0.2224 -0.0335
18819THY    HP554056   2.209   6.502   6.890 -1.2023 -0.2139 -0.5821
18819THY    HP654057   2.247   6.417   7.034  0.2857  1.6731  1.3160
18819THY    HP754058   2.171   6.584   7.043  0.4591 -2.0258  1.2230
18819THY    CA354059   1.885   6.596   6.921 -0.9463  0.1371 -0.1492
18819THY    HA354060   1.900   6.654   7.011 -1.7304 -0.7026  1.3987
18819THY    CA454061   1.805   6.656   6.813 -0.1310 -0.9464 -0.4233
18819THY    HA454062   1.769   6.758   6.827  1.9239 -1.2272  0.3982
18819THY    CA554063   1.784   6.591   6.689  0.1352 -0.2001 -0.0943
18819THY    CM154064   1.698   6.646   6.586 -0.5837  0.2850 -0.5107
18819THY    HM154065   1.697   6.754   6.607  0.3522  1.0525 -0.6451
18819THY    HM254066   1.593   6.615   6.588 -2.0602 -1.2891  3.6723
18819THY    HM354067   1.731   6.622   6.484  0.6332  0.7948 -1.0734
18819THY    CA654068   1.839   6.471   6.675  0.3183  0.6395 -0.1963
18819THY    HA654069   1.827   6.402   6.592  0.4484  1.7339 -1.5837
18820THY      O54070   1.118   3.849   7.655  0.3479  0.0948  0.1418
18820THY     HO54071   1.045   3.865   7.592  1.2240 -0.7927  0.7858
18820THY    CA154072   1.094   3.934   7.757 -0.0556 -0.8706 -0.0597
18820THY    CA254073   1.183   3.974   7.854 -0.1242  0.6585  0.0414
18820THY    CP154074   1.328   3.930   7.842 -0.7565  0.1463 -0.1395
18820THY    HP154075   1.343   3.870   7.751  2.5235  0.4821 -0.0462
18820THY    CP254076   1.368   3.845   7.965 -0.1321  0.1723 -0.1602
18820THY    HP254077   1.462   3.789   7.956  0.0286  0.7386  0.0071
18820THY    HP354078   1.288   3.775   7.992  0.6252 -0.2387 -1.2175
18820THY    HP454079   1.387   3.909   8.052  0.1434  1.4879 -1.9187
18820THY    CP354080   1.421   4.053   7.829  0.3640  0.1326  0.0791
18820THY    HP554081   1.391   4.099   7.734 -0.1507 -0.7556 -1.9812
18820THY    HP654082   1.526   4.028   7.844  0.1078  0.6541 -0.7113
18820THY    HP754083   1.404   4.127   7.909 -0.9736  0.2100 -0.2805
18820THY    CA354084   1.142   4.054   7.965  0.6068  1.1910  0.3753
18820THY    HA354085   1.209   4.091   8.043  2.0868 -0.3809  1.1612
18820THY    CA454086   1.004   4.085   7.974 -0.3470 -0.0966  0.3943
18820THY    HA454087   0.950   4.136   8.053 -3.5500  0.8630 -3.9152
18820THY    CA554088   0.919   4.056   7.867 -0.1930  0.1270  0.3805
18820THY    CM154089   0.783   4.117   7.869  0.2598  0.2102 -0.5324
18820THY    HM154090   0.754   4.125   7.764  0.0639  0.1993 -1.3531
18820THY    HM254091   0.781   4.217   7.914 -2.7625 -0.0395 -0.3900
18820THY    HM354092   0.711   4.052   7.920 -0.2677 -0.1190 -0.2128
18820THY    CA654093   0.965   3.984   7.762  0.3153  0.5108  0.3298
18820THY    HA654094   0.897   3.958   7.681 -0.6679  1.4523 -0.1230
18821THY      O54095   1.770   4.296   5.805  0.5432  0.3579 -0.3608
18821THY     HO54096   1.725   4.342   5.878  1.8272  0.5550  0.6385
18821THY    CA154097   1.889   4.262   5.849 -0.1261  0.3876 -0.3929
18821THY    CA254098   1.994   4.218   5.766  0.9921  0.1610  0.0522
18821THY    CP154099   1.966   4.183   5.628 -0.6682  1.0096  0.5057
18821THY    HP154100   1.872   4.222   5.585  0.2745 -2.1441 -0.3880
18821THY    CP254101   1.962   4.026   5.611 -0.3098  0.5344 -0.6875
18821THY    HP254102   2.053   3.979   5.650 -0.3190 -0.7300 -1.8148
18821THY    HP354103   1.956   4.008   5.504 -0.2104  0.1559  1.2840
18821THY    HP454104   1.877   3.992   5.672  1.3004  2.9544 -0.6223
18821THY    CP354105   2.073   4.237   5.527  0.4673 -0.2743 -0.0805
18821THY    HP554106   2.080   4.346   5.537 -0.0981 -2.6946  0.2278
18821THY    HP654107   2.053   4.209   5.423 -1.3969  0.0513 -0.0742
18821THY    HP754108   2.176   4.202   5.545  0.4356  2.6142  1.0348
18821THY    CA354109   2.128   4.208   5.817 -0.1226  0.7932 -0.0063
18821THY    HA354110   2.206   4.172   5.751  0.3941  0.8410  0.9978
18821THY    CA454111   2.154   4.239   5.949 -0.1086  0.2515  0.2004
18821THY    HA454112   2.254   4.233   5.991  0.3309 -0.5752  1.5176
18821THY    CA554113   2.052   4.285   6.025  0.2935  0.8081  0.2270
18821THY    CM154114   2.076   4.339   6.157 -0.1307 -0.4937 -0.0702
18821THY    HM154115   1.985   4.355   6.216  0.7653  0.5237  1.5105
18821THY    HM254116   2.133   4.432   6.149  2.6670  0.6593 -1.5384
18821THY    HM354117   2.146   4.275   6.214 -0.1390  0.6423  0.9068
18821THY    CA654118   1.918   4.285   5.978 -0.5070  0.1407 -0.1721
18821THY    HA654119   1.845   4.333   6.042  1.4753  1.2846  1.4338
18822THY      O54120   3.366   7.944   7.019 -0.2777  0.0410  0.8244
18822THY     HO54121   3.438   7.909   6.965 -1.0209 -1.8690  2.0960
18822THY    CA154122   3.381   7.916   7.152  0.0159 -0.1553  0.4109
18822THY    CA254123   3.272   7.925   7.244 -0.5198  0.4614 -0.2776
18822THY    CP154124   3.133   7.977   7.196 -0.6224  0.7692 -0.5581
18822THY    HP154125   3.117   8.002   7.091 -0.6397  0.6836 -0.9306
18822THY    CP254126   3.091   8.103   7.258  0.2987 -0.2684 -0.7935
18822THY    HP254127   2.990   8.130   7.226  0.3926  0.7978  0.9537
18822THY    HP354128   3.157   8.184   7.221  0.1875 -1.1457 -1.0889
18822THY    HP454129   3.082   8.094   7.366 -1.2594 -0.3659 -0.6636
18822THY    CP354130   3.034   7.867   7.218 -0.0077  0.1765 -0.2334
18822THY    HP554131   3.074   7.786   7.156 -0.5022  0.9765 -1.1057
18822THY    HP654132   2.945   7.900   7.164  1.3530 -2.6919 -0.9208
18822THY    HP754133   3.023   7.833   7.322  0.0432  0.8870  1.7996
18822THY    CA354134   3.283   7.882   7.376 -0.0272 -0.4453 -0.0479
18822THY    HA354135   3.208   7.889   7.454 -0.3891 -0.8808  1.2574
18822THY    CA454136   3.414   7.838   7.419  0.1259  0.8019 -0.6904
18822THY    HA454137   3.443   7.821   7.522  0.4951  1.1293  1.6376
18822THY    CA554138   3.523   7.845   7.331  0.3063  0.1037 -0.1058
18822THY    CM154139   3.661   7.837   7.389 -0.1393 -0.0439 -0.4267
18822THY    HM154140   3.734   7.823   7.308  0.7902  0.6806  0.1236
18822THY    HM254141   3.667   7.748   7.453 -1.1177  3.3090  1.7469
18822THY    HM354142   3.693   7.921   7.451  2.8289 -0.0010 -1.4839
18822THY    CA654143   3.510   7.887   7.193  0.0840 -0.8336 -0.0757
18822THY    HA654144   3.599   7.891   7.131  0.4333 -0.4616 -1.4854
18823THY      O54145   0.464   0.488   5.865 -0.2242  0.6335 -0.4795
18823THY     HO54146   0.399   0.433   5.818 -1.6301 -1.5297  2.7249
18823THY    CA154147   0.544   0.539   5.760 -0.3445  0.3292 -0.5774
18823THY    CA254148   0.678   0.565   5.783 -0.3861  0.2436 -0.2573
18823THY    CP154149   0.737   0.548   5.923  0.3537  0.4276  0.1920
18823THY    HP154150   0.656   0.548   5.997 -0.3189 -0.2544  2.3884
18823THY    CP254151   0.839   0.661   5.972 -0.7615 -0.6286  0.1069
18823THY    HP254152   0.915   0.680   5.895 -0.2644  0.1207  1.2258
18823THY    HP354153   0.895   0.614   6.053 -0.0687 -1.8520 -1.2419
18823THY    HP454154   0.783   0.748   6.009  0.4661 -0.4436  0.8376
18823THY    CP354155   0.803   0.403   5.923  0.0560  0.7933  0.4339
18823THY    HP554156   0.735   0.330   5.877  2.0149 -1.2895 -0.1967
18823THY    HP654157   0.845   0.373   6.020  0.9630  0.2784  0.0145
18823THY    HP754158   0.879   0.398   5.845 -0.5519  0.2311 -0.3989
18823THY    CA354159   0.767   0.589   5.684  0.2951  0.3664 -0.4625
18823THY    HA354160   0.871   0.610   5.706  0.0205  0.9495  0.3163
18823THY    CA454161   0.714   0.605   5.557  0.1555  1.0214  0.2862
18823THY    HA454162   0.774   0.636   5.472 -0.7723  0.9326  1.9572
18823THY    CA554163   0.579   0.573   5.526 -0.9004  0.7477  0.0274
18823THY    CM154164   0.529   0.567   5.381 -0.1131  0.1634  0.4996
18823THY    HM154165   0.446   0.637   5.369  0.0123 -1.3815  0.4063
18823THY    HM254166   0.484   0.468   5.363 -2.9146  1.2911  1.4506
18823THY    HM354167   0.612   0.579   5.311 -0.6755 -0.8359 -1.1490
18823THY    CA654168   0.495   0.537   5.630 -0.9558  0.7188 -0.3389
18823THY    HA654169   0.392   0.513   5.604 -0.5114 -2.7243  0.8884
18824THY      O54170   5.245   9.378   5.384  0.3364  0.4032 -0.4339
18824THY     HO54171   5.304   9.456   5.385  0.1067 -2.2892 -0.1056
18824THY    CA154172   5.273   9.313   5.271 -0.0374 -0.8656  0.9534
18824THY    CA254173   5.217   9.186   5.243 -0.0001 -0.0562 -0.2385
18824THY    CP154174   5.133   9.109   5.346 -0.1406 -0.1674  0.3111
18824THY    HP154175   5.187   9.132   5.439  0.5864 -1.1320  2.8992
18824THY    CP254176   5.121   8.953   5.328  0.3189 -0.2200 -0.9095
18824THY    HP254177   5.220   8.910   5.347  1.6940 -0.8300  1.8044
18824THY    HP354178   5.086   8.927   5.227  1.1115 -1.4348  2.2637
18824THY    HP454179   5.054   8.906   5.401  1.4995  1.3352 -0.2729
18824THY    CP354180   4.991   9.165   5.353 -0.0864  0.0506  0.4566
18824THY    HP554181   4.919   9.095   5.396 -2.2738 -0.2482  2.4234
18824THY    HP654182   4.948   9.187   5.254  0.3941 -0.5469 -1.1840
18824THY    HP754183   4.997   9.261   5.405  0.6580 -2.1182  1.6610
18824THY    CA354184   5.232   9.137   5.114  0.4454  0.3591 -0.7163
18824THY    HA354185   5.200   9.037   5.087  1.5905 -1.9517 -0.5274
18824THY    CA454186   5.312   9.206   5.023  0.0142  0.6158  0.7869
18824THY    HA454187   5.323   9.167   4.923  3.0216  0.8400  0.7999
18824THY    CA554188   5.358   9.331   5.056  0.0342  0.0450  0.2232
18824THY    CM154189   5.415   9.418   4.950  0.1198 -1.2098  0.2208
18824THY    HM154190   5.341   9.487   4.909  2.4790 -3.5944  1.4887
18824THY    HM254191   5.468   9.354   4.879  1.2556  2.2305 -3.0549
18824THY    HM354192   5.496   9.482   4.987 -0.1378 -0.2732  0.0312
18824THY    CA654193   5.335   9.388   5.177  0.2941 -0.7262 -0.3578
18824THY    HA654194   5.358   9.493   5.189  1.9348 -1.4944 -0.5903
18825THY      O54195   0.660   8.596   3.000 -0.1428 -0.3429 -0.2499
18825THY     HO54196   0.710   8.607   2.918  1.4743  0.8184  1.8081
18825THY    CA154197   0.684   8.462   3.027 -0.2375  0.2979 -0.0206
18825THY    CA254198   0.643   8.366   2.940  0.1913  0.4530  0.5368
18825THY    CP154199   0.561   8.399   2.809 -0.6570 -0.6060 -0.1089
18825THY    HP154200   0.547   8.506   2.790  2.5215 -0.8164  0.3776
18825THY    CP254201   0.412   8.358   2.818 -0.4815  0.6419 -0.0988
18825THY    HP254202   0.378   8.385   2.919  1.7088  1.8851 -1.7002
18825THY    HP354203   0.398   8.250   2.808 -0.4742 -0.4137 -0.0094
18825THY    HP454204   0.361   8.423   2.747 -1.9392  1.7481  0.0244
18825THY    CP354205   0.639   8.352   2.688 -0.4257 -0.3166  0.5593
18825THY    HP554206   0.659   8.245   2.675  1.3841  0.7823  0.7189
18825THY    HP654207   0.734   8.407   2.686 -1.1535 -0.5276  1.8458
18825THY    HP754208   0.596   8.405   2.601  1.5201 -1.4875  0.3036
18825THY    CA354209   0.674   8.227   2.966 -0.1894  0.4991  0.2147
18825THY    HA354210   0.669   8.148   2.891  3.3092 -1.5089  1.6855
18825THY    CA454211   0.742   8.197   3.083 -0.1363 -0.2749  0.1661
18825THY    HA454212   0.776   8.095   3.097  0.7541 -0.3230  0.4420
18825THY    CA554213   0.764   8.295   3.181 -0.1708 -0.4480  0.6853
18825THY    CM154214   0.820   8.253   3.311 -0.6975  0.2904 -0.3694
18825THY    HM154215   0.775   8.155   3.333  0.5309 -1.6801 -1.4370
18825THY    HM254216   0.785   8.324   3.387 -0.3484 -0.1261  0.2574
18825THY    HM354217   0.929   8.254   3.311 -0.7028  0.0713  0.4998
18825THY    CA654218   0.739   8.427   3.150 -0.0502  0.4814  0.5586
18825THY    HA654219   0.745   8.505   3.226 -0.9179 -0.1629  1.2731
18826THY      O54220   2.903   2.303   5.118  0.0025  0.0687  0.5989
18826THY     HO54221   2.895   2.334   5.026  1.3115 -0.2051  0.1777
18826THY    CA154222   3.005   2.370   5.181 -0.3122  0.9416  0.5969
18826THY    CA254223   3.032   2.367   5.319  0.1090 -0.6004  0.2633
18826THY    CP154224   2.943   2.282   5.403  0.0232 -0.3697  0.4730
18826THY    HP154225   2.847   2.304   5.354  0.7808 -2.7347 -1.1506
18826THY    CP254226   2.933   2.320   5.555 -0.0658  0.4885 -0.2539
18826THY    HP254227   2.855   2.254   5.596  1.6878  2.8675 -0.9943
18826THY    HP354228   2.910   2.424   5.580  0.9115 -0.0201  0.0955
18826THY    HP454229   3.026   2.293   5.607  0.5014  0.2283  1.1317
18826THY    CP354230   2.963   2.131   5.396 -0.6771  0.6345  0.1658
18826THY    HP554231   2.926   2.090   5.301 -1.2897  0.8332  0.2539
18826THY    HP654232   2.933   2.078   5.487 -2.8514  0.0767  0.3347
18826THY    HP754233   3.072   2.119   5.397 -0.7672 -0.9765 -1.1773
18826THY    CA354234   3.138   2.443   5.372  0.0650  0.4889 -0.6959
18826THY    HA354235   3.150   2.444   5.480 -2.8467  0.8953  0.8378
18826THY    CA454236   3.223   2.513   5.286  0.4590 -0.3083 -0.1566
18826THY    HA454237   3.307   2.568   5.327  0.3637  2.1220 -1.6383
18826THY    CA554238   3.204   2.514   5.152  0.6545  0.2226  0.6150
18826THY    CM154239   3.289   2.599   5.060 -0.5326 -0.4341  0.6947
18826THY    HM154240   3.325   2.689   5.111 -0.7657  2.1813 -0.6149
18826THY    HM254241   3.231   2.629   4.972 -0.5270 -2.3027 -3.8690
18826THY    HM354242   3.375   2.543   5.022 -1.2358 -3.6471  1.5917
18826THY    CA654243   3.088   2.447   5.101 -0.5976  0.6172 -0.0655
18826THY    HA654244   3.063   2.453   4.995 -0.4742  0.5918 -0.0057
18827THY      O54245   8.732   1.560   5.442  0.2528  0.5864 -0.3659
18827THY     HO54246   8.643   1.529   5.419 -0.3091  0.1430  1.4861
18827THY    CA154247   8.737   1.677   5.386 -0.4460 -0.0526 -0.0882
18827THY    CA254248   8.829   1.777   5.416 -0.3032 -1.5470  0.2642
18827THY    CP154249   8.938   1.757   5.517  0.2219  0.8168 -0.6159
18827THY    HP154250   8.954   1.649   5.529 -0.1246  1.9612 -0.5601
18827THY    CP254251   8.902   1.809   5.653 -0.6554 -0.0677 -0.4155
18827THY    HP254252   8.992   1.823   5.714 -1.5640  1.1757  0.1646
18827THY    HP354253   8.838   1.741   5.711 -0.8338  2.3278  1.6672
18827THY    HP454254   8.867   1.912   5.648 -0.2763 -0.7061 -0.3124
18827THY    CP354255   9.066   1.826   5.462 -0.1315  0.0991  0.2577
18827THY    HP554256   9.099   1.916   5.516 -1.0770  1.1012  0.0281
18827THY    HP654257   9.069   1.841   5.354  0.9064 -0.0181 -0.6554
18827THY    HP754258   9.139   1.746   5.481  0.1538 -2.8117 -0.2781
18827THY    CA354259   8.810   1.901   5.354  0.3876  0.0969 -0.1661
18827THY    HA354260   8.864   1.991   5.384  0.1485  0.8053 -0.2553
18827THY    CA454261   8.719   1.918   5.248 -0.2741 -0.1869 -0.2471
18827THY    HA454262   8.707   2.019   5.209 -0.3296 -1.2970 -0.6728
18827THY    CA554263   8.640   1.811   5.208  0.3938 -0.4419 -0.5281
18827THY    CM154264   8.521   1.824   5.108 -0.4094  0.4563 -0.7632
18827THY    HM154265   8.473   1.914   5.149  1.5472  0.2451  0.4468
18827THY    HM254266   8.445   1.745   5.113 -1.7870  0.5201  0.5112
18827THY    HM354267   8.538   1.848   5.003  0.3589  0.8872  0.7186
18827THY    CA654268   8.653   1.691   5.277 -0.1347 -0.0577  0.5837
18827THY    HA654269   8.584   1.612   5.249 -0.0635 -1.0152  0.8408
18828THY      O54270   5.035   3.094   7.470  0.2480  0.2269 -0.0683
18828THY     HO54271   5.108   3.133   7.420  0.3651  1.1322  0.9224
18828THY    CA154272   5.003   2.987   7.399 -0.1274  0.5269 -0.0320
18828THY    CA254273   4.872   2.928   7.424 -0.2800  0.3355 -0.0001
18828THY    CP154274   4.776   2.969   7.537 -0.7415 -0.4457  0.6411
18828THY    HP154275   4.827   3.034   7.609  0.3047 -1.4518  0.9754
18828THY    CP254276   4.736   2.853   7.625  0.2833  0.4696 -0.5249
18828THY    HP254277   4.669   2.888   7.706 -0.2364 -0.2992  0.3171
18828THY    HP354278   4.829   2.805   7.655  1.2498  0.2077  1.1291
18828THY    HP454279   4.680   2.781   7.565 -0.2754  2.4009 -1.8028
18828THY    CP354280   4.660   3.045   7.473 -0.5639  0.2743  0.2088
18828THY    HP554281   4.616   2.998   7.384 -2.2996 -0.0415  2.2488
18828THY    HP654282   4.696   3.146   7.448  0.8034  0.7493 -0.1328
18828THY    HP754283   4.576   3.057   7.542 -1.2554 -0.7211  1.4547
18828THY    CA354284   4.835   2.831   7.329  0.1145  0.1047 -0.2000
18828THY    HA354285   4.740   2.777   7.336  0.2596 -0.8140 -0.5924
18828THY    CA454286   4.914   2.787   7.222 -0.6126  0.5707 -0.4077
18828THY    HA454287   4.876   2.709   7.156 -0.5430  0.7431 -0.5875
18828THY    CA554288   5.040   2.843   7.207 -0.7291  0.0579 -0.6340
18828THY    CM154289   5.127   2.826   7.086 -0.2173  0.0914 -0.2180
18828THY    HM154290   5.219   2.772   7.112  1.9525 -1.6973  2.3204
18828THY    HM254291   5.164   2.925   7.057  1.1895 -0.5221 -0.8935
18828THY    HM354292   5.076   2.775   7.003  0.3613 -0.1001 -0.4941
18828THY    CA654293   5.083   2.940   7.294  0.1071  0.2201 -0.2758
18828THY    HA654294   5.181   2.980   7.269  1.5066 -0.3283 -3.6664
18829THY      O54295   4.074   0.853   3.788 -0.1551 -0.1276  0.5679
18829THY     HO54296   4.078   0.862   3.691 -0.6707 -0.2352 -0.2614
18829THY    CA154297   3.936   0.879   3.805  0.1090  0.0254 -0.4951
18829THY    CA254298   3.867   0.852   3.928 -0.4218  0.8049  0.5168
18829THY    CP154299   3.944   0.777   4.030  0.2100  0.0252 -0.4435
18829THY    HP154300   4.049   0.773   4.000 -0.6002 -3.1465 -0.3292
18829THY    CP254301   3.904   0.633   4.033  0.3296  0.7787  0.3752
18829THY    HP254302   3.981   0.571   4.082 -0.5938  0.6168 -0.9446
18829THY    HP354303   3.899   0.598   3.929  2.6409  1.0354 -0.9662
18829THY    HP454304   3.812   0.608   4.087  0.6121  0.7029 -0.9180
18829THY    CP354305   3.933   0.830   4.170  0.3128  0.2058  0.1368
18829THY    HP554306   3.981   0.770   4.249  0.4591  0.5749  0.7304
18829THY    HP654307   3.828   0.837   4.201  0.3615  1.3693 -2.8867
18829THY    HP754308   3.984   0.927   4.171  1.9298 -1.9436 -0.6166
18829THY    CA354309   3.744   0.904   3.943  0.5245  0.2866 -0.5401
18829THY    HA354310   3.690   0.895   4.037  1.5054  0.9696  0.4723
18829THY    CA454311   3.684   0.959   3.834  0.4844 -0.4950 -0.4570
18829THY    HA454312   3.584   1.001   3.843  0.2917  0.2156 -1.0429
18829THY    CA554313   3.741   0.973   3.709  0.1392  0.0481 -0.7581
18829THY    CM154314   3.674   1.049   3.600  0.2997  0.3502  0.4091
18829THY    HM154315   3.672   0.992   3.506 -0.1307  0.2858  0.5304
18829THY    HM254316   3.725   1.140   3.566 -0.8786  0.8759  1.2930
18829THY    HM354317   3.573   1.079   3.630  0.4083  2.0333 -0.7415
18829THY    CA654318   3.879   0.942   3.699  0.9820  0.0699  0.7187
18829THY    HA654319   3.939   0.963   3.610  1.0749 -0.3656 -1.1893
18830THY      O54320   7.384   8.561   2.626 -0.1359 -0.0382 -0.1829
18830THY     HO54321   7.466   8.610   2.644 -1.1184  1.5400  1.0034
18830THY    CA154322   7.393   8.528   2.501 -0.1595  0.1592 -0.0312
18830THY    CA254323   7.330   8.412   2.453 -0.2466 -0.4403  0.3433
18830THY    CP154324   7.261   8.314   2.554  0.3830 -0.4247  0.3047
18830THY    HP154325   7.239   8.353   2.654  0.7104 -0.0720 -0.3780
18830THY    CP254326   7.357   8.204   2.585 -0.1955 -0.1618  0.4680
18830THY    HP254327   7.318   8.149   2.671 -0.1323  0.3385  1.1870
18830THY    HP354328   7.459   8.240   2.604  0.3536 -1.1311 -0.5276
18830THY    HP454329   7.362   8.132   2.503 -0.9291 -0.6895  1.0034
18830THY    CP354330   7.122   8.277   2.524  0.4262  0.5460  0.2842
18830THY    HP554331   7.107   8.273   2.415 -0.2638  0.6402  0.1151
18830THY    HP654332   7.054   8.359   2.552  1.4444  0.4937  1.1644
18830THY    HP754333   7.088   8.190   2.581  0.6394  2.3418  1.3203
18830THY    CA354334   7.345   8.375   2.319 -0.7052 -0.3828  0.5911
18830THY    HA354335   7.295   8.285   2.285 -1.8087  1.9723  0.2443
18830THY    CA454336   7.425   8.456   2.233 -0.2042 -0.3097 -0.1584
18830THY    HA454337   7.439   8.422   2.131 -1.3447 -0.2531 -0.8277
18830THY    CA554338   7.486   8.576   2.280  0.1045 -0.4728  0.4996
18830THY    CM154339   7.574   8.656   2.187  0.0770 -0.3994 -0.4079
18830THY    HM154340   7.520   8.741   2.144  2.8730 -1.3727  0.9911
18830THY    HM254341   7.608   8.591   2.105 -0.0638 -1.7904  1.1903
18830THY    HM354342   7.659   8.696   2.242 -0.0550  0.4587 -1.2658
18830THY    CA654343   7.472   8.610   2.416 -0.5530  0.3951 -0.4750
18830THY    HA654344   7.506   8.708   2.448 -0.1739  0.1844 -0.5385
18831THY      O54345   8.164   2.463   7.010 -0.6870 -0.0746 -0.5074
18831THY     HO54346   8.084   2.460   6.955 -1.4039  0.9605 -2.4855
18831THY    CA154347   8.229   2.591   6.988  0.4536 -0.2588  0.4345
18831THY    CA254348   8.372   2.600   6.981 -0.0830  0.5498 -0.4054
18831THY    CP154349   8.476   2.492   6.994 -0.1590 -0.7417  0.4623
18831THY    HP154350   8.435   2.412   7.057 -0.6257  0.5032  1.6323
18831THY    CP254351   8.613   2.532   7.058 -0.1555  0.8960 -0.4366
18831THY    HP254352   8.678   2.572   6.980  0.8668  0.9147 -1.9961
18831THY    HP354353   8.665   2.442   7.092  1.2092 -3.2544 -1.4288
18831THY    HP454354   8.599   2.616   7.128 -0.8410 -0.9327  1.0452
18831THY    CP354355   8.491   2.429   6.857 -0.5608 -0.6060  0.0621
18831THY    HP554356   8.508   2.505   6.779  2.0752  3.0756  3.7159
18831THY    HP654357   8.396   2.378   6.840  0.1435 -0.9473 -1.1875
18831THY    HP754358   8.578   2.364   6.845 -0.8533 -0.8277 -0.2925
18831THY    CA354359   8.422   2.734   6.942  0.0744  0.2448  0.0575
18831THY    HA354360   8.527   2.750   6.920  0.1325 -2.2649 -2.8862
18831THY    CA454361   8.340   2.840   6.941  0.7016  0.0681  0.3111
18831THY    HA454362   8.382   2.939   6.920 -0.5916  1.2655  1.1483
18831THY    CA554363   8.197   2.829   6.970  0.4162 -0.0699 -0.3781
18831THY    CM154364   8.105   2.938   6.977 -0.1855 -0.5198  0.4768
18831THY    HM154365   8.047   2.928   7.070 -0.9516 -0.9915  0.4417
18831THY    HM254366   8.032   2.943   6.896 -0.8267  0.0850  1.3742
18831THY    HM354367   8.149   3.038   6.974 -0.4188 -0.0832  0.5960
18831THY    CA654368   8.145   2.702   6.986  0.2589 -0.0572 -0.0235
18831THY    HA654369   8.039   2.682   6.988 -0.2552  1.6058  2.4598
18832THY      O54370   7.178   2.475   7.098 -0.0362 -0.5864  0.3309
18832THY     HO54371   7.182   2.418   7.019 -1.7581  0.3232 -1.1715
18832THY    CA154372   7.213   2.599   7.044 -0.3662 -0.2208 -0.1248
18832THY    CA254373   7.267   2.701   7.128  0.4222  0.0479 -0.3288
18832THY    CP154374   7.284   2.670   7.281 -0.2339  0.2394  0.0570
18832THY    HP154375   7.198   2.613   7.319 -1.5702  0.3400  2.0200
18832THY    CP254376   7.264   2.807   7.351 -0.5371 -0.7298  0.6396
18832THY    HP254377   7.231   2.790   7.454  0.7407 -0.3155  0.5426
18832THY    HP354378   7.186   2.871   7.310 -1.9883 -1.6525 -1.6161
18832THY    HP454379   7.363   2.853   7.363  1.3242  0.4250 -3.2331
18832THY    CP354380   7.421   2.606   7.320  0.4685 -1.0783  0.0398
18832THY    HP554381   7.454   2.642   7.418  1.5929 -2.0224  1.6515
18832THY    HP654382   7.490   2.627   7.238 -0.6996 -1.7921  1.2596
18832THY    HP754383   7.394   2.499   7.318  1.6680 -2.4455 -0.2624
18832THY    CA354384   7.305   2.825   7.068  1.0129  0.2655 -0.8974
18832THY    HA354385   7.367   2.900   7.116 -0.6949 -0.8815  1.4026
18832THY    CA454386   7.278   2.852   6.934  0.6734  0.0615 -0.0620
18832THY    HA454387   7.293   2.948   6.886 -1.4968 -0.4586  0.0845
18832THY    CA554388   7.222   2.753   6.857 -0.2831 -0.4076 -0.1342
18832THY    CM154389   7.194   2.777   6.716 -0.1949  0.1737 -0.3148
18832THY    HM154390   7.119   2.858   6.712 -1.1587  0.8462 -1.1433
18832THY    HM254391   7.148   2.689   6.670 -1.2480  2.9296 -1.3120
18832THY    HM354392   7.290   2.790   6.666  0.9772  2.2375 -0.6449
18832THY    CA654393   7.193   2.629   6.913  0.2761 -0.1891 -0.0392
18832THY    HA654394   7.148   2.547   6.856  1.8293 -2.5269  0.6265
18833THY      O54395   1.430   3.993   2.525  0.0121  0.1017  0.5562
18833THY     HO54396   1.371   4.042   2.583 -1.5209 -1.5561  0.7858
18833THY    CA154397   1.340   3.931   2.441  0.0977  0.4886 -0.2709
18833THY    CA254398   1.374   3.813   2.369  0.0951 -0.7076 -0.0648
18833THY    CP154399   1.518   3.761   2.377  0.2638 -0.3104  0.0565
18833THY    HP154400   1.575   3.828   2.442  0.5605 -1.1654  0.6454
18833THY    CP254401   1.596   3.767   2.248  0.1597  0.1041  0.6072
18833THY    HP254402   1.613   3.872   2.222 -0.6347 -1.2399  0.4316
18833THY    HP354403   1.538   3.712   2.173 -0.2422  1.9804 -1.6996
18833THY    HP454404   1.696   3.721   2.255  0.0736 -2.6564 -0.1915
18833THY    CP354405   1.525   3.611   2.431  0.1134  0.6211  0.6286
18833THY    HP554406   1.617   3.584   2.484  0.0748  0.2542 -0.2549
18833THY    HP654407   1.512   3.540   2.349 -3.3087  0.7160  0.9705
18833THY    HP754408   1.441   3.586   2.497 -0.9883 -1.6680 -2.3288
18833THY    CA354409   1.275   3.744   2.297 -0.0760 -0.3543 -0.2401
18833THY    HA354410   1.291   3.651   2.243 -2.0350 -1.4884  0.0151
18833THY    CA454411   1.141   3.791   2.299 -0.4705  1.1300 -0.3786
18833THY    HA454412   1.061   3.737   2.249  1.3799 -0.9863 -1.2810
18833THY    CA554413   1.108   3.903   2.373  0.0531  0.1567  0.3796
18833THY    CM154414   0.964   3.951   2.389  1.0041  0.1389 -0.4621
18833THY    HM154415   0.924   3.944   2.491 -0.1528 -0.1653  1.0293
18833THY    HM254416   0.897   3.903   2.317  0.8330 -0.4626  0.6430
18833THY    HM354417   0.971   4.057   2.364  1.4650  0.6965 -0.3544
18833THY    CA654418   1.208   3.974   2.443  0.7590 -0.8675 -0.5811
18833THY    HA654419   1.173   4.055   2.507  4.9557 -0.9017  1.5088
18834THY      O54420   3.355   3.687   5.213  0.3151 -0.7382  0.5171
18834THY     HO54421   3.345   3.647   5.125  1.7794 -0.7833  0.2063
18834THY    CA154422   3.306   3.614   5.318  0.2371 -0.4337  0.1482
18834THY    CA254423   3.224   3.673   5.423  0.8075 -0.0583  0.0486
18834THY    CP154424   3.195   3.826   5.414  0.3062 -0.2722  0.2579
18834THY    HP154425   3.224   3.867   5.317 -0.9307 -1.1059 -0.7637
18834THY    CP254426   3.274   3.898   5.519  0.2892  0.4589  0.5557
18834THY    HP254427   3.373   3.896   5.471 -0.6628 -1.6309 -2.2036
18834THY    HP354428   3.274   3.856   5.620 -0.6799  0.1952 -0.1023
18834THY    HP454429   3.239   4.001   5.533  0.0317  2.0221  0.2735
18834THY    CP354430   3.049   3.849   5.429 -0.2061  0.4561 -0.2837
18834THY    HP554431   3.019   3.836   5.534 -0.2205  0.1764 -2.9198
18834THY    HP654432   2.989   3.784   5.364  0.0161  0.9273 -0.9657
18834THY    HP754433   3.025   3.955   5.410 -1.1746  2.2776 -0.1267
18834THY    CA354434   3.177   3.587   5.523  0.1221 -0.0878  0.3208
18834THY    HA354435   3.112   3.632   5.597  0.7423  0.7287 -0.1079
18834THY    CA454436   3.217   3.451   5.526 -0.6740 -0.3883 -0.0997
18834THY    HA454437   3.187   3.389   5.610  0.4325  0.6724  0.7661
18834THY    CA554438   3.287   3.396   5.420  0.4146 -0.4536 -0.2557
18834THY    CM154439   3.320   3.256   5.418 -0.1240 -0.3797 -0.3760
18834THY    HM154440   3.386   3.232   5.501 -1.8127  0.2689 -3.2021
18834THY    HM254441   3.379   3.235   5.328 -1.8783 -2.0657  1.3557
18834THY    HM354442   3.232   3.191   5.413 -0.0869 -1.3819 -0.3701
18834THY    CA654443   3.337   3.478   5.318 -0.6650 -0.0795  0.1633
18834THY    HA654444   3.399   3.443   5.236 -0.6460  0.1903 -0.4507
18835THY      O54445   9.033   9.278   7.155  0.2238  0.1633  0.1101
18835THY     HO54446   9.053   9.328   7.074  0.9592 -0.3904 -1.0317
18835THY    CA154447   9.062   9.144   7.142 -0.1432 -0.3494 -0.4901
18835THY    CA254448   9.026   9.046   7.242 -0.4310 -0.5586  0.2144
18835THY    CP154449   8.974   9.094   7.378 -0.0952  0.1779  0.5749
18835THY    HP154450   8.973   9.203   7.384 -1.2408 -0.2719  0.6070
18835THY    CP254451   9.052   9.031   7.500 -0.4733  0.1722 -0.0976
18835THY    HP254452   9.156   9.063   7.490 -0.5174  0.1874  0.0506
18835THY    HP354453   9.032   8.923   7.500 -1.5918 -0.5207  0.0927
18835THY    HP454454   9.008   9.059   7.597 -0.7135  0.2005 -0.5674
18835THY    CP354455   8.827   9.056   7.393  0.5973  0.2650 -0.2298
18835THY    HP554456   8.815   8.951   7.366  1.9619 -2.4627  0.2283
18835THY    HP654457   8.766   9.121   7.329 -0.6795  1.1283 -0.5268
18835THY    HP754458   8.787   9.073   7.494 -0.1371 -0.3663  2.2143
18835THY    CA354459   9.057   8.908   7.224  0.2074  0.1481  0.0244
18835THY    HA354460   9.041   8.835   7.302 -1.0811 -0.3099 -0.2158
18835THY    CA454461   9.113   8.872   7.104 -0.7455  0.1177 -0.1816
18835THY    HA454462   9.149   8.771   7.085 -0.7742  0.9682 -0.3574
18835THY    CA554463   9.132   8.958   7.002 -0.4823 -0.2645  0.5009
18835THY    CM154464   9.210   8.917   6.878 -0.4605 -0.7201 -0.4219
18835THY    HM154465   9.228   8.995   6.803  1.2563  1.2906  1.2362
18835THY    HM254466   9.182   8.825   6.824 -3.0344 -1.0960  0.4786
18835THY    HM354467   9.313   8.902   6.910 -0.7636  0.7247  0.3814
18835THY    CA654468   9.116   9.101   7.019  0.7102 -0.4391 -0.5358
18835THY    HA654469   9.155   9.166   6.942  0.7742  2.1729  2.8068
18836THY      O54470   6.619   4.481   7.321  0.8578 -0.1170  0.4262
18836THY     HO54471   6.663   4.422   7.258 -0.4710 -0.7907  0.1038
18836THY    CA154472   6.484   4.467   7.292 -0.2656  0.5584 -0.2418
18836THY    CA254473   6.389   4.481   7.390 -0.2316  0.1446 -0.5611
18836THY    CP154474   6.431   4.496   7.535  0.4700 -0.1372  0.7276
18836THY    HP154475   6.536   4.529   7.537  0.7526 -3.0491  0.2741
18836THY    CP254476   6.430   4.359   7.610  0.7368 -0.0315  0.0865
18836THY    HP254477   6.505   4.294   7.563 -0.7540 -1.2354 -0.8614
18836THY    HP354478   6.332   4.309   7.611  0.4248  1.3458  0.6897
18836THY    HP454479   6.459   4.374   7.714 -0.3908 -0.0882  3.5545
18836THY    CP354480   6.340   4.585   7.617  0.7603  0.0359 -1.1053
18836THY    HP554481   6.390   4.615   7.710  3.4894 -1.4952 -0.5991
18836THY    HP654482   6.249   4.535   7.653  1.8167  0.6335 -2.6897
18836THY    HP754483   6.298   4.664   7.554  0.5833  1.4173 -0.0533
18836THY    CA354484   6.251   4.475   7.351 -0.5065  0.5872 -0.7256
18836THY    HA354485   6.176   4.496   7.426 -0.5346  0.6005 -0.8750
18836THY    CA454486   6.216   4.467   7.218  0.6218  0.0016 -0.1591
18836THY    HA454487   6.113   4.446   7.190 -0.5810  2.6559  1.6758
18836THY    CA554488   6.313   4.450   7.122 -1.6919  0.4982  1.1951
18836THY    CM154489   6.268   4.417   6.981 -0.1896  0.0701  0.3197
18836THY    HM154490   6.240   4.507   6.924  2.7162 -0.9431  0.6852
18836THY    HM254491   6.187   4.344   6.995 -2.1458  1.2396  2.5838
18836THY    HM354492   6.344   4.366   6.921 -1.6779 -2.0733  0.4722
18836THY    CA654493   6.448   4.443   7.156 -0.1792  0.4642 -0.4530
18836THY    HA654494   6.518   4.418   7.077 -0.2128 -0.1869  1.3443
18837THY      O54495   5.294   8.913   4.726 -0.4917 -0.0640  0.0013
18837THY     HO54496   5.370   8.957   4.685 -0.6644  1.3326  1.7415
18837THY    CA154497   5.199   8.946   4.642 -0.3692 -0.2972 -0.1152
18837THY    CA254498   5.060   8.967   4.676 -0.1132 -0.3991 -0.5332
18837THY    CP154499   5.019   8.963   4.828  0.4396 -0.3722  0.4787
18837THY    HP154500   5.102   8.948   4.898 -0.5492  0.6603 -0.4170
18837THY    CP254501   4.932   8.838   4.835  0.1981 -0.6466  0.3450
18837THY    HP254502   4.879   8.825   4.930 -1.3183 -1.1818  2.2277
18837THY    HP354503   4.990   8.747   4.818 -1.4202  1.6396 -1.2346
18837THY    HP454504   4.861   8.831   4.751  1.2401 -1.4942 -0.4639
18837THY    CP354505   4.938   9.081   4.879  0.2449 -0.0480 -0.2915
18837THY    HP554506   4.839   9.081   4.831 -0.1055  0.6457 -1.3224
18837THY    HP654507   4.993   9.172   4.853 -2.4112  1.6857  1.9914
18837THY    HP754508   4.927   9.071   4.987  2.4911  0.2308 -0.2736
18837THY    CA354509   4.971   8.994   4.575 -0.8898  0.3090  0.0608
18837THY    HA354510   4.866   9.013   4.596 -0.5274  2.4465 -0.0667
18837THY    CA454511   5.025   9.002   4.441  0.3015 -0.7350  0.0102
18837THY    HA454512   4.964   9.029   4.355  0.1530 -0.6507 -0.0541
18837THY    CA554513   5.159   8.981   4.414  0.1855  0.2819 -0.9220
18837THY    CM154514   5.212   8.998   4.278 -0.0196  0.1731 -0.2178
18837THY    HM154515   5.320   8.992   4.266  0.0140 -0.8180  1.5991
18837THY    HM254516   5.184   9.094   4.233  2.2047  2.0269  1.4189
18837THY    HM354517   5.161   8.921   4.219  0.3202 -0.0358 -0.2818
18837THY    CA654518   5.243   8.952   4.517  0.4098 -0.1839 -0.0091
18837THY    HA654519   5.343   8.924   4.485  0.2431 -3.5015  2.5795
18838THY      O54520   7.300   3.310   5.142 -0.4416 -0.2296 -0.7785
18838THY     HO54521   7.223   3.340   5.193 -0.6745 -0.9144 -0.1953
18838THY    CA154522   7.243   3.228   5.050 -0.0460  0.3487  0.0242
18838THY    CA254523   7.304   3.205   4.924  0.5228 -0.0605  0.5675
18838THY    CP154524   7.434   3.277   4.891 -0.4212 -0.8319 -0.2361
18838THY    HP154525   7.500   3.282   4.979 -0.2416 -0.9832  0.0670
18838THY    CP254526   7.397   3.414   4.839 -0.1195  0.0639 -0.4582
18838THY    HP254527   7.308   3.424   4.777  0.1256 -0.0563  1.2445
18838THY    HP354528   7.482   3.462   4.790  0.0213  0.5894 -0.1579
18838THY    HP454529   7.380   3.483   4.922  1.5766 -0.2553  0.3849
18838THY    CP354530   7.515   3.200   4.785 -0.6217  0.5388 -0.7624
18838THY    HP554531   7.523   3.092   4.800  1.6572  1.7781 -0.4842
18838THY    HP654532   7.620   3.232   4.790 -0.4670  0.5083 -1.2707
18838THY    HP754533   7.482   3.229   4.685 -2.3752  1.4499  0.5426
18838THY    CA354534   7.228   3.136   4.828  0.2553 -0.2526  0.3759
18838THY    HA354535   7.270   3.133   4.728  1.5232  0.2747 -0.0911
18838THY    CA454536   7.095   3.084   4.859 -0.2220 -0.1621 -0.2840
18838THY    HA454537   7.040   3.030   4.782  2.8435 -1.6125 -1.6024
18838THY    CA554538   7.046   3.104   4.989  0.3327  0.2838 -0.6874
18838THY    CM154539   6.918   3.033   5.028  1.1107  0.0144  0.3967
18838THY    HM154540   6.939   2.952   5.099 -0.6188  1.1589  0.9021
18838THY    HM254541   6.850   2.987   4.955 -0.0197  0.0429  1.9326
18838THY    HM354542   6.855   3.104   5.082 -0.1416  0.4370 -0.9703
18838THY    CA654543   7.113   3.185   5.075  0.5298 -0.1661 -0.7277
18838THY    HA654544   7.074   3.193   5.175  0.1401 -0.4593  1.5276
18839THY      O54545   6.317   6.550   7.669  0.2737  0.1033  0.4677
18839THY     HO54546   6.288   6.465   7.631 -1.1689  0.2018  0.8882
18839THY    CA154547   6.436   6.513   7.714 -0.0424  0.1599  0.2338
18839THY    CA254548   6.528   6.607   7.767 -0.2844 -0.5807  0.1021
18839THY    CP154549   6.493   6.755   7.788  0.1057 -0.2858  0.7197
18839THY    HP154550   6.386   6.771   7.768 -0.1982 -0.2551 -1.0708
18839THY    CP254551   6.567   6.837   7.683 -0.2364  1.2803  0.3399
18839THY    HP254552   6.669   6.805   7.662 -0.3691  1.2844 -0.0881
18839THY    HP354553   6.567   6.945   7.705 -0.8963  0.4349  0.5269
18839THY    HP454554   6.521   6.828   7.584  0.5897  0.7452  1.6363
18839THY    CP354555   6.533   6.805   7.927 -0.3845 -0.7776 -0.3502
18839THY    HP554556   6.640   6.798   7.946 -0.4301 -0.4272 -0.1076
18839THY    HP654557   6.470   6.749   7.998  2.4154  2.3822  0.2157
18839THY    HP754558   6.509   6.911   7.933 -3.6280  0.6940 -1.0403
18839THY    CA354559   6.661   6.567   7.792  0.2500 -0.2462  0.2587
18839THY    HA354560   6.737   6.639   7.822  0.1566 -0.0312  0.2678
18839THY    CA454561   6.697   6.437   7.778 -0.1137  0.1331  0.1293
18839THY    HA454562   6.801   6.406   7.783 -0.3535 -0.0458 -0.7096
18839THY    CA554563   6.594   6.338   7.740 -0.4366 -0.1041 -0.5588
18839THY    CM154564   6.631   6.194   7.747  0.2669  0.6145 -0.7682
18839THY    HM154565   6.653   6.170   7.851 -0.5247  1.2925  1.2263
18839THY    HM254566   6.720   6.192   7.683 -0.9469 -1.4156  2.3077
18839THY    HM354567   6.566   6.129   7.688  2.0051 -2.3223 -0.0338
18839THY    CA654568   6.467   6.378   7.711 -0.1640  0.2186 -0.4141
18839THY    HA654569   6.398   6.303   7.674  0.7476 -2.3479 -0.0944
18840THY      O54570   5.822   0.836   6.334  0.5587  0.0199  0.3819
18840THY     HO54571   5.816   0.822   6.238  0.1655  0.1282 -0.2824
18840THY    CA154572   5.758   0.953   6.366 -0.2946  0.0777 -0.0251
18840THY    CA254573   5.771   1.011   6.496 -0.5564  0.1107  0.6492
18840THY    CP154574   5.862   0.955   6.608 -0.4918  0.8016  0.4804
18840THY    HP154575   5.907   0.859   6.579  3.0424  0.2640  2.1351
18840THY    CP254576   5.785   0.927   6.730  0.0372 -0.3880 -0.6572
18840THY    HP254577   5.723   1.009   6.767  0.8261  0.1816 -0.3005
18840THY    HP354578   5.851   0.898   6.813  0.7624 -0.8027 -0.2229
18840THY    HP454579   5.714   0.847   6.708  0.5393 -0.3733 -1.1138
18840THY    CP354580   5.974   1.046   6.646  0.4327 -0.0975  0.1336
18840THY    HP554581   5.939   1.143   6.684 -2.0457  0.0508 -0.7539
18840THY    HP654582   6.039   1.065   6.559 -2.4968 -2.3336  0.6281
18840THY    HP754583   6.035   1.000   6.724  0.7804 -0.7254 -0.4897
18840THY    CA354584   5.701   1.128   6.529  0.1749  0.5618 -0.2823
18840THY    HA354585   5.730   1.171   6.625  0.0321  0.2310  0.5837
18840THY    CA454586   5.612   1.186   6.433 -0.9854 -1.2362 -0.4373
18840THY    HA454587   5.557   1.277   6.452 -0.2008  0.5935 -0.3129
18840THY    CA554588   5.605   1.126   6.305  0.3813  0.2378  0.1760
18840THY    CM154589   5.512   1.185   6.199 -0.2150 -0.1897  0.6164
18840THY    HM154590   5.510   1.295   6.198  0.5169 -1.8662  0.6525
18840THY    HM254591   5.412   1.149   6.227  0.2763  0.5863 -0.1801
18840THY    HM354592   5.527   1.155   6.094 -0.3477  0.6037 -2.6045
18840THY    CA654593   5.681   1.013   6.270  0.2489  0.2556 -0.9264
18840THY    HA654594   5.667   0.966   6.173 -3.3066  1.5914 -3.0758
18841THY      O54595   7.390   0.232   5.529  0.0901  0.0562  0.3106
18841THY     HO54596   7.326   0.164   5.555 -0.3260 -0.3696  0.5422
18841THY    CA154597   7.323   0.332   5.467 -0.6184  0.0365 -0.7177
18841THY    CA254598   7.336   0.469   5.512 -0.1507 -0.0637 -0.7799
18841THY    CP154599   7.452   0.503   5.607 -0.2001 -0.2429  0.1294
18841THY    HP154600   7.457   0.428   5.686 -2.2357 -0.8208 -0.6884
18841THY    CP254601   7.431   0.633   5.683  0.6415  0.4007 -0.3499
18841THY    HP254602   7.331   0.648   5.726 -0.7236 -1.9993 -1.9690
18841THY    HP354603   7.437   0.715   5.611 -1.2934 -0.6183 -1.0463
18841THY    HP454604   7.506   0.647   5.762  0.6432  0.2060  0.8235
18841THY    CP354605   7.586   0.494   5.534 -0.7537 -0.2816 -0.1775
18841THY    HP554606   7.665   0.531   5.602 -3.4249  1.7753  2.2026
18841THY    HP654607   7.578   0.560   5.447 -4.3856  0.7104  0.8992
18841THY    HP754608   7.604   0.392   5.497  0.5425  1.6293 -0.7022
18841THY    CA354609   7.254   0.566   5.443 -0.1228  0.0223  0.6083
18841THY    HA354610   7.259   0.672   5.466  0.7336  0.2465  0.5264
18841THY    CA454611   7.185   0.528   5.330 -0.0393  0.3672  0.6572
18841THY    HA454612   7.145   0.605   5.264 -2.4679  2.8693  1.7349
18841THY    CA554613   7.183   0.396   5.280  0.8074  0.6500  0.5277
18841THY    CM154614   7.106   0.369   5.152  0.2289 -0.9686 -0.3957
18841THY    HM154615   7.168   0.344   5.065 -0.6072 -1.5699 -0.4331
18841THY    HM254616   7.037   0.452   5.129 -1.2604  0.5230 -1.1457
18841THY    HM354617   7.037   0.285   5.166  1.9752  1.6806 -1.5152
18841THY    CA654618   7.249   0.298   5.351 -0.0598 -1.1255 -0.5846
18841THY    HA654619   7.236   0.195   5.320  1.1212 -0.6888 -0.8811
18842THY      O54620   2.325   6.091   4.433  0.3994  0.6865  0.0515
18842THY     HO54621   2.345   6.011   4.484  0.3444 -2.0426 -1.8668
18842THY    CA154622   2.342   6.041   4.305 -0.0674 -0.1479  0.0495
18842THY    CA254623   2.389   6.125   4.200  0.0209 -0.2906 -0.2501
18842THY    CP154624   2.398   6.275   4.215 -0.7007  1.1450 -0.6261
18842THY    HP154625   2.341   6.303   4.304 -2.9192 -0.1500 -0.8156
18842THY    CP254626   2.323   6.346   4.107 -0.0340 -0.0664 -0.4845
18842THY    HP254627   2.322   6.449   4.145  0.9812 -1.1507 -0.0541
18842THY    HP354628   2.226   6.299   4.089 -0.2206 -0.9006  0.1851
18842THY    HP454629   2.373   6.341   4.010 -0.5450 -0.2744 -1.7767
18842THY    CP354630   2.537   6.335   4.221 -0.0136 -0.5170 -0.2714
18842THY    HP554631   2.540   6.444   4.215 -2.5783 -0.0086 -0.1073
18842THY    HP654632   2.589   6.296   4.133  0.2852  0.3235 -1.8571
18842THY    HP754633   2.591   6.313   4.314  3.0398 -1.7508  1.4722
18842THY    CA354634   2.422   6.061   4.077  0.3952  0.1479 -0.5567
18842THY    HA354635   2.473   6.117   3.999  0.6658  0.1628 -0.7810
18842THY    CA454636   2.429   5.923   4.065  0.8896  0.3899 -0.5339
18842THY    HA454637   2.482   5.870   3.986 -0.2960 -0.9966  0.3043
18842THY    CA554638   2.376   5.844   4.167  0.3553  0.0312 -0.8044
18842THY    CM154639   2.384   5.695   4.159  0.6932 -0.3850 -0.6429
18842THY    HM154640   2.442   5.667   4.070 -0.7252 -1.5579  0.0280
18842THY    HM254641   2.285   5.647   4.157  0.2368  1.0202  0.1719
18842THY    HM354642   2.438   5.651   4.244 -2.5537  3.0060  1.3836
18842THY    CA654643   2.331   5.904   4.285 -0.2545 -0.2593  0.6841
18842THY    HA654644   2.297   5.837   4.364 -0.6790  0.5243  1.7927
18843THY      O54645   6.493   4.538   6.335  0.4911 -0.1723  0.1851
18843THY     HO54646   6.581   4.532   6.295  1.0270  0.8122  1.0309
18843THY    CA154647   6.467   4.418   6.390  0.1819 -0.1470 -0.1789
18843THY    CA254648   6.383   4.404   6.499 -0.6150 -0.5877  0.0579
18843THY    CP154649   6.297   4.528   6.535 -0.2704 -0.7872  0.1814
18843THY    HP154650   6.261   4.585   6.449 -0.2531  0.3336  1.9675
18843THY    CP254651   6.367   4.620   6.633 -0.4792  0.8991 -0.4500
18843THY    HP254652   6.383   4.565   6.727  0.4986  0.2562 -1.3121
18843THY    HP354653   6.306   4.711   6.630  0.8926 -1.7500  0.5048
18843THY    HP454654   6.468   4.643   6.597 -0.2320  1.0377 -1.2807
18843THY    CP354655   6.167   4.484   6.601  0.2311 -0.6037 -0.3151
18843THY    HP554656   6.100   4.568   6.621  0.4608 -1.0097 -0.0261
18843THY    HP654657   6.182   4.431   6.695  0.0208 -0.6071 -0.3823
18843THY    HP754658   6.120   4.419   6.526  3.5879 -2.4182 -0.9157
18843THY    CA354659   6.368   4.276   6.566 -0.4843 -0.5326  0.1673
18843THY    HA354660   6.300   4.259   6.649 -0.3996 -0.7582 -1.3213
18843THY    CA454661   6.451   4.176   6.522 -0.3324 -1.0424 -0.2548
18843THY    HA454662   6.439   4.080   6.573  0.0707 -0.8339 -0.1977
18843THY    CA554663   6.532   4.189   6.411  0.1139  0.6335  0.8602
18843THY    CM154664   6.624   4.076   6.372 -0.0733 -0.5504  0.4593
18843THY    HM154665   6.570   3.982   6.357  0.7477  0.9895 -0.2937
18843THY    HM254666   6.705   4.061   6.444 -0.5991 -0.0700 -0.1032
18843THY    HM354667   6.674   4.092   6.276 -0.0047 -1.1425 -2.7399
18843THY    CA654668   6.544   4.314   6.345  0.0712 -0.2974  0.7069
18843THY    HA654669   6.614   4.326   6.263  1.1895  0.6766  1.0270
18844THY      O54670   5.135   0.504   1.870  0.5886  0.2611 -1.0680
18844THY     HO54671   5.092   0.449   1.803  1.0243  0.3814 -1.5560
18844THY    CA154672   5.038   0.593   1.918 -0.5298  0.6638 -0.3629
18844THY    CA254673   5.052   0.740   1.902  0.4693 -0.0479 -0.7322
18844THY    CP154674   5.173   0.816   1.848  0.0287  0.5290  0.3016
18844THY    HP154675   5.257   0.755   1.883  0.6512 -0.8177  0.3508
18844THY    CP254676   5.197   0.960   1.901  0.1111 -0.3048 -0.0058
18844THY    HP254677   5.192   0.968   2.010 -0.5336 -0.3762  0.7786
18844THY    HP354678   5.125   1.031   1.858 -1.5471  0.7373 -0.9700
18844THY    HP454679   5.296   0.996   1.871 -0.0797 -1.2648 -0.2494
18844THY    CP354680   5.178   0.807   1.698  0.0427 -0.0472 -0.8556
18844THY    HP554681   5.146   0.708   1.664 -0.9004 -2.2404  0.1302
18844THY    HP654682   5.279   0.834   1.663  0.2817  0.8051 -0.6096
18844THY    HP754683   5.117   0.890   1.659 -0.5518  0.0444 -1.2438
18844THY    CA354684   4.943   0.818   1.948  0.4180  0.6571  0.5716
18844THY    HA354685   4.950   0.926   1.943  3.1026 -0.4285  0.4392
18844THY    CA454686   4.831   0.758   2.003  0.4828 -0.0623  0.7218
18844THY    HA454687   4.738   0.808   2.028 -3.4355 -1.0971 -5.0569
18844THY    CA554688   4.826   0.615   2.022 -0.6130  0.3628  0.0688
18844THY    CM154689   4.701   0.556   2.074  0.5272 -0.1396  0.3884
18844THY    HM154690   4.695   0.464   2.015  0.5655 -1.3644  1.1411
18844THY    HM254691   4.609   0.609   2.047  0.9458 -3.8134 -0.4760
18844THY    HM354692   4.709   0.515   2.175 -2.0880 -0.1490 -0.3171
18844THY    CA654693   4.930   0.530   1.975 -0.3603  1.1810 -0.8992
18844THY    HA654694   4.931   0.422   1.986  1.5349 -3.5233 -1.6043
18845THY      O54695   5.074   8.586   3.868 -0.0078 -0.0833  0.0013
18845THY     HO54696   5.017   8.509   3.850 -0.7881  1.1115  0.2697
18845THY    CA154697   4.991   8.688   3.819  0.2147  0.9677 -1.0095
18845THY    CA254698   5.043   8.821   3.808 -0.5166 -0.2607  0.2035
18845THY    CP154699   5.192   8.848   3.833 -0.5542  0.4477 -0.2503
18845THY    HP154700   5.232   8.766   3.894  3.1293  0.9519  1.7124
18845THY    CP254701   5.215   8.980   3.909  0.9089 -0.3199  0.6473
18845THY    HP254702   5.154   8.978   4.000  0.6997 -0.4378  1.4639
18845THY    HP354703   5.180   9.062   3.846  0.9277 -2.0786 -0.6232
18845THY    HP454704   5.320   8.999   3.932  0.2851  2.0201  1.5530
18845THY    CP354705   5.271   8.852   3.698  0.2579 -1.0798 -0.4273
18845THY    HP554706   5.255   8.951   3.655  0.3369 -4.0201 -1.5888
18845THY    HP654707   5.243   8.776   3.625  0.7488 -0.4911 -1.1890
18845THY    HP754708   5.380   8.842   3.709  0.1698 -0.7207 -1.0491
18845THY    CA354709   4.953   8.923   3.772  0.7229  0.4482 -0.0330
18845THY    HA354710   4.987   9.023   3.746 -1.1974  0.4689  0.6786
18845THY    CA454711   4.818   8.892   3.737  0.3751  0.4048  0.1476
18845THY    HA454712   4.744   8.965   3.707 -0.4437  0.6098 -0.5908
18845THY    CA554713   4.775   8.762   3.752 -0.2321 -0.7915  0.1421
18845THY    CM154714   4.642   8.725   3.718  0.3264  0.1041 -0.1511
18845THY    HM154715   4.573   8.810   3.719  1.7858  0.8858  1.0856
18845THY    HM254716   4.604   8.658   3.797  3.8312  0.0520 -2.4956
18845THY    HM354717   4.647   8.677   3.620  0.9206 -0.4641  1.0434
18845THY    CA654718   4.862   8.657   3.789  0.0324 -0.1520  0.0995
18845THY    HA654719   4.817   8.558   3.794  0.6368 -0.4160 -0.1976
18846THY      O54720   1.186   9.277   4.560 -0.2048 -0.0602  0.0535
18846THY     HO54721   1.271   9.300   4.519 -0.8347 -0.6791  1.3149
18846THY    CA154722   1.190   9.141   4.581  0.5324 -0.4022  0.7983
18846THY    CA254723   1.098   9.066   4.661  0.3585 -0.4049 -0.3541
18846THY    CP154724   0.978   9.138   4.726 -0.1976 -0.6388 -0.2966
18846THY    HP154725   0.947   9.221   4.662 -0.3163 -0.8509 -0.5021
18846THY    CP254726   1.031   9.190   4.860  0.1439 -0.3262  1.2083
18846THY    HP254727   0.965   9.268   4.899 -2.1438  0.9578 -1.1894
18846THY    HP354728   1.129   9.239   4.854  0.4151  0.5033  0.7832
18846THY    HP454729   1.035   9.106   4.930 -0.5908 -0.6342  0.9076
18846THY    CP354730   0.843   9.062   4.748 -0.7070 -0.5140  0.4298
18846THY    HP554731   0.841   8.974   4.813  0.5671 -1.0151  0.0180
18846THY    HP654732   0.805   9.024   4.652 -0.5601 -0.2357 -0.4365
18846THY    HP754733   0.765   9.126   4.791 -0.5441  3.8930 -1.9725
18846THY    CA354734   1.124   8.928   4.682  0.6186  0.4181  0.6995
18846THY    HA354735   1.067   8.868   4.752 -0.3169 -0.1267  0.9343
18846THY    CA454736   1.232   8.866   4.616  0.5633  0.0673 -0.1626
18846THY    HA454737   1.263   8.766   4.644  2.3296  0.8440  0.5655
18846THY    CA554738   1.324   8.943   4.539 -0.1068  0.0016  0.9205
18846THY    CM154739   1.437   8.871   4.473  0.3790  0.0704  0.6701
18846THY    HM154740   1.434   8.762   4.460  1.0902 -0.0883  0.6647
18846THY    HM254741   1.536   8.880   4.519 -0.2812  3.2243 -4.0469
18846THY    HM354742   1.432   8.898   4.367  0.9321 -0.0940  0.1615
18846THY    CA654743   1.299   9.077   4.513  0.2670  0.0891 -0.1909
18846THY    HA654744   1.364   9.136   4.449 -0.6338  0.4034  1.1745
18847THY      O54745   7.707   2.238   2.902  0.1999 -0.1385  0.1116
18847THY     HO54746   7.644   2.186   2.955  1.2181 -0.4547 -1.5190
18847THY    CA154747   7.644   2.362   2.873 -0.4056 -0.3815 -0.8788
18847THY    CA254748   7.675   2.437   2.756 -0.1062 -0.2327 -0.2299
18847THY    CP154749   7.783   2.390   2.653  0.2640  0.3534 -0.2781
18847THY    HP154750   7.868   2.355   2.713 -0.2062  1.4048  0.3445
18847THY    CP254751   7.843   2.504   2.573  0.8822  0.5525  0.2659
18847THY    HP254752   7.936   2.462   2.534  0.8684 -0.0484  0.7920
18847THY    HP354753   7.851   2.597   2.630 -0.1874  2.3110 -0.6479
18847THY    HP454754   7.774   2.526   2.491  1.6689  0.1854  1.4243
18847THY    CP354755   7.737   2.268   2.574  0.1298  0.1501  0.6646
18847THY    HP554756   7.638   2.281   2.528  0.0883  0.1381  0.3028
18847THY    HP654757   7.723   2.186   2.645 -0.2253  1.8041  2.0859
18847THY    HP754758   7.817   2.247   2.502  1.1794  0.4948  3.0509
18847THY    CA354759   7.605   2.554   2.728 -0.1582 -1.3344 -0.2379
18847THY    HA354760   7.612   2.613   2.637  1.8085 -0.3431  1.2060
18847THY    CA454761   7.497   2.589   2.816 -0.3628 -0.0766 -0.1533
18847THY    HA454762   7.450   2.681   2.782  2.1122 -1.8728  0.5767
18847THY    CA554763   7.476   2.523   2.942  0.4285  0.3438  1.0410
18847THY    CM154764   7.371   2.563   3.030  0.0662  0.3026  0.2342
18847THY    HM154765   7.315   2.472   3.056  0.0741  1.4648  0.5469
18847THY    HM254766   7.300   2.631   2.982 -1.0160  1.5594  0.0440
18847THY    HM354767   7.404   2.602   3.127  0.4384  0.4117 -0.3387
18847THY    CA654768   7.550   2.403   2.966  0.2908 -0.1088 -0.4351
18847THY    HA654769   7.522   2.337   3.047  0.0776  0.2968  0.1395
18848THY      O54770   7.881   1.683   6.995 -0.2548 -0.4733 -0.0354
18848THY     HO54771   7.973   1.709   6.978 -0.1423  0.6250  0.3704
18848THY    CA154772   7.858   1.729   7.116 -0.9081  0.0850 -0.6338
18848THY    CA254773   7.725   1.769   7.155 -0.6902 -0.1521  0.2467
18848THY    CP154774   7.606   1.745   7.057 -0.8468 -0.1456 -0.2388
18848THY    HP154775   7.613   1.659   6.990 -0.7796  1.7344 -1.7490
18848THY    CP254776   7.597   1.858   6.958 -0.2835 -0.8113  0.1140
18848THY    HP254777   7.687   1.870   6.896  1.8217  1.7025 -1.5034
18848THY    HP354778   7.596   1.950   7.017 -0.6083  1.0225 -1.0143
18848THY    HP454779   7.510   1.842   6.894 -0.9048  0.3984 -1.6548
18848THY    CP354780   7.473   1.723   7.131 -0.2498 -0.4436 -0.2296
18848THY    HP554781   7.451   1.810   7.194  0.5187 -0.4734 -0.0077
18848THY    HP654782   7.482   1.631   7.190  0.0159 -2.8126 -1.8032
18848THY    HP754783   7.391   1.711   7.059  0.6305 -1.8840  1.8857
18848THY    CA354784   7.715   1.817   7.288 -0.4953 -0.6371  0.0075
18848THY    HA354785   7.617   1.836   7.331 -1.0719 -1.7946 -0.2906
18848THY    CA454786   7.829   1.829   7.371 -0.4429 -0.1320  0.0376
18848THY    HA454787   7.819   1.868   7.472 -0.0351  0.4333 -1.2704
18848THY    CA554788   7.954   1.796   7.323  0.2659  0.1417 -0.5264
18848THY    CM154789   8.079   1.789   7.411  0.1952 -0.1609  0.3733
18848THY    HM154790   8.097   1.682   7.428 -2.6232 -0.0574 -0.1726
18848THY    HM254791   8.071   1.839   7.509  0.5144  0.4584 -0.7529
18848THY    HM354792   8.160   1.825   7.348 -0.3875  0.5499  3.2294
18848THY    CA654793   7.965   1.748   7.193 -0.1897  0.0717 -0.2422
18848THY    HA654794   8.066   1.726   7.162  0.7453  3.8274 -1.8700
18849THY      O54795   8.953   7.080   3.987  0.5273  0.3794  0.3377
18849THY     HO54796   8.884   7.148   3.987 -0.5376 -1.5744 -0.6323
18849THY    CA154797   9.046   7.110   3.902  0.3417  0.3084 -0.1140
18849THY    CA254798   9.152   7.025   3.869  0.4095 -0.2339  0.4660
18849THY    CP154799   9.168   6.887   3.940  0.2724 -0.2257  0.3409
18849THY    HP154800   9.124   6.901   4.040  0.3138 -0.1922  0.2358
18849THY    CP254801   9.306   6.827   3.973  0.4166  0.5660 -0.5597
18849THY    HP254802   9.374   6.908   4.004 -0.4122  2.2404 -0.4666
18849THY    HP354803   9.355   6.796   3.880 -0.8443 -1.3806  2.7137
18849THY    HP454804   9.300   6.754   4.054  0.2019  0.7035 -0.3913
18849THY    CP354805   9.085   6.772   3.872 -0.6119  0.1712 -0.9153
18849THY    HP554806   9.120   6.730   3.777  1.6327  0.0372  1.0339
18849THY    HP654807   8.984   6.812   3.859 -0.1152 -1.0970  0.0092
18849THY    HP754808   9.070   6.693   3.946 -0.4531  0.8649 -0.3180
18849THY    CA354809   9.247   7.072   3.779 -0.8764 -0.3492 -0.5354
18849THY    HA354810   9.340   7.022   3.753  0.1780 -2.0343  2.0502
18849THY    CA454811   9.247   7.204   3.732 -0.1984 -0.2284 -0.2311
18849THY    HA454812   9.325   7.240   3.666 -0.3386  0.9960  2.6108
18849THY    CA554813   9.144   7.292   3.774 -0.2863  0.1518  0.7925
18849THY    CM154814   9.162   7.440   3.739  0.3262 -0.1587  0.1014
18849THY    HM154815   9.262   7.483   3.757  0.3820 -1.5710  0.5970
18849THY    HM254816   9.092   7.504   3.795 -2.4228 -1.9422 -1.1718
18849THY    HM354817   9.140   7.471   3.637  0.0700 -0.0168  0.3968
18849THY    CA654818   9.044   7.243   3.853 -0.0143 -0.5421  0.0796
18849THY    HA654819   8.957   7.302   3.879 -0.4882  1.1128 -1.2643
18850THY      O54820   8.661   4.191   1.937 -0.5669  0.2489  0.3937
18850THY     HO54821   8.625   4.107   1.970 -0.3400  0.8719  0.5364
18850THY    CA154822   8.789   4.174   1.917 -0.2211 -0.1239  0.2985
18850THY    CA254823   8.877   4.273   1.869  0.6585 -1.0042  0.1634
18850THY    CP154824   8.818   4.415   1.829  0.1370 -0.2643  0.3956
18850THY    HP154825   8.715   4.425   1.866  0.1256 -0.1907  0.0015
18850THY    CP254826   8.825   4.431   1.675 -1.3299 -0.6183  0.3907
18850THY    HP254827   8.926   4.450   1.637 -0.2082  1.1036 -1.6918
18850THY    HP354828   8.762   4.515   1.644 -1.1140 -0.0840  0.7546
18850THY    HP454829   8.801   4.330   1.638 -0.1675 -0.8991  0.2060
18850THY    CP354830   8.893   4.529   1.885 -0.0214 -0.1456 -0.1318
18850THY    HP554831   8.915   4.521   1.992  3.6809 -0.7849 -0.2293
18850THY    HP654832   8.844   4.625   1.860 -0.0150 -1.2136 -0.3914
18850THY    HP754833   8.990   4.532   1.835 -0.4949 -1.0652  0.5870
18850THY    CA354834   9.015   4.252   1.868 -0.0202 -0.0284 -0.0851
18850THY    HA354835   9.076   4.338   1.847 -2.1627  0.2024  1.5714
18850THY    CA454836   9.056   4.127   1.914  0.4711 -0.0886  0.1544
18850THY    HA454837   9.163   4.109   1.906  0.5343  1.7586 -0.5573
18850THY    CA554838   8.970   4.016   1.936  0.0481 -0.9900 -0.3274
18850THY    CM154839   9.028   3.885   1.980  0.7252  0.3258 -0.2159
18850THY    HM154840   8.943   3.817   1.979 -0.9224  1.4298  1.6989
18850THY    HM254841   9.071   3.883   2.081  0.3558  0.5005  0.3594
18850THY    HM354842   9.103   3.852   1.906  0.1786 -1.0264  1.4143
18850THY    CA654843   8.837   4.045   1.941  0.0334  1.1920  0.4503
18850THY    HA654844   8.765   3.970   1.974 -0.0430 -1.3847 -0.6878
18851THY      O54845   2.113   6.496   2.588 -0.0612 -0.1030 -0.0204
18851THY     HO54846   2.126   6.449   2.504 -2.0299 -1.2814  1.3619
18851THY    CA154847   2.187   6.612   2.587  0.0914  0.0797  0.7180
18851THY    CA254848   2.204   6.693   2.705 -0.0606 -0.4380  0.2533
18851THY    CP154849   2.146   6.644   2.835  0.1409  0.1092 -0.0881
18851THY    HP154850   2.067   6.575   2.804 -0.0647  2.4498 -0.9996
18851THY    CP254851   2.079   6.762   2.915  1.0593 -0.6125  0.5453
18851THY    HP254852   2.020   6.727   3.001  2.5713  0.6605  1.0090
18851THY    HP354853   2.021   6.822   2.844  1.8583 -1.6542  0.1082
18851THY    HP454854   2.156   6.825   2.961  0.6938  1.6661 -0.5364
18851THY    CP354855   2.249   6.572   2.922 -0.2360 -0.1326  0.3001
18851THY    HP554856   2.208   6.499   2.993 -3.8145 -1.5126  0.7889
18851THY    HP654857   2.295   6.647   2.987 -0.6730  3.2508 -2.1113
18851THY    HP754858   2.328   6.528   2.859  1.7956  1.3575  1.6224
18851THY    CA354859   2.279   6.816   2.690  0.4607 -0.0833  0.4333
18851THY    HA354860   2.294   6.875   2.780 -1.4718  0.8335 -0.3651
18851THY    CA454861   2.321   6.856   2.562 -0.0464 -0.1099  0.9049
18851THY    HA454862   2.365   6.953   2.545  1.6777  0.4066  0.2545
18851THY    CA554863   2.291   6.770   2.449 -0.3681 -0.1678  0.5302
18851THY    CM154864   2.343   6.798   2.308 -0.2385  0.0329 -0.2931
18851THY    HM154865   2.421   6.726   2.282  0.4132  0.9668  0.0521
18851THY    HM254866   2.389   6.897   2.299 -0.1546  1.6205 -0.1568
18851THY    HM354867   2.265   6.781   2.233  1.5147 -1.2728 -3.3891
18851THY    CA654868   2.220   6.651   2.461 -0.3417  0.3269 -0.1417
18851THY    HA654869   2.200   6.585   2.377 -1.0406  1.0234 -0.8298
18852THY      O54870   1.190   9.148   7.200  0.2696 -0.7688 -0.8089
18852THY     HO54871   1.202   9.243   7.213 -2.0389  1.5085 -0.7223
18852THY    CA154872   1.206   9.099   7.322  0.2676  0.5095  0.2387
18852THY    CA254873   1.114   9.002   7.367 -0.2451 -0.2047  0.0089
18852THY    CP154874   0.986   8.961   7.292  0.5499  0.1266 -0.3125
18852THY    HP154875   1.019   8.963   7.187  0.5647  0.1432  0.9876
18852THY    CP254876   0.872   9.062   7.301  0.6578  0.6141  0.1236
18852THY    HP254877   0.799   9.021   7.231  2.2224 -1.5580  0.8981
18852THY    HP354878   0.900   9.157   7.255  1.6279 -0.3893 -0.6290
18852THY    HP454879   0.838   9.086   7.403 -0.1087 -0.0187  1.8626
18852THY    CP354880   0.932   8.818   7.303  0.6459 -0.0059  0.1129
18852THY    HP554881   1.020   8.754   7.290 -0.2524  0.4013 -1.2374
18852THY    HP654882   0.847   8.806   7.234  0.7263  0.2239 -2.1504
18852THY    HP754883   0.888   8.803   7.402 -0.3621 -0.4453  0.1086
18852THY    CA354884   1.131   8.947   7.496  1.0550 -0.3306 -0.2079
18852THY    HA354885   1.052   8.886   7.540 -0.1625 -1.6620  0.3430
18852THY    CA454886   1.239   8.983   7.570 -0.2906  0.4319  0.0060
18852THY    HA454887   1.247   8.963   7.677  0.3091  1.1634  3.5187
18852THY    CA554888   1.347   9.063   7.514 -0.1041 -0.2408  0.8629
18852THY    CM154889   1.466   9.096   7.600 -0.1313  0.8408 -0.2700
18852THY    HM154890   1.512   9.001   7.626 -0.8878  2.5942 -0.1964
18852THY    HM254891   1.441   9.143   7.696  3.2941  1.6257  0.1865
18852THY    HM354892   1.531   9.168   7.549  1.9075 -0.7636 -3.0473
18852THY    CA654893   1.327   9.121   7.392  0.7240 -1.5375  0.5269
18852THY    HA654894   1.382   9.206   7.354 -0.7491 -2.0626  1.2854
18853THY      O54895   8.754   5.142   2.512 -0.6932  0.0366 -0.1822
18853THY     HO54896   8.811   5.219   2.497 -0.3853  0.6294 -0.2883
18853THY    CA154897   8.654   5.186   2.594  0.3007 -0.3397  0.8965
18853THY    CA254898   8.562   5.098   2.658  0.3016  0.2952  0.1420
18853THY    CP154899   8.562   4.952   2.618 -0.0700  0.5368  0.0736
18853THY    HP154900   8.646   4.920   2.555  1.4427  1.1604  2.5688
18853THY    CP254901   8.431   4.926   2.553  1.0287  0.3381 -0.6054
18853THY    HP254902   8.429   4.820   2.524  2.1141 -1.7588 -0.1166
18853THY    HP354903   8.433   4.987   2.462  0.4779  1.6487  1.4455
18853THY    HP454904   8.346   4.954   2.615  0.8013  0.0195 -0.5835
18853THY    CP354905   8.579   4.866   2.738  0.6326 -0.6141 -0.0549
18853THY    HP554906   8.665   4.895   2.799 -1.3728  1.6253  1.5464
18853THY    HP654907   8.589   4.761   2.707 -2.0498  2.6263 -1.4457
18853THY    HP754908   8.497   4.891   2.806 -0.2603 -1.9815  0.8852
18853THY    CA354909   8.472   5.156   2.741 -0.6297  0.1146 -0.0015
18853THY    HA354910   8.408   5.089   2.799  0.2762  0.7030 -0.3679
18853THY    CA454911   8.463   5.298   2.761 -0.2445  0.7007  0.2681
18853THY    HA454912   8.394   5.341   2.834 -0.8954 -0.5862  1.4768
18853THY    CA554913   8.563   5.380   2.707  0.1901 -0.0565 -0.6580
18853THY    CM154914   8.574   5.529   2.748 -0.3163 -0.0190 -0.0660
18853THY    HM154915   8.480   5.570   2.709 -0.6128  0.4265 -0.3151
18853THY    HM254916   8.644   5.588   2.687 -3.1905 -2.3183  1.2139
18853THY    HM354917   8.595   5.543   2.855  1.0612 -0.1711 -0.7905
18853THY    CA654918   8.655   5.326   2.621  0.0547  0.4799  0.6031
18853THY    HA654919   8.732   5.389   2.578 -0.1078 -0.1095  0.4101
18854THY      O54920   0.890   3.481   6.259  0.2831  0.3695 -0.1400
18854THY     HO54921   0.958   3.420   6.293 -0.2359  0.6298 -0.5826
18854THY    CA154922   0.781   3.484   6.330 -0.1735  0.5258 -0.1327
18854THY    CA254923   0.696   3.591   6.333 -0.0623 -0.2127 -1.0535
18854THY    CP154924   0.718   3.708   6.237  0.0679 -0.2044 -0.6341
18854THY    HP154925   0.759   3.659   6.148 -0.9814 -0.2762 -1.4188
18854THY    CP254926   0.818   3.813   6.290  0.2421 -0.0520 -0.3054
18854THY    HP254927   0.917   3.765   6.296 -0.2901  0.8922 -1.3457
18854THY    HP354928   0.772   3.837   6.387 -0.6660  0.8481 -4.7542
18854THY    HP454929   0.833   3.890   6.214 -0.0342 -0.0937 -0.2920
18854THY    CP354930   0.587   3.783   6.194  0.5430 -0.4705  0.2003
18854THY    HP554931   0.622   3.858   6.122  1.5401  0.6069  0.8256
18854THY    HP654932   0.531   3.822   6.281 -0.9452 -0.3413 -2.0590
18854THY    HP754933   0.525   3.719   6.131  2.0985 -2.0653  0.1911
18854THY    CA354934   0.590   3.587   6.430 -0.1716 -0.4596  0.5824
18854THY    HA354935   0.519   3.669   6.442 -1.8976 -1.0434 -0.7462
18854THY    CA454936   0.576   3.474   6.511  1.0187  0.4777 -0.0538
18854THY    HA454937   0.501   3.470   6.590  1.4147  0.8876  0.4207
18854THY    CA554938   0.652   3.363   6.494  0.2214  0.3243 -0.2021
18854THY    CM154939   0.631   3.235   6.574  0.4378 -0.3108 -0.1526
18854THY    HM154940   0.606   3.150   6.509  0.1828 -0.8193  0.3030
18854THY    HM254941   0.545   3.250   6.642  0.5898 -0.3674  1.1197
18854THY    HM354942   0.723   3.217   6.631  0.1013  0.1416 -0.4851
18854THY    CA654943   0.763   3.371   6.412 -0.0396  0.7903  0.5472
18854THY    HA654944   0.839   3.293   6.417  1.8280 -1.3692  2.0952
18855THY      O54945   6.564   9.531   5.620  0.5086  0.1838 -0.3990
18855THY     HO54946   6.505   9.560   5.692 -4.5719 -3.2476 -0.7689
18855THY    CA154947   6.668   9.465   5.673 -0.4563  0.6190  0.2292
18855THY    CA254948   6.761   9.399   5.588  0.1634  0.5741  0.4479
18855THY    CP154949   6.748   9.407   5.435  0.0351 -0.5776 -0.6997
18855THY    HP154950   6.680   9.488   5.406  1.0106  0.2961  0.4907
18855THY    CP254951   6.688   9.284   5.377 -0.5957  0.7008 -0.3868
18855THY    HP254952   6.678   9.303   5.269 -0.1459  0.7109 -0.0769
18855THY    HP354953   6.594   9.263   5.429 -0.6705  0.4815 -0.5980
18855THY    HP454954   6.760   9.203   5.394 -2.6260 -0.4672 -2.5715
18855THY    CP354955   6.880   9.442   5.366  0.0463 -0.1432  0.1561
18855THY    HP554956   6.943   9.518   5.414 -0.4837 -1.9505  1.8333
18855THY    HP654957   6.860   9.465   5.260 -2.4355 -0.0194 -1.0589
18855THY    HP754958   6.934   9.347   5.361 -1.6808  2.8081 -1.1283
18855THY    CA354959   6.859   9.313   5.644  0.0959  0.4918 -0.2324
18855THY    HA354960   6.932   9.259   5.585  0.1313  1.2691 -1.0529
18855THY    CA454961   6.859   9.300   5.783  0.4116 -0.0177 -0.2770
18855THY    HA454962   6.936   9.239   5.831  0.0702  0.0297 -0.6703
18855THY    CA554963   6.773   9.374   5.870  0.2800  0.2448 -0.4104
18855THY    CM154964   6.781   9.365   6.016 -0.5451  0.3385 -0.0161
18855THY    HM154965   6.742   9.269   6.053 -1.5671 -2.7690 -0.9052
18855THY    HM254966   6.723   9.445   6.064 -0.7683  3.1856 -1.7272
18855THY    HM354967   6.886   9.385   6.040 -0.1261 -1.0330 -0.4891
18855THY    CA654968   6.673   9.453   5.815  0.2989 -0.0744  0.4963
18855THY    HA654969   6.602   9.501   5.883 -1.1783 -1.8350  0.9246
18856THY      O54970   4.953   7.386   3.240 -0.4616  0.0696 -0.2627
18856THY     HO54971   4.918   7.324   3.174 -2.1582 -0.3807  1.0995
18856THY    CA154972   5.084   7.347   3.257  0.2000  0.0802 -0.6637
18856THY    CA254973   5.170   7.413   3.343 -0.1281  0.3479 -0.4155
18856THY    CP154974   5.121   7.520   3.443  0.6288  0.6241 -0.4527
18856THY    HP154975   5.012   7.520   3.451  0.3106 -2.5950  0.4278
18856THY    CP254976   5.168   7.657   3.392 -0.3369 -0.1179  0.3847
18856THY    HP254977   5.117   7.736   3.449 -1.1192 -1.1065  0.6141
18856THY    HP354978   5.126   7.675   3.292 -0.5288  0.1649  1.5804
18856THY    HP454979   5.275   7.678   3.399  0.8244 -4.6568 -2.4361
18856THY    CP354980   5.160   7.514   3.602  0.0883  0.6007 -0.2019
18856THY    HP554981   5.260   7.478   3.624 -0.3100 -1.0076 -2.5074
18856THY    HP654982   5.098   7.440   3.654 -0.8889 -1.3375 -0.8112
18856THY    HP754983   5.142   7.613   3.646  1.9260  1.9006 -0.4133
18856THY    CA354984   5.301   7.362   3.362  0.4689  0.0831 -0.2297
18856THY    HA354985   5.368   7.396   3.440  0.9864  0.8451 -2.7925
18856THY    CA454986   5.343   7.258   3.282 -0.6211 -0.6087  0.7210
18856THY    HA454987   5.445   7.224   3.296 -0.5011 -1.4000  0.7206
18856THY    CA554988   5.257   7.193   3.188 -0.5255  0.0475  0.1980
18856THY    CM154989   5.322   7.094   3.088  0.3130  0.3337  0.2128
18856THY    HM154990   5.339   7.141   2.991 -0.7260  0.8816  1.7899
18856THY    HM254991   5.249   7.015   3.065 -0.4030 -2.3184  1.5456
18856THY    HM354992   5.414   7.056   3.133  0.4461 -0.4634 -0.4550
18856THY    CA654993   5.126   7.240   3.179  0.2123  0.7271  0.4135
18856THY    HA654994   5.062   7.196   3.103  1.4873 -0.0300 -0.1854
18857THY      O54995   6.705   3.167   7.772 -0.4939  0.5587  0.0612
18857THY     HO54996   6.675   3.242   7.718 -1.4688 -0.3679 -0.9615
18857THY    CA154997   6.768   3.082   7.683 -0.3318 -0.2969  0.1579
18857THY    CA254998   6.726   2.950   7.670 -0.3427 -0.1917 -0.0518
18857THY    CP154999   6.626   2.888   7.776  0.3317 -0.2497  0.1153
18857THY    HP155000   6.580   2.964   7.840  0.7955  2.7101 -1.9219
18857THY    CP255001   6.696   2.798   7.880 -0.0266  0.2290 -0.0160
18857THY    HP255002   6.739   2.723   7.814 -0.6764 -0.5694  0.2990
18857THY    HP355003   6.630   2.759   7.958  0.1766  0.7866  0.7241
18857THY    HP455004   6.772   2.854   7.936 -1.7592  1.7177  0.9835
18857THY    CP355005   6.497   2.823   7.709 -0.3834  0.3029  0.2282
18857THY    HP555006   6.419   2.835   7.785  0.1495  0.6082  2.1223
18857THY    HP655007   6.500   2.716   7.685 -2.6127 -0.3056  0.2507
18857THY    HP755008   6.466   2.878   7.619  0.8761 -1.7021 -2.1540
18857THY    CA355009   6.790   2.875   7.566  0.7121 -0.3235  0.1973
18857THY    HA355010   6.772   2.769   7.551  0.4481 -2.6257  0.5238
18857THY    CA455011   6.874   2.941   7.470  0.2723  0.1070 -0.5431
18857THY    HA455012   6.925   2.892   7.387 -0.7579 -0.7883 -0.1447
18857THY    CA555013   6.905   3.082   7.482 -1.1663 -1.2183  0.7573
18857THY    CM155014   7.001   3.147   7.387  0.3570  0.6801 -0.8186
18857THY    HM155015   6.979   3.126   7.282 -0.4494  0.0668  2.4462
18857THY    HM255016   7.101   3.112   7.416  0.4063  1.8668  0.2223
18857THY    HM355017   7.014   3.256   7.395 -1.3779  0.0172 -0.5278
18857THY    CA655018   6.844   3.150   7.585  0.9624  0.4519  0.2285
18857THY    HA655019   6.870   3.256   7.581 -1.0956  1.5125  0.8165
18858THY      O55020   2.051   1.985   3.475  0.0851 -0.8028 -0.6034
18858THY     HO55021   2.043   1.898   3.518  1.0024  1.0203  0.1579
18858THY    CA155022   2.180   1.982   3.441 -0.4471  0.4819  0.7975
18858THY    CA255023   2.228   2.062   3.334  0.3454  0.8496  0.0851
18858THY    CP155024   2.129   2.120   3.237 -0.3306  0.9580  0.0838
18858THY    HP155025   2.038   2.153   3.288 -0.7794  0.4627 -0.3653
18858THY    CP255026   2.101   2.016   3.124 -0.0281  0.2571 -0.4044
18858THY    HP255027   2.043   1.934   3.167 -0.9095  0.9539  0.5641
18858THY    HP355028   2.197   1.993   3.076  0.0133  0.6890 -1.1317
18858THY    HP455029   2.042   2.051   3.038 -1.3805  1.3394  0.0387
18858THY    CP355030   2.167   2.247   3.161  0.8695 -0.5601 -0.1043
18858THY    HP555031   2.235   2.303   3.225 -0.2569 -0.9432  1.7767
18858THY    HP655032   2.074   2.302   3.144  1.0126  0.7507  0.5785
18858THY    HP755033   2.228   2.217   3.075  0.4274 -0.2905 -1.9400
18858THY    CA355034   2.363   2.055   3.307 -0.1470  0.3524 -0.6520
18858THY    HA355035   2.409   2.113   3.228 -2.2504  0.8825  1.9506
18858THY    CA455036   2.448   1.993   3.400  0.2108 -0.3831  0.3059
18858THY    HA455037   2.553   1.979   3.378  0.2354  1.0503 -2.4586
18858THY    CA555038   2.397   1.925   3.508 -0.2328 -0.5684 -1.0027
18858THY    CM155039   2.482   1.839   3.602  0.1483 -0.5615 -0.2990
18858THY    HM155040   2.471   1.730   3.602  0.7498 -2.0535 -0.3875
18858THY    HM255041   2.468   1.878   3.703 -0.2075  0.1614 -2.2020
18858THY    HM355042   2.586   1.864   3.577  0.1226  0.1884  0.6015
18858THY    CA655043   2.262   1.912   3.521  0.4045  0.3026  0.3053
18858THY    HA655044   2.223   1.852   3.603 -0.9059 -0.5921 -0.1213
18859THY      O55045   1.004   4.560   4.882 -0.0261  0.1383  0.1761
18859THY     HO55046   1.018   4.470   4.917 -0.8924 -1.5244 -0.6657
18859THY    CA155047   1.125   4.614   4.899  0.9672 -0.0976  0.2025
18859THY    CA255048   1.168   4.732   4.841 -0.5463  0.0357  0.3237
18859THY    CP155049   1.086   4.823   4.756 -0.7779  0.3559  0.0220
18859THY    HP155050   0.988   4.778   4.733 -0.5434 -1.4550  0.3381
18859THY    CP255051   1.135   4.847   4.611 -1.3140  0.3667  0.6228
18859THY    HP255052   1.184   4.755   4.576 -0.2012  0.6837  1.0673
18859THY    HP355053   1.214   4.924   4.616 -0.3342  1.0588 -0.3894
18859THY    HP455054   1.057   4.887   4.546 -1.2666  0.6643  1.2121
18859THY    CP355055   1.068   4.957   4.820 -0.4151 -0.8329  0.6378
18859THY    HP555056   0.999   5.014   4.757  0.2788 -0.6101  1.7534
18859THY    HP655057   1.157   5.021   4.812 -0.7510  0.9475  1.3820
18859THY    HP755058   1.037   4.952   4.925  2.7792  0.2672  1.2275
18859THY    CA355059   1.304   4.778   4.858  0.3547  0.4989  0.0682
18859THY    HA355060   1.332   4.878   4.829  1.3699  0.9011 -0.0866
18859THY    CA455061   1.383   4.700   4.940 -0.2627  0.3968  0.0255
18859THY    HA455062   1.483   4.738   4.959  0.0926 -1.6988  0.3006
18859THY    CA555063   1.342   4.580   4.983 -0.5613 -0.7248 -0.1275
18859THY    CM155064   1.442   4.496   5.059 -0.7512 -0.7670  0.3586
18859THY    HM155065   1.426   4.510   5.166  1.7825 -0.3512  0.4624
18859THY    HM255066   1.545   4.509   5.026  0.2963  2.3143  0.4911
18859THY    HM355067   1.427   4.392   5.026  1.0246 -1.6623  0.3566
18859THY    CA655068   1.214   4.533   4.958 -0.4558 -0.2928 -0.0537
18859THY    HA655069   1.195   4.431   4.990 -0.9221  1.5694  0.5959
18860THY      O55070   5.425   9.025   6.687  0.3147 -0.3819 -0.3022
18860THY     HO55071   5.461   8.990   6.770  1.4552  0.6841  3.0014
18860THY    CA155072   5.449   8.932   6.588 -0.4538  0.5725  0.4693
18860THY    CA255073   5.395   8.941   6.459  0.5435 -0.2335  0.4917
18860THY    CP155074   5.308   9.069   6.431 -0.3182  0.5963  1.0241
18860THY    HP155075   5.360   9.148   6.487  1.5996  1.4060 -0.7124
18860THY    CP255076   5.168   9.057   6.494  0.1284  0.0031  0.4047
18860THY    HP255077   5.103   9.132   6.448 -2.2032  1.9948 -0.2743
18860THY    HP355078   5.176   9.085   6.600  3.7421  0.2286 -0.9657
18860THY    HP455079   5.125   8.957   6.500  2.5799  0.3127 -0.7141
18860THY    CP355080   5.288   9.104   6.277  0.8147  0.8160  0.0957
18860THY    HP555081   5.227   9.195   6.274 -2.1631  1.8675 -1.7255
18860THY    HP655082   5.235   9.029   6.218 -0.6550  0.0801  1.6376
18860THY    HP755083   5.383   9.128   6.229 -0.6152 -2.1851  0.2126
18860THY    CA355084   5.424   8.851   6.351  0.7387 -0.5857  0.4359
18860THY    HA355085   5.378   8.866   6.254  0.1918 -0.1768  1.5446
18860THY    CA455086   5.510   8.743   6.379  0.5994  0.8873  0.4190
18860THY    HA455087   5.528   8.666   6.304  1.0224  0.8668  0.5384
18860THY    CA555088   5.575   8.738   6.499  0.5168 -1.0298  0.1943
18860THY    CM155089   5.659   8.620   6.522 -0.2648  0.4068 -0.3066
18860THY    HM155090   5.738   8.650   6.592 -1.4515  1.7353 -0.1970
18860THY    HM255091   5.722   8.609   6.433  0.8517  1.3379 -2.0029
18860THY    HM355092   5.607   8.524   6.535 -3.4477  1.0320  1.3821
18860THY    CA655093   5.546   8.833   6.604 -0.9230  0.5151 -0.7125
18860THY    HA655094   5.606   8.827   6.695  0.0210 -0.0436 -0.0071
18861THY      O55095   3.856   1.500   5.727 -0.2065 -0.5765 -0.1767
18861THY     HO55096   3.858   1.534   5.636  1.1101 -1.2896 -2.0128
18861THY    CA155097   3.799   1.375   5.703 -0.3244  0.5573  0.4362
18861THY    CA255098   3.734   1.297   5.803  0.2430  0.3257 -0.3626
18861THY    CP155099   3.738   1.354   5.950  0.2864  0.2964  0.1080
18861THY    HP155100   3.736   1.464   5.945  1.8614  0.8284  0.1782
18861THY    CP255101   3.866   1.313   6.011 -0.0901 -0.3613  0.3795
18861THY    HP255102   3.880   1.204   6.002  0.0749  1.0494  0.2580
18861THY    HP355103   3.866   1.342   6.117 -1.5743 -0.3562  0.4504
18861THY    HP455104   3.951   1.365   5.965  0.2505  1.9903  2.0504
18861THY    CP355105   3.625   1.295   6.033 -0.3215 -0.0261 -0.3021
18861THY    HP555106   3.616   1.351   6.127 -1.9919 -1.6770  2.4467
18861THY    HP655107   3.650   1.191   6.055 -0.4772 -0.0634 -0.3466
18861THY    HP755108   3.530   1.311   5.981  0.4565 -2.0474 -1.8558
18861THY    CA355109   3.683   1.171   5.771  1.0470 -0.1495 -0.3383
18861THY    HA355110   3.636   1.118   5.853 -0.2945  0.5550  1.7915
18861THY    CA455111   3.690   1.130   5.640  0.2849 -0.1274 -0.1920
18861THY    HA455112   3.632   1.043   5.610 -1.8963  0.1677  1.0813
18861THY    CA555113   3.760   1.206   5.539 -0.2236 -0.5125 -0.2898
18861THY    CM155114   3.774   1.165   5.395 -0.2433  0.7351  0.3328
18861THY    HM155115   3.713   1.227   5.328  0.7392 -1.3693 -0.8631
18861THY    HM255116   3.750   1.058   5.396  1.3518  0.8731 -0.0519
18861THY    HM355117   3.879   1.170   5.365 -0.3570  0.4816  1.4736
18861THY    CA655118   3.804   1.331   5.574 -0.3780  0.2784  0.5900
18861THY    HA655119   3.854   1.392   5.499  1.1280  0.2412 -0.6245
18862THY      O55120   2.997   9.006   3.186 -0.4518 -0.3300 -0.5122
18862THY     HO55121   2.933   8.954   3.237 -2.1229 -0.6357  1.1210
18862THY    CA155122   3.117   8.940   3.186  0.0255 -0.1176  0.3015
18862THY    CA255123   3.240   8.997   3.211  0.0153 -0.1399  0.0728
18862THY    CP155124   3.249   9.148   3.223 -0.4465 -0.3778 -0.4035
18862THY    HP155125   3.183   9.185   3.143 -2.6871  0.5659 -2.1124
18862THY    CP255126   3.390   9.210   3.203 -0.4603 -0.1404  0.5322
18862THY    HP255127   3.419   9.168   3.106  0.5097  0.9993 -1.6468
18862THY    HP355128   3.465   9.176   3.276  1.6376 -2.7081 -0.7980
18862THY    HP455129   3.387   9.319   3.196 -2.0028  1.2188  0.6147
18862THY    CP355130   3.205   9.209   3.359  0.0014 -0.2437 -0.2599
18862THY    HP555131   3.267   9.161   3.436 -0.8386 -0.1731 -1.2496
18862THY    HP655132   3.101   9.185   3.381 -0.0729  0.7673  0.8926
18862THY    HP755133   3.208   9.319   3.358 -1.8776 -0.9986 -0.1825
18862THY    CA355134   3.350   8.912   3.242 -0.3919  0.1939 -0.1520
18862THY    HA355135   3.446   8.952   3.271 -1.1453  2.0937  0.3543
18862THY    CA455136   3.337   8.772   3.234  0.5114 -0.3430  0.3033
18862THY    HA455137   3.419   8.706   3.259 -0.0519 -0.6577 -0.5224
18862THY    CA555138   3.218   8.715   3.208 -0.1099  0.2204  0.0105
18862THY    CM155139   3.203   8.568   3.233 -0.0619  0.4473 -0.7265
18862THY    HM155140   3.105   8.528   3.205 -0.8171  2.7602 -0.6095
18862THY    HM255141   3.209   8.548   3.340  0.4119  0.5800  0.0653
18862THY    HM355142   3.289   8.518   3.187  0.8776 -0.8912  1.9432
18862THY    CA655143   3.105   8.801   3.183  0.1221 -0.2193  0.2688
18862THY    HA655144   3.006   8.759   3.170  0.8658 -1.2808 -1.2381
18863THY      O55145   7.328   6.911   3.925 -0.2471  0.0946 -0.6292
18863THY     HO55146   7.302   6.956   4.007 -0.2996  1.1743 -2.5376
18863THY    CA155147   7.296   6.994   3.818 -0.4301 -0.5247  0.3324
18863THY    CA255148   7.290   7.132   3.834  0.1675  0.0613 -0.1506
18863THY    CP155149   7.314   7.197   3.976 -0.5531  0.2566  0.3298
18863THY    HP155150   7.329   7.127   4.059  0.4763  0.8739  1.2527
18863THY    CP255151   7.205   7.295   4.024 -0.6006  0.1089  0.4451
18863THY    HP255152   7.105   7.255   4.047 -0.3063  0.8205  0.1116
18863THY    HP355153   7.190   7.375   3.951  1.7801  0.0800  0.9167
18863THY    HP455154   7.244   7.340   4.115 -0.6387 -0.5508  1.8498
18863THY    CP355155   7.444   7.281   3.977  0.2903  0.0922  0.0205
18863THY    HP555156   7.428   7.387   3.951 -0.3961 -1.1053 -0.3593
18863THY    HP655157   7.520   7.252   3.904 -0.5835 -1.2389  0.9667
18863THY    HP755158   7.496   7.273   4.073  0.5324  0.0084  0.5522
18863THY    CA355159   7.270   7.214   3.717  0.2409 -0.7262  0.0695
18863THY    HA355160   7.270   7.322   3.721  0.2545  2.0850  0.0287
18863THY    CA455161   7.245   7.147   3.593 -0.7335  0.8134 -0.5542
18863THY    HA455162   7.216   7.208   3.508  2.0033  0.2613  0.1057
18863THY    CA555163   7.257   7.005   3.587  0.9591  0.2934  0.3557
18863THY    CM155164   7.247   6.937   3.457  0.2706  0.4403 -0.2551
18863THY    HM155165   7.340   6.925   3.401 -0.3227 -0.4000 -1.1345
18863THY    HM255166   7.179   6.978   3.381  0.3759  0.6944  0.3947
18863THY    HM355167   7.220   6.833   3.476  0.4853 -0.8339 -0.5635
18863THY    CA655168   7.279   6.929   3.699 -0.4706 -0.2649 -0.5152
18863THY    HA655169   7.307   6.825   3.700  1.6061  0.3548  0.0009
18864THY      O55170   6.734   4.782   5.296  0.2287  0.2832  0.2572
18864THY     HO55171   6.763   4.698   5.256 -0.6460 -1.2344  0.6486
18864THY    CA155172   6.849   4.828   5.354  0.2194 -0.4641 -0.6569
18864THY    CA255173   6.859   4.957   5.401 -0.5616 -0.4189 -0.3043
18864THY    CP155174   6.733   5.052   5.406 -0.2546  0.3647 -0.0180
18864THY    HP155175   6.648   4.988   5.380 -1.0755  1.1458  0.7266
18864THY    CP255176   6.739   5.169   5.305 -0.5553  0.8978  0.0389
18864THY    HP255177   6.831   5.228   5.298 -0.2631 -3.2223 -0.5833
18864THY    HP355178   6.667   5.249   5.323 -0.6200  0.4418  0.0910
18864THY    HP455179   6.734   5.124   5.205  0.5353  0.6675  0.4045
18864THY    CP355180   6.707   5.107   5.546  0.5980 -0.0976 -0.0874
18864THY    HP555181   6.728   5.032   5.623  2.4760 -0.3936  0.0818
18864THY    HP655182   6.607   5.150   5.553  1.5757 -3.1789  3.1844
18864THY    HP755183   6.784   5.185   5.550  3.2426 -2.9404 -2.2911
18864THY    CA355184   6.986   5.006   5.451  0.1737  0.2482  0.1593
18864THY    HA355185   6.994   5.107   5.489  0.9712  0.6672 -0.0525
18864THY    CA455186   7.089   4.920   5.467  0.4426 -0.2891 -0.3627
18864THY    HA455187   7.185   4.953   5.506 -0.2231  0.7606  0.4275
18864THY    CA555188   7.072   4.786   5.434  0.5049  0.5438 -0.1140
18864THY    CM155189   7.175   4.680   5.473  0.3498  0.2474 -0.1916
18864THY    HM155190   7.214   4.615   5.394 -0.5515  0.7087 -1.3273
18864THY    HM255191   7.136   4.612   5.550 -2.4753  0.1241  1.1529
18864THY    HM355192   7.253   4.736   5.526  1.4567 -0.9790 -0.5303
18864THY    CA655193   6.954   4.741   5.384  0.0473  0.2213 -0.2836
18864THY    HA655194   6.942   4.638   5.352 -2.1402 -0.8182  0.2245
18865THY      O55195   1.272   3.622   2.689  0.4934 -0.3765  0.5152
18865THY     HO55196   1.185   3.582   2.675 -0.4237  2.5696  1.2166
18865THY    CA155197   1.246   3.740   2.744  0.1155  0.1105  0.0576
18865THY    CA255198   1.349   3.814   2.806 -0.1640  0.6304 -0.1191
18865THY    CP155199   1.481   3.752   2.833 -0.3825 -0.2702 -0.8518
18865THY    HP155200   1.507   3.691   2.746 -0.6739 -2.0442  1.3882
18865THY    CP255201   1.487   3.669   2.968 -0.0346  0.4340 -0.1598
18865THY    HP255202   1.581   3.616   2.986 -1.6923  0.0401 -3.4680
18865THY    HP355203   1.405   3.599   2.986 -0.3331 -1.3748 -0.3357
18865THY    HP455204   1.488   3.734   3.056  1.0389 -0.3364  0.9130
18865THY    CP355205   1.606   3.845   2.836 -0.3074  1.0375  0.0548
18865THY    HP555206   1.619   3.915   2.919  1.4402  0.9241 -0.0926
18865THY    HP655207   1.605   3.916   2.752  0.2183  0.2080 -0.8978
18865THY    HP755208   1.702   3.793   2.824 -0.5649  1.5076 -0.5380
18865THY    CA355209   1.321   3.940   2.858  0.0747 -0.6918 -0.8955
18865THY    HA355210   1.389   4.002   2.916 -1.2693  1.3975 -1.2992
18865THY    CA455211   1.184   3.984   2.854 -0.0090  0.0718  0.1899
18865THY    HA455212   1.151   4.075   2.901  2.9025 -0.4498  1.6359
18865THY    CA555213   1.087   3.914   2.777  0.0299  0.5526 -0.9273
18865THY    CM155214   0.948   3.971   2.765 -0.1291  0.4184 -0.0432
18865THY    HM155215   0.880   3.890   2.738  1.7315 -1.8949 -0.9417
18865THY    HM255216   0.956   4.043   2.683  1.6742 -0.8768 -1.6321
18865THY    HM355217   0.917   4.017   2.860 -2.4834  0.0423 -0.7073
18865THY    CA655218   1.114   3.786   2.732  0.0949 -0.0406  1.0813
18865THY    HA655219   1.042   3.726   2.677  0.6026  0.1101  0.3172
18866THY      O55220   6.970   6.820   5.460  0.2095  0.3875 -0.5089
18866THY     HO55221   7.057   6.794   5.497 -0.8099  1.9998 -1.8445
18866THY    CA155222   6.977   6.950   5.433 -0.1854  0.3196 -0.1341
18866THY    CA255223   6.860   7.015   5.379  0.1458  0.1454 -0.3752
18866THY    CP155224   6.739   6.937   5.339 -0.0433  0.9743 -0.5028
18866THY    HP155225   6.746   6.833   5.374  0.2095 -0.3451 -0.9552
18866THY    CP255226   6.732   6.926   5.187 -0.5474 -0.0988  0.0930
18866THY    HP255227   6.824   6.879   5.151  0.2815  1.3401  0.5648
18866THY    HP355228   6.698   7.022   5.145 -0.0890  2.1613  1.3118
18866THY    HP455229   6.662   6.848   5.157  0.1813 -1.7967  0.0287
18866THY    CP355230   6.607   6.981   5.394  0.4451  0.8892  0.7261
18866THY    HP555231   6.616   6.972   5.502 -0.1570  0.7804 -2.2556
18866THY    HP655232   6.524   6.917   5.363  0.5937 -1.1060  1.4275
18866THY    HP755233   6.584   7.079   5.350 -1.1046  1.5844  0.6964
18866THY    CA355234   6.862   7.152   5.354 -0.1538 -0.1478  0.1856
18866THY    HA355235   6.768   7.197   5.323 -0.0706 -1.1115 -0.2747
18866THY    CA455236   6.987   7.221   5.370  0.5957 -0.6133  0.2579
18866THY    HA455237   6.983   7.329   5.363  2.0800 -2.0985  0.2494
18866THY    CA555238   7.102   7.156   5.421 -0.3088 -0.1767  0.6395
18866THY    CM155239   7.233   7.231   5.444 -0.3529  1.1058 -0.0293
18866THY    HM155240   7.226   7.249   5.551  0.2703  1.3755 -1.3083
18866THY    HM255241   7.239   7.328   5.394 -0.9046  1.3750  0.1427
18866THY    HM355242   7.322   7.171   5.421 -0.8989 -0.3743 -0.3116
18866THY    CA655243   7.092   7.022   5.457 -0.3307 -0.0926 -0.5969
18866THY    HA655244   7.180   6.974   5.499  2.0038 -2.9110  0.8909
18867THY      O55245   8.092   3.983   6.681 -0.1823  0.2900 -0.5690
18867THY     HO55246   8.122   4.057   6.735 -1.7599 -1.0719  1.1760
18867THY    CA155247   8.205   3.918   6.647 -0.2959  0.3356  0.9693
18867THY    CA255248   8.197   3.780   6.642  0.5127 -0.5329  0.9837
18867THY    CP155249   8.087   3.696   6.712  0.1898 -0.4831  0.3827
18867THY    HP155250   7.996   3.755   6.729 -0.7206 -4.0192  0.1871
18867THY    CP255251   8.135   3.646   6.839 -0.3921 -0.6351  0.3548
18867THY    HP255252   8.235   3.604   6.822  0.0367  0.0375  1.0735
18867THY    HP355253   8.076   3.563   6.880 -0.5874  2.8624  2.0319
18867THY    HP455254   8.123   3.722   6.917 -2.3293 -1.2873  0.7623
18867THY    CP355255   8.031   3.577   6.631 -0.0084  0.5070  0.0515
18867THY    HP555256   8.080   3.480   6.642  0.1176 -0.5217 -0.0137
18867THY    HP655257   8.027   3.594   6.522 -0.5228 -0.0405 -2.9349
18867THY    HP755258   7.925   3.562   6.654 -0.7371 -1.5500  1.4965
18867THY    CA355259   8.293   3.706   6.571 -0.6630 -0.5709 -0.7250
18867THY    HA355260   8.285   3.597   6.570  0.4462  1.3803 -0.8728
18867THY    CA455261   8.411   3.773   6.524  0.3292  0.7078  0.5072
18867THY    HA455262   8.488   3.714   6.474 -0.5205 -1.3547  1.0460
18867THY    CA555263   8.422   3.910   6.537  0.7575  0.9520 -0.0650
18867THY    CM155264   8.550   3.988   6.493 -0.4629 -1.4144  0.1846
18867THY    HM155265   8.525   4.092   6.469 -0.7273  1.2911  0.8057
18867THY    HM255266   8.612   3.940   6.416 -0.1336 -1.9582  1.4561
18867THY    HM355267   8.608   3.992   6.586 -0.1774 -1.4710 -1.6076
18867THY    CA655268   8.320   3.979   6.599 -0.1865  0.5617 -0.2909
18867THY    HA655269   8.335   4.086   6.609 -0.9827 -1.1098 -0.0086
18868THY      O55270   4.661   8.860   6.564  0.2388  0.9868  0.3220
18868THY     HO55271   4.639   8.944   6.521 -0.1106  2.3542  0.9602
18868THY    CA155272   4.779   8.823   6.508 -0.0070 -0.0784  0.9646
18868THY    CA255273   4.849   8.706   6.549  0.3253  0.2625 -0.5917
18868THY    CP155274   4.802   8.611   6.651  0.3359 -1.0677 -0.0005
18868THY    HP155275   4.736   8.665   6.720 -0.0205 -2.0360  0.8264
18868THY    CP255276   4.913   8.548   6.742  0.2773 -0.1260  0.5484
18868THY    HP255277   4.967   8.462   6.701  0.4791  0.7245  0.2544
18868THY    HP355278   4.879   8.506   6.838  2.1678 -0.2903 -1.5533
18868THY    HP455279   4.981   8.627   6.775  1.0334 -1.3836  0.4418
18868THY    CP355280   4.720   8.498   6.583 -0.6577  0.3111 -0.7876
18868THY    HP555281   4.641   8.525   6.513 -0.2384 -0.5808 -1.8003
18868THY    HP655282   4.684   8.427   6.659  2.3320 -0.0817 -2.9306
18868THY    HP755283   4.797   8.445   6.525 -1.5128 -2.2482  0.6320
18868THY    CA355284   4.970   8.681   6.482 -0.1696  0.3864  0.5446
18868THY    HA355285   5.027   8.600   6.525  1.4414  3.0318  2.9097
18868THY    CA455286   5.011   8.764   6.375 -0.6262  0.0113 -0.1359
18868THY    HA455287   5.109   8.752   6.331 -0.9203 -0.2298 -1.9332
18868THY    CA555288   4.927   8.867   6.325  0.4837 -0.2868 -0.5505
18868THY    CM155289   4.963   8.953   6.208 -0.1096  0.2916  0.6401
18868THY    HM155290   5.039   8.902   6.147 -0.7263 -0.1631  0.2483
18868THY    HM255291   4.995   9.054   6.238 -0.6095 -1.7538  1.4542
18868THY    HM355292   4.878   8.977   6.142  1.0142 -2.3488 -2.0216
18868THY    CA655293   4.810   8.891   6.394  0.8652  0.1488 -0.7722
18868THY    HA655294   4.750   8.976   6.363  1.7623 -0.6928 -0.4336
18869THY      O55295   3.921   8.755   5.592 -0.0830 -0.8155  0.4008
18869THY     HO55296   3.945   8.720   5.679 -2.1139 -0.6442 -0.7456
18869THY    CA155297   4.016   8.689   5.522  0.2698  1.0073 -0.5178
18869THY    CA255298   4.013   8.689   5.382 -0.3457 -0.0772 -0.4518
18869THY    CP155299   3.900   8.757   5.293  0.1337 -0.4131 -0.1658
18869THY    HP155300   3.826   8.803   5.359  2.4237  1.7824  0.6221
18869THY    CP255301   3.843   8.646   5.199  0.5179 -0.1622 -0.6132
18869THY    HP255302   3.759   8.692   5.146  0.9739  0.6916  1.3316
18869THY    HP355303   3.809   8.561   5.260 -3.5416 -1.1754  0.0938
18869THY    HP455304   3.911   8.608   5.122 -0.3017 -0.1108 -2.2358
18869THY    CP355305   3.959   8.878   5.229  0.6610  0.0149 -0.8761
18869THY    HP555306   4.050   8.870   5.170  0.3710 -0.5933  0.1793
18869THY    HP655307   3.963   8.961   5.300 -2.5687  0.7695 -1.2041
18869THY    HP755308   3.882   8.906   5.156  0.3722  0.8658  0.6952
18869THY    CA355309   4.111   8.602   5.322 -0.2643  0.2589 -0.1319
18869THY    HA355310   4.117   8.591   5.214  0.2201  0.3784 -1.2498
18869THY    CA455311   4.211   8.527   5.390  0.2116  0.0121 -0.1117
18869THY    HA455312   4.285   8.459   5.348  1.6233 -1.8357  2.4030
18869THY    CA555313   4.201   8.533   5.520  0.1957 -0.4226 -0.1853
18869THY    CM155314   4.303   8.465   5.606  0.6180 -0.6278 -0.1587
18869THY    HM155315   4.256   8.455   5.704 -2.6937 -1.8799  1.5407
18869THY    HM255316   4.400   8.514   5.616  0.6989  0.4371 -0.5059
18869THY    HM355317   4.331   8.366   5.566  3.4864  1.2597 -0.2283
18869THY    CA655318   4.101   8.602   5.587 -0.9771  0.2204 -0.2580
18869THY    HA655319   4.111   8.602   5.695  1.0464  0.0971 -1.9152
18870THY      O55320   8.714   2.510   3.766  0.1247  0.8113  0.2895
18870THY     HO55321   8.647   2.576   3.790  1.5934  2.9041  1.1558
18870THY    CA155322   8.809   2.591   3.710  0.2775  0.6426  0.5674
18870THY    CA255323   8.929   2.532   3.660  0.1921 -0.6447 -0.2906
18870THY    CP155324   8.971   2.384   3.699  1.1213 -0.1501  0.1700
18870THY    HP155325   8.895   2.346   3.768 -0.5826 -1.6556  0.7259
18870THY    CP255326   9.107   2.374   3.771  0.0579 -0.3328  0.6008
18870THY    HP255327   9.192   2.409   3.711  0.8741  1.4851  1.8963
18870THY    HP355328   9.120   2.268   3.794 -0.3638 -2.1741  0.1094
18870THY    HP455329   9.116   2.425   3.867  2.3770  1.4693 -2.7608
18870THY    CP355330   8.966   2.297   3.575  0.1749  0.5952 -0.6152
18870THY    HP555331   8.992   2.191   3.582  0.1494 -0.7801 -0.7358
18870THY    HP655332   9.031   2.342   3.498  2.3796  2.5149 -0.3194
18870THY    HP755333   8.866   2.302   3.531  0.0195  1.0585  0.8434
18870THY    CA355334   9.013   2.615   3.576 -0.0643  0.6169 -0.1368
18870THY    HA355335   9.112   2.588   3.541  0.1126  1.3329 -0.4425
18870THY    CA455336   8.983   2.750   3.555  0.2611  0.0862  0.1621
18870THY    HA455337   9.057   2.815   3.508 -1.0106  1.2830  2.6420
18870THY    CA555338   8.860   2.806   3.596 -0.5604  0.2354  0.6877
18870THY    CM155339   8.833   2.945   3.577 -0.0407  0.1347 -0.2743
18870THY    HM155340   8.736   2.973   3.618  0.0716 -0.1583  0.5992
18870THY    HM255341   8.820   2.969   3.471 -0.7173  0.2997  0.1133
18870THY    HM355342   8.908   3.006   3.629 -0.1030  2.1569 -1.8163
18870THY    CA655343   8.777   2.722   3.679  0.2043 -0.1309 -0.6523
18870THY    HA655344   8.686   2.766   3.717 -0.8145 -0.6653 -2.2184
18871THY      O55345   6.567   7.582   7.823  0.0748  0.2960  0.5050
18871THY     HO55346   6.536   7.670   7.853 -0.8229  0.2689  0.2106
18871THY    CA155347   6.705   7.581   7.859 -0.2678  0.1926  0.5436
18871THY    CA255348   6.792   7.475   7.823  0.5385  0.3206  0.6987
18871THY    CP155349   6.742   7.344   7.749 -0.0172 -0.7291 -0.2494
18871THY    HP155350   6.634   7.337   7.765 -0.1330 -0.6042  1.4093
18871THY    CP255351   6.807   7.209   7.797 -0.1172  0.2632  0.0153
18871THY    HP255352   6.900   7.181   7.748 -1.0133 -0.6101 -1.5689
18871THY    HP355353   6.735   7.135   7.760  0.0896 -3.3476  1.4496
18871THY    HP455354   6.812   7.207   7.907 -0.9279  0.3077 -2.1707
18871THY    CP355355   6.761   7.362   7.601  0.3143 -0.1623 -0.4565
18871THY    HP555356   6.757   7.467   7.569  0.2464  0.6185 -0.2126
18871THY    HP655357   6.689   7.299   7.548  0.9733  0.5366 -1.8213
18871THY    HP755358   6.864   7.331   7.580  0.4072 -0.2824 -0.0729
18871THY    CA355359   6.923   7.484   7.866 -0.5614  0.0803  0.6825
18871THY    HA355360   6.994   7.405   7.843 -1.1165  0.7187 -0.0127
18871THY    CA455361   6.961   7.593   7.940  0.1292  0.5178 -0.3079
18871THY    HA455362   7.059   7.595   7.986 -0.3334  1.5152 -0.3827
18871THY    CA555363   6.873   7.695   7.971  0.3444 -0.2728  0.5787
18871THY    CM155364   6.914   7.812   8.063 -0.2697  0.0714  0.3977
18871THY    HM155365   6.967   7.887   8.003  0.3471  0.3480  0.1919
18871THY    HM255366   6.978   7.780   8.146 -0.6532 -0.0211 -0.6562
18871THY    HM355367   6.836   7.851   8.129 -1.4268 -1.4568  0.7409
18871THY    CA655368   6.751   7.695   7.915  0.2414  0.2329 -0.6513
18871THY    HA655369   6.682   7.773   7.947 -1.5357 -0.0490 -2.0193
18872THY      O55370   5.317   3.863   7.125 -0.2521  0.1406  0.1026
18872THY     HO55371   5.310   3.820   7.212 -1.3591 -0.8705 -1.9325
18872THY    CA155372   5.443   3.887   7.094 -0.3328 -0.1374  0.0239
18872THY    CA255373   5.488   3.926   6.966  0.1289 -0.2374  0.7877
18872THY    CP155374   5.383   3.948   6.850 -0.2119 -0.1970  0.1861
18872THY    HP155375   5.294   3.885   6.858 -0.9954  1.4173  1.4306
18872THY    CP255376   5.434   3.909   6.706  0.0022  1.4692 -0.0374
18872THY    HP255377   5.471   3.806   6.707  2.4974  0.1571  0.7737
18872THY    HP355378   5.504   3.985   6.669  0.2005  1.7554 -0.0811
18872THY    HP455379   5.354   3.913   6.631  1.9658 -0.7551 -0.4287
18872THY    CP355380   5.331   4.092   6.843  0.5290  0.0383  0.2800
18872THY    HP555381   5.400   4.170   6.806 -0.1928 -1.1101  0.4045
18872THY    HP655382   5.302   4.131   6.941 -1.3527 -0.6885  0.8210
18872THY    HP755383   5.234   4.079   6.793  0.1348  1.0951 -0.9943
18872THY    CA355384   5.625   3.933   6.937 -0.4675  0.7534  0.3376
18872THY    HA355385   5.668   3.953   6.839  1.3586  1.0261 -1.8551
18872THY    CA455386   5.715   3.920   7.039 -0.2555  0.3652 -0.0854
18872THY    HA455387   5.822   3.922   7.019 -0.6521 -2.0243  0.4093
18872THY    CA555388   5.672   3.901   7.172 -0.4700  0.2583 -0.5760
18872THY    CM155389   5.786   3.889   7.273 -0.1275 -0.0515  0.4329
18872THY    HM155390   5.884   3.900   7.225 -0.0071  0.3055  1.0042
18872THY    HM255391   5.788   3.794   7.327  0.2697 -0.5590  0.1529
18872THY    HM355392   5.784   3.964   7.354  1.1812  1.4327 -1.0358
18872THY    CA655393   5.535   3.889   7.199 -0.0678  0.0774  0.4638
18872THY    HA655394   5.504   3.867   7.301  1.1403  0.7886  1.9485
18873THY      O55395   7.373   5.472   6.913 -0.0311 -0.1691 -0.0350
18873THY     HO55396   7.333   5.383   6.905 -1.3587  1.2983  0.3856
18873THY    CA155397   7.408   5.520   6.792 -0.2531  0.0489 -0.4290
18873THY    CA255398   7.479   5.645   6.782 -0.8317  0.5928 -0.2481
18873THY    CP155399   7.525   5.718   6.909  0.6590 -0.1861  0.3244
18873THY    HP155400   7.592   5.655   6.967 -0.6374 -0.4825 -1.4053
18873THY    CP255401   7.406   5.768   6.991 -0.1222 -0.4365  0.2165
18873THY    HP255402   7.433   5.769   7.097  1.8508 -0.9027 -0.4051
18873THY    HP355403   7.326   5.694   6.979  0.2213  0.6773 -0.3509
18873THY    HP455404   7.371   5.870   6.971  0.1537  0.9159  0.6021
18873THY    CP355405   7.609   5.841   6.886 -0.7066 -0.4912 -0.0792
18873THY    HP555406   7.557   5.927   6.842 -0.2620  1.4054  1.2347
18873THY    HP655407   7.700   5.822   6.828  0.6369  0.7532  2.1181
18873THY    HP755408   7.649   5.875   6.982  0.7467 -1.1391  0.1259
18873THY    CA355409   7.506   5.699   6.655 -0.1594 -0.2393 -0.0143
18873THY    HA355410   7.551   5.796   6.640  0.5132  2.4218  0.1716
18873THY    CA455411   7.472   5.620   6.546 -0.3126  0.4238  0.4112
18873THY    HA455412   7.509   5.657   6.451 -0.6184  0.3053  0.4177
18873THY    CA555413   7.417   5.493   6.555 -0.0840  0.6148 -0.2878
18873THY    CM155414   7.388   5.408   6.436 -0.2903  0.2887  0.5962
18873THY    HM155415   7.297   5.427   6.378  0.6023 -2.0498 -1.5958
18873THY    HM255416   7.386   5.305   6.472  1.0615  1.5535  0.9861
18873THY    HM355417   7.473   5.412   6.366  1.4000  2.1613 -0.4896
18873THY    CA655418   7.387   5.439   6.678  0.3913 -0.2167  0.8347
18873THY    HA655419   7.335   5.345   6.689  1.8940  0.5970  0.0567
18874THY      O55420   5.577   7.963   1.690 -0.1639 -0.5583 -1.1197
18874THY     HO55421   5.658   7.911   1.706 -0.3127  1.2663 -0.8647
18874THY    CA155422   5.523   7.974   1.816  0.0866 -0.2479  0.0972
18874THY    CA255423   5.392   8.036   1.827 -0.3741 -0.5197  0.9667
18874THY    CP155424   5.321   8.096   1.709  0.1692  0.0235  0.3279
18874THY    HP155425   5.363   8.060   1.615 -0.6184  0.1998 -1.1287
18874THY    CP255426   5.330   8.244   1.714 -0.0356  0.5037 -0.0047
18874THY    HP255427   5.430   8.287   1.705 -0.5804 -0.2106  1.1799
18874THY    HP355428   5.288   8.277   1.809  2.3966  1.4099  0.6749
18874THY    HP455429   5.278   8.290   1.629 -0.6912  1.3022  0.7626
18874THY    CP355430   5.177   8.047   1.695  0.7119  0.4576 -0.1826
18874THY    HP555431   5.168   7.941   1.668 -1.9075 -2.8829  0.7133
18874THY    HP655432   5.128   8.108   1.618 -0.8884  0.8761 -0.8789
18874THY    HP755433   5.119   8.066   1.787 -0.6098 -0.5232  0.7031
18874THY    CA355434   5.338   8.045   1.957 -0.1814 -0.0349 -0.5349
18874THY    HA355435   5.255   8.112   1.981  2.8960  2.8375  2.6843
18874THY    CA455436   5.415   7.998   2.071  0.0510  0.0141 -0.0551
18874THY    HA455437   5.372   8.003   2.170  1.0253  0.6426 -2.6589
18874THY    CA555438   5.537   7.925   2.056  0.6600 -0.0718 -0.3168
18874THY    CM155439   5.612   7.872   2.182 -0.2448 -0.2354 -0.6894
18874THY    HM155440   5.573   7.915   2.275 -1.1045 -1.4672  1.3494
18874THY    HM255441   5.722   7.879   2.178  0.1187  0.5845 -4.2762
18874THY    HM355442   5.596   7.765   2.194 -0.2978  0.0394 -0.6510
18874THY    CA655443   5.592   7.917   1.928 -0.2579 -0.3132 -0.3491
18874THY    HA655444   5.695   7.886   1.923  0.4514 -0.3622  1.8534
18875THY      O55445   3.255   4.597   5.374  0.1304  0.0654  0.4302
18875THY     HO55446   3.205   4.639   5.302 -0.0567 -1.4321 -2.1375
18875THY    CA155447   3.384   4.598   5.353  0.7301 -0.1840  0.6582
18875THY    CA255448   3.481   4.536   5.440 -0.5876  0.0217 -0.3338
18875THY    CP155449   3.442   4.465   5.571 -0.2044  0.0576 -0.6158
18875THY    HP155450   3.343   4.497   5.606  0.2055  0.8428 -0.1876
18875THY    CP255451   3.552   4.498   5.679  0.1346  0.1060 -0.3487
18875THY    HP255452   3.565   4.607   5.679 -1.1583  0.9292 -0.1685
18875THY    HP355453   3.653   4.461   5.659  0.6612  0.9945  0.5568
18875THY    HP455454   3.531   4.451   5.776  0.9601  0.4328 -0.0682
18875THY    CP355455   3.432   4.315   5.559  0.6600 -0.4165  0.2804
18875THY    HP555456   3.407   4.270   5.656 -3.0294 -0.7042  1.3693
18875THY    HP655457   3.522   4.276   5.509 -0.2758 -5.0300  3.3335
18875THY    HP755458   3.355   4.287   5.486 -1.2159  1.4803  0.2319
18875THY    CA355459   3.616   4.538   5.399 -0.4699 -0.2999 -0.2861
18875THY    HA355460   3.698   4.493   5.454 -1.2420 -0.5483 -2.1139
18875THY    CA455461   3.644   4.604   5.277 -0.7094 -0.1070 -0.6282
18875THY    HA455462   3.744   4.628   5.245 -0.8759 -1.0421 -1.1580
18875THY    CA555463   3.552   4.672   5.210  0.4736  0.3403 -0.2775
18875THY    CM155464   3.598   4.741   5.086  0.0675  0.0336  0.3571
18875THY    HM155465   3.538   4.826   5.052  2.5236 -1.8479  1.4874
18875THY    HM255466   3.605   4.675   4.999  0.7674  1.1415 -1.0941
18875THY    HM355467   3.699   4.780   5.099  0.0716 -1.7170  1.0217
18875THY    CA655468   3.419   4.666   5.240  0.0398  0.5416  0.1256
18875THY    HA655469   3.345   4.713   5.176 -0.5617  0.5451 -0.8063
18876THY      O55470   4.774   3.251   2.821 -0.5411  0.2398  0.3857
18876THY     HO55471   4.802   3.265   2.913 -0.8310  0.7853 -2.0751
18876THY    CA155472   4.861   3.311   2.741  0.3977  0.1618 -0.5115
18876THY    CA255473   4.851   3.309   2.601 -0.4391  0.1569  0.3932
18876THY    CP155474   4.763   3.217   2.520 -0.4499 -0.1376 -0.3735
18876THY    HP155475   4.688   3.170   2.584 -1.3442 -0.8780  0.0292
18876THY    CP255476   4.844   3.105   2.450 -0.0528 -0.1280 -0.4209
18876THY    HP255477   4.926   3.153   2.396  0.3954 -0.4662 -1.5355
18876THY    HP355478   4.777   3.055   2.380  0.2506 -1.5032  1.0324
18876THY    HP455479   4.882   3.042   2.531  1.3492 -0.1980  0.2929
18876THY    CP355480   4.668   3.284   2.427 -1.2051  0.5872 -0.2020
18876THY    HP555481   4.631   3.376   2.475  1.4272 -1.6391  2.2502
18876THY    HP655482   4.594   3.212   2.391  1.6115 -1.0518 -2.5145
18876THY    HP755483   4.733   3.315   2.344  0.2183  1.9031  0.4570
18876THY    CA355484   4.935   3.395   2.526 -0.2735  0.1879 -0.0770
18876THY    HA355485   4.927   3.396   2.418 -2.7610  0.3087 -0.5962
18876THY    CA455486   5.029   3.474   2.591  0.3680 -0.3040  0.4048
18876THY    HA455487   5.098   3.531   2.530 -0.0308 -0.5105  0.6650
18876THY    CA555488   5.041   3.471   2.725 -0.0083  0.1576  0.5542
18876THY    CM155489   5.145   3.553   2.794  0.2751 -0.4795 -0.5905
18876THY    HM155490   5.100   3.621   2.867  1.6827  1.3903 -1.5386
18876THY    HM255491   5.194   3.630   2.734  2.2132  0.6920 -0.8476
18876THY    HM355492   5.231   3.497   2.834  1.9194  0.9643  2.6609
18876THY    CA655493   4.961   3.391   2.803  0.3063  0.7826  0.3718
18876THY    HA655494   4.968   3.394   2.912 -2.3186  0.9926  2.2374
18877THY      O55495   4.691   6.486   5.704  0.1236  0.0444 -0.0214
18877THY     HO55496   4.770   6.539   5.725  1.9652  0.8131 -2.8542
18877THY    CA155497   4.641   6.554   5.596 -0.2489  0.2078  0.0074
18877THY    CA255498   4.533   6.510   5.523  0.3130  0.1931  0.5528
18877THY    CP155499   4.461   6.385   5.568  0.5210  0.4225  0.1532
18877THY    HP155500   4.492   6.371   5.673  2.7309  0.0844  1.8573
18877THY    CP255501   4.500   6.269   5.474  0.2635  0.6774  0.2068
18877THY    HP255502   4.462   6.171   5.505  0.0157 -1.6718 -0.5076
18877THY    HP355503   4.610   6.269   5.465  0.2806  0.7869 -1.0299
18877THY    HP455504   4.463   6.288   5.373  1.0433  0.7318  2.2804
18877THY    CP355505   4.304   6.400   5.566  0.3515  0.0101 -0.5701
18877THY    HP555506   4.255   6.304   5.583 -0.8903  0.1268  0.0688
18877THY    HP655507   4.272   6.427   5.464  4.1069 -1.1226  0.2306
18877THY    HP755508   4.258   6.474   5.633 -0.5047 -0.1857 -0.9078
18877THY    CA355509   4.493   6.578   5.406 -0.5817 -0.7353  0.1679
18877THY    HA355510   4.413   6.541   5.343 -1.2222  0.1621 -0.0091
18877THY    CA455511   4.552   6.693   5.372 -0.6744 -0.4194 -0.5442
18877THY    HA455512   4.518   6.747   5.285  3.0943 -0.4630  2.1509
18877THY    CA555513   4.648   6.751   5.457 -0.0514 -1.1274 -0.2180
18877THY    CM155514   4.713   6.879   5.427 -0.0267  0.3020  0.5883
18877THY    HM155515   4.805   6.858   5.372 -1.7028 -2.0026 -1.2853
18877THY    HM255516   4.724   6.950   5.510  1.0534  0.5629  0.1417
18877THY    HM355517   4.654   6.929   5.349 -1.9270  1.1462 -0.2144
18877THY    CA655518   4.700   6.680   5.561  0.2976 -0.0956 -0.0500
18877THY    HA655519   4.781   6.720   5.620  0.8355 -0.4316 -0.6253
18878THY      O55520   7.442   2.497   6.063  0.4762 -0.1540 -0.3753
18878THY     HO55521   7.512   2.435   6.089 -0.6674  2.0421 -0.8631
18878THY    CA155522   7.372   2.515   6.176 -0.4767 -0.3961 -0.4813
18878THY    CA255523   7.246   2.572   6.180 -0.2056  0.9589  0.0470
18878THY    CP155524   7.182   2.629   6.055 -0.2034 -0.4633 -0.1142
18878THY    HP155525   7.235   2.574   5.975 -1.5407 -0.8003 -0.9446
18878THY    CP255526   7.210   2.773   6.034 -0.5508 -0.0613 -0.9994
18878THY    HP255527   7.317   2.797   6.022 -1.2431 -3.1184  1.0487
18878THY    HP355528   7.167   2.838   6.111  0.3845  0.8827 -1.4574
18878THY    HP455529   7.158   2.793   5.940  1.8840 -1.7704 -2.1147
18878THY    CP355530   7.026   2.593   6.053 -0.4018  0.0910 -0.5936
18878THY    HP555531   7.001   2.492   6.087  0.5361 -0.7628 -1.1254
18878THY    HP655532   7.004   2.593   5.945  2.0620 -0.4877 -2.3676
18878THY    HP755533   6.969   2.673   6.102  0.6775  1.7888 -0.8195
18878THY    CA355534   7.178   2.581   6.303  0.1174  0.1286  0.3705
18878THY    HA355535   7.077   2.620   6.312  0.8042 -1.4814  2.7850
18878THY    CA455536   7.247   2.539   6.423 -0.2091 -0.0107  0.2937
18878THY    HA455537   7.196   2.538   6.519 -1.1431 -0.3374  3.5732
18878THY    CA555538   7.380   2.492   6.416  0.3885  0.2822 -0.2628
18878THY    CM155539   7.450   2.436   6.539  0.2944  0.4325  1.2596
18878THY    HM155540   7.414   2.494   6.625 -0.5023  1.9686 -1.3716
18878THY    HM255541   7.559   2.438   6.531  0.4172  1.4427 -0.3713
18878THY    HM355542   7.417   2.333   6.555  2.5199 -4.0134 -0.4224
18878THY    CA655543   7.440   2.480   6.292  1.2981 -0.4874 -0.3967
18878THY    HA655544   7.539   2.435   6.295  1.0817  1.8748 -0.8541
18879THY      O55545   4.820   7.212   3.082  0.5547 -0.1497 -0.0769
18879THY     HO55546   4.789   7.150   3.150  0.5352 -0.7808 -0.7638
18879THY    CA155547   4.774   7.163   2.962 -0.1403  0.3228  0.3685
18879THY    CA255548   4.834   7.198   2.840  1.2713  0.4445  0.1337
18879THY    CP155549   4.935   7.311   2.824 -0.4761 -0.1147  0.5122
18879THY    HP155550   4.921   7.378   2.909  1.7507  1.1181 -0.5094
18879THY    CP255551   4.896   7.396   2.709  0.2018  0.7240 -0.1790
18879THY    HP255552   4.895   7.352   2.609  0.5479 -0.6335  2.6857
18879THY    HP355553   4.966   7.480   2.699  0.9146  0.9123 -0.7408
18879THY    HP455554   4.795   7.433   2.729  0.0476  1.7785 -1.1150
18879THY    CP355555   5.082   7.257   2.807  0.5496  0.7104 -0.0783
18879THY    HP555556   5.145   7.345   2.824 -0.0589 -0.0797  0.5321
18879THY    HP655557   5.102   7.214   2.708  0.0176 -1.1067  3.5008
18879THY    HP755558   5.097   7.177   2.881 -0.9014  0.2499 -0.8183
18879THY    CA355559   4.793   7.129   2.722 -0.3245 -0.7234 -0.4139
18879THY    HA355560   4.832   7.154   2.623 -0.7523 -0.8879 -0.3971
18879THY    CA455561   4.684   7.041   2.734 -0.2989 -0.4347  1.1659
18879THY    HA455562   4.653   6.993   2.642 -1.5806  0.1801  0.7855
18879THY    CA555563   4.626   7.003   2.854  0.4372  1.1301 -0.1375
18879THY    CM155564   4.501   6.917   2.856 -0.0063 -0.1578 -0.3505
18879THY    HM155565   4.421   6.961   2.915 -2.6438 -2.0118 -2.3470
18879THY    HM255566   4.522   6.817   2.897  1.7810  0.5782  0.2865
18879THY    HM355567   4.462   6.918   2.753  0.0750 -0.2278 -1.9229
18879THY    CA655568   4.665   7.076   2.969 -0.1567  0.0372  0.0165
18879THY    HA655569   4.620   7.058   3.066  0.6772  0.1476 -1.6509
18880THY      O55570   5.877   8.672   5.122 -0.0432  0.0185 -0.7475
18880THY     HO55571   5.786   8.701   5.104 -0.0789 -0.2750 -1.0305
18880THY    CA155572   5.855   8.562   5.198 -0.6263  0.5130 -0.2747
18880THY    CA255573   5.962   8.504   5.267  0.8206  0.2386  0.3552
18880THY    CP155574   6.105   8.560   5.245  0.6171 -0.9100  0.3809
18880THY    HP155575   6.104   8.666   5.218 -0.7608  2.1976  1.2632
18880THY    CP255576   6.196   8.467   5.153  0.0490 -1.4412 -0.4313
18880THY    HP255577   6.144   8.454   5.058 -0.5577 -1.0114 -1.2878
18880THY    HP355578   6.196   8.364   5.192  2.9045 -2.8856 -1.0835
18880THY    HP455579   6.294   8.509   5.127 -0.3970 -2.5351 -0.0304
18880THY    CP355580   6.157   8.583   5.389  0.2628  0.3891 -0.8874
18880THY    HP555581   6.097   8.662   5.434 -1.0373  0.7100 -2.0241
18880THY    HP655582   6.257   8.629   5.387  0.1694 -0.7911 -0.7051
18880THY    HP755583   6.151   8.499   5.460 -0.1505  0.0069 -1.1844
18880THY    CA355584   5.930   8.397   5.353  0.3456  0.6167 -0.1281
18880THY    HA355585   6.005   8.339   5.406  1.1091  0.3398  0.5964
18880THY    CA455586   5.795   8.352   5.356 -0.5189  0.1356  0.3434
18880THY    HA455587   5.773   8.266   5.419 -0.9563  0.3174  0.5851
18880THY    CA555588   5.696   8.408   5.275  0.3281  0.5847 -0.1140
18880THY    CM155589   5.559   8.349   5.256 -0.2248  0.3312  0.5687
18880THY    HM155590   5.569   8.245   5.222 -0.0826 -0.0340  0.7026
18880THY    HM255591   5.497   8.402   5.183  1.4674  1.1032  3.8534
18880THY    HM355592   5.484   8.359   5.335 -2.4141 -1.6252  0.2922
18880THY    CA655593   5.725   8.521   5.201 -0.0976 -0.1739 -0.6008
18880THY    HA655594   5.647   8.568   5.141 -2.6094  3.7833  0.8100
18881THY      O55595   9.157   3.851   4.587  0.1843 -0.1172 -0.2116
18881THY     HO55596   9.167   3.790   4.512  3.7327  0.4287 -0.5680
18881THY    CA155597   9.026   3.863   4.613 -0.7218  0.0058 -0.1623
18881THY    CA255598   8.976   3.916   4.735 -0.3798  0.2653 -0.6357
18881THY    CP155599   9.072   3.965   4.841  0.3566 -0.1645 -0.0748
18881THY    HP155600   9.177   3.974   4.812  0.3846  0.5011  2.7047
18881THY    CP255601   9.071   3.857   4.953 -0.5619  0.3058 -0.3320
18881THY    HP255602   9.152   3.884   5.022 -0.1009 -0.5919  0.6421
18881THY    HP355603   9.085   3.759   4.906 -1.3377 -1.2471  0.2729
18881THY    HP455604   8.986   3.842   5.022  1.9271  3.9753  0.9717
18881THY    CP355605   9.039   4.097   4.913  0.0650  0.7592 -0.0182
18881THY    HP555606   9.115   4.117   4.989  0.1058 -0.0494  3.6523
18881THY    HP655607   8.941   4.106   4.961  0.5207  1.4980  1.3123
18881THY    HP755608   9.038   4.183   4.846  0.0977  1.6536  0.6872
18881THY    CA355609   8.841   3.921   4.748 -0.5675  0.2065 -0.3636
18881THY    HA355610   8.805   3.953   4.846  1.9358  1.0552  0.0403
18881THY    CA455611   8.753   3.902   4.642  0.0675 -0.3894 -0.2309
18881THY    HA455612   8.649   3.929   4.658 -0.0814 -0.6195 -0.6528
18881THY    CA555613   8.804   3.851   4.524  0.4900 -0.0561  0.5790
18881THY    CM155614   8.714   3.832   4.405 -0.3628  0.0622 -0.1814
18881THY    HM155615   8.611   3.819   4.437 -0.5997  0.5706  2.4341
18881THY    HM255616   8.754   3.768   4.325 -2.3244 -0.6251 -0.5961
18881THY    HM355617   8.714   3.927   4.351  0.0719 -0.0348 -0.2320
18881THY    CA655618   8.940   3.824   4.515 -0.3469  0.3268 -0.1705
18881THY    HA655619   8.986   3.794   4.421  0.5196  1.2492 -1.8861
18882THY      O55620   7.160   1.340   4.195  0.3850  0.5580  0.0083
18882THY     HO55621   7.064   1.357   4.190  0.7067 -2.1152  1.6749
18882THY    CA155622   7.217   1.466   4.215  0.3137  0.3565 -0.7917
18882THY    CA255623   7.357   1.483   4.234 -0.4457  0.0912 -0.4969
18882THY    CP155624   7.454   1.360   4.247 -0.3004 -0.0007  0.0925
18882THY    HP155625   7.410   1.287   4.179 -2.7358  1.2971  0.2270
18882THY    CP255626   7.439   1.298   4.390  0.1528 -0.1911 -0.3574
18882THY    HP255627   7.498   1.207   4.408  0.1631  1.7278 -0.0207
18882THY    HP355628   7.336   1.274   4.419  0.5155  0.4856 -1.1453
18882THY    HP455629   7.474   1.379   4.455 -0.0651 -1.5686  0.8782
18882THY    CP355630   7.602   1.386   4.216 -0.8116 -0.2887 -0.2132
18882THY    HP555631   7.662   1.444   4.288  0.7408 -0.9371 -0.9777
18882THY    HP655632   7.600   1.437   4.119  0.1089  1.7867  4.2853
18882THY    HP755633   7.652   1.290   4.204  1.2624  2.9264  0.3186
18882THY    CA355634   7.407   1.621   4.243 -0.0912 -0.6542 -0.1666
18882THY    HA355635   7.512   1.647   4.244 -0.0587  1.1054 -0.2305
18882THY    CA455636   7.315   1.725   4.249 -0.8239  0.6768 -0.7443
18882THY    HA455637   7.341   1.830   4.256  0.8008 -0.6667 -1.0123
18882THY    CA555638   7.177   1.700   4.231 -0.0500  0.4586 -0.2853
18882THY    CM155639   7.075   1.804   4.252  0.5292 -0.4807  0.5896
18882THY    HM155640   6.988   1.759   4.301  0.6438 -3.2176 -3.1644
18882THY    HM255641   7.059   1.860   4.159  1.8062 -1.1360 -0.0869
18882THY    HM355642   7.128   1.883   4.307  1.8308  1.2185 -1.3435
18882THY    CA655643   7.132   1.573   4.214  0.3479  0.7508 -0.5239
18882THY    HA655644   7.030   1.546   4.191  0.4682  1.0953 -1.2964
18883THY      O55645   3.204   5.467   3.837  0.2470 -0.2098  0.3281
18883THY     HO55646   3.161   5.466   3.750  0.2615 -0.2119 -0.3749
18883THY    CA155647   3.336   5.476   3.819  0.5077 -0.2878 -0.4725
18883THY    CA255648   3.425   5.477   3.926 -0.5763 -0.1957  0.5516
18883THY    CP155649   3.380   5.482   4.077  0.1210 -0.4133 -1.1848
18883THY    HP155650   3.273   5.460   4.085 -1.0561  0.5895  3.5546
18883THY    CP255651   3.412   5.615   4.150  0.2292  0.1058  0.3420
18883THY    HP255652   3.519   5.636   4.162  0.0598  1.2470  0.6229
18883THY    HP355653   3.376   5.604   4.253  0.0681  0.0256  0.0986
18883THY    HP455654   3.365   5.697   4.095 -0.0664 -1.7294 -0.9820
18883THY    CP355655   3.441   5.360   4.148 -0.0648  0.0171 -0.1507
18883THY    HP555656   3.388   5.337   4.242  0.4273 -0.2279 -2.5108
18883THY    HP655657   3.549   5.359   4.166 -0.3151  1.7109 -1.4480
18883THY    HP755658   3.417   5.272   4.088 -3.3758  1.4736 -0.4064
18883THY    CA355659   3.564   5.472   3.896 -0.1287 -0.0224  0.0202
18883THY    HA355660   3.637   5.491   3.973 -2.5311  2.2157  0.8357
18883THY    CA455661   3.602   5.469   3.763  0.5992 -0.8024 -0.1940
18883THY    HA455662   3.707   5.476   3.733  0.4924 -1.2666 -0.5349
18883THY    CA555663   3.512   5.497   3.664  0.0401  0.5488  0.7514
18883THY    CM155664   3.551   5.528   3.524  0.0683  0.1227  0.3075
18883THY    HM155665   3.466   5.574   3.472 -0.3302  1.0025  0.6026
18883THY    HM255666   3.571   5.435   3.471 -3.3392 -0.6797 -0.1022
18883THY    HM355667   3.635   5.598   3.525  0.0576 -0.8580  0.3395
18883THY    CA655668   3.380   5.491   3.691 -0.2312 -0.1620  0.7648
18883THY    HA655669   3.312   5.503   3.607 -0.0780 -0.2744  0.8474
18884THY      O55670   3.347   5.330   4.649  0.6723  0.0052  0.0240
18884THY     HO55671   3.250   5.331   4.646  0.5535  1.0390 -2.4607
18884THY    CA155672   3.379   5.204   4.661 -0.0682  0.6016  0.0946
18884THY    CA255673   3.442   5.154   4.771 -1.0827 -0.0300  0.1111
18884THY    CP155674   3.518   5.235   4.875 -0.2756  0.3562  0.5601
18884THY    HP155675   3.472   5.334   4.877  0.0625 -1.2670  0.7780
18884THY    CP255676   3.672   5.236   4.859 -0.8697  0.5515 -0.6725
18884THY    HP255677   3.729   5.258   4.951 -0.5069  0.8010 -2.5272
18884THY    HP355678   3.693   5.319   4.791 -0.3914  1.4100 -0.0698
18884THY    HP455679   3.701   5.137   4.824 -1.0790 -0.2503 -0.4541
18884THY    CP355680   3.490   5.199   5.021  0.1242 -0.2306 -0.1365
18884THY    HP555681   3.548   5.114   5.060  0.8315  0.9759  0.8638
18884THY    HP655682   3.385   5.189   5.049  1.1347  4.6487  0.0680
18884THY    HP755683   3.509   5.286   5.086 -2.9011  0.5579  0.0385
18884THY    CA355684   3.452   5.010   4.779  0.1380 -0.1023  0.5832
18884THY    HA355685   3.495   4.957   4.863 -1.0451 -0.2254 -0.6346
18884THY    CA455686   3.395   4.927   4.684  0.0420 -0.6566  0.5896
18884THY    HA455687   3.401   4.819   4.694  2.2429  1.7029  0.8410
18884THY    CA555688   3.333   4.976   4.570 -0.0385 -0.2504 -0.4258
18884THY    CM155689   3.272   4.888   4.467  0.6306 -0.3345 -0.0051
18884THY    HM155690   3.287   4.936   4.370  0.4791 -1.5156 -2.2191
18884THY    HM255691   3.163   4.884   4.480  0.6723  0.0481  0.0420
18884THY    HM355692   3.315   4.787   4.474  1.2493  1.4345  0.3242
18884THY    CA655693   3.322   5.116   4.565 -0.0089  0.6649  0.1405
18884THY    HA655694   3.271   5.164   4.482  3.2482 -0.1903  2.4187
18885THY      O55695   8.767   6.752   7.590 -0.0167 -0.4670 -0.0718
18885THY     HO55696   8.707   6.682   7.619  1.6447  1.5027 -0.7947
18885THY    CA155697   8.817   6.813   7.699 -0.2178  0.0868 -0.1210
18885THY    CA255698   8.954   6.817   7.721 -0.0264 -0.5255  0.3133
18885THY    CP155699   9.055   6.746   7.628 -0.1443  0.2905  0.3454
18885THY    HP155700   9.007   6.736   7.530  0.7120 -0.1278  0.2181
18885THY    CP255701   9.078   6.612   7.689 -0.2555  0.5759  0.9534
18885THY    HP255702   9.132   6.543   7.624 -1.5779 -0.6012  0.9703
18885THY    HP355703   8.975   6.576   7.705 -1.0691 -1.0383  2.4223
18885THY    HP455704   9.130   6.617   7.785  1.8029 -0.4883  0.9385
18885THY    CP355705   9.182   6.816   7.604 -0.0629  0.7179 -0.6256
18885THY    HP555706   9.254   6.827   7.686  1.2460 -0.4614  0.0455
18885THY    HP655707   9.175   6.907   7.543  1.9354 -0.3863 -1.1447
18885THY    HP755708   9.239   6.749   7.538  3.5564  1.9263  0.9991
18885THY    CA355709   9.008   6.862   7.848  0.2569 -0.0501  0.2204
18885THY    HA355710   9.115   6.862   7.869  0.2253  0.2028 -1.0047
18885THY    CA455711   8.916   6.895   7.947 -0.9355  0.4037 -0.0704
18885THY    HA455712   8.965   6.908   8.043  3.1646 -1.5699  0.7670
18885THY    CA555713   8.780   6.882   7.931  0.1946 -0.1320 -0.4254
18885THY    CM155714   8.685   6.928   8.043  0.6570 -0.2248  0.6954
18885THY    HM155715   8.604   6.992   8.008  2.5622 -0.5050  3.1162
18885THY    HM255716   8.730   6.991   8.120  0.5782  0.6087 -0.2448
18885THY    HM355717   8.649   6.839   8.096  2.3437  0.6246  0.4710
18885THY    CA655718   8.731   6.843   7.801 -0.3364  0.2883 -0.3503
18885THY    HA655719   8.625   6.817   7.798 -0.7516  0.3891  1.1950
18886THY      O55720   3.492   7.941   5.077  0.1066  0.3993  0.6728
18886THY     HO55721   3.432   7.952   5.153  1.1478  1.2867  0.2990
18886THY    CA155722   3.446   8.006   4.967 -0.1047  0.5311 -0.0442
18886THY    CA255723   3.522   8.001   4.850  0.3325  0.0036  0.3616
18886THY    CP155724   3.668   7.950   4.847 -0.1461 -0.2381 -0.6240
18886THY    HP155725   3.709   7.971   4.947 -2.5775  0.5761  0.7122
18886THY    CP255726   3.766   8.038   4.769 -0.1424  0.3723  0.3300
18886THY    HP255727   3.760   8.017   4.662  2.7243  0.2525 -0.3127
18886THY    HP355728   3.874   8.025   4.784  0.4480 -3.7337 -1.1490
18886THY    HP455729   3.741   8.141   4.799 -0.9479 -0.4678  0.3845
18886THY    CP355730   3.688   7.805   4.819  0.3701 -0.1012  0.2265
18886THY    HP555731   3.618   7.744   4.878  0.7589 -1.0203 -1.1781
18886THY    HP655732   3.792   7.774   4.835 -0.1410  1.5519 -0.7956
18886THY    HP755733   3.650   7.783   4.718 -1.1451  0.6149 -0.6036
18886THY    CA355734   3.462   8.049   4.736 -0.3946  0.1909  0.3280
18886THY    HA355735   3.518   8.038   4.643  0.8685  1.1777 -2.5693
18886THY    CA455736   3.328   8.095   4.742 -0.4894  0.4849 -0.4107
18886THY    HA455737   3.282   8.134   4.651 -0.0059  0.9003  1.1802
18886THY    CA555738   3.260   8.112   4.867  0.7824  0.3529 -0.3330
18886THY    CM155739   3.128   8.178   4.871  0.0112 -0.2040 -0.7127
18886THY    HM155740   3.107   8.245   4.787 -2.4316 -0.9400 -2.2770
18886THY    HM255741   3.121   8.243   4.960 -1.5602 -0.1322 -0.9624
18886THY    HM355742   3.050   8.101   4.875  0.5754 -0.4614 -1.3053
18886THY    CA655743   3.320   8.065   4.980 -0.0694  0.1615  0.0640
18886THY    HA655744   3.260   8.050   5.069  0.7084  0.2505 -3.1348
18887THY      O55745   6.405   5.468   6.939 -0.2386  0.4574 -0.1097
18887THY     HO55746   6.358   5.484   6.855 -2.1170  1.4792  0.0834
18887THY    CA155747   6.424   5.347   6.952 -0.1774  0.1547  0.5029
18887THY    CA255748   6.461   5.296   7.074 -0.1080 -0.6643  0.0524
18887THY    CP155749   6.494   5.385   7.193  0.1857 -0.6555 -0.5500
18887THY    HP155750   6.465   5.489   7.177 -2.2667  1.3353 -0.8314
18887THY    CP255751   6.645   5.384   7.219  0.1474  0.5317 -0.3003
18887THY    HP255752   6.671   5.371   7.325 -1.1458  0.7293 -1.6126
18887THY    HP355753   6.683   5.481   7.185  0.6299  3.3112  0.5711
18887THY    HP455754   6.697   5.302   7.167 -1.0085 -1.3618  0.1006
18887THY    CP355755   6.419   5.348   7.322  0.0174 -0.1578  0.9302
18887THY    HP555756   6.425   5.250   7.369 -0.9773  0.5097  1.1748
18887THY    HP655757   6.315   5.344   7.290 -0.3405  1.0906 -1.7859
18887THY    HP755758   6.433   5.425   7.399  0.2894  1.7535 -0.9583
18887THY    CA355759   6.484   5.159   7.094 -0.1773 -0.1205 -0.1070
18887THY    HA355760   6.513   5.122   7.192  0.5327 -0.8620 -1.5824
18887THY    CA455761   6.452   5.069   6.992 -0.0741  0.1019 -0.4726
18887THY    HA455762   6.468   4.963   7.011  2.7572  0.1576 -0.1112
18887THY    CA555763   6.409   5.119   6.866  0.4632  0.2370 -0.6149
18887THY    CM155764   6.381   5.029   6.748  0.1649 -0.0063  0.1627
18887THY    HM155765   6.275   5.001   6.744  0.5380 -0.3168 -1.2896
18887THY    HM255766   6.447   4.943   6.764 -1.0201  1.8014 -0.4788
18887THY    HM355767   6.410   5.069   6.650 -1.3117  0.0211  1.3567
18887THY    CA655768   6.390   5.254   6.850 -0.5807  0.2855 -0.4046
18887THY    HA655769   6.345   5.292   6.759 -0.6332 -0.0440 -1.2301
18888THY      O55770   5.697   5.352   2.865 -0.5009  0.2712  0.7774
18888THY     HO55771   5.633   5.406   2.915 -0.7756  2.0763 -1.0840
18888THY    CA155772   5.816   5.402   2.904  0.0854  0.6854  0.5427
18888THY    CA255773   5.928   5.314   2.909 -0.3426  0.2398  0.0644
18888THY    CP155774   5.906   5.170   2.859  0.5031 -0.0558  0.4835
18888THY    HP155775   5.841   5.172   2.771 -0.4277  0.6105  0.1899
18888THY    CP255776   5.835   5.093   2.975 -0.6323  0.1798  0.3474
18888THY    HP255777   5.760   5.155   3.027 -0.0849 -1.1311  2.1967
18888THY    HP355778   5.901   5.079   3.061 -0.6517  0.1238 -0.1042
18888THY    HP455779   5.788   5.000   2.942 -1.0623  1.5230  0.0721
18888THY    CP355780   6.036   5.095   2.821 -0.0892 -0.2836  0.0548
18888THY    HP555781   6.009   4.991   2.799 -1.5698 -0.5406  0.4667
18888THY    HP655782   6.112   5.096   2.900 -0.0660 -0.3068  0.0886
18888THY    HP755783   6.071   5.136   2.726 -0.0221 -0.8760 -1.3232
18888THY    CA355784   6.057   5.368   2.928  0.4549 -0.3533  0.2351
18888THY    HA355785   6.146   5.307   2.924  1.3468 -0.8959  1.5228
18888THY    CA455786   6.073   5.503   2.948  0.3862  0.3103  0.0147
18888THY    HA455787   6.174   5.542   2.948  1.1242  0.5780 -1.7982
18888THY    CA555788   5.967   5.590   2.933 -0.3807  0.6817 -0.1128
18888THY    CM155789   5.987   5.739   2.953  0.0670 -0.5963  0.5169
18888THY    HM155790   6.026   5.793   2.866  3.6464  0.0374 -0.8063
18888THY    HM255791   6.060   5.754   3.034 -0.9350  0.4519 -0.0997
18888THY    HM355792   5.893   5.785   2.986  1.2511  0.6205  2.1977
18888THY    CA655793   5.840   5.543   2.916  0.2948 -0.2715  0.0816
18888THY    HA655794   5.753   5.609   2.918 -1.9449  1.6737 -2.6971
18889THY      O55795   1.796   1.701   3.387 -0.1286  0.3221 -0.9270
18889THY     HO55796   1.753   1.788   3.398  2.9175 -1.3441  0.9669
18889THY    CA155797   1.865   1.687   3.498  0.6922 -0.2715 -0.1875
18889THY    CA255798   1.984   1.616   3.511  0.1605  0.0385  0.2707
18889THY    CP155799   2.050   1.545   3.399  0.4675 -0.4636 -0.6779
18889THY    HP155800   1.993   1.551   3.305  2.6316 -1.7814  0.4443
18889THY    CP255801   2.085   1.405   3.436 -0.0580 -0.2890 -0.0464
18889THY    HP255802   2.003   1.344   3.476 -1.0126  0.7767  1.8486
18889THY    HP355803   2.168   1.418   3.507 -0.2962 -0.5149  3.8891
18889THY    HP455804   2.117   1.350   3.346  1.0425  0.6217 -0.9583
18889THY    CP355805   2.176   1.621   3.357 -0.1522  0.4741  0.2544
18889THY    HP555806   2.235   1.642   3.447 -1.9109  1.5483  0.7749
18889THY    HP655807   2.146   1.714   3.307  0.6478 -1.0458 -0.2683
18889THY    HP755808   2.245   1.566   3.292 -2.2380 -0.5324 -1.2635
18889THY    CA355809   2.052   1.614   3.644 -0.1027 -0.4223  0.1827
18889THY    HA355810   2.148   1.565   3.661  0.5673  1.1512  1.9195
18889THY    CA455811   1.982   1.667   3.752 -0.1542 -0.7167 -0.9113
18889THY    HA455812   2.016   1.660   3.855 -0.8960 -0.3534  0.4082
18889THY    CA555813   1.863   1.736   3.733 -0.3440 -0.4176 -0.6666
18889THY    CM155814   1.774   1.779   3.849 -0.1242  0.2495  0.2931
18889THY    HM155815   1.686   1.840   3.822 -0.0543 -2.9233 -0.8594
18889THY    HM255816   1.834   1.825   3.928  0.4634  1.2726 -2.1127
18889THY    HM355817   1.739   1.691   3.904 -0.5161  1.7455  1.3296
18889THY    CA655818   1.812   1.759   3.604  0.3817  0.3659 -0.0434
18889THY    HA655819   1.717   1.810   3.597  0.9104 -0.8212  0.8195
18890THY      O55820   3.645   8.702   6.164 -0.1052 -0.6771 -0.2245
18890THY     HO55821   3.668   8.797   6.162  0.6297 -0.6315 -0.3927
18890THY    CA155822   3.576   8.673   6.277 -0.4159  0.0132  0.5614
18890THY    CA255823   3.604   8.557   6.356  0.0876  0.2100  0.0191
18890THY    CP155824   3.712   8.458   6.298  0.0313 -0.1722 -0.0056
18890THY    HP155825   3.720   8.463   6.189  0.5661 -0.0985  1.0582
18890THY    CP255826   3.689   8.312   6.330  0.3614  0.2283 -0.0998
18890THY    HP255827   3.600   8.263   6.290 -0.9384  3.6765 -0.8489
18890THY    HP355828   3.694   8.293   6.438 -0.4809 -0.0565 -2.2902
18890THY    HP455829   3.771   8.247   6.298 -2.4128  0.7420 -4.2248
18890THY    CP355830   3.847   8.497   6.363 -0.1879  0.0810 -0.7153
18890THY    HP555831   3.928   8.480   6.291  1.2656  0.0840  4.4807
18890THY    HP655832   3.852   8.432   6.451 -1.8436 -0.0221 -1.0279
18890THY    HP755833   3.845   8.603   6.393  0.4066  0.9118 -0.9271
18890THY    CA355834   3.525   8.538   6.470 -0.9143  0.1034  0.1537
18890THY    HA355835   3.539   8.452   6.534 -0.2295 -0.9557 -0.5454
18890THY    CA455836   3.423   8.628   6.503 -0.1174  0.2699 -0.1844
18890THY    HA455837   3.373   8.620   6.599  0.9753  0.8145 -0.6405
18890THY    CA555838   3.408   8.745   6.426  0.1189 -0.9027 -0.2434
18890THY    CM155839   3.317   8.840   6.485 -0.1274 -0.4158 -0.2536
18890THY    HM155840   3.349   8.897   6.572 -1.4997  1.1972 -1.8053
18890THY    HM255841   3.236   8.780   6.529  2.3889  1.2574 -2.6659
18890THY    HM355842   3.280   8.904   6.404  1.0371 -1.8655 -1.3330
18890THY    CA655843   3.481   8.760   6.315 -0.0366  0.7065 -0.2709
18890THY    HA655844   3.475   8.852   6.259  1.0807 -0.8151 -1.0815
18891THY      O55845   0.975   4.759   7.245 -0.1234 -0.0939  0.3378
18891THY     HO55846   0.929   4.819   7.307  0.6603  1.1106 -0.2631
18891THY    CA155847   0.908   4.764   7.120  1.0952 -0.0545 -0.7904
18891THY    CA255848   0.960   4.698   7.009 -0.4238  0.1593  0.2380
18891THY    CP155849   1.099   4.638   7.013 -0.6528 -0.2069  0.8317
18891THY    HP155850   1.134   4.608   7.113  0.8623 -1.8139 -3.7510
18891THY    CP255851   1.199   4.743   6.953  0.8010 -0.4613  1.0395
18891THY    HP255852   1.298   4.698   6.955 -0.4400  1.7933 -1.9015
18891THY    HP355853   1.195   4.828   7.022  0.8241 -0.6415  1.1873
18891THY    HP455854   1.171   4.758   6.848 -1.1007 -0.5358 -2.0856
18891THY    CP355855   1.103   4.504   6.945 -0.3596  0.3632 -0.0066
18891THY    HP555856   1.107   4.518   6.836 -1.7281  0.0084 -1.9803
18891THY    HP655857   1.010   4.447   6.960  0.3466  3.0020 -0.6006
18891THY    HP755858   1.190   4.447   6.981 -1.2231  1.7463 -0.4871
18891THY    CA355859   0.885   4.701   6.888  1.0592  0.4561  0.7669
18891THY    HA355860   0.921   4.640   6.806 -1.0376  2.0826 -3.0664
18891THY    CA455861   0.760   4.766   6.887 -0.0599  0.3539 -0.0749
18891THY    HA455862   0.700   4.776   6.797 -0.0441  0.3134 -0.3332
18891THY    CA555863   0.708   4.826   7.011 -0.2040  0.5888 -0.2291
18891THY    CM155864   0.575   4.889   7.018  0.6601  0.3035  0.6422
18891THY    HM155865   0.545   4.928   6.919 -1.7455  0.4741 -0.5871
18891THY    HM255866   0.583   4.972   7.088  1.5498  2.6739 -1.3218
18891THY    HM355867   0.488   4.826   7.041  0.7484  1.0555  0.7874
18891THY    CA655868   0.786   4.828   7.121  0.1830  0.1480 -0.3348
18891THY    HA655869   0.754   4.876   7.213  0.9198  0.4281 -0.3694
18892THY      O55870   1.430   7.240   1.969 -0.5970 -0.6901  0.3453
18892THY     HO55871   1.351   7.202   2.011  0.6865  0.6767 -0.9204
18892THY    CA155872   1.491   7.333   2.041 -0.0595 -0.3072 -0.0363
18892THY    CA255873   1.627   7.327   2.070 -0.3919 -0.1161  0.8418
18892THY    CP155874   1.709   7.195   2.057 -0.5377  0.2113 -0.0897
18892THY    HP155875   1.663   7.142   1.973  0.0542 -0.0671 -0.1700
18892THY    CP255876   1.695   7.117   2.187 -0.1840 -0.3648 -0.3211
18892THY    HP255877   1.730   7.015   2.167  1.2704  1.5069 -0.2577
18892THY    HP355878   1.590   7.111   2.216 -0.2271 -0.1766  1.0066
18892THY    HP455879   1.763   7.167   2.257 -3.0214  0.9717  1.9344
18892THY    CP355880   1.856   7.210   2.026 -0.1917  0.3813 -0.0994
18892THY    HP555881   1.908   7.114   2.022 -0.7244 -0.3476 -0.3659
18892THY    HP655882   1.914   7.277   2.090 -0.4578  2.0699 -1.4125
18892THY    HP755883   1.865   7.261   1.930 -0.9177  0.0952 -0.4952
18892THY    CA355884   1.682   7.432   2.145 -0.5049  0.6797  0.0572
18892THY    HA355885   1.782   7.433   2.188 -0.0581 -0.3236  0.3070
18892THY    CA455886   1.611   7.548   2.160  0.9462 -0.1826 -0.6270
18892THY    HA455887   1.648   7.632   2.219  1.4685  1.0094 -1.6693
18892THY    CA555888   1.477   7.559   2.121  0.1738  0.5134  0.6363
18892THY    CM155889   1.404   7.692   2.151  0.1703  0.0968  0.0359
18892THY    HM155890   1.423   7.744   2.245  0.5525 -1.4792  2.9565
18892THY    HM255891   1.298   7.664   2.151  0.3587  1.2135 -0.7418
18892THY    HM355892   1.422   7.765   2.071 -1.8127 -1.7707 -1.3925
18892THY    CA655893   1.414   7.447   2.065 -0.1908 -0.2552 -0.0997
18892THY    HA655894   1.307   7.445   2.043 -0.2383 -0.4134  1.9860
18893THY      O55895   2.201   5.715   4.769 -0.5815 -0.1849  0.5396
18893THY     HO55896   2.137   5.747   4.835 -0.1333 -0.0743  1.2090
18893THY    CA155897   2.203   5.586   4.787  0.8938  0.2465  0.2632
18893THY    CA255898   2.124   5.500   4.704 -0.0002  0.0453 -0.4068
18893THY    CP155899   2.047   5.548   4.578 -0.6568 -0.5066 -0.6883
18893THY    HP155900   2.001   5.644   4.606 -0.4197 -0.3663 -0.6140
18893THY    CP255901   1.945   5.453   4.508 -0.2212 -0.7676  0.2753
18893THY    HP255902   1.885   5.517   4.442 -1.4978 -0.1150 -0.2224
18893THY    HP355903   1.878   5.415   4.586 -2.6778 -2.5614  0.6774
18893THY    HP455904   1.993   5.373   4.450 -0.1020 -1.6053  0.9310
18893THY    CP355905   2.161   5.593   4.485 -0.4567  0.1325  0.6466
18893THY    HP555906   2.230   5.510   4.466 -3.1184 -0.0972 -1.6719
18893THY    HP655907   2.215   5.682   4.518  1.8452 -1.7214  0.0453
18893THY    HP755908   2.110   5.601   4.388  2.6625 -1.6457  0.2832
18893THY    CA355909   2.136   5.363   4.726 -0.2395  0.3636 -0.3523
18893THY    HA355910   2.090   5.294   4.656  0.1408 -1.5232  1.2281
18893THY    CA455911   2.215   5.316   4.833  0.6304 -0.1711  0.1179
18893THY    HA455912   2.219   5.209   4.851 -1.1853  0.0827  0.0607
18893THY    CA555913   2.295   5.399   4.910 -0.5537  0.0328 -0.2507
18893THY    CM155914   2.382   5.348   5.022  0.7717 -0.3067  0.5990
18893THY    HM155915   2.332   5.299   5.107  1.6567 -0.1841 -0.1269
18893THY    HM255916   2.445   5.427   5.064  3.7849 -0.7175 -1.4095
18893THY    HM355917   2.453   5.276   4.980  1.9380  0.0255  1.5289
18893THY    CA655918   2.277   5.538   4.895  0.2011 -0.0227 -0.4903
18893THY    HA655919   2.334   5.609   4.954  1.2936  1.1349 -2.2515
18894THY      O55920   7.367   5.170   2.456 -0.0688 -0.4332  0.7619
18894THY     HO55921   7.288   5.172   2.513  0.2814  0.0799  0.2418
18894THY    CA155922   7.444   5.275   2.483 -0.1368 -0.4158  0.5663
18894THY    CA255923   7.582   5.271   2.457  0.4439  0.1987 -0.0247
18894THY    CP155924   7.644   5.148   2.400  0.1085  0.1600  0.3616
18894THY    HP155925   7.573   5.081   2.351  1.0776 -0.5728 -0.1617
18894THY    CP255926   7.728   5.068   2.498 -0.6594 -0.2391  1.0142
18894THY    HP255927   7.668   5.018   2.575  3.0847  1.2812 -1.5670
18894THY    HP355928   7.791   5.128   2.564  0.1962  1.1325 -1.2643
18894THY    HP455929   7.789   4.990   2.452  0.2016  0.4596  1.2600
18894THY    CP355930   7.730   5.186   2.282 -0.2268 -0.0095 -0.0996
18894THY    HP555931   7.677   5.256   2.217  2.1656 -0.0993  1.7699
18894THY    HP655932   7.766   5.097   2.229 -0.0995 -0.9086  0.4761
18894THY    HP755933   7.815   5.242   2.322 -0.9354  1.2632  0.1056
18894THY    CA355934   7.661   5.392   2.485 -0.2323  0.0106 -0.5912
18894THY    HA355935   7.764   5.396   2.450 -1.1175 -2.8313 -0.0580
18894THY    CA455936   7.586   5.506   2.534 -0.2620  0.2081  0.1676
18894THY    HA455937   7.641   5.597   2.556 -0.3960 -0.4218  0.4081
18894THY    CA555938   7.450   5.502   2.562 -0.5912 -0.0390 -0.1927
18894THY    CM155939   7.379   5.611   2.614 -0.0391 -0.0960 -0.8845
18894THY    HM155940   7.273   5.595   2.636 -0.0906 -1.0170 -1.9031
18894THY    HM255941   7.384   5.700   2.550 -0.4888 -0.1725 -0.9144
18894THY    HM355942   7.421   5.652   2.707 -0.6589  0.7351 -2.0589
18894THY    CA655943   7.383   5.385   2.544  0.0733  0.2710  0.1013
18894THY    HA655944   7.279   5.375   2.575 -0.2115 -1.2107 -2.2713
18895THY      O55945   6.238   3.104   1.713  0.5129 -0.4150  0.0184
18895THY     HO55946   6.170   3.037   1.699 -1.2191 -1.5377  1.8904
18895THY    CA155947   6.337   3.053   1.795 -0.8842  0.6754  0.5101
18895THY    CA255948   6.461   3.114   1.798  0.3616 -0.7552  0.2670
18895THY    CP155949   6.496   3.219   1.704  0.4850 -0.4858 -0.3505
18895THY    HP155950   6.419   3.228   1.627  0.4790 -0.3995  0.3984
18895THY    CP255951   6.634   3.200   1.645 -0.4486  0.0431  0.3481
18895THY    HP255952   6.648   3.241   1.545  0.2749 -0.6311 -1.4474
18895THY    HP355953   6.636   3.090   1.643 -1.5234  1.2215  0.2789
18895THY    HP455954   6.708   3.230   1.719 -0.4898  0.3439 -0.2739
18895THY    CP355955   6.486   3.352   1.756  0.2110  0.4625 -0.3482
18895THY    HP555956   6.565   3.361   1.832  0.1757  0.4360  0.2173
18895THY    HP655957   6.384   3.356   1.795 -0.4098 -0.8956 -1.9178
18895THY    HP755958   6.521   3.423   1.680 -0.8297  0.7061  0.4416
18895THY    CA355959   6.555   3.078   1.904  0.0578 -0.1014 -0.0828
18895THY    HA355960   6.655   3.120   1.906 -0.0213 -0.7893  0.1588
18895THY    CA455961   6.524   2.964   1.978 -0.0029  0.1236 -0.5638
18895THY    HA455962   6.592   2.935   2.057 -0.7338  1.0760  0.2519
18895THY    CA555963   6.400   2.897   1.966 -0.0419 -0.2075  0.3477
18895THY    CM155964   6.374   2.772   2.052 -0.0646  0.0794 -0.2965
18895THY    HM155965   6.373   2.674   2.003  1.3475  0.0041 -0.2824
18895THY    HM255966   6.274   2.777   2.098  0.8427  2.4303 -2.1723
18895THY    HM355967   6.444   2.777   2.136 -1.5561  1.2935  2.7412
18895THY    CA655968   6.305   2.949   1.880  0.4046  0.3076  0.4385
18895THY    HA655969   6.208   2.901   1.873  0.6432  0.0352 -0.0065
18896THY      O55970   6.782   4.405   7.063  0.1341  0.3595  0.0803
18896THY     HO55971   6.837   4.479   7.093  3.1270  1.7570 -2.4681
18896THY    CA155972   6.868   4.298   7.061 -0.0095 -0.1883  0.5930
18896THY    CA255973   6.821   4.173   7.024 -0.2993  0.3946 -0.1513
18896THY    CP155974   6.676   4.147   6.998  0.2826 -0.1060  0.2818
18896THY    HP155975   6.631   4.211   7.075  1.0512  0.3922  0.2432
18896THY    CP255976   6.625   4.007   7.008  0.5233 -1.0441 -0.3246
18896THY    HP255977   6.639   3.941   6.922 -1.2687 -1.3314 -0.3792
18896THY    HP355978   6.518   4.019   7.027  0.8161 -0.4749  1.7623
18896THY    HP455979   6.669   3.957   7.095  3.0993 -2.2815 -0.3260
18896THY    CP355980   6.624   4.188   6.864 -0.3278  0.1760 -0.0693
18896THY    HP555981   6.647   4.291   6.837  2.0996 -3.6205 -1.3816
18896THY    HP655982   6.516   4.175   6.851 -0.2623 -0.4331 -0.0246
18896THY    HP755983   6.677   4.127   6.790 -1.9033 -1.1400  0.1129
18896THY    CA355984   6.917   4.066   6.995  0.0007 -0.4091  0.3414
18896THY    HA355985   6.888   3.970   6.953  1.5563  1.5272 -1.0868
18896THY    CA455986   7.048   4.084   7.041 -0.2900  0.3836  0.1858
18896THY    HA455987   7.119   4.002   7.030 -2.0769  0.8333 -1.5073
18896THY    CA555988   7.094   4.210   7.082  0.0572 -0.7422 -0.0412
18896THY    CM155989   7.237   4.240   7.120  0.5253  0.4508 -0.2017
18896THY    HM155990   7.255   4.343   7.154 -1.1595 -0.3837  0.4014
18896THY    HM255991   7.305   4.206   7.041  0.4401  0.9768 -1.6614
18896THY    HM355992   7.249   4.185   7.214  4.4662 -0.9581 -2.1462
18896THY    CA655993   7.001   4.312   7.099 -0.4842  0.5300  0.2049
18896THY    HA655994   7.040   4.403   7.144 -2.6189  0.2150  1.3317
18897THY      O55995   6.740   4.869   1.925 -0.2836 -0.1275 -0.0380
18897THY     HO55996   6.821   4.921   1.943 -0.4366 -0.5784  0.3654
18897THY    CA155997   6.666   4.880   2.042  0.6189  0.4659  0.1676
18897THY    CA255998   6.555   4.798   2.069  0.3269  0.5290 -0.2790
18897THY    CP155999   6.513   4.690   1.967  0.0781  0.0799 -0.1578
18897THY    HP156000   6.592   4.700   1.891  1.5735  1.3604 -1.6519
18897THY    CP256001   6.370   4.716   1.904 -0.8569  0.6628 -0.4478
18897THY    HP256002   6.367   4.816   1.858  0.4009 -0.3139 -0.8445
18897THY    HP356003   6.297   4.723   1.986 -2.9927 -1.1707 -0.2614
18897THY    HP456004   6.348   4.641   1.828 -1.2040  1.8878 -1.6212
18897THY    CP356005   6.508   4.548   2.018 -0.7823 -0.1439 -0.1640
18897THY    HP556006   6.433   4.541   2.098 -0.7866 -0.2842 -2.1880
18897THY    HP656007   6.600   4.513   2.066 -0.8780 -0.5498 -0.9987
18897THY    HP756008   6.493   4.475   1.938 -0.8424  0.2629 -0.6028
18897THY    CA356009   6.494   4.809   2.193  0.3088 -0.2981 -0.4895
18897THY    HA356010   6.409   4.746   2.218 -1.7041 -2.2472  1.2626
18897THY    CA456011   6.538   4.916   2.275  0.5288  0.1193 -0.5232
18897THY    HA456012   6.474   4.934   2.362 -0.4928 -1.0794  2.1021
18897THY    CA556013   6.645   5.005   2.249 -0.2585  0.2655 -0.4664
18897THY    CM156014   6.673   5.127   2.326  0.0419 -0.1048 -0.1290
18897THY    HM156015   6.619   5.212   2.282  0.1939  2.4699  1.4189
18897THY    HM256016   6.780   5.146   2.337 -0.2852  2.5283  0.5904
18897THY    HM356017   6.638   5.125   2.430  1.4964  0.4112 -2.8795
18897THY    CA656018   6.705   4.987   2.125  0.1579 -0.7440  0.1239
18897THY    HA656019   6.786   5.052   2.094 -2.0860 -1.6387  2.6945
18898THY      O56020   3.252   8.527   4.651 -0.2339  0.5288 -0.6220
18898THY     HO56021   3.299   8.546   4.734 -0.3397  0.6764 -1.0007
18898THY    CA156022   3.317   8.596   4.548 -0.4887 -0.0835  0.5237
18898THY    CA256023   3.258   8.710   4.492  0.6506 -0.5933  0.6471
18898THY    CP156024   3.121   8.754   4.544  0.3670 -0.3061  0.7362
18898THY    HP156025   3.064   8.676   4.594  0.6942 -0.2556  0.5299
18898THY    CP256026   3.024   8.793   4.433  0.6033 -0.4683 -0.1835
18898THY    HP256027   2.926   8.822   4.472  0.3861  0.4113 -1.9716
18898THY    HP356028   3.003   8.708   4.367  0.5688  1.0483 -1.3976
18898THY    HP456029   3.070   8.874   4.375  1.2830 -2.4807 -1.9113
18898THY    CP356030   3.126   8.864   4.652 -0.4450  0.4060 -0.0781
18898THY    HP556031   3.177   8.820   4.738 -1.9382 -0.5810 -4.1309
18898THY    HP656032   3.026   8.894   4.684 -0.9426 -0.6871 -0.4992
18898THY    HP756033   3.176   8.952   4.610 -0.2576  0.9149  0.0603
18898THY    CA356034   3.329   8.775   4.394 -0.8135 -0.2526 -0.5131
18898THY    HA356035   3.282   8.855   4.337 -2.0083  0.8169 -0.4393
18898THY    CA456036   3.445   8.714   4.343 -0.5100  0.2452 -0.1112
18898THY    HA456037   3.491   8.754   4.253  0.5934  0.3470 -1.0818
18898THY    CA556038   3.499   8.599   4.395 -0.4122  0.5889 -0.1115
18898THY    CM156039   3.614   8.518   4.323 -0.3564  0.1724 -0.2717
18898THY    HM156040   3.599   8.509   4.214 -1.4265  0.3044 -0.2158
18898THY    HM256041   3.614   8.414   4.357 -0.0103 -2.7089 -1.3217
18898THY    HM356042   3.711   8.561   4.350  0.4671 -0.7983 -1.4338
18898THY    CA656043   3.436   8.539   4.503  0.3095 -0.3130  0.1457
18898THY    HA656044   3.463   8.445   4.549 -1.9181  0.4535 -0.1734
18899THY      O56045   2.104   8.505   3.153 -0.5562 -0.1998  0.0810
18899THY     HO56046   2.032   8.518   3.089 -1.2531  0.8854  2.1177
18899THY    CA156047   2.189   8.607   3.134 -0.5071 -0.4082  0.1121
18899THY    CA256048   2.329   8.586   3.153  0.9664 -0.0740 -0.8765
18899THY    CP156049   2.397   8.458   3.203 -0.3912  0.7560 -0.0692
18899THY    HP156050   2.317   8.388   3.231 -0.1809  1.8589  0.1125
18899THY    CP256051   2.487   8.474   3.335  0.2219 -0.2289 -0.2862
18899THY    HP256052   2.545   8.567   3.342  0.3488 -0.3293 -0.3587
18899THY    HP356053   2.567   8.400   3.339 -0.4376  0.0804 -0.9954
18899THY    HP456054   2.417   8.468   3.419 -0.8166 -0.7927  2.3632
18899THY    CP356055   2.496   8.398   3.097 -0.2809  0.1858  0.6020
18899THY    HP556056   2.449   8.384   3.000  1.6939 -0.8632  0.9427
18899THY    HP656057   2.543   8.305   3.130  0.7428  0.3817  1.1696
18899THY    HP756058   2.579   8.470   3.098  2.9402  3.8884 -2.6179
18899THY    CA356059   2.408   8.698   3.128  0.3331 -0.2358 -0.3292
18899THY    HA356060   2.516   8.692   3.130  0.4125  0.2129  0.9843
18899THY    CA456061   2.354   8.819   3.084 -0.2548 -0.2267 -0.3819
18899THY    HA456062   2.415   8.906   3.062  0.5720  1.3158 -0.5275
18899THY    CA556063   2.226   8.830   3.057  0.5029 -0.2322  0.7561
18899THY    CM156064   2.174   8.963   3.006 -0.0074  0.3300 -0.3522
18899THY    HM156065   2.138   8.945   2.904  0.3837 -0.3410  2.2869
18899THY    HM256066   2.252   9.039   2.999 -0.9326  1.3121  0.7295
18899THY    HM356067   2.090   9.001   3.065 -0.6848 -0.5864 -0.3861
18899THY    CA656068   2.141   8.724   3.081  0.2117 -0.2811 -0.5610
18899THY    HA656069   2.034   8.741   3.085  0.7058  2.4621  3.1130
18900THY      O56070   1.754   6.479   5.146  0.6157 -0.3478 -0.3642
18900THY     HO56071   1.723   6.542   5.078 -1.8419 -1.0453 -2.1505
18900THY    CA156072   1.644   6.467   5.221 -0.1477  0.0492 -0.1504
18900THY    CA256073   1.626   6.352   5.306  0.3537  0.3641 -0.0896
18900THY    CP156074   1.733   6.240   5.308 -0.2391 -0.4350  0.8295
18900THY    HP156075   1.833   6.276   5.283 -0.0462  0.5984  1.0316
18900THY    CP256076   1.690   6.130   5.205 -0.1887 -0.2087  0.0502
18900THY    HP256077   1.593   6.083   5.226 -1.0266 -1.8128  0.9881
18900THY    HP356078   1.771   6.055   5.200 -0.6626  0.8628 -0.5659
18900THY    HP456079   1.686   6.183   5.110  1.7366 -1.8815 -2.5482
18900THY    CP356080   1.741   6.177   5.442 -0.1787 -0.2106 -0.2157
18900THY    HP556081   1.657   6.109   5.456 -0.2618  1.2081  0.1514
18900THY    HP656082   1.762   6.259   5.511 -0.1593 -1.4451  0.8467
18900THY    HP756083   1.830   6.112   5.437  1.0385  0.2778  1.3456
18900THY    CA356084   1.503   6.347   5.380 -0.2986 -0.6488 -0.4341
18900THY    HA356085   1.496   6.257   5.441 -1.1837  0.6999  0.5211
18900THY    CA456086   1.414   6.448   5.377 -0.2153  0.0758 -0.4053
18900THY    HA456087   1.331   6.446   5.446  0.1223  0.5411  0.9153
18900THY    CA556088   1.437   6.561   5.291 -0.1756  0.2226 -0.5740
18900THY    CM156089   1.354   6.692   5.292  0.7044 -0.3318  0.1329
18900THY    HM156090   1.414   6.782   5.309  0.0087 -1.1957  0.7770
18900THY    HM256091   1.269   6.684   5.361 -0.2665 -1.3132  1.5436
18900THY    HM356092   1.309   6.714   5.194  1.3301 -0.0752  2.8637
18900THY    CA656093   1.555   6.570   5.216  0.6457 -0.4388 -0.6126
18900THY    HA656094   1.575   6.663   5.164 -0.1738 -1.0911 -0.7873
18901THY      O56095   7.884   3.874   7.601 -0.1250  0.1532 -0.0561
18901THY     HO56096   7.865   3.824   7.682  1.9015  0.2192 -0.7698
18901THY    CA156097   7.845   3.799   7.494 -0.1217 -0.3442 -0.0241
18901THY    CA256098   7.909   3.792   7.372  0.6296 -0.2296 -0.1281
18901THY    CP156099   8.043   3.868   7.351 -0.2278  0.0345  0.1946
18901THY    HP156100   8.077   3.905   7.449  0.4607 -0.3489  0.6143
18901THY    CP256101   8.030   3.992   7.262 -0.0156 -0.0832  0.7624
18901THY    HP256102   8.128   4.041   7.255 -0.2992 -0.6688  1.2659
18901THY    HP356103   7.958   4.060   7.309  0.3478  2.2863 -0.3881
18901THY    HP456104   7.991   3.972   7.161 -0.6707  0.3926 -0.4405
18901THY    CP356105   8.159   3.778   7.307 -0.1774 -0.4836  0.3688
18901THY    HP556106   8.255   3.831   7.313 -0.0670  1.2278  0.0306
18901THY    HP656107   8.145   3.740   7.206 -1.0425  0.3306 -1.5960
18901THY    HP756108   8.161   3.682   7.361  1.7860  1.2508  1.2894
18901THY    CA356109   7.858   3.712   7.270  0.1998  0.4563  0.1865
18901THY    HA356110   7.912   3.713   7.176  1.0917  0.9537  0.5426
18901THY    CA456111   7.731   3.645   7.287 -0.0045 -0.0837 -0.2842
18901THY    HA456112   7.683   3.590   7.206 -0.4043 -1.7037  2.2684
18901THY    CA556113   7.673   3.652   7.410  0.1140 -0.4219 -0.1057
18901THY    CM156114   7.543   3.582   7.437 -1.1551 -0.9284 -0.1929
18901THY    HM156115   7.572   3.476   7.447 -0.5548  1.3406  0.1332
18901THY    HM256116   7.475   3.588   7.352 -1.3950 -0.6781  0.7038
18901THY    HM356117   7.489   3.619   7.524 -2.7990 -2.2562  0.6395
18901THY    CA656118   7.728   3.724   7.519  0.5870  0.7309 -0.4054
18901THY    HA656119   7.688   3.717   7.619 -1.2929  0.0063 -0.6012
18902THY      O56120   6.611   7.979   3.662  0.0459 -0.0585  0.0091
18902THY     HO56121   6.532   7.924   3.669 -0.2226 -1.4920  0.1860
18902THY    CA156122   6.708   7.932   3.741  0.4970 -0.1872  0.1264
18902THY    CA256123   6.833   7.992   3.764  0.2490  0.5461 -0.5244
18902THY    CP156124   6.880   8.116   3.681 -0.1758  0.3289  0.7604
18902THY    HP156125   6.792   8.167   3.639 -0.4221 -0.9472 -0.6494
18902THY    CP256126   6.987   8.082   3.577 -0.1877 -0.4751 -0.2332
18902THY    HP256127   7.067   8.040   3.640 -0.8799  0.5854 -0.0043
18902THY    HP356128   7.023   8.169   3.522 -1.6480 -0.7824  0.2160
18902THY    HP456129   6.943   8.013   3.504  0.2318 -1.0064  0.0610
18902THY    CP356130   6.929   8.226   3.773  0.4263  0.2854 -0.3499
18902THY    HP556131   6.869   8.240   3.864 -2.0982 -1.4089  0.7693
18902THY    HP656132   6.932   8.329   3.736 -0.9555  0.8253 -0.0902
18902THY    HP756133   7.032   8.201   3.800  0.3237  0.1271 -0.9538
18902THY    CA356134   6.920   7.941   3.856  0.0199  0.1046 -0.1180
18902THY    HA356135   7.020   7.975   3.881  0.1998 -2.8405  1.9079
18902THY    CA456136   6.884   7.821   3.923  0.2970 -0.1392  0.1451
18902THY    HA456137   6.962   7.773   3.982 -0.5348  1.5715  0.7985
18902THY    CA556138   6.757   7.773   3.917  0.2330 -0.2754 -0.5797
18902THY    CM156139   6.729   7.642   3.988  0.4862 -0.8250 -0.7953
18902THY    HM156140   6.808   7.570   3.964  1.3340  1.7628 -0.8193
18902THY    HM256141   6.631   7.606   3.954  1.0249 -2.3361 -0.9279
18902THY    HM356142   6.734   7.653   4.097  1.0065 -0.7664 -1.5613
18902THY    CA656143   6.662   7.834   3.831 -0.1914 -0.1918  0.4196
18902THY    HA656144   6.562   7.794   3.813  0.1507 -3.4920  0.7996
18903THY      O56145   5.146   1.404   3.291  0.0552  0.2161 -0.0434
18903THY     HO56146   5.100   1.482   3.256 -1.4000  1.6031 -0.2392
18903THY    CA156147   5.218   1.373   3.181  0.2783  0.2235  0.2312
18903THY    CA256148   5.328   1.281   3.190 -0.0940 -0.2455  0.7116
18903THY    CP156149   5.362   1.207   3.315 -0.5733  0.3192  0.0052
18903THY    HP156150   5.285   1.226   3.390 -0.0466  0.6889  0.7125
18903THY    CP256151   5.490   1.269   3.366  0.5550  0.0790 -0.3043
18903THY    HP256152   5.575   1.267   3.297  1.1703  0.8083  0.2338
18903THY    HP356153   5.528   1.219   3.456 -0.2529 -0.7497 -2.5663
18903THY    HP456154   5.462   1.366   3.409 -1.0453  1.2992 -1.2616
18903THY    CP356155   5.373   1.059   3.309  0.9580  0.3478  0.6531
18903THY    HP556156   5.406   1.011   3.401  0.8049 -1.5149 -3.4591
18903THY    HP656157   5.450   1.020   3.242  0.7041  0.6874 -0.4609
18903THY    HP756158   5.279   1.019   3.269  1.9406 -0.1068 -1.3318
18903THY    CA356159   5.403   1.262   3.076 -0.5464 -0.6937  0.2587
18903THY    HA356160   5.484   1.190   3.077 -1.3359  0.6298 -0.6487
18903THY    CA456161   5.383   1.341   2.961 -0.5945  0.0963  0.6341
18903THY    HA456162   5.440   1.325   2.871 -0.1663  0.7304 -1.7695
18903THY    CA556163   5.279   1.430   2.956 -0.5951  0.4940  0.0042
18903THY    CM156164   5.251   1.501   2.825 -0.3630  0.0848 -0.0588
18903THY    HM156165   5.235   1.430   2.743  1.6264 -1.2210  0.8921
18903THY    HM256166   5.341   1.548   2.784 -0.6296 -1.5485 -0.9125
18903THY    HM356167   5.165   1.568   2.826 -1.4478  1.9913 -1.3722
18903THY    CA656168   5.197   1.448   3.069  0.3256  0.5752 -0.3786
18903THY    HA656169   5.116   1.519   3.061 -0.3403  3.6568 -0.6378
18904THY      O56170   4.382   5.428   6.910 -0.4415 -0.0745 -0.4250
18904THY     HO56171   4.454   5.471   6.860  0.2380  2.5806  1.8726
18904THY    CA156172   4.321   5.348   6.827 -0.3823 -1.2588  0.1767
18904THY    CA256173   4.331   5.212   6.849 -0.6110  0.2649  1.1217
18904THY    CP156174   4.413   5.158   6.960 -1.1267 -0.1466  0.0589
18904THY    HP156175   4.465   5.237   7.016 -0.1572  2.0973 -2.0235
18904THY    CP256176   4.525   5.060   6.915  0.0322 -0.4414 -0.4966
18904THY    HP256177   4.612   5.076   6.980  1.4900 -2.6077  0.7348
18904THY    HP356178   4.557   5.086   6.814  3.4520 -0.2937 -3.4508
18904THY    HP456179   4.474   4.963   6.908 -0.2089 -0.8930 -0.3412
18904THY    CP356180   4.334   5.077   7.058  0.0944  0.2413 -0.0716
18904THY    HP556181   4.402   5.012   7.115  2.3186 -2.2045 -0.0326
18904THY    HP656182   4.270   5.004   7.007 -0.7367 -0.0546  0.8414
18904THY    HP756183   4.266   5.140   7.116 -1.1479 -1.0422 -0.1835
18904THY    CA356184   4.249   5.127   6.764 -0.2973 -0.6067 -0.5915
18904THY    HA356185   4.247   5.020   6.785  0.3968 -0.6816 -0.6225
18904THY    CA456186   4.183   5.187   6.653  0.8635 -0.1480  0.0759
18904THY    HA456187   4.122   5.119   6.594  0.0519  1.8391 -1.0065
18904THY    CA556188   4.181   5.321   6.629  0.6191 -0.3681 -0.2435
18904THY    CM156189   4.091   5.370   6.524 -0.3407 -0.1590 -0.9454
18904THY    HM156190   3.985   5.354   6.546 -0.4365 -0.4950 -0.7769
18904THY    HM256191   4.107   5.318   6.429 -1.7730 -0.7210 -0.4163
18904THY    HM356192   4.115   5.477   6.522  1.9245 -1.7476 -1.4175
18904THY    CA656193   4.248   5.407   6.722  0.3058 -0.0134  1.3207
18904THY    HA656194   4.236   5.515   6.726 -0.8929 -0.2514  1.2098
18905THY      O56195   5.859   3.272   6.441  0.3727  0.1373  0.4659
18905THY     HO56196   5.885   3.318   6.359  1.5437  0.0126 -0.3854
18905THY    CA156197   5.978   3.250   6.508  0.2536 -0.1270  0.3323
18905THY    CA256198   5.983   3.175   6.623  0.2615 -0.3442  0.6145
18905THY    CP156199   5.853   3.126   6.687 -0.0366  0.3324  0.3978
18905THY    HP156200   5.770   3.176   6.636 -1.4985 -0.2424 -2.4512
18905THY    CP256201   5.842   3.166   6.834 -0.1529  0.4157 -0.1492
18905THY    HP256202   5.740   3.151   6.871 -0.3844 -0.7128 -1.6292
18905THY    HP356203   5.878   3.269   6.849  1.3360 -0.2568 -0.5467
18905THY    HP456204   5.915   3.116   6.898 -0.6160  0.3395 -0.9334
18905THY    CP356205   5.847   2.973   6.677  0.3921 -0.3496  0.5997
18905THY    HP556206   5.780   2.942   6.759 -0.0756 -1.2363 -0.8085
18905THY    HP656207   5.930   2.909   6.707 -2.3646  0.3232 -3.0145
18905THY    HP756208   5.805   2.941   6.581 -0.8855  0.7227 -1.1413
18905THY    CA356209   6.105   3.131   6.683 -0.0412 -0.5147 -1.0650
18905THY    HA356210   6.107   3.066   6.770 -1.7439 -1.0970 -1.9776
18905THY    CA456211   6.220   3.156   6.607  0.1921  0.0222 -0.1984
18905THY    HA456212   6.317   3.117   6.639  0.2793 -0.7920 -0.6954
18905THY    CA556213   6.215   3.225   6.485  0.3064  0.1543 -0.0332
18905THY    CM156214   6.341   3.236   6.398  0.1687  0.2148  0.3662
18905THY    HM156215   6.387   3.136   6.397 -1.1447  0.0034 -0.2524
18905THY    HM256216   6.407   3.311   6.442  0.8099 -1.9934  1.2010
18905THY    HM356217   6.323   3.255   6.291  3.0290 -0.6865 -1.3421
18905THY    CA656218   6.095   3.274   6.437 -0.1367 -0.6637 -0.4547
18905THY    HA656219   6.102   3.339   6.351  1.8237 -0.5979 -0.4907
18906THY      O56220   0.996   2.960   3.824  0.1415  0.8207  0.3232
18906THY     HO56221   1.065   3.020   3.789  0.4938 -1.0470 -1.0683
18906THY    CA156222   0.890   3.042   3.828 -0.1901 -0.4735  0.2979
18906THY    CA256223   0.766   3.000   3.877  0.0237 -0.3421 -0.0879
18906THY    CP156224   0.750   2.864   3.936  1.3335 -0.3204  0.4263
18906THY    HP156225   0.847   2.835   3.977  1.0773  0.4510  0.6350
18906THY    CP256226   0.693   2.772   3.830 -0.3003 -0.1679 -0.4193
18906THY    HP256227   0.755   2.754   3.742 -0.8780 -0.5426 -0.6019
18906THY    HP356228   0.604   2.814   3.781  1.0688 -2.0063  0.4386
18906THY    HP456229   0.649   2.681   3.874 -1.2135  0.3099  0.2332
18906THY    CP356230   0.658   2.855   4.062  0.3615  0.0083  0.2162
18906THY    HP556231   0.698   2.926   4.134  1.8951 -0.9815  0.3961
18906THY    HP656232   0.665   2.751   4.097  3.3215  1.0713  0.6950
18906THY    HP756233   0.555   2.878   4.032  0.5227 -0.3674  0.4399
18906THY    CA356234   0.651   3.082   3.856  0.3760  0.4576  0.5882
18906THY    HA356235   0.552   3.055   3.891 -0.7728 -1.7247  1.6717
18906THY    CA456236   0.668   3.209   3.793  0.0200 -0.0616 -0.2677
18906THY    HA456237   0.586   3.266   3.750 -1.0501  0.4645 -1.3766
18906THY    CA556238   0.794   3.259   3.762 -0.0580 -0.5968  0.9329
18906THY    CM156239   0.814   3.379   3.672  0.4595 -0.6519 -0.0715
18906THY    HM156240   0.811   3.475   3.724 -0.7808 -0.6138 -0.1206
18906THY    HM256241   0.726   3.374   3.607 -2.1534  2.7280 -2.4036
18906THY    HM356242   0.910   3.366   3.620  0.0531 -1.7528  1.1553
18906THY    CA656243   0.907   3.172   3.774  0.3998 -0.3467 -0.2548
18906THY    HA656244   1.003   3.194   3.730 -0.5643 -1.8015  1.2940
18907THY      O56245   8.713   1.265   2.502 -0.0023  0.4594  0.1380
18907THY     HO56246   8.746   1.350   2.535 -0.8226 -2.7288  1.8640
18907THY    CA156247   8.822   1.190   2.471 -0.1061 -0.4911 -0.0782
18907THY    CA256248   8.799   1.056   2.435  0.1013 -0.0858  0.8056
18907THY    CP156249   8.669   0.977   2.431  0.4144 -0.6886  0.2379
18907THY    HP156250   8.587   1.048   2.451  0.2539  1.5552 -0.4907
18907THY    CP256251   8.646   0.883   2.549  0.0900  0.0110 -0.3490
18907THY    HP256252   8.679   0.945   2.634 -0.1395 -0.2466  0.1352
18907THY    HP356253   8.715   0.798   2.544 -0.1096  1.5764 -0.6328
18907THY    HP456254   8.544   0.847   2.562  0.0371 -1.1177 -0.6452
18907THY    CP356255   8.648   0.904   2.293 -0.1308 -0.1937  0.3546
18907THY    HP556256   8.543   0.873   2.291 -0.1045 -1.2989  0.2778
18907THY    HP656257   8.704   0.811   2.279 -1.0565  1.1506 -0.4448
18907THY    HP756258   8.664   0.981   2.216  2.3144 -0.3419 -0.2178
18907THY    CA356259   8.909   0.982   2.402 -0.6227  0.8058  0.2092
18907THY    HA356260   8.901   0.881   2.365  0.3843  0.8506  0.1026
18907THY    CA456261   9.036   1.042   2.391 -0.8576 -0.2134  0.4158
18907THY    HA456262   9.127   0.993   2.357 -0.4531  0.5369  0.6311
18907THY    CA556263   9.057   1.170   2.440  0.0788 -0.1077 -0.2760
18907THY    CM156264   9.194   1.219   2.469 -0.4003 -0.2565 -0.2651
18907THY    HM156265   9.219   1.211   2.576  1.3052 -0.7447 -2.1371
18907THY    HM256266   9.226   1.320   2.441  1.8697  0.9356 -0.5749
18907THY    HM356267   9.270   1.152   2.427 -0.3800 -2.8137  1.2012
18907THY    CA656268   8.949   1.248   2.483 -0.0729  0.5984  0.3157
18907THY    HA656269   8.964   1.350   2.517  1.3119  1.9156 -0.2834
18908THY      O56270   9.370   0.863   2.366  0.3395  0.6919 -0.0474
18908THY     HO56271   9.454   0.906   2.340  0.4554  1.6754  0.3434
18908THY    CA156272   9.364   0.879   2.503 -1.0243  0.1375  0.8639
18908THY    CA256273   9.295   0.794   2.587  0.0821 -0.2591 -0.0685
18908THY    CP156274   9.222   0.677   2.518  0.1189 -0.7989  0.4716
18908THY    HP156275   9.203   0.688   2.411 -1.3660 -0.8409 -1.8586
18908THY    CP256276   9.084   0.655   2.579 -0.6855 -0.0740  0.0047
18908THY    HP256277   9.038   0.753   2.562  0.8977 -1.9871  0.4851
18908THY    HP356278   9.087   0.621   2.683  0.5954  0.1010  0.5983
18908THY    HP456279   9.023   0.587   2.517 -0.2599 -3.5589  2.5141
18908THY    CP356280   9.307   0.554   2.524 -0.0464 -0.8299  0.9242
18908THY    HP556281   9.343   0.527   2.624 -5.0358  0.9798 -0.2078
18908THY    HP656282   9.388   0.563   2.450  0.5478 -0.7747 -2.7272
18908THY    HP756283   9.242   0.477   2.481  0.6187 -1.2331  0.5811
18908THY    CA356284   9.306   0.813   2.728 -0.2049  0.3020 -0.1811
18908THY    HA356285   9.261   0.740   2.794 -2.0169 -0.2025  0.4164
18908THY    CA456286   9.367   0.928   2.778 -0.2673  0.4482 -0.3482
18908THY    HA456287   9.383   0.940   2.885 -0.2891  0.1884  3.0265
18908THY    CA556288   9.427   1.024   2.689 -0.0745 -1.1673 -0.2105
18908THY    CM156289   9.504   1.143   2.747 -0.6508  0.4060 -0.0080
18908THY    HM156290   9.540   1.116   2.846 -1.1727  0.4552 -0.5530
18908THY    HM256291   9.438   1.231   2.750 -0.1154 -1.9688  0.5606
18908THY    HM356292   9.586   1.180   2.685 -0.9007 -0.9507 -1.6052
18908THY    CA656293   9.429   0.990   2.553 -0.3279 -0.2942  0.2636
18908THY    HA656294   9.479   1.062   2.488  0.8342  0.4065  0.1209
18909THY      O56295   4.748   1.947   7.598  0.0377 -0.0838 -0.0951
18909THY     HO56296   4.748   2.016   7.529  3.0975 -2.3449 -2.0882
18909THY    CA156297   4.624   1.936   7.651 -0.3816  0.1365  0.1212
18909THY    CA256298   4.587   1.832   7.736  0.9861 -0.5620  0.2110
18909THY    CP156299   4.689   1.724   7.761  0.0953 -0.3878 -0.0518
18909THY    HP156300   4.793   1.757   7.763 -0.2028  1.0821  0.9011
18909THY    CP256301   4.696   1.611   7.655 -0.2319 -0.4239 -0.2089
18909THY    HP256302   4.604   1.552   7.653 -1.4650 -0.5261  1.6221
18909THY    HP356303   4.776   1.541   7.682 -1.4520  1.1259 -1.0730
18909THY    HP456304   4.722   1.647   7.555  2.7852  0.0880 -0.6997
18909THY    CP356305   4.664   1.668   7.910  0.5504  0.8691  0.2953
18909THY    HP556306   4.755   1.626   7.954  0.0275  3.5421  1.7415
18909THY    HP656307   4.575   1.603   7.908  0.1447 -1.1626  0.8381
18909THY    HP756308   4.639   1.751   7.977 -2.7501 -0.1572  0.2906
18909THY    CA356309   4.455   1.819   7.786 -0.1803  0.6213 -0.1660
18909THY    HA356310   4.423   1.738   7.851  0.6652  0.2868 -0.7877
18909THY    CA456311   4.365   1.924   7.758 -0.0118 -0.1128 -0.5764
18909THY    HA456312   4.266   1.926   7.802 -1.1945 -2.5548  2.1899
18909THY    CA556313   4.405   2.037   7.682 -0.0531 -0.0744  0.2552
18909THY    CM156314   4.307   2.152   7.668  0.5856  1.1502 -0.2402
18909THY    HM156315   4.302   2.181   7.562  1.5313  1.1431 -0.0622
18909THY    HM256316   4.358   2.239   7.711  0.8096 -2.0199  1.3461
18909THY    HM356317   4.206   2.135   7.708  0.4270  0.5764 -0.6768
18909THY    CA656318   4.532   2.041   7.628 -1.0673 -0.3428 -0.3236
18909THY    HA656319   4.554   2.124   7.561 -1.5281 -1.2939 -0.9515
18910THY      O56320   7.321   5.851   2.833  0.0915  0.5904 -0.4544
18910THY     HO56321   7.406   5.818   2.866  0.1904 -1.1622 -2.1102
18910THY    CA156322   7.297   5.983   2.865  0.3638 -0.4022  0.8224
18910THY    CA256323   7.188   6.045   2.802 -0.4988 -0.6258  0.2293
18910THY    CP156324   7.085   5.956   2.720  0.1378 -0.3924  0.3507
18910THY    HP156325   7.117   5.851   2.718 -0.5025  1.0066  0.1091
18910THY    CP256326   7.056   6.005   2.573 -0.0749  0.0755  0.3991
18910THY    HP256327   7.021   5.924   2.507 -1.6561 -2.5358  2.9908
18910THY    HP356328   7.157   6.025   2.535  0.1787 -0.3389 -1.4438
18910THY    HP456329   6.987   6.090   2.572 -1.7164  2.1548 -0.8108
18910THY    CP356330   6.958   5.950   2.794 -0.5820 -0.2466  0.2845
18910THY    HP556331   6.899   5.871   2.746  1.8131  0.1749 -1.9265
18910THY    HP656332   6.904   6.045   2.798 -0.3042  0.6290  0.4102
18910THY    HP756333   6.967   5.922   2.899 -0.5221 -0.3759 -0.2034
18910THY    CA356334   7.174   6.183   2.805  0.6185  0.0766  0.0070
18910THY    HA356335   7.090   6.228   2.753 -0.1165  2.2763  1.3277
18910THY    CA456336   7.255   6.258   2.885  0.7361  0.7043 -0.1435
18910THY    HA456337   7.251   6.366   2.898 -0.3370 -0.8902  0.0556
18910THY    CA556338   7.367   6.194   2.945  0.3205  0.3846 -0.3273
18910THY    CM156339   7.463   6.270   3.032  0.4017  0.1739 -0.3700
18910THY    HM156340   7.558   6.290   2.981 -0.8621 -2.0089  0.3582
18910THY    HM256341   7.482   6.213   3.123 -1.8074 -0.2998 -2.0126
18910THY    HM356342   7.418   6.368   3.052 -2.1457 -2.8905 -0.7330
18910THY    CA656343   7.393   6.060   2.936  0.0349  0.6544  0.2337
18910THY    HA656344   7.483   6.024   2.985 -0.6104  2.5835  1.1046
18911THY      O56345   5.938   7.758   4.593 -0.5336 -0.0199 -0.1399
18911THY     HO56346   5.934   7.849   4.627  1.3044  0.2525 -0.1097
18911THY    CA156347   5.909   7.680   4.691  0.9103 -0.3709 -0.0446
18911THY    CA256348   5.920   7.538   4.679  0.3389 -0.2374  0.1983
18911THY    CP156349   5.936   7.471   4.544  0.3549 -0.1122 -0.0422
18911THY    HP156350   5.932   7.540   4.459  0.1024  1.0603  1.4628
18911THY    CP256351   5.811   7.393   4.509  0.3130 -0.2515 -0.6361
18911THY    HP256352   5.821   7.334   4.417  0.1104  0.1172 -1.2627
18911THY    HP356353   5.725   7.461   4.515  1.2501 -1.8780  0.7777
18911THY    HP456354   5.799   7.312   4.582 -0.6693  0.4056  0.0802
18911THY    CP356355   6.064   7.392   4.532  0.6829 -0.9900 -0.1182
18911THY    HP556356   6.147   7.459   4.560 -0.0455 -0.0849  0.4233
18911THY    HP656357   6.081   7.342   4.435 -0.4727 -0.8788 -0.7467
18911THY    HP756358   6.070   7.315   4.610 -0.5882 -0.8257 -0.0669
18911THY    CA356359   5.885   7.459   4.792  0.0854  0.1977 -0.0026
18911THY    HA356360   5.887   7.350   4.787  2.1941  0.3849 -0.0199
18911THY    CA456361   5.870   7.522   4.914  0.6818  0.5676 -0.4749
18911THY    HA456362   5.838   7.462   4.999 -1.7866 -1.4593 -2.2266
18911THY    CA556363   5.867   7.661   4.926 -0.5903  0.1736 -0.1600
18911THY    CM156364   5.826   7.724   5.054 -0.1787  0.8989  0.6875
18911THY    HM156365   5.882   7.674   5.133  0.9223 -0.7464 -0.8258
18911THY    HM256366   5.719   7.704   5.066 -0.2954 -2.1563 -1.2011
18911THY    HM356367   5.860   7.829   5.059  1.4786  0.8079  0.1803
18911THY    CA656368   5.887   7.737   4.814 -1.0442 -0.3046 -0.0924
18911THY    HA656369   5.888   7.845   4.827 -0.3311  1.4731 -0.2900
18912THY      O56370   0.979   0.143   3.425  0.3115 -0.9563  0.2970
18912THY     HO56371   0.956   0.151   3.519 -2.5402 -1.3261 -1.7726
18912THY    CA156372   0.974   0.270   3.376 -0.1343  0.1447  0.4889
18912THY    CA256373   1.015   0.304   3.241 -0.2164  0.3579 -0.3693
18912THY    CP156374   1.069   0.196   3.144 -0.3090  0.5431  0.6615
18912THY    HP156375   1.055   0.102   3.198 -2.0730 -0.6210  0.1969
18912THY    CP256376   1.216   0.211   3.121 -0.1386 -0.5865 -0.5863
18912THY    HP256377   1.268   0.178   3.211 -4.4064  1.8702 -1.3686
18912THY    HP356378   1.236   0.315   3.092  1.1856 -0.7475 -0.8753
18912THY    HP456379   1.262   0.137   3.054 -1.8611 -2.3280 -0.1722
18912THY    CP356380   0.978   0.189   3.014  0.2842 -0.4670 -0.2324
18912THY    HP556381   1.007   0.109   2.945  0.9896 -0.4722  0.0241
18912THY    HP656382   0.997   0.284   2.962 -0.2799 -1.1396 -0.4753
18912THY    HP756383   0.876   0.173   3.053  0.3580 -0.2385 -0.1533
18912THY    CA356384   1.007   0.442   3.200  0.1537 -0.0258 -0.1138
18912THY    HA356385   1.043   0.469   3.100 -3.5771 -1.6225 -0.4858
18912THY    CA456386   0.948   0.533   3.283 -0.1991 -0.0655  0.2488
18912THY    HA456387   0.944   0.639   3.262  0.4044 -0.1693  0.2564
18912THY    CA556388   0.922   0.497   3.417  0.0130 -0.0676 -0.6654
18912THY    CM156389   0.884   0.603   3.519 -0.2302 -0.7980 -0.2142
18912THY    HM156390   0.776   0.622   3.520 -0.1803  1.0613  0.2180
18912THY    HM256391   0.926   0.698   3.486  0.8065  1.8952  0.3736
18912THY    HM356392   0.914   0.582   3.623  0.5101 -1.1071 -0.7438
18912THY    CA656393   0.937   0.369   3.464 -0.3889 -0.1820 -0.3965
18912THY    HA656394   0.907   0.343   3.565  0.9663  0.6254  1.0541
18913THY      O56395   3.764   5.912   6.278  0.7869  0.8919  0.6067
18913THY     HO56396   3.708   5.958   6.213 -0.0097  1.2563  0.1754
18913THY    CA156397   3.812   6.020   6.352 -0.2335 -0.8609  0.1550
18913THY    CA256398   3.928   6.002   6.434  0.0906  0.7257  0.7826
18913THY    CP156399   4.009   5.871   6.440 -0.3021  0.0201  0.5033
18913THY    HP156400   3.951   5.788   6.400  1.1929  1.6149 -1.4323
18913THY    CP256401   4.038   5.817   6.586 -0.3980 -0.5870  0.1635
18913THY    HP256402   4.058   5.710   6.580 -1.0860 -1.8928  0.0830
18913THY    HP356403   3.944   5.817   6.643 -0.0904 -0.0661  0.8709
18913THY    HP456404   4.122   5.874   6.627  0.5620 -2.2245 -0.0058
18913THY    CP356405   4.132   5.885   6.349  0.2674 -0.4912 -0.0514
18913THY    HP556406   4.173   5.985   6.369  1.0723  1.6428 -0.7511
18913THY    HP656407   4.084   5.873   6.251 -1.2306  0.4150 -1.9172
18913THY    HP756408   4.206   5.811   6.378 -0.5433  0.5268 -0.4930
18913THY    CA356409   3.972   6.115   6.508 -0.2004  0.0069 -0.1243
18913THY    HA356410   4.058   6.105   6.573  2.2080 -2.9680  0.0442
18913THY    CA456411   3.886   6.229   6.517 -0.3301  0.4869  0.4164
18913THY    HA456412   3.912   6.309   6.586  2.3214 -2.0384  1.9142
18913THY    CA556413   3.771   6.235   6.444  0.4282  0.4411 -0.5191
18913THY    CM156414   3.672   6.341   6.468  0.1207 -0.0837 -0.5024
18913THY    HM156415   3.689   6.411   6.551 -1.8405 -1.8428  2.2690
18913THY    HM256416   3.579   6.285   6.485  0.1271 -0.5998 -0.6727
18913THY    HM356417   3.653   6.398   6.377  0.7809  0.0464 -0.0630
18913THY    CA656418   3.735   6.131   6.353 -0.8740 -0.4959  0.4017
18913THY    HA656419   3.641   6.143   6.299 -1.5741  0.6965  0.4343
18914THY      O56420   0.670   5.516   2.294  1.0114  0.1887 -0.4436
18914THY     HO56421   0.627   5.548   2.375 -1.2608 -1.0473 -0.1626
18914THY    CA156422   0.584   5.425   2.240 -0.7183  0.2851  0.5872
18914THY    CA256423   0.639   5.307   2.173 -0.6756  0.5411  0.5894
18914THY    CP156424   0.792   5.288   2.162  0.1554  0.3793 -0.1613
18914THY    HP156425   0.834   5.342   2.249 -1.1542  0.8181  0.1773
18914THY    CP256426   0.852   5.338   2.038 -0.4907  0.0452  0.4074
18914THY    HP256427   0.962   5.343   2.046 -0.4747  0.0399  0.0786
18914THY    HP356428   0.827   5.444   2.027  1.6321  1.7846  1.1633
18914THY    HP456429   0.816   5.288   1.948 -3.7652  0.9758  0.8677
18914THY    CP356430   0.833   5.136   2.174 -0.2240  0.9927  0.2601
18914THY    HP556431   0.941   5.127   2.191  0.3273 -1.5964  1.1825
18914THY    HP656432   0.806   5.079   2.085 -1.0494  0.6945  1.0959
18914THY    HP756433   0.766   5.090   2.248 -2.3003 -0.3001  1.0846
18914THY    CA356434   0.548   5.216   2.133 -0.1167 -0.1898  0.1237
18914THY    HA356435   0.576   5.126   2.077  2.0908  0.7721  0.1697
18914THY    CA456436   0.410   5.225   2.162 -0.8223  0.7681  0.2209
18914THY    HA456437   0.341   5.143   2.149 -1.1416 -0.2131  0.6364
18914THY    CA556438   0.367   5.338   2.228  0.4768  0.2597  0.2202
18914THY    CM156439   0.221   5.357   2.256  1.2142  0.1401  0.3773
18914THY    HM156440   0.167   5.277   2.205  0.0436  1.3894  0.3226
18914THY    HM256441   0.179   5.451   2.218  0.8636 -0.7698 -0.1369
18914THY    HM356442   0.204   5.341   2.363 -2.4773 -0.4495 -0.4025
18914THY    CA656443   0.452   5.443   2.264  0.0753 -0.1152 -0.0100
18914THY    HA656444   0.419   5.536   2.309  0.2149 -2.0117  0.9903
18915THY      O56445   2.039   0.297   2.153  0.1961  0.0723  0.3693
18915THY     HO56446   1.949   0.265   2.136 -0.2386  1.4608  0.7990
18915THY    CA156447   2.124   0.274   2.053 -0.0974 -0.3623  0.2277
18915THY    CA256448   2.246   0.348   2.050 -0.3520 -0.3860  0.5407
18915THY    CP156449   2.277   0.442   2.167 -0.3296  0.0662 -0.4314
18915THY    HP156450   2.231   0.399   2.257  1.2071  2.0935  1.9013
18915THY    CP256451   2.207   0.587   2.155 -0.5648 -0.2267  0.0878
18915THY    HP256452   2.098   0.583   2.167 -0.6006 -0.1662  0.9489
18915THY    HP356453   2.226   0.626   2.055  2.6279  0.5089  0.7489
18915THY    HP456454   2.234   0.655   2.238 -1.2439 -0.4621  0.6574
18915THY    CP356455   2.429   0.447   2.208 -0.4141 -0.2625 -0.5528
18915THY    HP556456   2.488   0.488   2.126 -0.0044  0.5934  0.6463
18915THY    HP656457   2.454   0.349   2.249 -0.6840  0.8455 -0.1804
18915THY    HP756458   2.437   0.513   2.296  0.7282 -0.4073 -0.4875
18915THY    CA356459   2.332   0.320   1.946  0.4502  0.6317 -0.1780
18915THY    HA356460   2.424   0.374   1.928  0.5526 -0.0928 -0.5887
18915THY    CA456461   2.292   0.241   1.837 -0.7606 -0.4347 -0.0093
18915THY    HA456462   2.352   0.246   1.747 -0.0251  0.1273  2.8249
18915THY    CA556463   2.167   0.172   1.837  0.5522  0.8204 -0.3007
18915THY    CM156464   2.113   0.092   1.723 -0.1064  0.6074 -0.0062
18915THY    HM156465   2.197   0.037   1.680  0.2681  1.5072 -0.1522
18915THY    HM256466   2.074   0.159   1.645  0.0330  2.4067  2.2748
18915THY    HM356467   2.031   0.021   1.741  1.2251 -1.9709 -2.4059
18915THY    CA656468   2.086   0.195   1.944  0.6243  0.2160 -0.7633
18915THY    HA656469   1.982   0.166   1.931  0.8574 -1.8693 -0.8500
18916THY      O56470   6.912   4.829   7.260  0.3917 -0.2319 -0.3866
18916THY     HO56471   6.821   4.806   7.281 -0.1303  0.0036  1.6440
18916THY    CA156472   6.943   4.759   7.151 -0.0928  0.6189  0.3844
18916THY    CA256473   7.064   4.702   7.128 -0.2570 -0.5071 -0.3617
18916THY    CP156474   7.167   4.723   7.237 -0.8825  0.7715  0.1053
18916THY    HP156475   7.128   4.766   7.330  0.6633  1.2273  0.5875
18916THY    CP256476   7.279   4.828   7.209  0.8638  0.3388 -0.2203
18916THY    HP256477   7.338   4.840   7.301  1.2088  0.3557 -1.8332
18916THY    HP356478   7.231   4.924   7.190  1.4950 -1.8674 -0.2861
18916THY    HP456479   7.346   4.817   7.123  0.0749 -0.3519  0.2673
18916THY    CP356480   7.243   4.595   7.276 -0.2601 -0.1238 -0.1628
18916THY    HP556481   7.313   4.569   7.195  1.3111  1.6886 -1.9562
18916THY    HP656482   7.190   4.507   7.314 -0.4442 -0.5215 -0.2222
18916THY    HP756483   7.319   4.611   7.354 -1.9086  1.4403  0.3236
18916THY    CA356484   7.090   4.631   7.016  0.5258 -0.0796 -0.2269
18916THY    HA356485   7.188   4.589   6.993  0.3894 -0.2915 -0.4297
18916THY    CA456486   6.994   4.611   6.921 -0.6114 -0.0945  0.2584
18916THY    HA456487   7.012   4.555   6.830  0.8751  1.0869 -1.2666
18916THY    CA556488   6.870   4.687   6.935 -0.5918  0.2794  0.1663
18916THY    CM156489   6.772   4.685   6.818 -0.7782  0.1663  0.7012
18916THY    HM156490   6.826   4.643   6.733  1.1729  1.9910 -0.7081
18916THY    HM256491   6.749   4.790   6.796  0.4497 -1.8336  0.5923
18916THY    HM356492   6.682   4.625   6.838 -0.0398 -1.6341 -1.0849
18916THY    CA656493   6.848   4.760   7.051  0.5834 -0.1995  0.2641
18916THY    HA656494   6.760   4.823   7.060  0.3981 -2.1615  0.3467
18917THY      O56495   1.657   1.954   3.335  0.1375  0.2986  0.1055
18917THY     HO56496   1.655   1.902   3.253 -3.4065  0.4096 -0.1778
18917THY    CA156497   1.679   2.076   3.292 -0.6525  0.6671  0.4434
18917THY    CA256498   1.665   2.181   3.386  0.0762 -0.0290  0.0737
18917THY    CP156499   1.632   2.148   3.531  1.0540  0.5265 -1.2922
18917THY    HP156500   1.602   2.043   3.545  2.1162  0.5607 -1.6053
18917THY    CP256501   1.515   2.239   3.581 -0.3595 -0.3915 -0.6548
18917THY    HP256502   1.474   2.182   3.665 -0.3758 -1.8582 -2.9329
18917THY    HP356503   1.441   2.253   3.501  1.2842 -1.9714 -0.5907
18917THY    HP456504   1.551   2.339   3.608  0.3845 -0.9677 -0.7610
18917THY    CP356505   1.756   2.163   3.623 -0.2666  0.2409 -0.1624
18917THY    HP556506   1.801   2.258   3.594  0.2798 -1.9774 -1.0304
18917THY    HP656507   1.831   2.088   3.595 -1.3461  0.1036 -1.2147
18917THY    HP756508   1.743   2.158   3.732 -1.0328  0.3371  2.6620
18917THY    CA356509   1.681   2.314   3.332 -0.3550 -0.0126 -1.2262
18917THY    HA356510   1.665   2.406   3.388  3.2224 -2.0463  0.8160
18917THY    CA456511   1.720   2.339   3.199  0.4934 -0.2177  0.0875
18917THY    HA456512   1.740   2.441   3.170 -0.4668 -1.2800 -0.0043
18917THY    CA556513   1.733   2.225   3.117 -0.8102  0.2804  0.3727
18917THY    CM156514   1.782   2.244   2.975 -0.0021 -0.4263  0.6100
18917THY    HM156515   1.891   2.252   2.963  0.1869  1.7508  1.8167
18917THY    HM256516   1.741   2.338   2.937  0.1632  1.6668  1.5763
18917THY    HM356517   1.747   2.161   2.911  1.6087 -1.6042  0.7828
18917THY    CA656518   1.702   2.096   3.159 -0.0220 -0.2595 -0.1579
18917THY    HA656519   1.725   2.016   3.090  2.4124  0.3291 -0.0548
18918THY      O56520   2.824   6.066   5.743 -0.4689 -0.4074  0.0571
18918THY     HO56521   2.736   6.066   5.786 -0.4800 -0.4070 -0.9939
18918THY    CA156522   2.895   6.164   5.811 -0.2436  1.3165 -0.0836
18918THY    CA256523   3.032   6.188   5.784 -0.3970 -0.1504 -0.5102
18918THY    CP156524   3.114   6.107   5.683  0.7916  0.2393 -0.0704
18918THY    HP156525   3.076   6.005   5.671 -0.3505 -0.4293  0.4195
18918THY    CP256526   3.268   6.101   5.712  0.7202  0.1980  0.0061
18918THY    HP256527   3.320   6.039   5.639  0.6823  1.6494 -1.8122
18918THY    HP356528   3.279   6.044   5.805  2.1264 -0.4893 -0.8912
18918THY    HP456529   3.331   6.191   5.702 -0.2823 -3.3028  0.4673
18918THY    CP356530   3.095   6.170   5.544  0.0672  0.0263 -0.2504
18918THY    HP556531   3.102   6.280   5.544 -2.6808 -0.8442 -0.0050
18918THY    HP656532   2.990   6.152   5.521  0.3706 -0.2517 -1.7284
18918THY    HP756533   3.167   6.134   5.470  0.7190  1.5685 -2.3125
18918THY    CA356534   3.095   6.288   5.858 -0.5886 -0.7649  0.0701
18918THY    HA356535   3.193   6.329   5.833 -1.9200  0.1728  4.3904
18918THY    CA456536   3.027   6.348   5.963 -0.1949  0.5308  0.1693
18918THY    HA456537   3.069   6.431   6.020  0.3951  0.6995 -0.2417
18918THY    CA556538   2.898   6.305   5.995  0.3454  0.6119  0.2149
18918THY    CM156539   2.820   6.367   6.108 -0.4053  0.0449  0.4275
18918THY    HM156540   2.821   6.322   6.208 -0.0116  0.6063  1.6436
18918THY    HM256541   2.712   6.374   6.090 -0.3035 -2.0189 -1.8327
18918THY    HM356542   2.854   6.470   6.124 -0.2763  0.9978  0.2474
18918THY    CA656543   2.828   6.217   5.916 -0.2215 -0.5695  0.2171
18918THY    HA656544   2.730   6.183   5.947  0.1000 -0.3257 -0.5024
18919THY      O56545   2.951   8.485   4.850 -0.1812 -0.0951 -1.0239
18919THY     HO56546   2.983   8.467   4.760  0.3499  0.0344 -0.7488
18919THY    CA156547   2.814   8.470   4.853  0.5571 -0.2553 -0.7733
18919THY    CA256548   2.746   8.405   4.956 -0.0795 -0.0851  0.5204
18919THY    CP156549   2.818   8.373   5.082 -0.0755  0.0113  0.5198
18919THY    HP156550   2.927   8.386   5.073  0.0622  1.0807  0.1995
18919THY    CP256551   2.792   8.234   5.146  0.1834 -0.6082  0.0804
18919THY    HP256552   2.837   8.148   5.094  0.7246  2.6383 -1.7974
18919THY    HP356553   2.685   8.226   5.167  0.3085  0.6504  1.3031
18919THY    HP456554   2.841   8.225   5.244  0.3541 -0.7538 -0.7424
18919THY    CP356555   2.778   8.478   5.183 -0.0174 -0.0781 -0.1778
18919THY    HP556556   2.670   8.471   5.202 -0.5750 -2.3000  1.3009
18919THY    HP656557   2.792   8.579   5.143 -2.0785  0.8129  0.5093
18919THY    HP756558   2.819   8.461   5.283 -1.5726  0.8599  1.2066
18919THY    CA356559   2.608   8.389   4.951  0.1691  0.1107 -0.2902
18919THY    HA356560   2.557   8.342   5.034  2.2471  2.0235  0.6196
18919THY    CA456561   2.534   8.435   4.842 -0.5484 -0.2269  0.3352
18919THY    HA456562   2.428   8.413   4.832 -0.5354 -0.5351  0.4003
18919THY    CA556563   2.605   8.507   4.742  0.2358 -0.5774  0.5045
18919THY    CM156564   2.535   8.547   4.619 -0.3994 -0.6234 -0.0029
18919THY    HM156565   2.426   8.539   4.625 -0.6392  1.2828  3.1627
18919THY    HM256566   2.576   8.486   4.538 -1.1417 -0.1237 -1.1992
18919THY    HM356567   2.550   8.655   4.607  1.9757  1.3708 -0.0112
18919THY    CA656568   2.747   8.522   4.739 -0.1963  0.4122 -0.6314
18919THY    HA656569   2.800   8.567   4.656 -1.5143 -0.5934 -0.8794
18920THY      O56570   4.794   7.625   3.267  0.8254  0.0310  0.0805
18920THY     HO56571   4.853   7.563   3.221  0.7254 -0.8820  0.6365
18920THY    CA156572   4.663   7.599   3.237 -0.0197 -0.0239  0.4207
18920THY    CA256573   4.555   7.656   3.312  0.3333  0.2334  0.4376
18920THY    CP156574   4.586   7.747   3.428  0.0281  0.5636 -0.4646
18920THY    HP156575   4.668   7.813   3.399  0.1251  1.9847  0.0926
18920THY    CP256576   4.627   7.670   3.557 -0.2354 -0.4044  0.0450
18920THY    HP256577   4.627   7.738   3.643  0.6026 -0.2407 -0.1505
18920THY    HP356578   4.728   7.628   3.550 -0.2895 -0.4522 -0.0789
18920THY    HP456579   4.555   7.588   3.566  0.6772  1.4979 -0.5980
18920THY    CP356580   4.466   7.837   3.468 -0.7275  0.0557  0.3486
18920THY    HP556581   4.383   7.791   3.522 -1.0366 -1.6029 -1.1493
18920THY    HP656582   4.418   7.887   3.383  0.4456 -1.2628 -0.6944
18920THY    HP756583   4.510   7.913   3.534 -3.2529  0.7760  1.2884
18920THY    CA356584   4.429   7.596   3.302  0.3347 -0.0769 -0.1945
18920THY    HA356585   4.346   7.632   3.362  1.1433  1.9838 -1.5909
18920THY    CA456586   4.406   7.514   3.196 -0.2165  0.3187  0.1228
18920THY    HA456587   4.304   7.482   3.174  0.2442 -1.2999 -0.3581
18920THY    CA556588   4.500   7.471   3.105  0.1035 -0.2671 -0.2512
18920THY    CM156589   4.472   7.373   3.003  1.0881 -0.4064  0.2722
18920THY    HM156590   4.375   7.325   3.018  1.2202  1.9678  0.6274
18920THY    HM256591   4.548   7.296   3.022 -1.2080  0.8064 -1.8578
18920THY    HM356592   4.480   7.412   2.901 -1.7218 -0.2765  1.3966
18920THY    CA656593   4.635   7.514   3.128 -0.3932 -0.2471  0.5536
18920THY    HA656594   4.715   7.486   3.060 -0.9225 -0.5939 -0.1391
18921THY      O56595   0.971   4.649   4.227 -0.7939  0.7824  0.5635
18921THY     HO56596   0.976   4.731   4.279 -0.4653  0.0382  1.0349
18921THY    CA156597   0.931   4.551   4.302 -0.0607  0.4553 -0.0317
18921THY    CA256598   0.952   4.410   4.270 -0.2795  1.2656  0.2794
18921THY    CP156599   1.025   4.364   4.141  0.2082 -0.7945 -0.5657
18921THY    HP156600   1.049   4.441   4.067  0.6341 -0.1999 -0.1167
18921THY    CP256601   0.955   4.268   4.065  0.0401 -0.2173  0.3106
18921THY    HP256602   0.993   4.250   3.963  0.5461 -0.0715  0.5359
18921THY    HP356603   0.853   4.306   4.052  0.2322  0.8226  1.2307
18921THY    HP456604   0.934   4.172   4.112  1.4714  1.4251  0.7584
18921THY    CP356605   1.164   4.327   4.183  0.5379  0.0814 -0.2528
18921THY    HP556606   1.164   4.238   4.247  1.1103  0.6849  0.1615
18921THY    HP656607   1.219   4.409   4.232 -1.0216  0.3446  0.6868
18921THY    HP756608   1.233   4.310   4.100 -0.7613 -1.2210  0.6501
18921THY    CA356609   0.915   4.312   4.363  0.2649 -0.4060 -0.2462
18921THY    HA356610   0.916   4.205   4.349 -0.0621  0.9183 -0.4339
18921THY    CA456611   0.848   4.358   4.476  0.3305 -0.4166 -0.2886
18921THY    HA456612   0.793   4.286   4.535 -2.2617 -0.8360  1.2090
18921THY    CA556613   0.834   4.496   4.507  0.1234 -0.3812  0.1154
18921THY    CM156614   0.748   4.530   4.625  0.1102  0.2603 -0.1846
18921THY    HM156615   0.725   4.441   4.685  0.0630 -0.1372 -0.4426
18921THY    HM256616   0.652   4.575   4.596  0.3249 -0.8206 -0.4051
18921THY    HM356617   0.809   4.598   4.685 -1.9823  1.1195  1.0405
18921THY    CA656618   0.875   4.592   4.416  0.1292 -0.1682 -0.2668
18921THY    HA656619   0.853   4.697   4.428  3.2514 -1.1455  0.6041
18922THY      O56620   2.362   4.155   6.226  0.4426  0.0169 -0.0988
18922THY     HO56621   2.420   4.230   6.247 -0.7134  1.0406  0.5463
18922THY    CA156622   2.417   4.046   6.279 -0.2935 -0.2071 -0.2491
18922THY    CA256623   2.385   3.918   6.234  0.2327 -0.9769  0.3984
18922THY    CP156624   2.286   3.906   6.120  0.2475 -0.0933  0.3925
18922THY    HP156625   2.285   3.994   6.055  2.4839  0.2614  0.7284
18922THY    CP256626   2.143   3.888   6.181  0.4705 -0.0817  0.3449
18922THY    HP256627   2.066   3.884   6.103  0.7083 -0.3564  0.9534
18922THY    HP356628   2.122   3.966   6.256  0.8428 -0.7585  1.1075
18922THY    HP456629   2.142   3.793   6.236  0.5101  0.8251  0.8530
18922THY    CP356630   2.305   3.781   6.024 -0.4959 -0.7553  0.3133
18922THY    HP556631   2.273   3.821   5.927  0.0192 -0.2978  1.9020
18922THY    HP656632   2.264   3.684   6.052  1.3431 -1.5849 -0.7596
18922THY    HP756633   2.413   3.766   6.018 -0.2998 -0.0862  1.3335
18922THY    CA356634   2.433   3.807   6.303 -0.2060 -0.0012  0.2891
18922THY    HA356635   2.407   3.707   6.271  0.1495  2.5998 -0.7301
18922THY    CA456636   2.519   3.832   6.417 -0.3431 -0.5595 -0.1153
18922THY    HA456637   2.562   3.748   6.470  0.8005  1.1482  1.4583
18922THY    CA556638   2.554   3.964   6.448  0.0913  0.5072  0.5402
18922THY    CM156639   2.642   3.989   6.567  0.1062  0.5301  0.0781
18922THY    HM156640   2.591   4.001   6.663 -0.6175 -0.0784  2.4169
18922THY    HM256641   2.706   4.078   6.558  2.1859  1.4803 -1.2251
18922THY    HM356642   2.714   3.908   6.584 -0.2903  4.1719  0.3381
18922THY    CA656643   2.507   4.069   6.378 -0.7707 -0.8188  0.3273
18922THY    HA656644   2.535   4.167   6.416  1.4334  0.9105 -0.8837
18923THY      O56645   4.320   2.115   2.776  0.3207 -0.3867 -0.1412
18923THY     HO56646   4.234   2.142   2.741  0.3894 -0.8551 -0.5185
18923THY    CA156647   4.334   2.174   2.898  0.4207  0.5067  0.5063
18923THY    CA256648   4.391   2.106   3.006  0.2542 -0.1049  0.1825
18923THY    CP156649   4.425   1.962   2.983 -0.6201 -0.0423  0.7797
18923THY    HP156650   4.356   1.921   2.908  0.9294 -1.9029  1.4546
18923THY    CP256651   4.418   1.866   3.102 -0.5113 -0.1475  0.4446
18923THY    HP256652   4.319   1.852   3.146 -0.4692 -0.9753 -3.8599
18923THY    HP356653   4.478   1.905   3.185 -0.0339  1.0793 -2.6181
18923THY    HP456654   4.455   1.766   3.075  0.5521 -1.3929  1.1442
18923THY    CP356655   4.562   1.926   2.924 -0.2394  0.2631  0.2180
18923THY    HP556656   4.568   1.818   2.903 -2.2645  0.1652  0.0748
18923THY    HP656657   4.641   1.962   2.990 -0.3437 -0.6314  2.2158
18923THY    HP756658   4.575   1.976   2.827  1.1409  1.6964  2.8475
18923THY    CA356659   4.431   2.177   3.119  0.3660 -0.3387  0.0243
18923THY    HA356660   4.485   2.132   3.202  0.6604  0.1435  1.2211
18923THY    CA456661   4.387   2.314   3.128 -0.0215 -0.2912 -0.3376
18923THY    HA456662   4.405   2.379   3.213 -0.6580 -0.9321  0.6969
18923THY    CA556663   4.317   2.376   3.021 -0.3394 -0.0906 -0.2077
18923THY    CM156664   4.285   2.524   3.025  0.2627 -0.6965  0.4333
18923THY    HM156665   4.316   2.580   2.936  1.6749 -1.2322 -1.1013
18923THY    HM256666   4.347   2.569   3.103  3.3408 -2.3877 -0.5711
18923THY    HM356667   4.181   2.542   3.053  0.4717  0.4862 -0.1045
18923THY    CA656668   4.292   2.306   2.906 -0.2863  0.7337  0.6024
18923THY    HA656669   4.247   2.341   2.814 -0.7466  0.0128 -1.7104
18924THY      O56670   2.743   1.289   6.952  0.6348  0.5222  0.1268
18924THY     HO56671   2.741   1.302   7.048  0.7507  0.3820  1.3202
18924THY    CA156672   2.815   1.187   6.924  0.1326  0.2016  0.4907
18924THY    CA256673   2.856   1.163   6.793 -0.1162 -0.7649 -0.0052
18924THY    CP156674   2.824   1.264   6.683  0.3970 -0.2508 -0.2384
18924THY    HP156675   2.753   1.344   6.709  0.5862 -0.4584 -0.0019
18924THY    CP256676   2.753   1.200   6.562  0.3034 -0.2487  0.3950
18924THY    HP256677   2.816   1.119   6.523  1.7595  0.3466  1.1964
18924THY    HP356678   2.735   1.259   6.472 -0.5507 -1.5045 -1.6628
18924THY    HP456679   2.654   1.165   6.594  0.5655 -0.3730 -0.4767
18924THY    CP356680   2.942   1.343   6.626 -0.0602  0.3651 -0.0361
18924THY    HP556681   2.904   1.405   6.543 -1.1469 -0.9903 -2.3470
18924THY    HP656682   3.017   1.280   6.577  0.9145  2.0163 -0.1946
18924THY    HP756683   2.990   1.405   6.702  2.7855 -2.5102  1.5921
18924THY    CA356684   2.954   1.061   6.770 -0.5082 -0.4631  0.0503
18924THY    HA356685   2.990   1.041   6.670  1.1061  0.0723  0.0886
18924THY    CA456686   2.991   0.973   6.875 -0.0093 -0.5936  0.2283
18924THY    HA456687   3.060   0.890   6.863 -0.1358  0.8734 -0.1262
18924THY    CA556688   2.932   0.984   6.999  0.2709  0.1711 -0.1939
18924THY    CM156689   2.970   0.888   7.103  0.5952 -0.3175  0.2435
18924THY    HM156690   2.929   0.787   7.094 -0.1818 -2.3347  0.6843
18924THY    HM256691   2.946   0.924   7.204  0.6742  0.3296 -1.4324
18924THY    HM356692   3.078   0.869   7.101  1.0896  2.1294  2.2639
18924THY    CA656693   2.851   1.097   7.025  0.2747 -0.3463  0.0891
18924THY    HA656694   2.821   1.108   7.129  1.2503 -0.1083  0.6244
18925THY      O56695   0.948   2.642   7.549  0.0193 -0.3553 -0.1706
18925THY     HO56696   1.025   2.690   7.584 -0.3548  1.5836 -0.8987
18925THY    CA156697   0.855   2.737   7.534 -0.3365 -0.0531 -0.1326
18925THY    CA256698   0.734   2.714   7.472  0.0021  0.7176  0.1174
18925THY    CP156699   0.711   2.565   7.430  0.7405  0.4853 -0.5542
18925THY    HP156700   0.811   2.519   7.423  1.7831 -0.3793  1.7217
18925THY    CP256701   0.638   2.552   7.298  0.1512 -0.3394  0.1156
18925THY    HP256702   0.538   2.595   7.309  0.7550 -0.9451  1.7733
18925THY    HP356703   0.623   2.447   7.271 -0.7362  1.8728 -0.3759
18925THY    HP456704   0.671   2.605   7.207 -1.1212 -0.2390  1.1341
18925THY    CP356705   0.622   2.493   7.538  0.5324  0.0704  0.1363
18925THY    HP556706   0.606   2.386   7.519 -1.2393  0.7271  0.2535
18925THY    HP656707   0.522   2.538   7.532  0.4167  1.4880  0.1233
18925THY    HP756708   0.655   2.514   7.640 -0.0073  0.3097 -0.1437
18925THY    CA356709   0.639   2.809   7.452 -0.1286  0.1696  0.7319
18925THY    HA356710   0.547   2.785   7.399  0.3385 -0.3923  0.1340
18925THY    CA456711   0.666   2.934   7.510 -0.4943 -0.2229 -0.0194
18925THY    HA456712   0.585   3.007   7.504 -2.5458  0.7022 -2.0918
18925THY    CA556713   0.786   2.964   7.568 -0.9363 -0.2504  0.2250
18925THY    CM156714   0.818   3.100   7.615  0.0690  0.3124 -0.3159
18925THY    HM156715   0.901   3.145   7.560 -0.4611  0.3158  0.7043
18925THY    HM256716   0.851   3.092   7.719  2.1426 -0.4315 -2.4090
18925THY    HM356717   0.728   3.164   7.607 -0.4666 -1.5183 -1.2345
18925THY    CA656718   0.885   2.860   7.582  0.0578 -0.2453 -0.1141
18925THY    HA656719   0.983   2.883   7.623 -0.2837  0.8802 -0.5724
18926THY      O56720   7.299   3.937   5.910 -0.3195  0.7203 -0.4635
18926THY     HO56721   7.337   3.856   5.948 -1.8283  0.0326 -1.5412
18926THY    CA156722   7.291   4.027   6.013 -0.5618  0.4264  0.2615
18926THY    CA256723   7.282   4.165   5.982  0.0432  0.0328  0.0820
18926THY    CP156724   7.322   4.218   5.839  0.1889 -0.6453  0.1353
18926THY    HP156725   7.340   4.143   5.762 -2.0138  0.4540 -1.6711
18926THY    CP256726   7.455   4.303   5.855  0.0837  0.2922  0.5075
18926THY    HP256727   7.429   4.390   5.916  2.6305 -0.4235  1.8910
18926THY    HP356728   7.481   4.349   5.759  0.4841  0.7736  1.3009
18926THY    HP456729   7.529   4.237   5.902  0.7254 -0.3867  0.7196
18926THY    CP356730   7.214   4.298   5.768  0.2495  0.2022 -0.2672
18926THY    HP556731   7.148   4.226   5.718 -0.0196 -0.7373  0.6127
18926THY    HP656732   7.248   4.371   5.694 -0.6447  0.6240  0.6025
18926THY    HP756733   7.158   4.363   5.836  0.2827 -0.2007  0.1909
18926THY    CA356734   7.269   4.256   6.087 -0.6947 -0.4133 -0.2871
18926THY    HA356735   7.261   4.362   6.069 -1.1939 -0.8322 -0.3927
18926THY    CA456736   7.255   4.211   6.223 -0.4434  0.1545 -0.0760
18926THY    HA456737   7.235   4.276   6.308  2.0276  0.5912  0.2040
18926THY    CA556738   7.268   4.075   6.249  0.3520 -0.1789  0.0679
18926THY    CM156739   7.277   4.029   6.394  0.7525 -0.1678 -0.3765
18926THY    HM156740   7.369   4.055   6.447  1.6392 -1.2651 -1.1501
18926THY    HM256741   7.285   3.920   6.382 -0.6906 -0.4181 -0.4778
18926THY    HM356742   7.187   4.037   6.455  1.1548  0.4188 -0.2701
18926THY    CA656743   7.285   3.984   6.145  0.6134 -0.4361 -0.2610
18926THY    HA656744   7.291   3.879   6.171  2.0416  0.2494 -0.0414
18927THY      O56745   4.073   0.764   2.369 -0.3056  0.3176  0.1804
18927THY     HO56746   4.125   0.817   2.432  1.7686 -0.3643 -0.9637
18927THY    CA156747   4.083   0.630   2.402  0.2356  0.0581 -0.2925
18927THY    CA256748   4.067   0.528   2.309  0.4107 -0.6256 -0.1380
18927THY    CP156749   4.077   0.566   2.159  0.4463  0.4140 -0.0621
18927THY    HP156750   4.055   0.672   2.147 -2.6301  1.4843 -0.4811
18927THY    CP256751   3.964   0.499   2.080  0.6308 -0.2915 -0.4471
18927THY    HP256752   3.967   0.528   1.974 -0.4260 -0.2118  0.0040
18927THY    HP356753   3.869   0.526   2.126 -0.1634 -3.8783  4.3271
18927THY    HP456754   3.984   0.392   2.093  0.9324 -0.0492 -0.3629
18927THY    CP356755   4.204   0.522   2.086  0.6386  0.0973  0.0922
18927THY    HP556756   4.210   0.548   1.980  1.1299  0.1408  0.1711
18927THY    HP656757   4.202   0.413   2.098  0.7428 -1.1704 -0.0652
18927THY    HP756758   4.291   0.558   2.142  0.0263  0.0294  1.7590
18927THY    CA356759   4.091   0.398   2.354 -0.4170  0.4632 -0.4906
18927THY    HA356760   4.097   0.316   2.283  0.0349  0.6751 -0.6480
18927THY    CA456761   4.094   0.370   2.491 -0.0144 -0.2495  0.1424
18927THY    HA456762   4.084   0.268   2.527  1.2239 -1.4102 -0.4168
18927THY    CA556763   4.101   0.477   2.581  0.1494 -0.5928  0.1555
18927THY    CM156764   4.116   0.456   2.730  0.5241 -0.3067  0.2103
18927THY    HM156765   4.159   0.357   2.751  1.2120 -0.2289  0.5138
18927THY    HM256766   4.023   0.479   2.782  0.2019 -0.0807 -1.5132
18927THY    HM356767   4.196   0.517   2.773 -0.7603  3.4867 -0.5039
18927THY    CA656768   4.099   0.608   2.534  0.3920  0.0520 -0.2988
18927THY    HA656769   4.095   0.692   2.602  0.5296  0.4960 -0.6454
18928THY      O56770   7.160   4.909   2.230  0.1832 -0.2075  0.2076
18928THY     HO56771   7.223   4.983   2.241 -0.5573  0.9090  0.6928
18928THY    CA156772   7.196   4.809   2.316 -0.4350  0.0804  0.4141
18928THY    CA256773   7.115   4.696   2.339  0.5196  0.1930 -0.7893
18928THY    CP156774   6.987   4.680   2.258  0.3559  1.2260 -0.5416
18928THY    HP156775   6.963   4.778   2.213 -1.7272  0.6824 -1.2553
18928THY    CP256776   6.868   4.631   2.334  0.5542  0.1938  0.2669
18928THY    HP256777   6.852   4.693   2.423 -0.1612 -0.4323  1.0040
18928THY    HP356778   6.881   4.527   2.366  0.3171  0.0318  0.1860
18928THY    HP456779   6.773   4.630   2.280 -0.0921  1.2856 -0.8638
18928THY    CP356780   7.016   4.600   2.124 -0.4695 -0.3989  0.1115
18928THY    HP556781   7.109   4.633   2.077 -1.4047 -2.8912 -0.6096
18928THY    HP656782   6.930   4.600   2.056  0.2042 -1.2665  0.2046
18928THY    HP756783   7.035   4.496   2.151  1.0898 -0.1375  0.4474
18928THY    CA356784   7.150   4.607   2.444 -0.2827 -0.1389 -0.5263
18928THY    HA356785   7.079   4.533   2.482 -2.3467  2.1067  2.3854
18928THY    CA456786   7.271   4.625   2.515 -0.4820  0.1385  0.0460
18928THY    HA456787   7.303   4.554   2.591 -3.2386  0.9170 -0.4870
18928THY    CA556788   7.349   4.741   2.484  0.2089  0.2492  0.4728
18928THY    CM156789   7.484   4.753   2.545 -0.2805  0.3357 -0.1294
18928THY    HM156790   7.486   4.731   2.652  4.5230  0.0458 -2.5120
18928THY    HM256791   7.516   4.858   2.536 -2.5847  1.6069  0.7511
18928THY    HM356792   7.556   4.687   2.495  0.0365  1.1603 -0.4155
18928THY    CA656793   7.315   4.835   2.387  0.0037  0.3930  0.1005
18928THY    HA656794   7.368   4.928   2.369 -2.3824 -2.5574  1.0535
18929THY      O56795   3.343   4.078   3.789  0.1429 -0.3960 -0.3638
18929THY     HO56796   3.314   4.153   3.844 -0.1264 -1.4137  0.3093
18929THY    CA156797   3.321   4.121   3.664 -0.3046 -0.6995 -0.2333
18929THY    CA256798   3.351   4.048   3.550 -0.0732 -0.1725  0.2433
18929THY    CP156799   3.426   3.912   3.556  0.4987 -0.2951  0.1831
18929THY    HP156800   3.464   3.906   3.658 -0.5768  0.3047  2.3347
18929THY    CP256801   3.549   3.908   3.470 -0.1384  1.0344 -0.3681
18929THY    HP256802   3.605   3.816   3.493 -0.1546  1.1153 -0.3576
18929THY    HP356803   3.612   3.995   3.489 -0.5613  0.7777 -0.0013
18929THY    HP456804   3.520   3.915   3.364 -1.3584  1.4139  0.6138
18929THY    CP356805   3.333   3.793   3.535  0.5514  0.6987  0.7136
18929THY    HP556806   3.253   3.803   3.610 -1.8836 -1.4821 -0.8270
18929THY    HP656807   3.390   3.702   3.553 -0.9159  0.8437 -0.2163
18929THY    HP756808   3.289   3.786   3.435 -0.1966  1.1241 -1.2668
18929THY    CA356809   3.311   4.095   3.426  0.3712 -0.5009 -0.5119
18929THY    HA356810   3.321   4.037   3.335  2.1513 -1.5425  1.3399
18929THY    CA456811   3.228   4.201   3.420 -0.1129  0.6984  0.0185
18929THY    HA456812   3.186   4.227   3.324  1.3606  0.2234  0.7328
18929THY    CA556813   3.183   4.269   3.533  0.0245 -0.3054 -0.5069
18929THY    CM156814   3.083   4.374   3.525 -0.0906  0.6802  0.4551
18929THY    HM156815   3.131   4.467   3.557 -1.2173  1.2721  0.8547
18929THY    HM256816   3.007   4.346   3.600 -0.0558  0.0577 -1.4170
18929THY    HM356817   3.046   4.392   3.423  1.7911  0.2369  2.1772
18929THY    CA656818   3.235   4.230   3.655 -0.3266  0.5634 -0.1458
18929THY    HA656819   3.195   4.279   3.744  1.1946  1.9974 -1.3923
18930THY      O56820   5.133   3.735   6.982  0.0368  0.0243  0.0492
18930THY     HO56821   5.194   3.794   7.029 -0.0306 -0.3420  0.4177
18930THY    CA156822   5.032   3.819   6.954 -0.2918  0.3593  0.1453
18930THY    CA256823   4.923   3.780   6.873 -0.5049 -0.9041 -0.1415
18930THY    CP156824   4.917   3.628   6.830  0.2146  0.2853  0.2950
18930THY    HP156825   5.012   3.576   6.847  0.1500 -0.3086 -0.0187
18930THY    CP256826   4.884   3.624   6.681  0.1317 -0.1661 -0.4236
18930THY    HP256827   4.957   3.684   6.626 -0.5718 -0.3700  0.2653
18930THY    HP356828   4.790   3.674   6.655  1.5236 -1.2083  1.7913
18930THY    HP456829   4.898   3.521   6.645  0.9927  0.4842 -0.5422
18930THY    CP356830   4.805   3.548   6.908 -0.1687 -0.5829 -0.8544
18930THY    HP556831   4.790   3.445   6.875 -1.3312 -2.0914 -0.2346
18930THY    HP656832   4.710   3.600   6.892 -0.1871 -1.3206 -1.1041
18930THY    HP756833   4.830   3.555   7.015 -3.4047  0.2030  0.3948
18930THY    CA356834   4.817   3.861   6.845 -0.3600 -0.3390  0.9368
18930THY    HA356835   4.727   3.839   6.788 -1.9230  1.9388  0.9482
18930THY    CA456836   4.810   3.993   6.898 -0.0509  0.5554  0.3186
18930THY    HA456837   4.747   4.076   6.867  0.7566 -0.7633  0.4736
18930THY    CA556838   4.918   4.029   6.981 -0.2987 -0.1227 -0.5143
18930THY    CM156839   4.936   4.174   7.012  0.4748 -0.7289 -0.2567
18930THY    HM156840   5.004   4.192   7.096  0.9618 -1.3900  1.1398
18930THY    HM256841   4.847   4.231   7.037  2.4229 -0.1467  2.7484
18930THY    HM356842   4.971   4.234   6.927 -3.1483 -0.0398  3.2679
18930THY    CA656843   5.032   3.947   7.002 -0.4309 -0.5118 -0.1100
18930THY    HA656844   5.108   3.981   7.072 -0.5315  0.9112 -2.5176
18931THY      O56845   2.816   2.051   7.447 -0.2663 -0.0355 -0.1404
18931THY     HO56846   2.901   2.022   7.484  0.1133  0.0488  1.0132
18931THY    CA156847   2.820   2.161   7.366  0.5796 -0.3062  0.3234
18931THY    CA256848   2.711   2.197   7.287  0.5390  0.5864  1.4569
18931THY    CP156849   2.585   2.110   7.293 -0.0795 -0.0224  0.1235
18931THY    HP156850   2.581   2.049   7.383  2.3097 -1.2390 -2.0510
18931THY    CP256851   2.578   2.009   7.179  0.2683  0.1560 -0.0804
18931THY    HP256852   2.641   1.923   7.202 -0.7854  0.2999 -0.8254
18931THY    HP356853   2.614   2.059   7.088 -0.7982  1.0533  2.4594
18931THY    HP456854   2.477   1.971   7.162 -0.5681 -0.4632  2.2325
18931THY    CP356855   2.458   2.200   7.286  0.2154 -0.4143 -0.1963
18931THY    HP556856   2.464   2.272   7.203  0.4684 -0.5632 -0.3861
18931THY    HP656857   2.440   2.257   7.378 -2.5534 -1.1558  0.2578
18931THY    HP756858   2.372   2.133   7.277 -0.6465  2.3041  0.4289
18931THY    CA356859   2.730   2.308   7.202 -0.5111  0.5149  0.2231
18931THY    HA356860   2.658   2.353   7.134  0.5324  0.2369  1.5187
18931THY    CA456861   2.854   2.383   7.207 -1.2365 -0.0384  0.3269
18931THY    HA456862   2.858   2.477   7.151 -0.5331  0.0351  0.3397
18931THY    CA556863   2.955   2.341   7.287  0.0146 -0.3201  1.0003
18931THY    CM156864   3.079   2.417   7.290  0.0965 -0.7083 -0.1749
18931THY    HM156865   3.063   2.510   7.346  0.7373  1.2429 -1.1799
18931THY    HM256866   3.107   2.441   7.187  1.1931 -0.3605  0.1016
18931THY    HM356867   3.170   2.365   7.322  0.1110  0.7798  0.7111
18931THY    CA656868   2.939   2.234   7.374  0.0450  0.3576  0.6057
18931THY    HA656869   3.013   2.198   7.445  2.4299 -2.2064  0.1236
18932THY      O56870   5.541   3.321   6.152 -0.9380  0.0222 -0.3199
18932THY     HO56871   5.514   3.247   6.209 -3.4050 -0.9385 -0.2561
18932THY    CA156872   5.429   3.404   6.148 -0.3658  0.6608  0.2954
18932THY    CA256873   5.391   3.463   6.029  0.1353 -0.2000  0.5267
18932THY    CP156874   5.463   3.425   5.890 -0.4808  0.0347 -0.1510
18932THY    HP156875   5.557   3.372   5.907 -0.7360 -2.0130 -1.4100
18932THY    CP256876   5.500   3.557   5.812 -0.3455  0.3707  0.0917
18932THY    HP256877   5.407   3.590   5.765 -0.0009  0.7096  1.6326
18932THY    HP356878   5.570   3.532   5.732  0.0196  1.3752 -2.3642
18932THY    HP456879   5.548   3.635   5.873 -0.7718 -0.3537  0.9351
18932THY    CP356880   5.368   3.331   5.819  0.6209  0.1286 -0.6212
18932THY    HP556881   5.367   3.242   5.882  0.3002 -1.3553 -1.7041
18932THY    HP656882   5.409   3.292   5.725  1.4515  0.6276 -0.9870
18932THY    HP756883   5.270   3.379   5.812  1.0608 -1.1531  0.1332
18932THY    CA356884   5.279   3.552   6.031  0.8952 -0.4011  0.3253
18932THY    HA356885   5.260   3.609   5.940  0.6864 -1.2751 -1.0672
18932THY    CA456886   5.202   3.566   6.151  0.0080  0.3855  0.1136
18932THY    HA456887   5.109   3.622   6.149  0.2961 -3.4658  0.6832
18932THY    CA556888   5.238   3.493   6.261 -0.8523  0.3466 -0.1332
18932THY    CM156889   5.145   3.500   6.385  0.1798 -1.4730  0.3064
18932THY    HM156890   5.161   3.584   6.453  0.3174  1.5502 -1.9939
18932THY    HM256891   5.162   3.406   6.439  4.3424 -1.1854  1.0435
18932THY    HM356892   5.040   3.481   6.356 -0.4553  1.8992 -2.1194
18932THY    CA656893   5.351   3.419   6.259 -1.1445 -0.1235  0.2165
18932THY    HA656894   5.383   3.371   6.352 -0.3548  0.7432  2.3129
18933THY      O56895   8.508   4.529   5.701  0.5014 -0.0863 -0.6037
18933THY     HO56896   8.483   4.526   5.794 -1.0854 -0.5023 -0.9444
18933THY    CA156897   8.595   4.439   5.664  0.2246  0.5721 -0.7217
18933THY    CA256898   8.643   4.423   5.537  0.8080  0.2480  0.6948
18933THY    CP156899   8.601   4.515   5.418  0.6395 -0.7204  0.2817
18933THY    HP156900   8.536   4.597   5.450  1.1550  2.4269 -0.4244
18933THY    CP256901   8.529   4.440   5.300 -0.2732  0.1096 -0.1892
18933THY    HP256902   8.592   4.369   5.245  1.1310  0.5667  0.6497
18933THY    HP356903   8.496   4.511   5.223  0.8992 -0.2995 -0.0536
18933THY    HP456904   8.446   4.386   5.345  0.4061  1.0037 -0.5119
18933THY    CP356905   8.732   4.574   5.355  0.2660 -0.1846 -0.2594
18933THY    HP556906   8.791   4.630   5.429 -1.3513 -0.1471  1.4859
18933THY    HP656907   8.699   4.640   5.274  0.5251  0.8694  1.2129
18933THY    HP756908   8.783   4.488   5.310 -1.4788 -2.1653 -0.3180
18933THY    CA356909   8.700   4.296   5.506  0.4698 -0.2485 -0.2247
18933THY    HA356910   8.736   4.279   5.405 -1.3846 -1.0593  0.3707
18933THY    CA456911   8.733   4.201   5.604 -0.1244 -0.3013 -0.0855
18933THY    HA456912   8.794   4.113   5.585 -2.0261 -0.7572 -1.3441
18933THY    CA556913   8.694   4.228   5.737  0.3898 -0.5907 -0.0251
18933THY    CM156914   8.735   4.136   5.850 -0.1552  0.2704 -0.1451
18933THY    HM156915   8.662   4.064   5.888 -0.2565 -0.9202 -0.7024
18933THY    HM256916   8.767   4.196   5.936  0.0666 -0.1814  0.4063
18933THY    HM356917   8.821   4.079   5.814  0.2157 -1.6495  1.5132
18933THY    CA656918   8.620   4.344   5.764  0.7572 -0.1996  0.0828
18933THY    HA656919   8.587   4.346   5.867 -1.0735 -0.6019 -3.1834
18934THY      O56920   7.506   1.363   2.255  0.3863 -0.1850  0.0392
18934THY     HO56921   7.412   1.388   2.250  0.0706  1.1234 -0.7483
18934THY    CA156922   7.505   1.251   2.182  0.7149 -0.7280 -0.0426
18934THY    CA256923   7.606   1.224   2.088  0.2065  0.0517  0.0727
18934THY    CP156924   7.724   1.328   2.076  0.0260  0.1078  0.2165
18934THY    HP156925   7.725   1.401   2.158 -0.7592 -0.2608  0.6557
18934THY    CP256926   7.712   1.409   1.936 -0.6671  0.1111 -0.3493
18934THY    HP256927   7.734   1.347   1.848  2.6194 -1.9299  3.2785
18934THY    HP356928   7.779   1.496   1.935 -0.4164 -1.8106 -0.5113
18934THY    HP456929   7.611   1.448   1.925 -0.4102  0.7940  0.5490
18934THY    CP356930   7.869   1.265   2.095 -0.1965  0.4602 -0.3472
18934THY    HP556931   7.881   1.175   2.034  0.1533  0.7002 -0.4622
18934THY    HP656932   7.873   1.229   2.198 -1.7135  0.9866  0.8505
18934THY    HP756933   7.951   1.337   2.086 -0.0848 -1.9702 -0.6784
18934THY    CA356934   7.594   1.107   2.003  1.2859 -0.2784  0.0289
18934THY    HA356935   7.678   1.070   1.945  1.6434  0.6404 -0.6182
18934THY    CA456936   7.474   1.034   2.011  0.4672  0.8867  0.1620
18934THY    HA456937   7.446   0.941   1.962 -0.1446  0.8819  0.3467
18934THY    CA556938   7.377   1.068   2.102 -0.2230  0.1155  0.3663
18934THY    CM156939   7.254   0.987   2.098  0.1845 -0.2946 -0.1273
18934THY    HM156940   7.277   0.880   2.095 -2.2716 -0.5991 -0.7087
18934THY    HM256941   7.203   1.018   2.006  0.1181  0.0700  0.8928
18934THY    HM356942   7.201   1.007   2.192  3.1902  1.9456 -1.8750
18934THY    CA656943   7.388   1.184   2.187  0.3596 -0.2616  0.2798
18934THY    HA656944   7.312   1.215   2.258  0.8778  0.3965  0.0650
18935THY      O56945   7.114   8.242   6.722  0.0875  0.4030  0.4162
18935THY     HO56946   7.124   8.180   6.796  3.3341 -0.0920  0.1560
18935THY    CA156947   6.978   8.280   6.710  0.1029  0.8394  0.2307
18935THY    CA256948   6.929   8.360   6.603  0.0789 -0.1171  0.1566
18935THY    CP156949   7.017   8.391   6.481 -0.6109  0.3850  0.9673
18935THY    HP156950   7.115   8.411   6.525 -0.3636 -0.4370  1.6249
18935THY    CP256951   6.974   8.515   6.409  0.0712 -0.1549 -0.3379
18935THY    HP256952   6.967   8.590   6.489  0.4970 -0.3273 -0.1077
18935THY    HP356953   6.874   8.504   6.365 -0.9472  2.1946 -1.0179
18935THY    HP456954   7.050   8.554   6.340  0.3478  0.7851  0.8262
18935THY    CP356955   7.024   8.261   6.388 -0.1376  0.6497 -0.0471
18935THY    HP556956   7.076   8.187   6.450  0.2516  0.7455  0.3095
18935THY    HP656957   7.086   8.284   6.301  0.2321  0.6610 -0.9416
18935THY    HP756958   6.922   8.226   6.367  0.0826 -0.0893 -0.2649
18935THY    CA356959   6.786   8.385   6.598 -0.9901 -0.5680 -0.0039
18935THY    HA356960   6.736   8.436   6.517  1.2338 -1.8462  0.2812
18935THY    CA456961   6.707   8.339   6.700 -0.4219 -0.5041  0.8519
18935THY    HA456962   6.599   8.347   6.704 -0.4580 -0.6175  0.4657
18935THY    CA556963   6.765   8.260   6.801  0.4896 -0.6804  0.0817
18935THY    CM156964   6.671   8.208   6.908 -0.0249  0.0361  0.6979
18935THY    HM156965   6.681   8.101   6.928 -1.3687  0.6569  0.6651
18935THY    HM256966   6.571   8.229   6.869  1.2788 -2.9394  1.9854
18935THY    HM356967   6.686   8.259   7.004 -0.2464  1.9578 -2.5693
18935THY    CA656968   6.899   8.230   6.804 -0.2349  0.4910 -0.0954
18935THY    HA656969   6.936   8.163   6.881 -3.8759  2.4260 -0.1310
18936THY      O56970   8.277   0.701   6.035  0.3615 -0.2999 -0.1103
18936THY     HO56971   8.251   0.635   5.968  0.8804  0.0238 -0.6515
18936THY    CA156972   8.307   0.632   6.149 -0.5961  0.7631  0.4047
18936THY    CA256973   8.404   0.672   6.237 -0.2273  0.4619 -0.5695
18936THY    CP156974   8.474   0.809   6.211 -0.5281  0.2411  0.2594
18936THY    HP156975   8.414   0.879   6.152  1.2934  2.1837  3.8009
18936THY    CP256976   8.603   0.799   6.121  0.7569  0.1995  0.3763
18936THY    HP256977   8.639   0.901   6.105 -1.4424 -1.1357  1.0228
18936THY    HP356978   8.575   0.760   6.023 -0.3388  0.7618 -0.3076
18936THY    HP456979   8.679   0.737   6.169  0.5210  0.8227  0.5604
18936THY    CP356980   8.508   0.881   6.342 -0.8948 -0.0545  0.5481
18936THY    HP556981   8.602   0.843   6.382 -0.1739 -0.9254  1.3820
18936THY    HP656982   8.431   0.858   6.417  1.2148  1.7201 -1.2777
18936THY    HP756983   8.517   0.990   6.331 -0.9294  0.1070  0.5685
18936THY    CA356984   8.437   0.589   6.347 -0.1224  0.1195 -0.8616
18936THY    HA356985   8.523   0.613   6.409 -0.3633 -0.1441  0.7560
18936THY    CA456986   8.372   0.469   6.361 -0.0762 -0.4183 -0.8098
18936THY    HA456987   8.396   0.409   6.448  1.2120  0.5564  1.0265
18936THY    CA556988   8.268   0.432   6.273 -0.2940 -0.1673 -0.6205
18936THY    CM156989   8.186   0.311   6.292 -0.0049  0.3769 -0.1639
18936THY    HM156990   8.080   0.339   6.306  0.4078  0.2110  1.5710
18936THY    HM256991   8.234   0.246   6.366  1.9079  1.9330  2.8144
18936THY    HM356992   8.185   0.253   6.199 -0.7487 -0.0182  0.4587
18936THY    CA656993   8.249   0.509   6.164 -0.2138 -0.7009  0.1746
18936THY    HA656994   8.165   0.482   6.101 -0.3884  0.0775 -1.1733
18937THY      O56995   1.755   8.074   7.193 -0.0291 -0.3194  0.7043
18937THY     HO56996   1.689   8.145   7.198 -2.0758 -1.7291 -0.9545
18937THY    CA156997   1.807   8.083   7.318 -0.7475  0.3389  0.7160
18937THY    CA256998   1.948   8.071   7.337 -0.3060 -0.7549  0.4311
18937THY    CP156999   2.046   8.005   7.235  0.0973 -0.1252 -0.4030
18937THY    HP157000   1.997   7.966   7.145  0.7674 -0.7884  0.2663
18937THY    CP257001   2.123   7.889   7.294  0.2792 -0.2748  0.4698
18937THY    HP257002   2.167   7.844   7.204 -0.1537 -1.2145  1.8577
18937THY    HP357003   2.053   7.814   7.333  1.4199 -0.0156 -0.4924
18937THY    HP457004   2.203   7.908   7.366 -1.4312  1.7665  0.2545
18937THY    CP357005   2.148   8.114   7.190 -0.1935  1.3868  1.3010
18937THY    HP557006   2.087   8.196   7.149  1.3812  1.5450  2.6191
18937THY    HP657007   2.222   8.080   7.116  0.9363  0.8631  4.5125
18937THY    HP757008   2.211   8.154   7.271  1.0061  1.6343 -0.9774
18937THY    CA357009   1.997   8.117   7.456  0.2309  0.1585 -0.6248
18937THY    HA357010   2.102   8.108   7.480  0.0407  0.8737 -0.9742
18937THY    CA457011   1.910   8.164   7.558 -0.7333  0.4271 -0.3946
18937THY    HA457012   1.955   8.188   7.654  0.8559 -0.6478  1.1744
18937THY    CA557013   1.777   8.186   7.537  0.7395  0.0490  0.4754
18937THY    CM157014   1.676   8.239   7.635 -0.1605  0.1216 -0.7484
18937THY    HM157015   1.707   8.227   7.739  1.1089 -0.0075  1.0637
18937THY    HM257016   1.572   8.212   7.613  0.5353 -1.8296 -2.1423
18937THY    HM357017   1.691   8.345   7.613  0.8995 -0.6863 -1.0480
18937THY    CA657018   1.725   8.147   7.412 -0.6141 -0.4662 -0.4174
18937THY    HA657019   1.621   8.168   7.390 -0.8074  0.6256 -0.1851
18938THY      O57020   5.789   1.096   4.487 -0.2238  0.2187  0.0530
18938THY     HO57021   5.779   1.104   4.391 -0.4759 -0.0905 -2.9343
18938THY    CA157022   5.788   1.223   4.533 -0.1798 -0.1095 -0.8036
18938THY    CA257023   5.729   1.247   4.654 -0.0754 -0.1262 -0.7130
18938THY    CP157024   5.700   1.132   4.743 -0.5560 -0.1439  0.1992
18938THY    HP157025   5.653   1.052   4.684 -4.3266  0.1739  1.9641
18938THY    CP257026   5.592   1.161   4.841  0.4909  0.7922  0.2268
18938THY    HP257027   5.497   1.192   4.795  1.0177 -1.1514 -0.8132
18938THY    HP357028   5.622   1.245   4.905  0.0395  0.5346  0.5892
18938THY    HP457029   5.567   1.076   4.906  0.4495  1.6660  0.8955
18938THY    CP357030   5.822   1.069   4.814 -0.5199 -0.2485  0.0232
18938THY    HP557031   5.801   0.993   4.890  1.1806  0.7962  0.5317
18938THY    HP657032   5.887   1.141   4.866  1.2457 -1.4674 -0.6182
18938THY    HP757033   5.889   1.024   4.741  0.3612  2.1701 -2.8903
18938THY    CA357034   5.713   1.385   4.690  0.3880  0.4795  0.6797
18938THY    HA357035   5.674   1.412   4.788  1.0918  0.9250  0.1191
18938THY    CA457036   5.768   1.486   4.612 -0.0079 -0.1742 -0.3440
18938THY    HA457037   5.739   1.589   4.630 -1.5662 -0.5034 -0.6981
18938THY    CA557038   5.828   1.453   4.490  0.2186  0.1461 -0.0092
18938THY    CM157039   5.865   1.567   4.395  0.3793  0.3375 -0.0906
18938THY    HM157040   5.936   1.637   4.440  0.6609 -0.6491  0.2603
18938THY    HM257041   5.774   1.620   4.364 -1.2884  2.3481 -1.5630
18938THY    HM357042   5.919   1.539   4.304 -0.5296 -0.4361  0.6180
18938THY    CA657043   5.838   1.323   4.454 -0.3794 -0.0034 -0.5743
18938THY    HA657044   5.876   1.304   4.354 -0.6899 -0.8813  2.7201
18939THY      O57045   0.459   2.127   5.959  0.5148 -0.3721 -0.7910
18939THY     HO57046   0.459   2.056   6.027  0.5166  2.8028  2.0116
18939THY    CA157047   0.551   2.210   6.002  0.1884 -0.3720 -0.3466
18939THY    CA257048   0.572   2.340   5.948  0.3602 -0.2363  0.4903
18939THY    CP157049   0.481   2.392   5.832  0.0371 -0.2967 -0.2208
18939THY    HP157050   0.393   2.330   5.818  0.3971  0.0831 -0.8253
18939THY    CP257051   0.552   2.362   5.698  0.0502 -0.2648  0.4418
18939THY    HP257052   0.612   2.272   5.716 -2.2729  2.2898 -0.7139
18939THY    HP357053   0.615   2.443   5.662  1.5557 -0.8908 -0.9423
18939THY    HP457054   0.472   2.351   5.624 -0.1536 -0.0699  0.6150
18939THY    CP357055   0.433   2.538   5.838 -0.3360 -0.5025 -0.0851
18939THY    HP557056   0.365   2.538   5.924  1.0129  0.6164  1.0036
18939THY    HP657057   0.373   2.576   5.755 -0.1835 -0.6067 -0.0695
18939THY    HP757058   0.517   2.608   5.851 -0.3912  1.9897 -0.3850
18939THY    CA357059   0.676   2.422   5.992  0.5340 -0.1331 -0.2795
18939THY    HA357060   0.694   2.522   5.952 -2.6014  2.8806  1.7311
18939THY    CA457061   0.762   2.373   6.101  0.5560  0.0740  0.6008
18939THY    HA457062   0.848   2.432   6.129  0.1993 -1.9042  2.1803
18939THY    CA557063   0.734   2.250   6.155  0.5425  0.0030 -0.2206
18939THY    CM157064   0.813   2.193   6.268  0.3545 -0.5567  0.2729
18939THY    HM157065   0.919   2.179   6.246  0.2890  0.7904 -3.5142
18939THY    HM257066   0.781   2.090   6.288  1.7513 -1.7968 -0.4346
18939THY    HM357067   0.805   2.251   6.361 -2.2664  1.6390 -3.2489
18939THY    CA657068   0.625   2.170   6.109 -0.0802 -0.8741 -0.0303
18939THY    HA657069   0.595   2.086   6.171  0.9000  1.7607  1.4298
18940THY      O57070   4.312   7.119   5.581 -0.1171 -0.2729  0.0198
18940THY     HO57071   4.272   7.207   5.571  3.0168 -1.2839  1.5004
18940THY    CA157072   4.221   7.069   5.679  0.0568 -0.6138  0.0837
18940THY    CA257073   4.277   6.985   5.780  0.1200  0.2644 -0.2234
18940THY    CP157074   4.430   6.949   5.790  0.1783  0.1250  0.5499
18940THY    HP157075   4.478   6.961   5.692 -0.7498 -0.5153 -0.7646
18940THY    CP257076   4.458   6.808   5.831  0.1097 -0.8410  0.3418
18940THY    HP257077   4.551   6.778   5.780  0.4698  0.3827 -0.7051
18940THY    HP357078   4.380   6.737   5.801 -0.0649  1.2506 -0.3943
18940THY    HP457079   4.479   6.785   5.936  0.9069 -0.7537  1.4231
18940THY    CP357080   4.488   7.055   5.878 -0.0490 -0.1368 -0.2823
18940THY    HP557081   4.483   7.147   5.817 -2.1148  0.8209  0.3077
18940THY    HP657082   4.586   7.019   5.908 -1.1599  0.6652 -2.8898
18940THY    HP757083   4.422   7.073   5.963  0.0345  0.2927 -1.9211
18940THY    CA357084   4.189   6.952   5.884  0.0740 -0.0198  0.0710
18940THY    HA357085   4.223   6.897   5.971  1.8938  0.9834  2.5806
18940THY    CA457086   4.052   6.994   5.883 -0.5971  0.0624  0.0120
18940THY    HA457087   3.986   6.954   5.960 -0.8307  0.1337  0.5355
18940THY    CA557088   3.999   7.063   5.773 -0.0848  0.2432 -0.4590
18940THY    CM157089   3.850   7.095   5.769 -0.3041  0.4508  0.2491
18940THY    HM157090   3.817   7.109   5.665 -1.2697  0.5055 -1.3999
18940THY    HM257091   3.825   7.187   5.823 -2.8422  0.9995 -0.6821
18940THY    HM357092   3.805   7.010   5.822  0.4402  0.3164 -0.2464
18940THY    CA657093   4.087   7.111   5.678  0.0922  0.0621 -0.8879
18940THY    HA657094   4.046   7.156   5.587  0.8912  0.8769  1.7065
18941THY      O57095   1.550   1.759   1.911 -0.2747 -0.1438  0.2403
18941THY     HO57096   1.635   1.805   1.910  0.3090 -1.1582 -0.8032
18941THY    CA157097   1.447   1.849   1.943 -0.4648 -0.0264  0.2421
18941THY    CA257098   1.320   1.802   1.965 -0.4633  0.4987  0.5574
18941THY    CP157099   1.286   1.663   1.942 -0.0969  0.2324 -0.1375
18941THY    HP157100   1.371   1.597   1.919  1.0379  1.4146  0.8555
18941THY    CP257101   1.207   1.653   1.810 -0.8050  0.4107 -0.1467
18941THY    HP257102   1.275   1.684   1.729  0.5275  2.6205  3.3026
18941THY    HP357103   1.118   1.715   1.797 -0.7262  0.3459 -0.0445
18941THY    HP457104   1.177   1.548   1.803 -0.3174  1.4688 -0.3676
18941THY    CP357105   1.202   1.597   2.051 -0.0639  0.8162 -0.1139
18941THY    HP557106   1.185   1.491   2.027  1.3503 -0.5927 -0.0482
18941THY    HP657107   1.108   1.653   2.056 -1.2699 -2.8842 -1.5032
18941THY    HP757108   1.251   1.605   2.149 -3.1957  2.4704  0.3602
18941THY    CA357109   1.219   1.900   1.982  0.3405 -0.0523  0.1471
18941THY    HA357110   1.114   1.871   1.986 -0.4622  1.8237  2.9106
18941THY    CA457111   1.248   2.036   1.999 -0.2871 -0.3862 -0.4495
18941THY    HA457112   1.165   2.106   2.000 -2.1009  1.9143 -2.4419
18941THY    CA557113   1.385   2.078   1.988  0.2111  0.6939  0.1827
18941THY    CM157114   1.421   2.222   1.996 -0.8192  0.4197  0.2884
18941THY    HM157115   1.407   2.253   2.100  0.5398  1.5206 -2.4413
18941THY    HM257116   1.378   2.285   1.917 -0.3349 -0.3839 -0.3676
18941THY    HM357117   1.530   2.226   1.988 -0.9613 -1.9564  0.4962
18941THY    CA657118   1.483   1.981   1.958  0.5878 -1.1546 -0.8411
18941THY    HA657119   1.587   2.009   1.950  0.3771 -2.0101 -0.2903
18942THY      O57120   1.055   8.650   7.716 -0.4097  0.1648 -0.0098
18942THY     HO57121   0.981   8.614   7.767  1.6010  3.2798 -0.0742
18942THY    CA157122   1.077   8.576   7.602 -1.4037  0.8223 -0.4092
18942THY    CA257123   1.208   8.561   7.541  0.3711  0.1619  0.0981
18942THY    CP157124   1.329   8.635   7.604  0.1323 -0.1527  0.3967
18942THY    HP157125   1.305   8.727   7.658  2.8088 -0.1259  1.1640
18942THY    CP257126   1.426   8.682   7.494  0.6607 -0.4740  0.4992
18942THY    HP257127   1.476   8.598   7.445  0.5207  0.1952  0.0176
18942THY    HP357128   1.501   8.743   7.545  0.7996  1.7239 -1.3704
18942THY    HP457129   1.377   8.740   7.415 -1.9488  0.2298 -0.5628
18942THY    CP357130   1.398   8.548   7.704  0.7272  0.1877  0.5234
18942THY    HP557131   1.330   8.506   7.779  2.4858  2.9446  2.3287
18942THY    HP657132   1.476   8.608   7.752  1.7694 -1.1346  0.2808
18942THY    HP757133   1.446   8.461   7.657  1.1057  1.2783  0.1284
18942THY    CA357134   1.218   8.471   7.431  0.6267 -0.3746  1.0949
18942THY    HA357135   1.313   8.450   7.383  1.5438  1.5630  0.5952
18942THY    CA457136   1.106   8.414   7.373 -0.0253  0.3806 -0.5094
18942THY    HA457137   1.118   8.360   7.280  0.7953  0.5509 -0.6365
18942THY    CA557138   0.983   8.445   7.429  0.8677  0.6975 -0.1113
18942THY    CM157139   0.854   8.410   7.349 -0.6507  0.2165  0.5161
18942THY    HM157140   0.789   8.498   7.342 -1.7422  0.1118 -0.2772
18942THY    HM257141   0.795   8.335   7.403  1.7308 -0.8450 -2.2900
18942THY    HM357142   0.876   8.360   7.254 -2.6039 -0.3332  0.5820
18942THY    CA657143   0.968   8.523   7.546 -0.2147 -0.4442  0.3278
18942THY    HA657144   0.868   8.545   7.582  0.4756  3.2629 -1.7548
18943THY      O57145   7.529   8.967   5.873  0.1471 -0.2768  0.4976
18943THY     HO57146   7.547   8.893   5.813 -0.5056 -0.2094  0.2762
18943THY    CA157147   7.438   9.051   5.826  0.6732 -0.2666  0.0242
18943THY    CA257148   7.395   9.156   5.911 -0.3869 -0.4161  0.0528
18943THY    CP157149   7.476   9.185   6.043  0.0775 -0.5644  0.0395
18943THY    HP157150   7.581   9.154   6.034  0.0471  2.1167 -1.1273
18943THY    CP257151   7.417   9.114   6.166  0.1191 -0.4714  0.0647
18943THY    HP257152   7.430   9.007   6.146 -1.6348 -1.3052 -0.0158
18943THY    HP357153   7.309   9.130   6.176  0.2707  0.9531  0.3446
18943THY    HP457154   7.464   9.146   6.260 -1.3217  0.5411 -0.6895
18943THY    CP357155   7.475   9.329   6.080  0.1559 -0.4075  0.0800
18943THY    HP557156   7.565   9.354   6.138  1.0620 -2.8023  2.9109
18943THY    HP657157   7.378   9.357   6.122 -0.2185 -0.2994 -1.3291
18943THY    HP757158   7.488   9.393   5.992 -1.4323 -0.6678  0.0786
18943THY    CA357159   7.294   9.234   5.862  1.0531 -0.2003 -0.5875
18943THY    HA357160   7.262   9.319   5.921 -0.4189 -0.9441 -0.5784
18943THY    CA457161   7.223   9.198   5.749  0.6436 -0.1327 -0.4333
18943THY    HA457162   7.134   9.258   5.730 -0.0201  2.7376 -0.3820
18943THY    CA557163   7.265   9.091   5.673  0.4991  0.0803 -0.2870
18943THY    CM157164   7.187   9.064   5.543 -0.0896 -0.1861  0.1731
18943THY    HM157165   7.186   9.157   5.485 -2.2787  0.9008  0.9041
18943THY    HM257166   7.083   9.028   5.553 -0.4317 -1.1308  0.8672
18943THY    HM357167   7.237   8.991   5.478 -0.3355 -0.4296  0.2189
18943THY    CA657168   7.382   9.023   5.702  0.3695 -0.7706  0.9313
18943THY    HA657169   7.415   8.930   5.657  0.3561  3.9817 -1.6793
18944THY      O57170   1.614   1.438   1.868 -0.4407  0.3619  0.4295
18944THY     HO57171   1.571   1.483   1.794  1.4371  0.0314  1.8140
18944THY    CA157172   1.530   1.342   1.911  0.1165 -0.5583 -0.4336
18944THY    CA257173   1.558   1.268   2.024 -0.6090 -1.2704  0.3366
18944THY    CP157174   1.683   1.298   2.109  0.2293  0.4326 -0.4617
18944THY    HP157175   1.726   1.395   2.079  1.3205  0.2565 -0.9914
18944THY    CP257176   1.790   1.190   2.088  1.0806  0.6384 -0.5179
18944THY    HP257177   1.746   1.097   2.123  1.8891  0.4889 -0.9684
18944THY    HP357178   1.883   1.221   2.139 -1.1683  3.0652  2.9881
18944THY    HP457179   1.816   1.183   1.982 -0.4185  0.0838  1.4822
18944THY    CP357180   1.656   1.312   2.254  0.3328  0.4161 -0.3098
18944THY    HP557181   1.639   1.214   2.300  2.0224 -2.0432 -1.8751
18944THY    HP657182   1.566   1.371   2.270  0.4295 -1.2275  0.3200
18944THY    HP757183   1.743   1.360   2.301 -1.8409  3.9141  0.6071
18944THY    CA357184   1.481   1.152   2.044 -0.1912 -0.4674 -0.0820
18944THY    HA357185   1.505   1.093   2.132 -2.4996  1.8409  2.1124
18944THY    CA457186   1.364   1.131   1.966  0.1973  0.1860 -0.2212
18944THY    HA457187   1.305   1.042   1.989  1.7892  0.1673 -1.3289
18944THY    CA557188   1.328   1.220   1.859 -0.7248  0.0501  0.1366
18944THY    CM157189   1.203   1.215   1.780  0.5718 -0.7341 -0.1626
18944THY    HM157190   1.117   1.264   1.828 -2.0100 -2.5212 -2.5942
18944THY    HM257191   1.167   1.111   1.770 -1.2300 -1.4341  0.4895
18944THY    HM357192   1.214   1.246   1.675 -2.3947 -0.4871  2.1580
18944THY    CA657193   1.426   1.318   1.831  0.4306  0.6498  0.6951
18944THY    HA657194   1.397   1.383   1.749  0.0558 -0.4637 -0.8375
18945THY      O57195   3.099   1.909   4.727 -0.0385 -0.1437  0.6230
18945THY     HO57196   3.143   1.826   4.705 -0.2222 -2.3527  1.0673
18945THY    CA157197   3.142   1.952   4.849  0.0274  0.7177 -0.2919
18945THY    CA257198   3.195   2.079   4.859  0.2052  0.1043  0.5328
18945THY    CP157199   3.212   2.165   4.739 -0.0458 -0.3117 -0.2540
18945THY    HP157200   3.235   2.099   4.654 -0.2934  0.1385 -0.9233
18945THY    CP257201   3.325   2.270   4.744 -0.0163  0.3754  0.9512
18945THY    HP257202   3.339   2.287   4.637 -1.0334 -0.3588 -2.1167
18945THY    HP357203   3.412   2.222   4.791 -1.0812  1.2234 -0.2387
18945THY    HP457204   3.300   2.362   4.799  0.1466  2.3140 -0.1042
18945THY    CP357205   3.090   2.243   4.704 -0.3626 -0.8982  0.3146
18945THY    HP557206   3.109   2.307   4.617  2.7248  0.8794  2.0637
18945THY    HP657207   3.071   2.313   4.786 -0.7663 -0.2610 -0.5264
18945THY    HP757208   3.001   2.179   4.702 -0.5024  1.2124  0.3968
18945THY    CA357209   3.205   2.128   4.993 -0.2954 -0.9349 -0.2682
18945THY    HA357210   3.231   2.231   5.014 -0.4693 -0.9374 -0.2224
18945THY    CA457211   3.185   2.044   5.102  0.5643  0.2713 -0.0982
18945THY    HA457212   3.186   2.076   5.206 -1.7531  1.1236 -2.4687
18945THY    CA557213   3.147   1.911   5.079  0.5802 -0.6065  0.6787
18945THY    CM157214   3.126   1.815   5.195 -0.6095 -0.4471  1.1040
18945THY    HM157215   3.208   1.820   5.268 -1.1571  0.1004  2.9239
18945THY    HM257216   3.095   1.711   5.177 -2.1572  0.6373  1.3459
18945THY    HM357217   3.047   1.854   5.260 -0.5979 -0.4395  1.1142
18945THY    CA657218   3.127   1.867   4.952 -0.0876  0.6097 -0.6576
18945THY    HA657219   3.091   1.769   4.922  2.0696 -1.7800 -0.8352
18946THY      O57220   8.033   4.861   6.331 -0.0832  0.2843  0.1711
18946THY     HO57221   8.087   4.833   6.255  2.1986  1.2906  1.5532
18946THY    CA157222   8.136   4.871   6.419  0.0366  0.3835 -0.1826
18946THY    CA257223   8.134   4.927   6.553 -0.3641 -0.4544  0.2619
18946THY    CP157224   8.005   4.993   6.605 -0.0219  0.0479  0.2591
18946THY    HP157225   7.940   5.017   6.520 -1.8529  0.9169 -1.3645
18946THY    CP257226   8.033   5.130   6.655  0.4217  0.4491 -0.0258
18946THY    HP257227   7.937   5.167   6.691  0.9130  2.8816 -0.8943
18946THY    HP357228   8.072   5.197   6.577  1.1223  0.8163  0.0105
18946THY    HP457229   8.106   5.132   6.737  1.3852 -0.3637  2.7441
18946THY    CP357230   7.932   4.906   6.713  0.3704 -0.6388  0.1276
18946THY    HP557231   7.848   4.954   6.764 -0.9323 -3.2351  0.8072
18946THY    HP657232   7.995   4.877   6.798 -1.1954  0.7856  0.7318
18946THY    HP757233   7.891   4.813   6.673  0.3953  0.3647 -0.3170
18946THY    CA357234   8.250   4.921   6.628 -0.0158 -0.8736  0.2438
18946THY    HA357235   8.248   4.973   6.723 -2.5887 -0.9817  0.4464
18946THY    CA457236   8.361   4.842   6.586  0.0080 -0.0082 -0.2585
18946THY    HA457237   8.450   4.832   6.648  0.2569 -0.0947  1.1611
18946THY    CA557238   8.365   4.799   6.455 -0.4479  0.4284  0.7574
18946THY    CM157239   8.492   4.723   6.403 -0.6328  0.1182  0.2549
18946THY    HM157240   8.570   4.785   6.449 -1.4883 -0.0455  1.4744
18946THY    HM257241   8.518   4.705   6.298 -0.9761  0.3596 -1.9155
18946THY    HM357242   8.516   4.627   6.450 -0.2998  0.2075  0.3804
18946THY    CA657243   8.252   4.812   6.372  0.4183  0.6152 -1.0130
18946THY    HA657244   8.254   4.763   6.275 -1.7265  0.3339 -0.6690
18947THY      O57245   3.010   0.889   5.688 -0.4981  0.2703  0.5632
18947THY     HO57246   2.942   0.859   5.751  0.0894  1.1349  0.9926
18947THY    CA157247   3.061   1.014   5.727  0.0423  0.1451 -0.1046
18947THY    CA257248   3.171   1.075   5.660  0.1346  0.5735  1.2334
18947THY    CP157249   3.214   0.996   5.530 -0.5078  0.3111 -0.2004
18947THY    HP157250   3.131   0.940   5.484 -0.5552  0.7865 -0.5272
18947THY    CP257251   3.328   0.892   5.567  0.1511 -0.5982  0.4128
18947THY    HP257252   3.416   0.938   5.614  0.0579  0.9332 -0.8876
18947THY    HP357253   3.353   0.821   5.487 -0.7655 -1.1316  0.6669
18947THY    HP457254   3.275   0.826   5.637 -0.8381 -1.2803  0.4656
18947THY    CP357255   3.264   1.101   5.421  0.0721 -0.5732 -0.7844
18947THY    HP557256   3.201   1.191   5.429 -1.1278 -0.7211 -1.5841
18947THY    HP657257   3.248   1.061   5.320 -2.3059 -1.8255  2.8092
18947THY    HP757258   3.368   1.130   5.439 -0.3746 -1.2794  1.4605
18947THY    CA357259   3.233   1.182   5.722 -0.0485  0.0928 -0.4606
18947THY    HA357260   3.319   1.223   5.670 -1.1117 -0.5096  1.0868
18947THY    CA457261   3.184   1.233   5.841  0.0981  0.7700  0.1528
18947THY    HA457262   3.231   1.319   5.887  1.2776  2.2872 -1.2297
18947THY    CA557263   3.067   1.183   5.900 -0.6510  0.1990 -0.0542
18947THY    CM157264   3.018   1.250   6.017 -0.3952  0.0290  0.8023
18947THY    HM157265   3.088   1.230   6.100  0.8509 -1.3320 -0.7460
18947THY    HM257266   2.922   1.205   6.045  0.0393  0.2325 -0.0155
18947THY    HM357267   3.010   1.358   5.999 -2.7331  0.0429  0.6876
18947THY    CA657268   3.005   1.073   5.844 -0.1755  0.0741  0.2472
18947THY    HA657269   2.921   1.030   5.897 -1.1905 -2.3258 -0.8961
18948THY      O57270   9.136   7.575   7.558  0.0338  0.7852  0.2530
18948THY     HO57271   9.219   7.528   7.539 -0.7114 -1.9397 -0.1519
18948THY    CA157272   9.114   7.589   7.692 -0.3547  0.3579  0.0078
18948THY    CA257273   8.991   7.609   7.750 -0.3935 -0.5232  0.3963
18948THY    CP157274   8.863   7.608   7.665  0.0378 -0.2203  0.5224
18948THY    HP157275   8.890   7.587   7.561  1.8139  0.5809 -1.5809
18948THY    CP257276   8.783   7.741   7.665 -0.7967 -1.1245 -0.8710
18948THY    HP257277   8.745   7.770   7.763 -0.8779 -1.6029  0.7485
18948THY    HP357278   8.709   7.741   7.583 -0.1428 -1.7808  1.6222
18948THY    HP457279   8.860   7.817   7.648 -0.1308 -2.1077 -1.7306
18948THY    CP357280   8.766   7.510   7.720  0.5927  0.3216  0.3701
18948THY    HP557281   8.673   7.509   7.661  1.1972 -0.7803 -3.0075
18948THY    HP657282   8.731   7.525   7.823 -1.0153 -0.0728 -0.3994
18948THY    HP757283   8.820   7.415   7.710  1.2218  2.0476  0.5143
18948THY    CA357284   8.984   7.654   7.884 -0.2186 -1.2274 -0.5681
18948THY    HA357285   8.891   7.664   7.940  0.5231  0.1734 -1.2926
18948THY    CA457286   9.103   7.670   7.956  0.1234 -0.6220 -0.2576
18948THY    HA457287   9.106   7.691   8.063 -0.1146 -0.7359  0.3683
18948THY    CA557288   9.224   7.646   7.903 -0.1358  0.0638  0.2639
18948THY    CM157289   9.354   7.668   7.982 -0.2698  0.5894 -0.2073
18948THY    HM157290   9.340   7.658   8.091  1.4247  0.9188  0.7006
18948THY    HM257291   9.378   7.774   7.984  1.0304  2.5995 -0.4804
18948THY    HM357292   9.440   7.609   7.948  0.5400 -1.9383  2.2478
18948THY    CA657293   9.229   7.603   7.769 -0.0717  0.3858  0.6405
18948THY    HA657294   9.329   7.585   7.731  0.3529  2.3596 -1.7734
18949THY      O57295   1.046   5.443   3.444  0.5633  0.7088 -0.1647
18949THY     HO57296   1.143   5.445   3.451  0.6958 -0.3891 -1.4510
18949THY    CA157297   0.995   5.506   3.548  0.1261 -0.0516 -0.3696
18949THY    CA257298   0.868   5.566   3.538  0.3350 -0.3795  0.1196
18949THY    CP157299   0.786   5.567   3.401  0.2387 -0.6035 -0.4799
18949THY    HP157300   0.832   5.491   3.335 -0.6418  0.9473 -2.4501
18949THY    CP257301   0.804   5.707   3.333 -0.7158 -0.2689 -0.5036
18949THY    HP257302   0.717   5.750   3.282  0.4120 -1.2019  0.7858
18949THY    HP357303   0.868   5.692   3.245 -1.3372 -1.2717  2.0799
18949THY    HP457304   0.862   5.773   3.398 -0.9820  0.9427 -1.4235
18949THY    CP357305   0.638   5.529   3.407  0.3552  0.3260  0.3961
18949THY    HP557306   0.630   5.435   3.462  0.8046 -0.0772  0.1185
18949THY    HP657307   0.597   5.519   3.305 -0.5913  0.4404  2.4999
18949THY    HP757308   0.582   5.604   3.463 -1.2369 -1.5651  0.7102
18949THY    CA357309   0.816   5.623   3.657  0.2671 -0.2608 -0.4461
18949THY    HA357310   0.715   5.661   3.656  0.9217 -1.7512  1.3718
18949THY    CA457311   0.882   5.611   3.781  0.2325  0.8048 -0.5469
18949THY    HA457312   0.848   5.664   3.870  0.1798 -0.2728  1.3432
18949THY    CA557313   1.006   5.548   3.787  0.0020 -0.1292 -0.4258
18949THY    CM157314   1.088   5.536   3.918  1.0199 -0.6889  0.1915
18949THY    HM157315   1.195   5.551   3.899  1.5397 -1.6158 -3.6710
18949THY    HM257316   1.075   5.436   3.960 -0.1087 -0.6040  0.3628
18949THY    HM357317   1.062   5.618   3.985 -0.5132 -2.0788  0.8964
18949THY    CA657318   1.064   5.506   3.665 -0.5929 -0.0668 -0.3053
18949THY    HA657319   1.163   5.460   3.670 -0.1307  0.4338  0.7232
18950THY      O57320   8.366   4.976   3.908 -0.1341  0.8262  0.8516
18950THY     HO57321   8.365   5.067   3.941  0.6624  2.3931  0.3340
18950THY    CA157322   8.337   4.996   3.776 -0.4864  0.7711 -0.2550
18950THY    CA257323   8.365   4.902   3.673 -0.0029  0.2164 -0.2657
18950THY    CP157324   8.457   4.776   3.703 -0.2972 -0.2519  0.2710
18950THY    HP157325   8.457   4.740   3.806  4.0636  0.0351  0.5514
18950THY    CP257326   8.603   4.819   3.676  0.4389 -0.2774 -0.0738
18950THY    HP257327   8.641   4.867   3.767 -0.1101  0.5525 -1.1755
18950THY    HP357328   8.607   4.902   3.604  2.2355 -0.1453 -0.0063
18950THY    HP457329   8.666   4.735   3.647  2.0459  1.2956  0.5157
18950THY    CP357330   8.413   4.655   3.618  0.1260 -0.3314  0.0518
18950THY    HP557331   8.306   4.644   3.596  0.4278 -1.9615  0.1269
18950THY    HP657332   8.452   4.556   3.641 -0.3368 -1.7002 -0.4632
18950THY    HP757333   8.448   4.673   3.516  2.0380  0.1950 -0.4725
18950THY    CA357334   8.312   4.932   3.550 -0.0618 -0.3990  0.5545
18950THY    HA357335   8.329   4.858   3.472  0.6991  0.3755 -0.1105
18950THY    CA457336   8.235   5.049   3.527  0.6290 -0.5903  0.5663
18950THY    HA457337   8.197   5.054   3.426  1.7852 -1.1401 -1.0626
18950THY    CA557338   8.206   5.137   3.625 -0.1848  0.0989 -0.0240
18950THY    CM157339   8.119   5.254   3.602 -0.8814 -0.2024 -0.1038
18950THY    HM157340   8.072   5.235   3.504  0.1299 -0.7655  0.2183
18950THY    HM257341   8.178   5.346   3.609 -3.8134  1.2336  1.8501
18950THY    HM357342   8.040   5.256   3.677  0.5244  1.3360 -0.6315
18950THY    CA657343   8.260   5.116   3.753  0.5465  0.3664 -0.5180
18950THY    HA657344   8.227   5.182   3.832 -0.8883  0.9272 -1.8403
18951THY      O57345   9.002   8.316   2.507 -0.1930 -0.1850 -0.7118
18951THY     HO57346   8.950   8.371   2.445 -0.6999 -0.5977 -1.6379
18951THY    CA157347   8.934   8.203   2.546 -0.4430  0.2726 -0.4765
18951THY    CA257348   8.989   8.111   2.639 -0.4236  0.1765 -0.5680
18951THY    CP157349   9.130   8.118   2.682 -0.1926 -0.3220 -0.0472
18951THY    HP157350   9.173   8.212   2.647  2.4348  0.2486 -0.9532
18951THY    CP257351   9.211   8.010   2.614  0.0424 -0.1312  0.8028
18951THY    HP257352   9.202   8.006   2.505 -1.9830 -0.0612  1.9702
18951THY    HP357353   9.181   7.912   2.651 -0.1983  0.3449  1.0510
18951THY    HP457354   9.316   8.033   2.635  0.2350 -0.6910  0.4645
18951THY    CP357355   9.137   8.120   2.840 -0.7691 -0.1004  0.0243
18951THY    HP557356   9.240   8.139   2.872 -0.5346 -0.3249 -0.8161
18951THY    HP657357   9.090   8.030   2.882 -0.4199 -0.6870 -0.4440
18951THY    HP757358   9.072   8.202   2.871  0.2086  1.3561  0.2880
18951THY    CA357359   8.907   8.009   2.684 -0.7830  0.6698  0.4139
18951THY    HA357360   8.936   7.941   2.763 -0.5529 -0.5421 -0.9461
18951THY    CA457361   8.783   7.990   2.629 -0.2851  0.3784 -0.3176
18951THY    HA457362   8.723   7.910   2.672 -0.6790  1.9645  0.8018
18951THY    CA557363   8.732   8.075   2.532  0.0125  0.2890 -0.3543
18951THY    CM157364   8.590   8.061   2.478 -0.4891 -0.2773 -0.7225
18951THY    HM157365   8.531   8.154   2.476 -1.4495 -3.7507 -1.2883
18951THY    HM257366   8.535   7.990   2.541 -0.5447  0.4430 -0.0624
18951THY    HM357367   8.587   8.021   2.377 -0.3380  0.1206 -1.7647
18951THY    CA657368   8.808   8.186   2.496  0.5754 -0.1377 -0.8648
18951THY    HA657369   8.771   8.264   2.430 -0.3289 -0.6123 -1.6751
18952THY      O57370   2.540   7.562   1.737 -0.6271  0.3237 -0.6982
18952THY     HO57371   2.490   7.531   1.659 -1.4030  0.1632  0.8599
18952THY    CA157372   2.587   7.454   1.793 -0.4090 -0.7515  0.2342
18952THY    CA257373   2.532   7.399   1.910 -0.2886 -0.8085  0.3729
18952THY    CP157374   2.404   7.470   1.975 -0.0685  0.9381  0.0510
18952THY    HP157375   2.342   7.495   1.888  0.1058  0.5540 -0.7990
18952THY    CP257376   2.436   7.597   2.048  0.7609  0.3784 -0.6941
18952THY    HP257377   2.484   7.579   2.145  0.4627  0.8893  1.0184
18952THY    HP357378   2.346   7.654   2.074 -0.5481  3.0367 -3.6601
18952THY    HP457379   2.508   7.657   1.992  2.9115  3.0902 -0.5534
18952THY    CP357380   2.318   7.377   2.075 -0.0458 -0.0594  0.0706
18952THY    HP557381   2.276   7.302   2.007  1.9396 -3.2876  1.6511
18952THY    HP657382   2.232   7.433   2.116 -0.4875 -0.8504 -0.0187
18952THY    HP757383   2.373   7.328   2.156  0.3457 -1.3908 -1.7779
18952THY    CA357384   2.589   7.282   1.960  0.0060  0.0675  0.0945
18952THY    HA357385   2.553   7.231   2.049  0.7364  0.7005  0.6622
18952THY    CA457386   2.703   7.229   1.896  0.6014  0.2907  0.9888
18952THY    HA457387   2.742   7.133   1.927 -0.0057 -0.4698  0.4805
18952THY    CA557388   2.761   7.287   1.785 -0.3520 -0.2910 -0.4748
18952THY    CM157389   2.860   7.208   1.705 -0.5465  0.4156 -0.0204
18952THY    HM157390   2.913   7.120   1.742 -0.0703  2.3717  1.0136
18952THY    HM257391   2.933   7.271   1.654 -0.3788 -1.6160 -1.7853
18952THY    HM357392   2.798   7.183   1.619 -0.0298 -0.1427  0.6009
18952THY    CA657393   2.700   7.402   1.729 -0.3673  0.2762 -0.7316
18952THY    HA657394   2.735   7.449   1.638  0.1084  1.8351  2.1384
18953THY      O57395   4.597   5.717   2.784 -0.0606  0.5823 -0.0718
18953THY     HO57396   4.617   5.635   2.832 -0.0858  0.7087 -0.0045
18953THY    CA157397   4.564   5.812   2.876 -0.7838  0.1769 -0.1253
18953THY    CA257398   4.516   5.943   2.845 -0.0387  0.7130  0.3339
18953THY    CP157399   4.505   5.984   2.707 -0.2707  0.1756 -0.6400
18953THY    HP157400   4.502   5.891   2.648 -3.1176 -0.1384 -0.4587
18953THY    CP257401   4.632   6.064   2.675 -0.2776 -0.4129  0.0601
18953THY    HP257402   4.633   6.172   2.692  0.2526  0.0467 -0.0175
18953THY    HP357403   4.653   6.058   2.567 -3.1237 -1.0053 -1.4166
18953THY    HP457404   4.719   6.032   2.733  2.1637 -3.9424 -0.3037
18953THY    CP357405   4.386   6.076   2.671  0.6846 -0.2286 -0.1943
18953THY    HP557406   4.367   6.148   2.752  1.6719 -2.3031  2.5859
18953THY    HP657407   4.301   6.009   2.656  0.1847  0.0375  0.3718
18953THY    HP757408   4.396   6.130   2.577 -0.2416  0.7631  1.8134
18953THY    CA357409   4.490   6.038   2.946  0.0038  0.4586 -0.1250
18953THY    HA357410   4.467   6.142   2.923 -2.2235 -0.5277 -0.7710
18953THY    CA457411   4.506   5.997   3.081 -0.1404 -0.2841  0.2662
18953THY    HA457412   4.493   6.075   3.156  1.1504 -2.2004  2.4751
18953THY    CA557413   4.549   5.864   3.109 -0.2070  0.2503 -0.2753
18953THY    CM157414   4.558   5.808   3.249 -0.3531  0.1982 -0.1433
18953THY    HM157415   4.657   5.766   3.266 -0.1443  0.9418  0.6246
18953THY    HM257416   4.479   5.734   3.269 -0.3061 -0.2656 -0.3234
18953THY    HM357417   4.546   5.891   3.319  0.0032 -0.4277  0.4450
18953THY    CA657418   4.584   5.776   3.008 -0.4639  0.3053 -0.0848
18953THY    HA657419   4.620   5.676   3.032 -1.6665  0.3553 -0.5176
18954THY      O57420   4.600   0.887   7.293  0.2210  0.0760 -0.3846
18954THY     HO57421   4.657   0.899   7.215 -0.4128 -0.7615 -2.3247
18954THY    CA157422   4.548   1.012   7.314  0.3729  0.7442 -0.3899
18954THY    CA257423   4.471   1.040   7.430  0.2650  0.0628  0.2345
18954THY    CP157424   4.477   0.943   7.543  0.4457 -0.2578 -0.3442
18954THY    HP157425   4.485   0.842   7.503  1.1825 -0.1345 -0.3400
18954THY    CP257426   4.347   0.938   7.629  0.7667 -0.7479 -0.1660
18954THY    HP257427   4.348   0.857   7.703 -0.3755 -1.1122 -0.5266
18954THY    HP357428   4.260   0.939   7.562 -0.0289  0.1744  2.9283
18954THY    HP457429   4.338   1.027   7.692  0.7448 -2.1362  0.8512
18954THY    CP357430   4.599   0.956   7.634  0.1036 -0.9473 -0.8080
18954THY    HP557431   4.692   0.958   7.576  0.0724 -0.9720  0.4509
18954THY    HP657432   4.608   0.866   7.697 -0.2543  3.4160  1.9009
18954THY    HP757433   4.585   1.046   7.694  0.1271 -1.9010 -0.1557
18954THY    CA357434   4.410   1.169   7.438  0.0215 -0.2986 -0.3063
18954THY    HA357435   4.341   1.192   7.520  1.4858  0.8406  0.1967
18954THY    CA457436   4.415   1.252   7.324  0.2241  0.3340  0.0405
18954THY    HA457437   4.352   1.341   7.324  0.8516 -2.4234  0.5729
18954THY    CA557438   4.491   1.224   7.211 -0.4556 -0.3960  0.4739
18954THY    CM157439   4.516   1.313   7.087 -0.6373 -0.1831  0.4287
18954THY    HM157440   4.619   1.347   7.071 -0.9814 -1.8716  0.7666
18954THY    HM257441   4.471   1.411   7.102 -0.7890  1.0621  0.1761
18954THY    HM357442   4.490   1.251   7.000  1.7026 -0.0403 -0.9122
18954THY    CA657443   4.558   1.104   7.207  0.6098 -0.1003 -0.5547
18954THY    HA657444   4.619   1.083   7.120  1.8323  0.7435 -0.6553
18955THY      O57445   4.094   3.040   5.192 -0.4742 -0.1717  0.1160
18955THY     HO57446   4.186   3.051   5.164 -0.9333 -1.3133  1.4009
18955THY    CA157447   4.091   3.146   5.271 -0.1823 -0.2663 -0.0992
18955THY    CA257448   3.978   3.195   5.328  0.1444  0.2826 -0.9123
18955THY    CP157449   3.838   3.125   5.306  0.0112 -0.3259 -0.2913
18955THY    HP157450   3.859   3.020   5.281  0.1757  1.5118 -0.7445
18955THY    CP257451   3.762   3.207   5.192 -0.8164 -0.2571  0.6834
18955THY    HP257452   3.815   3.234   5.100  0.7474  0.9764  2.0027
18955THY    HP357453   3.722   3.298   5.237 -0.3272  0.1278  0.7081
18955THY    HP457454   3.675   3.148   5.161 -1.2167  2.4139 -0.2678
18955THY    CP357455   3.764   3.128   5.439 -0.1882  0.0502 -0.7811
18955THY    HP557456   3.676   3.066   5.421 -0.6405 -0.5800  0.0157
18955THY    HP657457   3.716   3.225   5.460 -6.6565 -2.6015 -2.8376
18955THY    HP757458   3.822   3.096   5.526 -3.0501  2.7857  0.9196
18955THY    CA357459   3.985   3.312   5.398  0.1035  0.1644  0.0836
18955THY    HA357460   3.895   3.357   5.438 -0.4437 -0.4111 -0.4891
18955THY    CA457461   4.108   3.374   5.417  0.6994  0.2569  0.1055
18955THY    HA457462   4.099   3.467   5.472 -0.1217 -1.0474  0.8199
18955THY    CA557463   4.229   3.314   5.374 -0.2060 -0.8318  0.4527
18955THY    CM157464   4.360   3.377   5.402 -0.1508  0.0601  0.5845
18955THY    HM157465   4.388   3.396   5.506  0.6033  0.0116 -0.2040
18955THY    HM257466   4.360   3.471   5.344 -0.8951  1.2130  1.3238
18955THY    HM357467   4.441   3.314   5.363 -1.4093  0.4498 -1.3461
18955THY    CA657468   4.217   3.203   5.296 -1.0693  0.3525  0.2201
18955THY    HA657469   4.308   3.161   5.254  0.2012  1.4463  1.7930
18956THY      O57470   4.207   2.535   2.606  0.2920 -0.1448  0.1019
18956THY     HO57471   4.295   2.538   2.564  0.1696 -0.3660  1.2978
18956THY    CA157472   4.149   2.657   2.620 -0.4263  0.4455 -0.6338
18956THY    CA257473   4.026   2.668   2.685  0.0003 -0.3187 -0.6527
18956THY    CP157474   3.955   2.546   2.735  0.2985 -0.0419  1.2798
18956THY    HP157475   4.014   2.456   2.753 -2.8352 -1.7013 -1.3288
18956THY    CP257476   3.861   2.494   2.625  0.0437 -0.5535 -0.4329
18956THY    HP257477   3.828   2.393   2.652 -0.4780  0.9586  0.1135
18956THY    HP357478   3.913   2.500   2.528 -0.7457 -0.8846  2.1088
18956THY    HP457479   3.779   2.567   2.620  0.2736 -1.7940 -0.2363
18956THY    CP357480   3.866   2.569   2.871 -0.3581  0.1496  0.4036
18956THY    HP557481   3.933   2.609   2.948 -0.7092  0.7683 -0.1864
18956THY    HP657482   3.826   2.476   2.913 -0.1411  2.9144  1.4481
18956THY    HP757483   3.782   2.638   2.862  0.8036 -0.4348  1.7972
18956THY    CA357484   3.979   2.804   2.703  0.5096 -0.2657 -0.4613
18956THY    HA357485   3.887   2.824   2.757  1.2915  0.8303  0.2713
18956THY    CA457486   4.052   2.916   2.656  0.1691 -0.6274  0.2161
18956THY    HA457487   4.010   3.014   2.679  1.2747  0.0907  0.5522
18956THY    CA557488   4.177   2.901   2.593  0.0829  0.7872  0.4538
18956THY    CM157489   4.229   3.016   2.512 -0.8063  0.6305 -0.0388
18956THY    HM157490   4.240   2.999   2.404  0.0459  0.9217 -1.4464
18956THY    HM257491   4.327   3.047   2.550  0.6277 -1.1800 -2.0863
18956THY    HM357492   4.162   3.103   2.507  0.3080 -2.3123  0.7955
18956THY    CA657493   4.217   2.769   2.573 -0.6920 -0.4403 -0.6970
18956THY    HA657494   4.309   2.757   2.515 -0.5239 -0.5517  0.9026
18957THY      O57495   1.083   0.740   5.435  0.3630 -0.1461  0.6568
18957THY     HO57496   1.156   0.703   5.487 -0.7097  0.6354 -0.4397
18957THY    CA157497   1.029   0.650   5.355 -0.4064 -0.6077  0.4651
18957THY    CA257498   0.956   0.686   5.238  1.0669  0.4408  0.3042
18957THY    CP157499   0.931   0.832   5.196  0.2032 -0.3919 -0.2772
18957THY    HP157500   0.980   0.901   5.265 -1.0846 -1.2169  1.5323
18957THY    CP257501   0.781   0.861   5.190  0.0032  0.4722  0.7016
18957THY    HP257502   0.757   0.868   5.297  3.9332  1.4817  0.7026
18957THY    HP357503   0.718   0.792   5.132  1.7364 -2.6084  1.5066
18957THY    HP457504   0.757   0.958   5.146 -1.0874 -2.6409 -0.8553
18957THY    CP357505   0.995   0.861   5.061 -0.7401  0.4600 -0.0291
18957THY    HP557506   0.980   0.964   5.025  2.5133 -1.1697 -0.0029
18957THY    HP657507   0.960   0.788   4.988 -0.1454  0.2034 -0.0622
18957THY    HP757508   1.104   0.848   5.067 -0.9757 -0.3159 -2.8031
18957THY    CA357509   0.893   0.582   5.161  0.2615 -0.2200 -0.2384
18957THY    HA357510   0.846   0.606   5.066  2.8695 -1.1926  1.5793
18957THY    CA457511   0.891   0.450   5.206 -0.4167  0.4274 -0.2357
18957THY    HA457512   0.835   0.372   5.155 -3.0782  3.2570 -0.3851
18957THY    CA557513   0.964   0.414   5.317 -0.6513  0.3606 -0.5745
18957THY    CM157514   0.975   0.268   5.349 -0.2986 -0.3018  0.1301
18957THY    HM157515   0.994   0.198   5.267 -0.7786 -1.8607  1.7541
18957THY    HM257516   0.894   0.238   5.417 -1.4437 -0.7942  1.9112
18957THY    HM357517   1.068   0.257   5.405  0.3567 -1.4936 -0.5368
18957THY    CA657518   1.035   0.512   5.389 -0.3236  0.1078 -0.3454
18957THY    HA657519   1.081   0.484   5.483  2.4420 -0.8786  0.5945
18958THY      O57520   2.979   2.357   7.651  0.3224 -0.7196  0.5225
18958THY     HO57521   2.923   2.338   7.573 -0.8139  0.2031  0.0159
18958THY    CA157522   3.000   2.488   7.642  0.5351  0.0690  0.3085
18958THY    CA257523   3.097   2.544   7.719 -0.4062 -0.2931 -0.3946
18958THY    CP157524   3.187   2.463   7.814 -0.2570 -0.1322 -0.4809
18958THY    HP157525   3.147   2.361   7.819 -1.2210 -3.1701 -0.3442
18958THY    CP257526   3.201   2.518   7.957 -0.8192 -0.2052  0.0307
18958THY    HP257527   3.103   2.536   8.004 -0.9155  0.0192 -1.0193
18958THY    HP357528   3.259   2.611   7.962 -3.2992 -1.4801  1.7628
18958THY    HP457529   3.260   2.442   8.010  2.7687 -3.4206  0.2767
18958THY    CP357530   3.328   2.460   7.742 -0.3186  0.1568 -0.1562
18958THY    HP557531   3.373   2.559   7.754  0.4118  0.5482 -0.5270
18958THY    HP657532   3.309   2.450   7.635  2.0222 -0.6402  2.5934
18958THY    HP757533   3.383   2.373   7.778 -1.9969  0.8773 -0.9663
18958THY    CA357534   3.111   2.687   7.714  0.7620  0.0789  0.2141
18958THY    HA357535   3.195   2.731   7.767  0.9356 -0.5289  0.6251
18958THY    CA457536   3.019   2.764   7.628  0.2795  0.1565  0.2103
18958THY    HA457537   3.030   2.871   7.642  2.5189 -0.5492  0.1246
18958THY    CA557538   2.922   2.703   7.554  0.0625  0.0805 -0.2598
18958THY    CM157539   2.832   2.788   7.469 -0.2719 -0.2410  0.6762
18958THY    HM157540   2.777   2.850   7.541 -1.1221 -0.7793  0.5565
18958THY    HM257541   2.754   2.726   7.423  0.4420 -0.7820  0.1682
18958THY    HM357542   2.890   2.837   7.390 -0.1766 -0.3818  0.3330
18958THY    CA657543   2.909   2.566   7.566  0.1040 -0.0784  1.2693
18958THY    HA657544   2.833   2.519   7.504  1.1445 -0.8195  0.5082
18959THY      O57545   2.507   7.387   3.283  0.6778  0.3416  0.0286
18959THY     HO57546   2.547   7.326   3.347 -2.1778  0.6632 -1.6977
18959THY    CA157547   2.607   7.427   3.202  0.4197 -0.1973 -0.1061
18959THY    CA257548   2.581   7.528   3.104 -0.2265 -0.5947 -0.5157
18959THY    CP157549   2.440   7.591   3.098 -0.5649  0.6375  0.3966
18959THY    HP157550   2.366   7.539   3.160 -0.0892  1.5850  0.8228
18959THY    CP257551   2.385   7.606   2.954 -0.0116  0.1981 -0.3270
18959THY    HP257552   2.280   7.636   2.962 -0.2227  3.1517 -1.5281
18959THY    HP357553   2.384   7.524   2.881  0.0651  1.4312 -1.4458
18959THY    HP457554   2.451   7.686   2.916  1.1401  0.5933 -1.0680
18959THY    CP357555   2.442   7.738   3.163 -0.0598 -0.6567 -0.0056
18959THY    HP557556   2.462   7.726   3.270 -0.1134 -0.7158 -0.6560
18959THY    HP657557   2.350   7.796   3.149  0.0828  0.1609  0.4270
18959THY    HP757558   2.528   7.791   3.120  1.8290  1.2394 -1.3535
18959THY    CA357559   2.690   7.567   3.017  0.4855 -0.4432  0.0146
18959THY    HA357560   2.679   7.646   2.943 -0.3581 -0.2753  0.0551
18959THY    CA457561   2.811   7.503   3.021 -0.6293 -0.3242  0.6289
18959THY    HA457562   2.886   7.524   2.945 -0.8926 -0.9546 -0.6588
18959THY    CA557563   2.834   7.397   3.110 -0.0954  0.0423  0.7081
18959THY    CM157564   2.964   7.318   3.115  0.4471  1.2045 -0.0674
18959THY    HM157565   3.052   7.370   3.152  1.1269 -0.6850  0.2217
18959THY    HM257566   2.984   7.289   3.011  0.8565  1.3391 -0.2719
18959THY    HM357567   2.954   7.226   3.174 -0.6268  1.5536  0.2552
18959THY    CA657568   2.731   7.367   3.199 -0.0870  0.0856  0.2127
18959THY    HA657569   2.757   7.291   3.273 -0.1884  1.0296  1.0770
18960THY      O57570   5.826   5.489   2.151  0.1264  0.9252 -0.2133
18960THY     HO57571   5.732   5.485   2.127  0.6183 -1.5671  0.8493
18960THY    CA157572   5.844   5.483   2.281  0.5639  0.4898 -0.2011
18960THY    CA257573   5.968   5.495   2.347 -0.3504 -0.0658 -0.2312
18960THY    CP157574   6.102   5.543   2.272  0.2726 -0.5473  0.2894
18960THY    HP157575   6.096   5.551   2.163 -0.4311 -0.6034 -0.7663
18960THY    CP257576   6.213   5.450   2.304  0.0701 -0.5585 -0.4663
18960THY    HP257577   6.185   5.344   2.303 -2.2942  0.4049  0.1011
18960THY    HP357578   6.268   5.481   2.393 -0.5396 -0.8654  1.6753
18960THY    HP457579   6.287   5.461   2.223  0.6127 -0.0856 -0.5821
18960THY    CP357580   6.133   5.687   2.309 -0.2682  0.4867  0.0868
18960THY    HP557581   6.059   5.752   2.260  2.1960  0.4385  3.1131
18960THY    HP657582   6.228   5.721   2.265  0.0914 -0.0331 -1.5112
18960THY    HP757583   6.127   5.694   2.418 -0.2150  0.4950  0.0057
18960THY    CA357584   5.981   5.474   2.485  0.1414 -0.6629 -0.5708
18960THY    HA357585   6.073   5.497   2.538  0.1809  0.2006 -2.4665
18960THY    CA457586   5.868   5.430   2.553  0.1074 -0.2323  0.0135
18960THY    HA457587   5.877   5.403   2.657  1.5978 -0.1285  0.8103
18960THY    CA557588   5.749   5.394   2.488  0.7138 -0.4218  0.0290
18960THY    CM157589   5.632   5.342   2.559  0.4046  0.7434  0.1757
18960THY    HM157590   5.552   5.323   2.487 -0.2286  1.2799  0.7414
18960THY    HM257591   5.598   5.411   2.637 -2.0540 -1.1317  1.2423
18960THY    HM357592   5.657   5.244   2.603 -2.4312  0.8814 -0.5632
18960THY    CA657593   5.736   5.424   2.351 -0.5026  0.5592 -0.4201
18960THY    HA657594   5.640   5.421   2.300 -0.2959 -0.4510  3.8276
18961THY      O57595   5.947   4.238   7.142  0.0587  0.4565  0.7471
18961THY     HO57596   5.859   4.252   7.102  0.3047 -0.0292  0.9228
18961THY    CA157597   6.015   4.144   7.075 -0.0091  0.2317  0.0087
18961THY    CA257598   6.125   4.074   7.134 -0.7521 -0.0946 -0.6921
18961THY    CP157599   6.190   4.099   7.276 -0.6802  0.1283 -1.2261
18961THY    HP157600   6.156   4.194   7.319  0.8606  2.5867 -1.7010
18961THY    CP257601   6.346   4.110   7.262  0.3303  0.5120  0.6734
18961THY    HP257602   6.392   4.170   7.341 -0.8708  1.5982  0.1878
18961THY    HP357603   6.374   4.161   7.169 -0.6380 -0.4159 -0.4226
18961THY    HP457604   6.396   4.012   7.263  1.4334 -0.2332  1.2037
18961THY    CP357605   6.152   3.989   7.367 -0.0560 -1.3238  0.2926
18961THY    HP557606   6.189   3.893   7.328 -0.0625 -0.5403 -0.0356
18961THY    HP657607   6.043   3.984   7.376 -0.0588 -1.9408 -1.5068
18961THY    HP757608   6.195   4.011   7.465  0.5443 -1.6779  0.7254
18961THY    CA357609   6.197   3.983   7.047  0.4789 -0.1689 -0.3747
18961THY    HA357610   6.288   3.930   7.073  1.7658 -0.6299  1.5282
18961THY    CA457611   6.155   3.964   6.913  0.0978 -0.5402  0.1370
18961THY    HA457612   6.196   3.887   6.849 -0.9255  0.2491 -1.1176
18961THY    CA557613   6.047   4.032   6.869 -0.3737 -0.7953 -0.6398
18961THY    CM157614   5.990   4.026   6.724 -0.5588 -0.0651 -0.3944
18961THY    HM157615   6.003   4.115   6.662 -1.5495  1.9359  1.2066
18961THY    HM257616   5.885   3.996   6.739 -1.0467 -0.4297  1.0576
18961THY    HM357617   6.042   3.941   6.679  1.0056 -0.0007  0.5086
18961THY    CA657618   5.976   4.125   6.950 -0.0118  0.1220  0.2687
18961THY    HA657619   5.900   4.187   6.903  0.1828 -0.4074  0.1181
18962THY      O57620   0.873   5.866   4.817  0.3123  0.2751  0.5476
18962THY     HO57621   0.887   5.961   4.802  1.7291  0.4164  0.3938
18962THY    CA157622   0.990   5.801   4.818  0.3458  0.9309  0.6532
18962THY    CA257623   0.995   5.660   4.803  0.1716 -0.5015  0.3022
18962THY    CP157624   0.865   5.580   4.780  0.0185 -0.5424 -1.1667
18962THY    HP157625   0.782   5.628   4.832  0.4783 -2.6370  2.1776
18962THY    CP257626   0.876   5.436   4.826 -0.1788 -0.5300  0.8292
18962THY    HP257627   0.781   5.383   4.845 -0.0983  2.5320  1.5847
18962THY    HP357628   0.923   5.429   4.924  0.3442 -0.8547 -0.4087
18962THY    HP457629   0.941   5.366   4.772 -0.2626 -0.0216  0.3543
18962THY    CP357630   0.837   5.571   4.627  0.5342 -0.2963  1.1996
18962THY    HP557631   0.732   5.597   4.606  0.4560  1.0243  2.0442
18962THY    HP657632   0.839   5.468   4.591 -0.1497 -0.5946  1.2843
18962THY    HP757633   0.896   5.642   4.568  0.4088 -2.8273 -0.6655
18962THY    CA357634   1.122   5.599   4.800  0.0489 -0.3999  0.5741
18962THY    HA357635   1.140   5.492   4.801  0.4859 -0.7450  0.6430
18962THY    CA457636   1.234   5.679   4.817  0.6170  0.4805 -0.1255
18962THY    HA457637   1.330   5.633   4.839  0.4270  0.6738 -0.4275
18962THY    CA557638   1.231   5.815   4.818 -0.0639 -0.4145 -0.1778
18962THY    CM157639   1.358   5.891   4.841 -0.1545  0.1941  0.2113
18962THY    HM157640   1.339   5.969   4.915  1.5498  0.6861  0.2041
18962THY    HM257641   1.382   5.949   4.751  1.3749  0.5082  0.1135
18962THY    HM357642   1.450   5.837   4.865  0.6055  0.0969  1.4191
18962THY    CA657643   1.108   5.879   4.822  0.3877 -1.1582  0.2940
18962THY    HA657644   1.099   5.986   4.836 -2.3672  0.2052 -0.0372
18963THY      O57645   5.568   5.412   2.024 -0.6345  0.1150 -0.0487
18963THY     HO57646   5.602   5.333   1.979 -0.0638  0.3330  0.0685
18963THY    CA157647   5.443   5.438   1.979  0.2950 -0.0498  0.7921
18963THY    CA257648   5.334   5.478   2.065  0.0577 -0.4413  0.5260
18963THY    CP157649   5.361   5.481   2.217  0.4820 -0.4109 -0.2672
18963THY    HP157650   5.424   5.396   2.243  1.5841 -1.3349  0.2373
18963THY    CP257651   5.229   5.460   2.295 -0.6082 -0.4305  0.0867
18963THY    HP257652   5.243   5.473   2.403  1.2196 -0.3918 -1.6993
18963THY    HP357653   5.195   5.359   2.272 -0.3399  1.5031 -0.4830
18963THY    HP457654   5.150   5.533   2.272 -0.9882 -1.1047 -0.5259
18963THY    CP357655   5.429   5.615   2.269 -0.2088  0.0294  0.4917
18963THY    HP557656   5.485   5.590   2.359  0.7000  0.2865  3.1562
18963THY    HP657657   5.352   5.686   2.301 -0.7154  0.5738 -0.2746
18963THY    HP757658   5.496   5.648   2.189 -0.2912  0.0716  0.7635
18963THY    CA357659   5.202   5.488   2.013  0.6418  0.7737 -0.7320
18963THY    HA357660   5.112   5.515   2.067 -0.2595 -1.0383  0.1009
18963THY    CA457661   5.194   5.475   1.874 -1.2109 -0.0657  0.1770
18963THY    HA457662   5.099   5.487   1.823 -1.4063 -0.1745 -1.5643
18963THY    CA557663   5.301   5.435   1.792  0.3698  0.2630 -0.4422
18963THY    CM157664   5.299   5.433   1.643  0.4964 -0.8713  0.2911
18963THY    HM157665   5.348   5.349   1.591  1.1346 -0.9021  0.6799
18963THY    HM257666   5.332   5.534   1.616  0.6479  0.9524  0.7551
18963THY    HM357667   5.196   5.426   1.604 -1.0043  2.3063  2.4904
18963THY    CA657668   5.426   5.416   1.849 -0.2687 -1.3936  0.0475
18963THY    HA657669   5.515   5.382   1.796 -0.6417 -0.8981 -1.8313
18964THY      O57670   2.052   6.226   4.381 -0.2815  0.1316 -0.1461
18964THY     HO57671   2.144   6.195   4.383 -0.2527  0.0473 -0.0662
18964THY    CA157672   2.043   6.321   4.484  0.2262  0.5826  0.2354
18964THY    CA257673   1.925   6.378   4.505 -1.9244 -0.7050 -0.1007
18964THY    CP157674   1.821   6.360   4.398  0.6335 -0.1952  0.5480
18964THY    HP157675   1.867   6.341   4.300  0.3218 -0.4428  1.0403
18964THY    CP257676   1.722   6.472   4.371  0.7612 -0.2069 -0.1755
18964THY    HP257677   1.640   6.480   4.443 -0.2508 -0.9968 -2.5400
18964THY    HP357678   1.668   6.469   4.276 -1.5553  1.0482 -0.6386
18964THY    HP457679   1.764   6.572   4.381 -1.9734  0.6419  0.9859
18964THY    CP357680   1.745   6.226   4.430  0.2788 -0.2860 -0.4649
18964THY    HP557681   1.717   6.232   4.536  2.2257  0.3010 -0.8631
18964THY    HP657682   1.816   6.142   4.420  0.1459  2.7839 -1.0530
18964THY    HP757683   1.660   6.210   4.363 -0.1610  0.5311 -1.6410
18964THY    CA357684   1.895   6.430   4.641  0.5967  0.5187  0.0098
18964THY    HA357685   1.796   6.461   4.670 -0.3510  0.4181 -2.6946
18964THY    CA457686   2.001   6.439   4.733 -0.1753 -0.4415 -0.0335
18964THY    HA457687   1.986   6.481   4.832 -1.2592 -0.0477 -1.2666
18964THY    CA557688   2.129   6.398   4.694  0.9905 -0.2528  0.0913
18964THY    CM157689   2.236   6.386   4.800 -0.0356  0.5033  0.4309
18964THY    HM157690   2.337   6.382   4.758 -0.0953  0.3981 -0.0389
18964THY    HM257691   2.222   6.291   4.852  0.9317 -0.3668 -0.1979
18964THY    HM357692   2.231   6.473   4.866 -2.3146  1.2336 -0.1624
18964THY    CA657693   2.151   6.338   4.570  0.3456  0.5615  0.4384
18964THY    HA657694   2.252   6.304   4.548  0.7671 -0.7714  2.3691
18965THY      O57695   1.504   0.972   3.790 -0.8912  0.1890  0.1946
18965THY     HO57696   1.533   1.022   3.868 -0.6528  0.7888 -0.8604
18965THY    CA157697   1.375   0.998   3.779 -0.2563  0.6993  0.1220
18965THY    CA257698   1.286   0.933   3.692  0.2765 -0.2483  0.4506
18965THY    CP157699   1.333   0.805   3.611  0.1275 -0.4628  0.2984
18965THY    HP157700   1.442   0.811   3.613  0.2231 -0.7761 -1.0492
18965THY    CP257701   1.267   0.808   3.468 -0.4497  0.5558  0.1966
18965THY    HP257702   1.312   0.739   3.397 -2.7272 -1.4419  0.6166
18965THY    HP357703   1.278   0.903   3.415  0.6158 -1.6489 -1.0940
18965THY    HP457704   1.160   0.787   3.479 -0.4696  0.2049  0.1076
18965THY    CP357705   1.304   0.669   3.685 -0.1266  0.1698  0.0397
18965THY    HP557706   1.357   0.582   3.644 -1.7231 -1.5358 -0.1891
18965THY    HP657707   1.197   0.647   3.677 -0.0845 -0.0715 -0.0832
18965THY    HP757708   1.325   0.669   3.792 -0.5089  0.2588 -1.0495
18965THY    CA357709   1.156   0.976   3.681  0.2856  0.1183 -0.1713
18965THY    HA357710   1.078   0.924   3.626 -1.5925  2.8439 -0.4437
18965THY    CA457711   1.104   1.077   3.762 -0.0140  0.2340 -0.0693
18965THY    HA457712   1.003   1.113   3.750  0.5409 -1.3372  1.1269
18965THY    CA557713   1.195   1.145   3.846 -0.5015 -0.5740  1.0583
18965THY    CM157714   1.149   1.255   3.942 -0.3184  0.2499  0.0532
18965THY    HM157715   1.151   1.353   3.893  1.1454 -0.3781 -0.2643
18965THY    HM257716   1.216   1.261   4.029 -0.4262  0.4749 -1.4377
18965THY    HM357717   1.052   1.235   3.989 -0.7374 -0.7312 -0.3132
18965THY    CA657718   1.327   1.110   3.855 -0.1129  0.0854  0.1406
18965THY    HA657719   1.399   1.168   3.911  0.7260 -2.4973  1.7358
18966THY      O57720   0.657   1.120   2.554  0.7109 -0.0179  0.8257
18966THY     HO57721   0.671   1.085   2.465 -0.4638  0.1803 -0.2010
18966THY    CA157722   0.727   1.045   2.642 -0.6934  0.6451 -0.0393
18966THY    CA257723   0.676   1.018   2.770 -0.0565 -0.0204  0.3494
18966THY    CP157724   0.541   1.081   2.816 -0.4991  0.0690 -0.0853
18966THY    HP157725   0.515   1.164   2.750  2.1061 -0.4071  0.4597
18966THY    CP257726   0.550   1.140   2.963  0.7924 -0.0785  0.2730
18966THY    HP257727   0.623   1.221   2.970 -0.3594 -0.2778  1.3703
18966THY    HP357728   0.554   1.062   3.040  0.4688 -2.3184 -2.1028
18966THY    HP457729   0.455   1.187   2.992  1.3515  0.3519  1.1620
18966THY    CP357730   0.428   0.977   2.808 -0.1155  0.5126  0.0520
18966THY    HP557731   0.421   0.926   2.711 -1.0031  0.4953  0.1925
18966THY    HP657732   0.329   1.018   2.829 -0.6117  0.5616 -1.1381
18966THY    HP757733   0.454   0.907   2.889  1.1192  2.1308  2.2291
18966THY    CA357734   0.743   0.928   2.857  0.5494  0.4293  0.3583
18966THY    HA357735   0.709   0.909   2.958 -0.4236 -0.2588 -1.9384
18966THY    CA457736   0.866   0.878   2.811 -0.1011 -0.2796  0.3915
18966THY    HA457737   0.919   0.794   2.856  0.2491 -1.1140  0.1499
18966THY    CA557738   0.921   0.908   2.685 -0.0323  0.9171 -1.0173
18966THY    CM157739   1.057   0.859   2.645  0.0991  0.1236 -0.0239
18966THY    HM157740   1.071   0.829   2.540 -0.8578  0.4371 -1.7332
18966THY    HM257741   1.098   0.776   2.705 -1.4147  0.8873 -0.2508
18966THY    HM357742   1.126   0.940   2.671  1.7836  0.4775 -1.5122
18966THY    CA657743   0.854   0.996   2.600 -0.0384 -0.1226  0.0867
18966THY    HA657744   0.896   1.032   2.507  1.3774  0.6038  0.3814
18967THY      O57745   5.956   4.549   3.885 -0.1662 -0.5497  1.1103
18967THY     HO57746   5.944   4.632   3.935 -1.6267  0.5523  0.2763
18967THY    CA157747   6.092   4.545   3.870  0.6568  0.8685  0.3589
18967THY    CA257748   6.150   4.459   3.769  0.0103  1.4166 -0.5175
18967THY    CP157749   6.056   4.376   3.676 -0.4809  0.4639  0.0310
18967THY    HP157750   5.974   4.439   3.641 -1.3343  0.3465 -1.1050
18967THY    CP257751   6.009   4.252   3.752 -1.1196  0.1042 -0.0929
18967THY    HP257752   5.936   4.192   3.696  0.5765 -1.5078 -0.7502
18967THY    HP357753   5.973   4.288   3.849 -0.4906 -0.2603  1.6246
18967THY    HP457754   6.085   4.178   3.779 -1.3411  1.7367  0.2476
18967THY    CP357755   6.123   4.334   3.546  0.3104 -0.1764 -0.1520
18967THY    HP557756   6.191   4.249   3.558 -2.2607 -0.2121 -2.3761
18967THY    HP657757   6.177   4.412   3.492  1.3276  1.5088  0.3455
18967THY    HP757758   6.044   4.289   3.484  0.4886  1.5577 -3.1366
18967THY    CA357759   6.288   4.452   3.759  0.2911 -0.6652  0.0802
18967THY    HA357760   6.332   4.397   3.676  3.6293  1.5031 -0.7870
18967THY    CA457761   6.369   4.521   3.850  1.1521  0.0026 -0.3375
18967THY    HA457762   6.477   4.507   3.844  0.9091  0.8294 -3.1924
18967THY    CA557763   6.313   4.609   3.952  0.0254 -0.1598  0.8624
18967THY    CM157764   6.406   4.687   4.047  0.5979  0.1138  0.4266
18967THY    HM157765   6.395   4.650   4.149  2.5544  1.0579  2.2127
18967THY    HM257766   6.369   4.790   4.053 -2.4742 -1.2573 -0.4985
18967THY    HM357767   6.515   4.674   4.042  0.8890  2.7268  1.2373
18967THY    CA657768   6.171   4.617   3.959  0.0348  0.2950 -0.6156
18967THY    HA657769   6.132   4.690   4.029  0.0993 -0.5084  0.2085
18968THY      O57770   2.221   8.336   6.428  0.3179  0.0689 -0.0477
18968THY     HO57771   2.309   8.318   6.465  0.0690  0.2253 -0.9781
18968THY    CA157772   2.191   8.242   6.334  0.3208  0.0077 -0.0779
18968THY    CA257773   2.070   8.229   6.266  0.4628 -0.0233 -0.1809
18968THY    CP157774   1.962   8.337   6.271 -0.0012 -0.4148 -0.2796
18968THY    HP157775   1.984   8.418   6.340 -1.2720  0.0294 -0.2913
18968THY    CP257776   1.830   8.266   6.317 -0.9757  0.9497 -0.3008
18968THY    HP257777   1.754   8.338   6.352  0.4864  1.4479  1.0518
18968THY    HP357778   1.851   8.193   6.396  4.9217  0.1878  0.0709
18968THY    HP457779   1.788   8.223   6.225  0.0085  0.1471  0.4037
18968THY    CP357780   1.944   8.414   6.139 -0.3807 -0.3001  0.5801
18968THY    HP557781   1.858   8.481   6.150 -1.4352  1.2871 -0.9493
18968THY    HP657782   1.922   8.342   6.059 -2.8495  0.9410 -0.1620
18968THY    HP757783   2.040   8.461   6.116 -0.0375 -0.4423 -0.1668
18968THY    CA357784   2.059   8.126   6.166 -0.0962  0.2379  0.7350
18968THY    HA357785   1.977   8.125   6.095 -0.4160  0.5547 -1.8119
18968THY    CA457786   2.152   8.030   6.161 -0.1440 -0.7233  0.2956
18968THY    HA457787   2.165   7.963   6.076  0.8934  0.1636 -0.6627
18968THY    CA557788   2.269   8.032   6.241 -0.3179 -0.3740  1.2409
18968THY    CM157789   2.379   7.931   6.243 -0.4688  0.2961  0.2349
18968THY    HM157790   2.476   7.978   6.264 -0.1029  0.3015 -0.5203
18968THY    HM257791   2.387   7.895   6.140  1.9588  0.2338  0.7862
18968THY    HM357792   2.367   7.851   6.316  0.8727 -1.8741 -2.1157
18968THY    CA657793   2.290   8.149   6.315 -0.3872  0.5810  0.2227
18968THY    HA657794   2.382   8.162   6.370 -0.0673  0.1638 -0.2169
18969THY      O57795   3.162   7.334   6.895 -0.2991 -0.3964  0.1555
18969THY     HO57796   3.066   7.342   6.911 -0.5326 -0.3483 -2.0572
18969THY    CA157797   3.180   7.367   6.764  0.6400 -0.0420  0.4454
18969THY    CA257798   3.307   7.410   6.715 -0.2105  0.3179  0.0121
18969THY    CP157799   3.424   7.407   6.812  0.2631 -0.5798  0.5910
18969THY    HP157800   3.405   7.324   6.881  0.7481 -2.6147 -1.2952
18969THY    CP257801   3.419   7.538   6.892 -0.2691  0.2602 -0.3121
18969THY    HP257802   3.489   7.529   6.976  0.7215 -0.6325 -1.0538
18969THY    HP357803   3.318   7.559   6.928 -0.9496 -1.3708 -0.6637
18969THY    HP457804   3.450   7.613   6.818  1.0214 -0.9759 -1.9997
18969THY    CP357805   3.565   7.393   6.749  0.0063  0.2309 -0.3935
18969THY    HP557806   3.581   7.468   6.670  1.3140  0.6648 -0.2011
18969THY    HP657807   3.577   7.296   6.701 -0.0247  0.1077 -0.3377
18969THY    HP757808   3.637   7.406   6.830  0.2408 -0.2563  1.8234
18969THY    CA357809   3.311   7.458   6.577 -0.6820 -0.6528 -0.1232
18969THY    HA357810   3.399   7.489   6.522 -0.5228 -0.3715 -0.0690
18969THY    CA457811   3.195   7.453   6.503 -0.1544  0.7825  1.0843
18969THY    HA457812   3.212   7.471   6.398  1.1774  0.8406  0.2675
18969THY    CA557813   3.072   7.401   6.552 -0.7558  0.1106  0.7721
18969THY    CM157814   2.952   7.387   6.469  0.0108 -0.2274 -0.1875
18969THY    HM157815   2.892   7.303   6.506 -1.2961 -1.3309  0.2283
18969THY    HM257816   2.980   7.375   6.364  2.4056  0.2433  0.6508
18969THY    HM357817   2.888   7.476   6.463 -0.6591 -0.2850 -0.6697
18969THY    CA657818   3.067   7.363   6.687  0.5414 -0.0386  0.0930
18969THY    HA657819   2.977   7.321   6.731  0.1062 -0.2718  0.7578
18970THY      O57820   9.340   8.407   4.796 -0.2944 -0.6337 -0.0035
18970THY     HO57821   9.429   8.393   4.832 -0.1985 -0.3280  1.2987
18970THY    CA157822   9.238   8.358   4.875 -0.2460  0.7144  0.3934
18970THY    CA257823   9.112   8.325   4.817 -0.6255 -0.2506 -0.0846
18970THY    CP157824   9.085   8.357   4.671 -0.5894  0.2882 -0.2780
18970THY    HP157825   9.104   8.464   4.662 -1.2980  0.7976 -0.1019
18970THY    CP257826   8.936   8.345   4.641 -0.1430  0.5598 -0.0152
18970THY    HP257827   8.878   8.414   4.705  0.9094  1.2022  0.3059
18970THY    HP357828   8.897   8.243   4.648  0.8734  1.5885 -0.3614
18970THY    HP457829   8.920   8.367   4.535 -1.1767  0.7540  0.2445
18970THY    CP357830   9.175   8.276   4.574  0.0230  0.5556  0.5242
18970THY    HP557831   9.128   8.289   4.475  0.5408  0.2228 -0.0668
18970THY    HP657832   9.183   8.171   4.607  1.5503  1.1344  0.7993
18970THY    HP757833   9.274   8.320   4.586 -0.6716 -0.2597  2.4085
18970THY    CA357834   9.011   8.279   4.911 -1.2576  0.4517  0.6652
18970THY    HA357835   8.907   8.260   4.884 -1.4692  1.8181 -0.2497
18970THY    CA457836   9.048   8.256   5.042  0.2456 -0.6281 -0.2800
18970THY    HA457837   8.976   8.226   5.117  2.1316  1.3244 -0.1595
18970THY    CA557838   9.181   8.285   5.088  0.7335 -0.3611  0.5253
18970THY    CM157839   9.221   8.253   5.230 -0.2459  0.0654  0.7876
18970THY    HM157840   9.258   8.150   5.235 -1.4119  1.1538  0.3974
18970THY    HM257841   9.137   8.248   5.300  1.8113  2.6082 -0.6616
18970THY    HM357842   9.297   8.323   5.267 -1.3873  1.9942  1.0804
18970THY    CA657843   9.274   8.321   5.005 -0.1608  0.2705  0.5798
18970THY    HA657844   9.371   8.326   5.054 -0.8579  1.9224 -1.0287
18971THY      O57845   5.656   3.107   6.322 -0.0149  0.1386 -0.3138
18971THY     HO57846   5.731   3.165   6.347 -1.0722 -3.0801  2.8392
18971THY    CA157847   5.715   3.021   6.232  0.1104 -0.0246  0.8620
18971THY    CA257848   5.633   2.946   6.147 -0.3577  0.5481  0.3321
18971THY    CP157849   5.477   2.951   6.152  0.1594 -0.2723  0.3555
18971THY    HP157850   5.442   3.028   6.222  0.6646  0.2913  0.0776
18971THY    CP257851   5.428   2.811   6.190 -0.4333 -0.1902  0.4120
18971THY    HP257852   5.319   2.810   6.200 -0.7099 -2.5399 -0.2247
18971THY    HP357853   5.478   2.775   6.280 -0.3030 -0.6617 -0.6201
18971THY    HP457854   5.457   2.741   6.111 -0.3618  0.0098  0.2178
18971THY    CP357855   5.418   3.004   6.025 -0.1606 -0.9447 -0.2778
18971THY    HP557856   5.316   3.037   6.049  0.9751  1.6861  1.6946
18971THY    HP657857   5.424   2.926   5.949 -0.0828  1.0622 -2.3367
18971THY    HP757858   5.482   3.087   5.995 -0.1176  1.5626  0.6844
18971THY    CA357859   5.700   2.866   6.051 -0.4422 -0.0593  0.4888
18971THY    HA357860   5.651   2.805   5.975 -0.5152 -0.8478  1.4859
18971THY    CA457861   5.841   2.861   6.047 -0.2292 -0.1579 -0.5696
18971THY    HA457862   5.886   2.794   5.975  0.2591 -0.3079 -0.0833
18971THY    CA557863   5.921   2.936   6.132 -0.1607  0.4969  0.3501
18971THY    CM157864   6.076   2.927   6.126 -0.4356  0.3662  0.2221
18971THY    HM157865   6.125   2.914   6.029  2.4976  1.9838 -1.8938
18971THY    HM257866   6.095   2.832   6.177  1.3809  0.5937  0.6762
18971THY    HM357867   6.120   3.011   6.181 -0.4183  1.7075 -0.6257
18971THY    CA657868   5.855   3.013   6.230 -0.4254 -0.1635 -0.6614
18971THY    HA657869   5.920   3.070   6.297 -3.1962  0.7927  1.6400
18972THY      O57870   4.589   5.818   6.882  0.2961 -0.5249 -0.0076
18972THY     HO57871   4.517   5.822   6.948  1.3218  0.6612 -0.7264
18972THY    CA157872   4.605   5.692   6.827  0.3831 -0.3913  1.3763
18972THY    CA257873   4.660   5.578   6.901  0.0249  0.2582 -0.2343
18972THY    CP157874   4.706   5.589   7.047  0.6360 -0.4944  0.1008
18972THY    HP157875   4.673   5.677   7.103 -1.7900  0.4323 -1.3044
18972THY    CP257876   4.856   5.597   7.054  0.5641  0.1297 -0.3473
18972THY    HP257877   4.885   5.589   7.160 -1.3069  0.7025 -0.1017
18972THY    HP357878   4.904   5.682   7.005  1.5924  1.2089 -0.2705
18972THY    HP457879   4.901   5.506   7.012  1.4212  0.4324 -0.0765
18972THY    CP357880   4.645   5.477   7.142 -0.0432 -0.1700  0.2038
18972THY    HP557881   4.689   5.379   7.121 -1.3169 -3.1052  0.1760
18972THY    HP657882   4.540   5.460   7.117  0.4788 -1.7574 -0.9329
18972THY    HP757883   4.655   5.505   7.248 -0.6466 -0.4864  1.7175
18972THY    CA357884   4.671   5.458   6.834 -0.6356 -0.2028  0.3387
18972THY    HA357885   4.717   5.370   6.880 -2.4846  0.7029 -0.2132
18972THY    CA457886   4.605   5.439   6.708 -0.3525 -0.5222  0.2027
18972THY    HA457887   4.597   5.343   6.657  0.9033  0.5933 -0.5286
18972THY    CA557888   4.542   5.545   6.649  0.0805  0.3648 -0.5799
18972THY    CM157889   4.474   5.532   6.514 -0.3696  0.0420 -1.3517
18972THY    HM157890   4.466   5.428   6.478  0.3075 -1.6725 -0.8401
18972THY    HM257891   4.538   5.589   6.445  0.3514  0.6476 -1.4072
18972THY    HM357892   4.372   5.572   6.512 -0.0488 -1.8906 -0.5306
18972THY    CA657893   4.554   5.673   6.701 -0.1015 -0.6774 -0.1988
18972THY    HA657894   4.498   5.756   6.660  0.2730  0.2771  0.5410
18973THY      O57895   9.000   3.474   4.221  0.4022 -0.5431 -0.3972
18973THY     HO57896   8.970   3.490   4.129  0.7219 -0.4343  0.9535
18973THY    CA157897   9.085   3.573   4.242  0.6216 -0.2910 -0.4224
18973THY    CA257898   9.187   3.576   4.344 -0.5364  0.4248  0.6851
18973THY    CP157899   9.217   3.444   4.429  0.3894  0.5448 -0.2816
18973THY    HP157900   9.129   3.379   4.421 -0.6986  2.9121  0.7876
18973THY    CP257901   9.238   3.478   4.569  0.0470  0.0361 -0.6140
18973THY    HP257902   9.157   3.542   4.604  1.2447  0.2310  0.8534
18973THY    HP357903   9.323   3.545   4.590 -1.3783  2.0734  0.6721
18973THY    HP457904   9.244   3.384   4.625  0.3874 -0.3211 -0.8093
18973THY    CP357905   9.338   3.370   4.375 -0.5501  0.5670  0.3197
18973THY    HP557906   9.340   3.271   4.422  1.0568 -1.4345 -0.6812
18973THY    HP657907   9.439   3.410   4.386  0.2803 -0.7888 -1.2770
18973THY    HP757908   9.320   3.336   4.272  1.4501  0.2034  0.2730
18973THY    CA357909   9.280   3.685   4.342 -0.7173 -0.6069 -0.1990
18973THY    HA357910   9.363   3.689   4.412 -2.2357  1.5787 -3.2416
18973THY    CA457911   9.266   3.790   4.247  0.1786 -0.0439  0.1379
18973THY    HA457912   9.338   3.871   4.243  0.6406 -1.3921 -0.3130
18973THY    CA557913   9.165   3.783   4.155  0.4518  0.0063  0.5366
18973THY    CM157914   9.135   3.895   4.062 -0.3148 -0.3715  0.1215
18973THY    HM157915   9.037   3.941   4.081  0.4752 -0.5102  1.9634
18973THY    HM257916   9.139   3.861   3.958 -0.1064 -0.0147 -0.9733
18973THY    HM357917   9.218   3.966   4.075 -0.3884 -2.9309  0.7778
18973THY    CA657918   9.083   3.676   4.148  0.1422 -0.3083 -0.2184
18973THY    HA657919   9.019   3.668   4.061  1.6803 -1.5067  0.0848
18974THY      O57920   3.783   4.407   2.559 -0.3771 -0.4691  0.6836
18974THY     HO57921   3.836   4.327   2.568 -0.1523  0.0500  0.8822
18974THY    CA157922   3.787   4.480   2.672 -0.1044  0.3066 -1.3783
18974THY    CA257923   3.693   4.577   2.704 -0.0062  0.4181 -0.3379
18974THY    CP157924   3.577   4.608   2.619  0.7680  0.4853  0.0264
18974THY    HP157925   3.585   4.543   2.531  1.0370 -0.8310  1.7893
18974THY    CP257926   3.575   4.759   2.559 -0.4744 -0.1346  0.1252
18974THY    HP257927   3.574   4.828   2.643 -0.2037  0.2496 -0.3344
18974THY    HP357928   3.481   4.783   2.507  0.3962 -2.2590 -0.8408
18974THY    HP457929   3.657   4.780   2.489  0.3448  0.3009 -1.4539
18974THY    CP357930   3.443   4.580   2.684  0.3127 -0.4810  0.5396
18974THY    HP557931   3.426   4.473   2.701 -0.9062 -3.0422  0.2665
18974THY    HP657932   3.363   4.597   2.612  1.5670 -1.9705  0.3507
18974THY    HP757933   3.427   4.633   2.779  0.3350 -0.1910  0.0419
18974THY    CA357934   3.718   4.661   2.809 -0.6273  0.0368 -0.0187
18974THY    HA357935   3.649   4.743   2.830 -0.8084 -0.0670 -0.1454
18974THY    CA457936   3.843   4.647   2.884  0.6127 -0.0472  0.0069
18974THY    HA457937   3.869   4.703   2.974  3.2927 -0.8357  0.1932
18974THY    CA557938   3.928   4.544   2.855 -0.4922 -0.0620  0.4679
18974THY    CM157939   4.041   4.512   2.938  0.3374  0.6301 -0.5679
18974THY    HM157940   4.122   4.491   2.868  0.3798  0.8697 -1.2328
18974THY    HM257941   4.018   4.442   3.019 -0.2451  1.0546  0.1032
18974THY    HM357942   4.068   4.597   3.002  1.7669  0.4647 -0.8733
18974THY    CA657943   3.897   4.465   2.750  1.0305  0.0091  0.7406
18974THY    HA657944   3.957   4.376   2.733  1.6268  2.3805  0.6193
18975THY      O57945   0.590   2.946   5.593 -0.0625 -0.2149  0.2237
18975THY     HO57946   0.581   3.016   5.659  1.0755  2.4106 -1.9380
18975THY    CA157947   0.679   2.857   5.641 -0.2863  0.2422  0.4665
18975THY    CA257948   0.727   2.744   5.563  0.6832  0.3070 -0.0066
18975THY    CP157949   0.679   2.734   5.420 -0.4659 -0.0589  0.3066
18975THY    HP157950   0.629   2.827   5.391  1.0411 -1.9892  0.5877
18975THY    CP257951   0.585   2.614   5.398  0.4366 -0.5091 -0.0798
18975THY    HP257952   0.518   2.599   5.483  1.8073  0.4236 -1.3123
18975THY    HP357953   0.640   2.518   5.396  0.6436 -0.6837  0.0410
18975THY    HP457954   0.519   2.643   5.316 -0.2303 -0.0006 -0.1527
18975THY    CP357955   0.801   2.722   5.322  0.1020  0.0575  0.3203
18975THY    HP557956   0.766   2.708   5.219  0.2479  0.1282 -0.6261
18975THY    HP657957   0.866   2.637   5.345  1.3605 -2.4590  0.5242
18975THY    HP757958   0.865   2.811   5.328  2.5957  0.2719 -1.4117
18975THY    CA357959   0.805   2.649   5.631  0.1841 -0.4241  0.0329
18975THY    HA357960   0.842   2.568   5.570  0.7738 -0.1041  0.0575
18975THY    CA457961   0.837   2.668   5.764  0.9456 -0.3788 -0.1814
18975THY    HA457962   0.904   2.599   5.816  0.6762 -0.5187 -0.5506
18975THY    CA557963   0.798   2.787   5.837  0.3935  0.0956 -0.9761
18975THY    CM157964   0.835   2.815   5.978  1.3586  0.5818 -0.1104
18975THY    HM157965   0.807   2.918   6.001  0.2898 -0.3122 -0.1751
18975THY    HM257966   0.939   2.790   6.003  0.6383  0.7421 -3.5020
18975THY    HM357967   0.769   2.769   6.053 -1.7154 -0.4198  2.3019
18975THY    CA657968   0.719   2.877   5.772  0.5665 -0.7128  0.3305
18975THY    HA657969   0.676   2.965   5.819  1.2475 -0.0772  0.3275
18976THY      O57970   7.124   7.462   4.535 -0.2221  0.4196  0.4354
18976THY     HO57971   7.177   7.486   4.612  0.6450 -0.0952  0.2289
18976THY    CA157972   7.004   7.473   4.588 -0.6806 -0.2022  0.4378
18976THY    CA257973   6.894   7.473   4.510 -0.1090 -0.3575 -0.0587
18976THY    CP157974   6.917   7.501   4.361  0.3777 -0.3086  0.4216
18976THY    HP157975   7.015   7.473   4.322 -0.1165 -2.2963  1.3126
18976THY    CP257976   6.905   7.645   4.334  0.2810 -0.3204  0.6065
18976THY    HP257977   6.951   7.668   4.237  1.8412  0.5221  1.1456
18976THY    HP357978   6.952   7.720   4.399 -0.4028  2.1729 -1.0307
18976THY    HP457979   6.803   7.684   4.324 -0.5910  0.9991 -1.2178
18976THY    CP357980   6.811   7.420   4.268 -0.2462 -0.0794  0.0957
18976THY    HP557981   6.708   7.440   4.300 -1.1613 -1.3092 -2.2987
18976THY    HP657982   6.818   7.311   4.270 -2.9801 -0.1177 -0.1518
18976THY    HP757983   6.817   7.450   4.163 -0.3680  0.6848  3.0899
18976THY    CA357984   6.767   7.464   4.565  0.4386  0.5031  0.2034
18976THY    HA357985   6.677   7.464   4.505  0.2528  0.7781 -0.0234
18976THY    CA457986   6.758   7.454   4.708  0.0941  0.3898 -0.3236
18976THY    HA457987   6.659   7.446   4.752 -0.7380 -1.2782  0.3505
18976THY    CA557988   6.871   7.473   4.785 -0.0744 -0.2588  0.0772
18976THY    CM157989   6.865   7.460   4.938 -0.2550  0.5745 -0.6243
18976THY    HM157990   6.803   7.380   4.981 -1.3963  0.3318  0.1099
18976THY    HM257991   6.841   7.555   4.985 -0.0366 -1.2095  0.3549
18976THY    HM357992   6.966   7.440   4.977  0.6361 -0.0459  2.2698
18976THY    CA657993   6.996   7.483   4.728  0.1973  0.4065 -0.2308
18976THY    HA657994   7.080   7.467   4.794  1.5774 -0.8669  1.2763
18977THY      O57995   7.892   3.748   5.337  0.0872  0.3306  0.4764
18977THY     HO57996   7.982   3.733   5.370  1.3688 -2.8736  0.3498
18977THY    CA157997   7.815   3.669   5.411 -0.0706  0.9346  0.0161
18977THY    CA257998   7.679   3.655   5.371 -0.1024  0.4613  0.0365
18977THY    CP157999   7.624   3.732   5.251 -0.3269  0.4600  0.1817
18977THY    HP158000   7.709   3.764   5.190 -0.0016  0.1923 -1.1381
18977THY    CP258001   7.527   3.848   5.289  0.1327  0.0918  0.5847
18977THY    HP258002   7.565   3.903   5.376 -0.7671  1.3237 -0.6697
18977THY    HP358003   7.432   3.809   5.328  1.7944  3.4250 -0.5656
18977THY    HP458004   7.502   3.915   5.206 -0.8361 -0.2423 -0.1670
18977THY    CP358005   7.557   3.637   5.145  0.1981  0.4774 -0.6680
18977THY    HP558006   7.635   3.573   5.103 -0.8109 -1.7637 -0.5158
18977THY    HP658007   7.516   3.697   5.064 -0.3884  3.2867  3.1262
18977THY    HP758008   7.480   3.571   5.186 -0.4585 -0.5403 -0.5433
18977THY    CA358009   7.596   3.579   5.453  0.1499 -0.0303  0.1550
18977THY    HA358010   7.489   3.570   5.436  0.1432  0.6252 -1.2793
18977THY    CA458011   7.649   3.532   5.571  0.1536 -0.1899  0.4697
18977THY    HA458012   7.589   3.465   5.632  1.1357  0.6866  0.3475
18977THY    CA558013   7.784   3.550   5.608 -0.3833 -0.2340 -0.2623
18977THY    CM158014   7.835   3.469   5.731  0.5468 -0.3207 -0.1579
18977THY    HM158015   7.864   3.366   5.708 -3.9214  3.4733 -2.6503
18977THY    HM258016   7.765   3.472   5.815 -0.4396 -1.0110 -2.1997
18977THY    HM358017   7.921   3.529   5.765 -0.2655 -0.5661  1.1908
18977THY    CA658018   7.867   3.621   5.532 -0.1035 -0.0734 -0.0071
18977THY    HA658019   7.973   3.633   5.555 -0.1173 -0.8812  2.2262
18978THY      O58020   9.153   7.789   7.392 -0.4367 -0.1988 -0.0105
18978THY     HO58021   9.181   7.728   7.462  0.2518 -1.1737 -0.8503
18978THY    CA158022   9.105   7.900   7.448  0.0369 -0.3301 -0.3685
18978THY    CA258023   8.997   7.962   7.385 -0.5276 -0.2774 -0.1133
18978THY    CP158024   8.927   7.882   7.268 -0.4048 -0.2429 -0.4476
18978THY    HP158025   8.967   7.780   7.260  0.1917  0.8572 -0.3162
18978THY    CP258026   8.948   7.956   7.137 -0.4766 -0.0179 -0.0049
18978THY    HP258027   9.056   7.970   7.119 -0.5728  0.9529  2.3430
18978THY    HP358028   8.898   8.053   7.140 -0.6274 -2.2149  0.0432
18978THY    HP458029   8.902   7.902   7.053 -0.9906 -1.1435  2.0670
18978THY    CP358030   8.778   7.856   7.286  0.0591 -0.2893  0.2064
18978THY    HP558031   8.738   7.832   7.187  0.1346 -0.5688  1.1789
18978THY    HP658032   8.715   7.940   7.317 -1.9454  0.0261 -1.3279
18978THY    HP758033   8.766   7.771   7.354 -1.1750 -1.4665 -0.6035
18978THY    CA358034   8.952   8.085   7.434  0.0974  0.0422 -0.9884
18978THY    HA358035   8.878   8.134   7.371 -0.9376  1.6716 -0.3860
18978THY    CA458036   9.005   8.146   7.550 -0.7870  0.5415  0.9265
18978THY    HA458037   8.960   8.239   7.582 -2.9972  1.6041 -0.4297
18978THY    CA558038   9.099   8.071   7.621 -0.0358  0.7463 -0.0671
18978THY    CM158039   9.160   8.123   7.749  0.0096  0.1017  0.2883
18978THY    HM158040   9.097   8.203   7.789 -1.5350  0.1461 -0.9139
18978THY    HM258041   9.256   8.174   7.731 -0.6798  0.8420  1.9018
18978THY    HM358042   9.151   8.047   7.827  0.0914 -0.1266  0.0411
18978THY    CA658043   9.157   7.955   7.565  0.6463 -0.2799  0.1528
18978THY    HA658044   9.246   7.911   7.609 -0.1317  2.7750  1.3816
18979THY      O58045   7.572   1.261   2.539  0.0232  0.1818 -0.0402
18979THY     HO58046   7.539   1.349   2.515  0.0902 -0.5554 -0.2134
18979THY    CA158047   7.702   1.256   2.505 -0.2601 -0.7440  0.4398
18979THY    CA258048   7.767   1.134   2.492 -0.4439 -0.3250  0.1754
18979THY    CP158049   7.696   0.999   2.508 -0.3123  0.2017 -0.6808
18979THY    HP158050   7.589   1.017   2.517 -0.1308  0.7531  0.1873
18979THY    CP258051   7.741   0.913   2.635 -0.0380 -0.5367 -0.1637
18979THY    HP258052   7.713   0.809   2.618  0.6679 -2.6261 -0.0738
18979THY    HP358053   7.706   0.961   2.727  0.7374 -0.4485  0.2464
18979THY    HP458054   7.849   0.898   2.638 -0.3288  0.5217 -2.4187
18979THY    CP358055   7.714   0.912   2.379  0.4750  0.4292  0.8829
18979THY    HP558056   7.794   0.839   2.392 -1.5524  1.4519 -1.3312
18979THY    HP658057   7.745   0.983   2.302  0.6065  1.8214  2.3959
18979THY    HP758058   7.616   0.867   2.358 -0.6399  2.3108  2.2848
18979THY    CA358059   7.909   1.137   2.462  0.1021  0.0877  0.0452
18979THY    HA358060   7.965   1.045   2.443  2.7847  1.5895  1.2571
18979THY    CA458061   7.977   1.254   2.457  0.9959  0.2642 -0.7487
18979THY    HA458062   8.080   1.257   2.421  0.4106 -1.6901 -1.8453
18979THY    CA558063   7.905   1.372   2.476  0.0662  1.2487 -0.3395
18979THY    CM158064   7.980   1.506   2.459  0.6929  0.1000 -0.0533
18979THY    HM158065   7.929   1.593   2.503  0.8781  0.5269 -0.1560
18979THY    HM258066   7.992   1.523   2.351 -3.0065 -0.1595  1.9624
18979THY    HM358067   8.084   1.508   2.496  0.4966  0.6465  0.1587
18979THY    CA658068   7.768   1.370   2.489  0.1501 -0.1319 -0.1168
18979THY    HA658069   7.729   1.471   2.494  1.7834 -2.8427  0.7385
18980THY      O58070   2.782   7.385   6.137  0.3387 -0.0658  0.5387
18980THY     HO58071   2.824   7.299   6.121 -1.2571  1.5620 -0.6101
18980THY    CA158072   2.715   7.441   6.036  0.4343  0.7950 -0.0820
18980THY    CA258073   2.618   7.543   6.049 -0.3869 -0.4565 -0.1711
18980THY    CP158074   2.594   7.588   6.194  0.4934  0.3025  0.2259
18980THY    HP158075   2.639   7.514   6.262  0.4389  0.7630  0.6159
18980THY    CP258076   2.446   7.603   6.232 -0.6544  0.5836 -0.1321
18980THY    HP258077   2.433   7.631   6.337  2.4631  1.1582 -0.4905
18980THY    HP358078   2.393   7.508   6.218 -1.0254 -0.8318  0.2599
18980THY    HP458079   2.394   7.668   6.161  0.3005  1.9677  2.2458
18980THY    CP358080   2.664   7.725   6.226 -0.0326  0.1086 -0.2249
18980THY    HP558081   2.628   7.787   6.143  0.1610 -0.7499 -1.2383
18980THY    HP658082   2.773   7.727   6.216  0.1546  1.7583  2.2006
18980THY    HP758083   2.637   7.763   6.326 -1.0377 -0.0432 -0.4977
18980THY    CA358084   2.546   7.597   5.941  0.3015 -0.5616 -0.6052
18980THY    HA358085   2.477   7.677   5.966  2.1401  2.2797  0.2453
18980THY    CA458086   2.571   7.542   5.814 -0.2069  0.3564 -0.6144
18980THY    HA458087   2.518   7.587   5.730 -2.6447  2.1940  0.1522
18980THY    CA558088   2.667   7.442   5.800 -0.0755  0.3857  0.3713
18980THY    CM158089   2.733   7.423   5.665 -0.3872  0.4812  0.4707
18980THY    HM158090   2.761   7.319   5.644  0.0050 -0.5304  0.7643
18980THY    HM258091   2.832   7.468   5.675  0.8607 -1.4459 -1.6015
18980THY    HM358092   2.668   7.452   5.582 -0.6854  0.7957  0.7034
18980THY    CA658093   2.732   7.383   5.911  0.0800  0.1452 -0.0428
18980THY    HA658094   2.808   7.309   5.891  0.4135 -1.5850  0.7370
18981THY      O58095   1.610   1.442   7.290  0.1400 -0.0737 -0.3334
18981THY     HO58096   1.684   1.481   7.242 -0.0280  2.1906  3.1968
18981THY    CA158097   1.594   1.519   7.401 -0.3653 -0.2889 -0.1148
18981THY    CA258098   1.466   1.516   7.459 -0.3787 -0.0450 -0.3143
18981THY    CP158099   1.348   1.434   7.409 -0.8119 -0.5402 -0.2056
18981THY    HP158100   1.381   1.372   7.325 -0.4139  1.2124 -2.5400
18981THY    CP258101   1.236   1.531   7.362 -0.4842 -0.0088  0.6048
18981THY    HP258102   1.278   1.606   7.293  1.3799 -0.9946 -1.2452
18981THY    HP358103   1.193   1.584   7.448 -0.6058  1.0218 -1.1237
18981THY    HP458104   1.157   1.473   7.313 -2.2151 -2.0676  4.2783
18981THY    CP358105   1.288   1.325   7.494 -0.3400  0.4918  0.5554
18981THY    HP558106   1.278   1.359   7.598  1.0728  0.3357  1.5153
18981THY    HP658107   1.363   1.245   7.497 -2.6319  1.5928 -1.7554
18981THY    HP758108   1.204   1.282   7.438  0.2391  1.0451 -1.4349
18981THY    CA358109   1.452   1.606   7.571 -0.9155  0.0524  0.1693
18981THY    HA358110   1.354   1.623   7.615 -0.6985  0.9579 -0.8235
18981THY    CA458111   1.554   1.686   7.623 -0.7152 -0.1691 -0.3318
18981THY    HA458112   1.525   1.759   7.697 -2.2023 -1.1945  0.1506
18981THY    CA558113   1.678   1.680   7.562 -0.3754  0.2995  0.2070
18981THY    CM158114   1.796   1.765   7.602  0.1859 -0.5383 -0.2478
18981THY    HM158115   1.807   1.849   7.533 -2.4535  0.2435  0.8481
18981THY    HM258116   1.891   1.709   7.603  0.3723  0.2535  0.0671
18981THY    HM358117   1.792   1.796   7.707 -0.0790 -0.0719 -1.7839
18981THY    CA658118   1.703   1.602   7.448 -0.5504 -0.3415  0.4220
18981THY    HA658119   1.799   1.607   7.398  1.0557  2.4905  0.0969
18982THY      O58120   4.035   2.810   4.958 -0.4093  0.1539  0.0666
18982THY     HO58121   4.045   2.864   5.038  2.1120 -0.5599  0.8094
18982THY    CA158122   4.056   2.884   4.842  0.1257 -0.7213 -0.4257
18982THY    CA258123   4.128   2.828   4.736 -0.1261  0.4517 -0.5502
18982THY    CP158124   4.204   2.691   4.753 -0.4112 -0.5017 -0.1705
18982THY    HP158125   4.142   2.627   4.817 -0.1335 -1.5942 -1.5618
18982THY    CP258126   4.346   2.726   4.802  0.2315  0.7885 -0.1186
18982THY    HP258127   4.402   2.778   4.724 -2.8964 -0.6409  1.3734
18982THY    HP358128   4.401   2.634   4.824 -0.5170  0.1100 -0.7423
18982THY    HP458129   4.344   2.786   4.894 -0.5732  0.1199  0.9074
18982THY    CP358130   4.229   2.621   4.621  0.6591 -0.7784  0.0123
18982THY    HP558131   4.265   2.518   4.636  2.3283  0.1345  0.7026
18982THY    HP658132   4.301   2.678   4.562 -0.9167 -2.3606  0.4893
18982THY    HP758133   4.139   2.630   4.558  1.6678 -2.2540  0.1955
18982THY    CA358134   4.161   2.913   4.624  0.2319 -0.1643  0.4237
18982THY    HA358135   4.235   2.889   4.547  0.0043 -0.3954  0.4633
18982THY    CA458136   4.091   3.032   4.618  0.2190 -0.3003 -0.3343
18982THY    HA458137   4.094   3.093   4.527  0.2802 -0.7561 -1.0043
18982THY    CA558138   4.019   3.085   4.729 -0.0635  0.1502 -0.4432
18982THY    CM158139   3.944   3.212   4.724 -0.2739 -0.2961 -0.0162
18982THY    HM158140   3.845   3.189   4.683 -0.3601  0.3650 -0.8834
18982THY    HM258141   4.000   3.294   4.677  1.2892  1.1441 -0.1874
18982THY    HM358142   3.926   3.256   4.823  2.0536  0.3011 -0.2958
18982THY    CA658143   4.013   3.017   4.845  0.0401 -0.4261  0.0972
18982THY    HA658144   3.968   3.063   4.933 -0.3307 -0.0740 -0.9043
18983THY      O58145   2.716   4.895   7.454 -0.6350  0.5323 -0.3238
18983THY     HO58146   2.809   4.866   7.452 -0.6995  0.0549 -0.5144
18983THY    CA158147   2.695   4.954   7.331  0.5854 -0.3872 -0.2976
18983THY    CA258148   2.564   4.961   7.280 -0.5484  0.8846 -0.0963
18983THY    CP158149   2.445   4.892   7.352 -0.3657  0.0716 -0.3473
18983THY    HP158150   2.474   4.848   7.449 -0.7163  0.0202 -0.6943
18983THY    CP258151   2.391   4.773   7.267 -0.0110 -1.3019 -0.4645
18983THY    HP258152   2.471   4.699   7.265 -1.2486 -2.1097 -1.8368
18983THY    HP358153   2.375   4.803   7.163 -1.0311 -1.5473 -1.7903
18983THY    HP458154   2.295   4.731   7.301 -0.2623 -0.9456  0.3815
18983THY    CP358155   2.332   4.998   7.373 -0.2897 -0.0502 -0.2937
18983THY    HP558156   2.258   4.968   7.448 -2.3331 -0.7053  2.7103
18983THY    HP658157   2.274   5.022   7.283 -0.5549  0.2201  0.0921
18983THY    HP758158   2.386   5.085   7.411 -0.2874  0.5904 -0.5671
18983THY    CA358159   2.551   5.025   7.155  0.1905 -0.1991 -0.0937
18983THY    HA358160   2.453   5.038   7.110 -0.2122  1.0981  1.8239
18983THY    CA458161   2.654   5.082   7.088 -0.3206  0.5174 -0.7909
18983THY    HA458162   2.646   5.138   6.995 -1.0839  0.7703 -0.4680
18983THY    CA558163   2.778   5.076   7.146 -0.5308  0.0517 -0.0573
18983THY    CM158164   2.887   5.136   7.074  0.0124 -0.1737  0.0001
18983THY    HM158165   2.955   5.177   7.150  0.5368  0.4420 -1.8654
18983THY    HM258166   2.840   5.219   7.020  0.8732 -2.2879 -0.8070
18983THY    HM358167   2.942   5.075   7.001  0.5344 -0.3799  0.6973
18983THY    CA658168   2.802   5.011   7.272  0.0705  0.0197  0.6821
18983THY    HA658169   2.900   5.012   7.318 -0.3343  0.9189  1.6133
18984THY      O58170   9.068   1.294   6.797 -0.0567  0.0343  0.6454
18984THY     HO58171   9.136   1.239   6.756 -0.3565  2.0161 -1.3259
18984THY    CA158172   8.951   1.222   6.781  0.2219  0.4805 -0.2404
18984THY    CA258173   8.938   1.094   6.836  0.5242 -0.6087  0.6393
18984THY    CP158174   9.031   1.046   6.943  0.2524 -0.3134 -0.4328
18984THY    HP158175   9.117   1.114   6.945  1.0721 -1.0538 -1.4167
18984THY    CP258176   9.083   0.909   6.903  0.0191  0.0688  0.4188
18984THY    HP258177   9.001   0.839   6.920 -0.9487 -1.1996  1.1991
18984THY    HP358178   9.161   0.891   6.978 -1.3327  1.5899  0.5792
18984THY    HP458179   9.105   0.906   6.796  0.8564  0.2502 -0.4542
18984THY    CP358180   8.965   1.057   7.084  0.7405  0.5253  0.3389
18984THY    HP558181   8.937   1.161   7.103 -2.8664 -1.1603 -0.1870
18984THY    HP658182   9.032   1.027   7.165 -0.2521  1.6858  1.1400
18984THY    HP758183   8.889   0.983   7.109 -1.1363 -1.0999  1.6076
18984THY    CA358184   8.829   1.010   6.801  0.4277 -0.5205 -0.0706
18984THY    HA358185   8.803   0.917   6.852 -0.3612 -1.1533 -0.2071
18984THY    CA458186   8.738   1.064   6.704 -0.5067 -0.0937  0.2412
18984THY    HA458187   8.656   0.996   6.687 -0.5722  2.0406 -0.3015
18984THY    CA558188   8.756   1.184   6.646 -0.0029 -0.7025 -0.4333
18984THY    CM158189   8.683   1.228   6.526  0.1304 -0.3935  0.3804
18984THY    HM158190   8.587   1.174   6.519  0.1777 -1.9886  0.4669
18984THY    HM258191   8.736   1.192   6.438  0.0642 -0.3931  0.2797
18984THY    HM358192   8.682   1.337   6.533 -1.7472  0.0473  0.3742
18984THY    CA658193   8.860   1.263   6.685 -0.6924  0.6071 -0.4410
18984THY    HA658194   8.874   1.354   6.627  0.9083 -1.4886 -1.9403
18985THY      O58195   3.644   7.011   3.168  0.1666  0.4434  0.1867
18985THY     HO58196   3.713   6.979   3.108  0.0746 -0.5194  1.6951
18985THY    CA158197   3.577   7.092   3.084 -0.3233  0.2953 -0.2968
18985THY    CA258198   3.445   7.137   3.110 -0.1591  0.5096  0.5169
18985THY    CP158199   3.368   7.091   3.235  0.5380 -0.7763  0.1194
18985THY    HP158200   3.422   7.023   3.303  1.4617 -0.0358  1.5373
18985THY    CP258201   3.245   7.005   3.195 -0.3297  0.1049  0.2177
18985THY    HP258202   3.182   7.074   3.138  0.9328  1.4454  2.6168
18985THY    HP358203   3.187   6.971   3.281  0.5810 -0.1511 -2.1469
18985THY    HP458204   3.267   6.915   3.136 -2.0846 -0.2777  0.0097
18985THY    CP358205   3.330   7.220   3.313  1.0734 -0.2498 -0.6882
18985THY    HP558206   3.266   7.286   3.255  0.6466  2.7121  1.7394
18985THY    HP658207   3.427   7.272   3.318 -0.7958 -1.4356  3.2676
18985THY    HP758208   3.287   7.201   3.412 -1.5174 -0.8520  1.4432
18985THY    CA358209   3.376   7.216   3.016 -1.0966 -0.3096 -0.0378
18985THY    HA358210   3.274   7.243   3.038 -0.6510  1.4875  0.3174
18985THY    CA458211   3.442   7.263   2.905  0.1445 -0.1790  0.0165
18985THY    HA458212   3.400   7.334   2.834 -0.7596 -0.9605 -1.2579
18985THY    CA558213   3.575   7.221   2.883  0.4777  0.0800 -1.3009
18985THY    CM158214   3.648   7.273   2.761 -0.0288 -0.3572  0.1908
18985THY    HM158215   3.577   7.268   2.678 -2.0100  1.3102 -0.9519
18985THY    HM258216   3.731   7.204   2.743  0.3976  0.5947  0.4256
18985THY    HM358217   3.681   7.377   2.775  0.9227  2.0674 -0.3648
18985THY    CA658218   3.638   7.137   2.968 -0.3762 -1.0643  0.2436
18985THY    HA658219   3.738   7.101   2.944  0.6485  0.2605  1.9960
18986THY      O58220   8.942   7.078   6.277  0.1613  0.3891  0.3973
18986THY     HO58221   9.021   7.048   6.228 -0.5532 -1.3738  1.2189
18986THY    CA158222   8.952   7.001   6.380  0.5389 -0.1895 -0.3687
18986THY    CA258223   8.865   7.006   6.487  1.1872  0.1097  0.4899
18986THY    CP158224   8.736   7.083   6.476  0.3572 -0.0323  0.0480
18986THY    HP158225   8.736   7.156   6.395 -0.4825  0.7366  0.9237
18986THY    CP258226   8.716   7.178   6.592 -0.4051 -0.3688  0.3667
18986THY    HP258227   8.639   7.253   6.572  0.3339  0.7918  1.4794
18986THY    HP358228   8.804   7.230   6.632 -1.5213  1.9290  0.6585
18986THY    HP458229   8.681   7.121   6.679  0.9170 -0.9079 -1.3488
18986THY    CP358230   8.612   6.992   6.461  0.5296 -0.0288  0.2321
18986THY    HP558231   8.608   6.917   6.541 -0.4152 -0.3821 -0.1080
18986THY    HP658232   8.605   6.942   6.364  3.0115 -1.7706  2.9528
18986THY    HP758233   8.526   7.061   6.466  1.1180 -1.0759  1.0744
18986THY    CA358234   8.884   6.914   6.595  0.0284  0.4407 -0.0278
18986THY    HA358235   8.807   6.895   6.669  0.4669  0.2854 -2.9707
18986THY    CA458236   9.000   6.840   6.599  1.0527 -0.1589 -0.7975
18986THY    HA458237   9.014   6.778   6.687  1.8238 -0.2075 -0.6985
18986THY    CA558238   9.088   6.840   6.494 -0.0822 -1.1672  0.5117
18986THY    CM158239   9.204   6.748   6.508 -0.4074 -0.4892  0.2717
18986THY    HM158240   9.233   6.699   6.414 -0.0971 -0.4963  0.4665
18986THY    HM258241   9.172   6.667   6.574  1.1852  0.6572  0.5256
18986THY    HM358242   9.294   6.792   6.553  0.1802 -1.2396 -0.1436
18986THY    CA658243   9.059   6.909   6.382  1.0166  0.9550 -0.1604
18986THY    HA658244   9.122   6.898   6.294  1.1773  1.0397  0.0628
18987THY      O58245   7.664   3.463   2.198 -0.2297 -0.1684  0.0800
18987THY     HO58246   7.632   3.481   2.288 -1.0186 -0.0125 -1.7651
18987THY    CA158247   7.790   3.433   2.178 -0.9977 -0.0900 -0.1724
18987THY    CA258248   7.854   3.406   2.045  0.7267 -0.5136  0.5406
18987THY    CP158249   7.754   3.380   1.924 -0.7384 -0.0821  0.2119
18987THY    HP158250   7.681   3.460   1.942 -0.9346  0.8127 -0.1590
18987THY    CP258251   7.668   3.255   1.938  0.1028  0.2399  0.3398
18987THY    HP258252   7.616   3.253   2.035 -1.5365 -0.6174 -0.0450
18987THY    HP358253   7.723   3.162   1.922  0.6397  1.6164  0.3900
18987THY    HP458254   7.587   3.258   1.864 -1.2874  1.7055  0.6875
18987THY    CP358255   7.804   3.394   1.776  0.5829 -0.8698  0.2621
18987THY    HP558256   7.719   3.375   1.710 -0.1891 -0.6524  2.6073
18987THY    HP658257   7.890   3.327   1.761  0.1114  0.9117 -0.8025
18987THY    HP758258   7.827   3.500   1.760  1.1329  0.8169  0.4272
18987THY    CA358259   7.991   3.413   2.025 -0.8355  0.0252 -0.6931
18987THY    HA358260   8.036   3.405   1.927 -1.1858 -0.1510 -0.5259
18987THY    CA458261   8.070   3.441   2.137 -0.3745 -0.1095  1.1445
18987THY    HA458262   8.177   3.442   2.118 -0.0656  0.6228 -2.8644
18987THY    CA558263   8.016   3.455   2.261 -0.0997 -0.3942  0.2742
18987THY    CM158264   8.101   3.489   2.376  0.1461 -0.2503  0.0374
18987THY    HM158265   8.182   3.416   2.388  0.0565  1.6016  0.1855
18987THY    HM258266   8.057   3.484   2.476  2.6122  0.9306 -0.0233
18987THY    HM358267   8.140   3.591   2.373 -0.3682  0.8592  0.2740
18987THY    CA658268   7.877   3.450   2.283 -1.5972 -0.0746  0.0416
18987THY    HA658269   7.840   3.466   2.384  1.7524  1.5450 -1.3352
18988THY      O58270   5.107   3.800   4.058  0.1191  0.0318  0.6751
18988THY     HO58271   5.117   3.871   4.123 -0.0427 -0.1696  0.8805
18988THY    CA158272   4.975   3.787   4.041 -0.1032 -0.3706  0.2631
18988THY    CA258273   4.914   3.781   3.911  0.3407  0.1766  0.1049
18988THY    CP158274   4.992   3.758   3.777  0.2551  0.8092  0.0795
18988THY    HP158275   5.093   3.791   3.803  1.6266 -2.3954 -1.2229
18988THY    CP258276   4.931   3.855   3.677  0.9290  0.0785  0.2884
18988THY    HP258277   4.903   3.953   3.719  2.0060  0.3672  0.4886
18988THY    HP358278   4.839   3.805   3.648  1.4299  0.0736 -0.6525
18988THY    HP458279   5.000   3.865   3.592  0.9208 -0.1081 -1.0873
18988THY    CP358280   4.989   3.616   3.729  0.3081  0.3419  0.6634
18988THY    HP558281   5.034   3.552   3.805  1.3442  1.5733  2.7361
18988THY    HP658282   5.046   3.602   3.636  0.5838  0.2300  2.3209
18988THY    HP758283   4.885   3.583   3.717  0.7831 -0.9572 -0.4641
18988THY    CA358284   4.767   3.773   3.913  0.3496  0.4034  0.4039
18988THY    HA358285   4.724   3.762   3.814 -0.0512  0.4875  1.1466
18988THY    CA458286   4.690   3.763   4.033 -0.5642 -0.2149 -0.0254
18988THY    HA458287   4.582   3.771   4.019 -0.6352  1.1627  1.9068
18988THY    CA558288   4.759   3.766   4.157 -0.8524 -0.0816  0.5183
18988THY    CM158289   4.675   3.742   4.279  0.6319  0.1663 -0.1505
18988THY    HM158290   4.629   3.826   4.332 -2.1684  2.9851 -3.1349
18988THY    HM258291   4.740   3.687   4.348 -0.3318  0.5256 -0.8700
18988THY    HM358292   4.593   3.674   4.251  0.3175  0.6974  0.0051
18988THY    CA658293   4.902   3.778   4.163 -0.0003  0.5174  0.6933
18988THY    HA658294   4.945   3.795   4.261  0.5325  0.1037  1.8180
18989THY      O58295   0.900   4.184   5.441  0.0609  0.0956 -0.2388
18989THY     HO58296   0.916   4.091   5.416  0.5542 -0.0308 -0.1254
18989THY    CA158297   0.849   4.173   5.564  0.3753  0.4056  0.1433
18989THY    CA258298   0.816   4.287   5.640 -0.2118  0.0900 -0.2556
18989THY    CP158299   0.833   4.435   5.590  0.7335  0.4543  0.2935
18989THY    HP158300   0.910   4.426   5.513  1.6972  1.3863  0.3305
18989THY    CP258301   0.874   4.534   5.689 -0.6913 -0.0119 -0.0998
18989THY    HP258302   0.915   4.625   5.646 -1.2462  2.4591  1.4122
18989THY    HP358303   0.957   4.492   5.747  0.9651 -2.3120 -0.1124
18989THY    HP458304   0.786   4.564   5.749 -0.1170  0.4859  0.6238
18989THY    CP358305   0.696   4.482   5.540 -0.8507  0.3128  0.6045
18989THY    HP558306   0.667   4.411   5.462  1.2078  0.0641 -0.0257
18989THY    HP658307   0.706   4.582   5.494 -2.0137 -0.1787  0.5154
18989THY    HP758308   0.618   4.482   5.617 -0.2451  0.9320  1.2030
18989THY    CA358309   0.758   4.265   5.773  0.6934  0.4168 -0.3325
18989THY    HA358310   0.724   4.356   5.820 -1.1850  0.0899 -0.8226
18989THY    CA458311   0.728   4.133   5.818  0.4007  0.7345  0.1618
18989THY    HA458312   0.671   4.120   5.909 -3.6460 -1.4245  1.2927
18989THY    CA558313   0.760   4.021   5.739  0.9752 -0.2512 -0.3744
18989THY    CM158314   0.722   3.881   5.788  0.3333 -0.1103  0.1913
18989THY    HM158315   0.810   3.818   5.771  0.2824  1.6146 -0.4074
18989THY    HM258316   0.635   3.829   5.748  0.8677  0.2044 -0.9908
18989THY    HM358317   0.706   3.885   5.897  2.3191  0.2655 -0.5326
18989THY    CA658318   0.814   4.047   5.613 -0.1695  0.7052  0.1338
18989THY    HA658319   0.827   3.960   5.549 -3.2484 -0.0768  0.1411
18990THY      O58320   6.092   2.237   4.000  0.4735  0.1051  0.8141
18990THY     HO58321   6.106   2.145   4.029 -0.6844 -1.5512  0.0705
18990THY    CA158322   6.211   2.284   3.958 -0.3495 -0.1270 -0.1080
18990THY    CA258323   6.249   2.419   3.966  0.9639  0.2408  1.2500
18990THY    CP158324   6.140   2.515   4.000 -0.1565 -0.6873 -0.3928
18990THY    HP158325   6.040   2.470   3.999 -0.9024  0.7904  1.1126
18990THY    CP258326   6.138   2.630   3.896 -1.2036  0.5976 -0.6708
18990THY    HP258327   6.084   2.720   3.929  0.8044  1.3690  0.3119
18990THY    HP358328   6.086   2.594   3.807 -2.0137  0.9991 -0.5101
18990THY    HP458329   6.240   2.670   3.885 -1.9290  2.1759  1.9097
18990THY    CP358330   6.166   2.569   4.146  0.2264 -0.7333  0.4295
18990THY    HP558331   6.137   2.494   4.221  1.5284 -0.5432  0.0866
18990THY    HP658332   6.110   2.661   4.163 -0.2484  0.5034 -0.0666
18990THY    HP758333   6.274   2.581   4.162  0.0228  0.6424  0.5757
18990THY    CA358334   6.381   2.449   3.924 -0.4298  0.1177 -0.8799
18990THY    HA358335   6.408   2.554   3.921 -0.5273  2.9604 -0.6985
18990THY    CA458336   6.468   2.355   3.877 -0.0939 -0.6130 -0.5052
18990THY    HA458337   6.567   2.382   3.842 -0.5894 -0.2962  1.9433
18990THY    CA558338   6.425   2.224   3.869 -0.4637 -0.7517  0.5291
18990THY    CM158339   6.506   2.113   3.807 -0.0821  0.1293  0.5695
18990THY    HM158340   6.506   2.030   3.878  0.5083  0.0618  0.5055
18990THY    HM258341   6.612   2.129   3.782 -0.2893 -0.7638  0.6144
18990THY    HM358342   6.452   2.072   3.721  1.2933 -0.1615 -0.7196
18990THY    CA658343   6.296   2.195   3.908  0.0135 -0.0490 -0.9536
18990THY    HA658344   6.261   2.092   3.901  0.3601 -2.9110 -0.9623
18991THY      O58345   7.670   8.419   2.762 -0.1251 -0.0989 -0.3124
18991THY     HO58346   7.616   8.369   2.825 -0.8344  0.3499  0.9779
18991THY    CA158347   7.755   8.326   2.714  0.9266 -0.2926 -0.3776
18991THY    CA258348   7.876   8.357   2.656  0.0102 -0.6633  0.2533
18991THY    CP158349   7.900   8.503   2.611 -0.3970  0.6448  0.2808
18991THY    HP158350   7.827   8.577   2.643  1.1364 -0.2084  2.2704
18991THY    CP258351   7.896   8.514   2.456 -0.8957  0.4075  0.0490
18991THY    HP258352   7.805   8.471   2.413 -0.3000 -0.5861 -0.2586
18991THY    HP358353   7.980   8.467   2.403 -1.4999 -1.3847  0.9307
18991THY    HP458354   7.908   8.619   2.427 -1.4332  1.3402  0.3777
18991THY    CP358355   8.032   8.567   2.656  0.1561 -0.5715  0.2600
18991THY    HP558356   8.024   8.582   2.764 -0.3706 -0.5675 -0.0075
18991THY    HP658357   8.045   8.667   2.615  0.3034  1.0215  0.9262
18991THY    HP758358   8.125   8.512   2.640 -0.7719  0.2477 -1.6560
18991THY    CA358359   7.976   8.257   2.632 -0.0303 -0.1200 -0.3233
18991THY    HA358360   8.071   8.273   2.582 -0.7551 -1.2582  0.6230
18991THY    CA458361   7.936   8.122   2.653  0.0192  0.1090 -0.0964
18991THY    HA458362   8.000   8.038   2.624  2.5673  3.6012  0.4184
18991THY    CA558363   7.812   8.086   2.712  0.1390 -0.0428 -0.2797
18991THY    CM158364   7.758   7.949   2.723 -0.5950 -0.6563  0.0813
18991THY    HM158365   7.710   7.917   2.630  0.3871 -1.2717  0.3690
18991THY    HM258366   7.695   7.949   2.813 -0.1389 -0.2610  2.4829
18991THY    HM358367   7.845   7.884   2.735 -0.3147  0.4245  0.6263
18991THY    CA658368   7.727   8.197   2.749  0.1595 -0.5734  0.6285
18991THY    HA658369   7.629   8.175   2.791 -0.5092 -2.1577  0.4256
18992THY      O58370   7.155   1.486   5.664 -0.1527 -0.2656 -0.1419
18992THY     HO58371   7.168   1.461   5.757 -0.8994  0.1649  0.9891
18992THY    CA158372   7.232   1.595   5.629 -0.1236  0.4713 -0.5896
18992THY    CA258373   7.267   1.629   5.495 -0.2416  0.1389 -0.1047
18992THY    CP158374   7.202   1.538   5.386  0.1944 -0.3446  0.0407
18992THY    HP158375   7.117   1.487   5.434  0.0116  2.4577  2.7040
18992THY    CP258376   7.309   1.443   5.330 -0.0990 -0.0086 -0.0849
18992THY    HP258377   7.275   1.374   5.253  0.1233  1.7191 -2.2372
18992THY    HP358378   7.360   1.384   5.407  0.9730  0.8419  1.8658
18992THY    HP458379   7.394   1.501   5.291 -1.6760 -2.2650  0.8575
18992THY    CP358380   7.140   1.612   5.265  0.3994 -0.0047 -0.0778
18992THY    HP558381   7.032   1.605   5.248  0.6240 -2.5139  1.0956
18992THY    HP658382   7.190   1.572   5.176  0.6871  0.6659 -1.2391
18992THY    HP758383   7.172   1.717   5.267  1.9650 -2.4847 -0.4115
18992THY    CA358384   7.356   1.737   5.469 -0.6397  0.0324 -0.0979
18992THY    HA358385   7.387   1.759   5.367  0.3350  0.3937  0.2341
18992THY    CA458386   7.418   1.800   5.573 -0.1968 -0.0156 -0.5267
18992THY    HA458387   7.473   1.890   5.546  1.4810  0.4023 -1.3756
18992THY    CA558388   7.378   1.775   5.703  0.6362  0.5971  0.3281
18992THY    CM158389   7.418   1.866   5.812  0.0329  0.1177  0.5856
18992THY    HM158390   7.381   1.969   5.802 -0.2387  1.2573  0.6025
18992THY    HM258391   7.527   1.878   5.822  0.0633  1.4588 -0.5873
18992THY    HM358392   7.380   1.838   5.910 -3.7225 -1.4377 -0.3801
18992THY    CA658393   7.284   1.678   5.733  0.6466  0.1742 -0.2544
18992THY    HA658394   7.272   1.653   5.838 -0.3795  0.3358  0.8621
18993THY      O58395   7.688   8.604   1.668  0.1832  0.2065  0.9986
18993THY     HO58396   7.767   8.551   1.688  1.0489  0.3930  2.3395
18993THY    CA158397   7.678   8.701   1.764 -0.4138  0.3663 -0.3202
18993THY    CA258398   7.578   8.799   1.762  0.5821 -0.1655 -0.4466
18993THY    CP158399   7.459   8.812   1.657 -0.4309 -0.6928  1.2022
18993THY    HP158400   7.478   8.730   1.586 -2.5367  0.5830 -0.5253
18993THY    CP258401   7.443   8.943   1.583  0.5957  0.1941  0.1887
18993THY    HP258402   7.395   9.020   1.645  0.0328  1.3707 -1.0619
18993THY    HP358403   7.378   8.929   1.496 -0.3761  0.8427  0.4978
18993THY    HP458404   7.539   8.982   1.549  0.2543  0.1331  0.9977
18993THY    CP358405   7.335   8.770   1.732  0.6650 -0.7596  0.1683
18993THY    HP558406   7.346   8.673   1.783  0.5244 -0.8123  0.1226
18993THY    HP658407   7.248   8.744   1.670 -0.4697  1.6325 -2.3193
18993THY    HP758408   7.300   8.840   1.809  0.4047 -1.3315  0.6687
18993THY    CA358409   7.575   8.894   1.869  0.0441 -0.7141  0.6031
18993THY    HA358410   7.501   8.974   1.881 -0.7153  1.7325 -0.3716
18993THY    CA458411   7.670   8.896   1.972  0.7002 -0.9021  0.9443
18993THY    HA458412   7.670   8.973   2.049  0.3445 -2.5264  2.6526
18993THY    CA558413   7.768   8.802   1.962 -0.6201  0.3453  0.0538
18993THY    CM158414   7.874   8.815   2.063 -0.7542  0.4591  0.6346
18993THY    HM158415   7.911   8.715   2.085 -1.1961  1.8481  0.7536
18993THY    HM258416   7.833   8.846   2.160  1.2911  2.2582 -1.8749
18993THY    HM358417   7.960   8.871   2.025 -1.4776 -0.3645  1.2149
18993THY    CA658418   7.769   8.699   1.860 -0.5396  0.2743 -1.7315
18993THY    HA658419   7.862   8.642   1.867 -1.3651  0.6516 -3.0787
18994THY      O58420   8.805   3.815   2.413 -1.0739  0.4635  0.2852
18994THY     HO58421   8.892   3.857   2.420 -0.1746  0.6280 -1.4916
18994THY    CA158422   8.820   3.691   2.457 -0.7770 -0.2393  0.1136
18994THY    CA258423   8.713   3.608   2.487 -0.2218  0.0415  0.0817
18994THY    CP158424   8.572   3.646   2.453  0.4227  0.5404 -0.2598
18994THY    HP158425   8.569   3.731   2.383 -2.9960  0.2918 -0.4657
18994THY    CP258426   8.485   3.666   2.575  0.0706 -0.1048 -0.0740
18994THY    HP258427   8.508   3.748   2.645  0.1253 -0.6207  0.3597
18994THY    HP358428   8.467   3.573   2.629 -0.3866  2.7522  1.5770
18994THY    HP458429   8.391   3.686   2.523  0.7892 -1.2717  0.4314
18994THY    CP358430   8.503   3.538   2.373 -0.4345 -0.5461 -0.1742
18994THY    HP558431   8.574   3.504   2.296 -0.1016 -0.8393  1.1159
18994THY    HP658432   8.424   3.593   2.321  0.5976  1.7017  3.8915
18994THY    HP758433   8.463   3.458   2.435 -0.0208  0.4694  0.3897
18994THY    CA358434   8.740   3.485   2.549 -0.0350 -0.0736  0.3329
18994THY    HA358435   8.656   3.420   2.571 -0.5850  0.6213  1.2514
18994THY    CA458436   8.877   3.440   2.575 -0.2401  0.0316 -0.0059
18994THY    HA458437   8.899   3.349   2.631 -1.3395 -1.5512 -1.2998
18994THY    CA558438   8.980   3.535   2.542 -0.6556 -0.1435 -0.0241
18994THY    CM158439   9.122   3.502   2.591 -0.6397  0.1391  0.4772
18994THY    HM158440   9.201   3.571   2.560 -2.8968 -1.7445  2.3783
18994THY    HM258441   9.149   3.396   2.577 -2.1991 -0.3535  0.1114
18994THY    HM358442   9.103   3.525   2.696 -0.5732  0.1996  0.2615
18994THY    CA658443   8.951   3.654   2.479  0.1932 -0.1448 -0.2044
18994THY    HA658444   9.033   3.724   2.464 -0.8728  0.0723  1.1417
18995THY      O58445   5.361   1.082   7.232  0.0047  0.2351  0.0884
18995THY     HO58446   5.350   1.170   7.272  0.8880  0.6101  0.0319
18995THY    CA158447   5.406   1.082   7.104 -0.7236  0.0570 -0.1945
18995THY    CA258448   5.424   0.963   7.029 -0.4152 -0.4032 -0.0851
18995THY    CP158449   5.395   0.824   7.094 -0.1990 -0.1854 -0.3476
18995THY    HP158450   5.419   0.818   7.201 -0.8771  0.2248  2.7426
18995THY    CP258451   5.455   0.699   7.022 -0.0672 -0.4073 -0.7800
18995THY    HP258452   5.454   0.611   7.087  0.2924  2.3581  1.1125
18995THY    HP358453   5.557   0.728   6.994 -0.5035 -2.0114 -0.7294
18995THY    HP458454   5.410   0.689   6.923  1.9697 -1.2716 -1.9194
18995THY    CP358455   5.244   0.802   7.083 -0.7460  0.3147  0.1126
18995THY    HP558456   5.199   0.889   7.134 -0.7259 -0.3164  0.4955
18995THY    HP658457   5.210   0.708   7.129 -0.6784 -0.0281 -0.0821
18995THY    HP758458   5.217   0.788   6.978 -1.2774  0.6947 -2.2028
18995THY    CA358459   5.467   0.972   6.900  0.0523  0.7955 -0.8229
18995THY    HA358460   5.491   0.888   6.837 -0.3287 -1.1338  0.4571
18995THY    CA458461   5.470   1.097   6.838  0.4492 -0.7326 -1.0271
18995THY    HA458462   5.486   1.105   6.731 -0.4407 -0.7756  0.6756
18995THY    CA558463   5.451   1.218   6.909  0.0164 -0.4709 -0.0093
18995THY    CM158464   5.473   1.355   6.848  0.5807  0.4302  0.1209
18995THY    HM158465   5.375   1.397   6.823  1.9905 -2.2133  2.1031
18995THY    HM258466   5.523   1.347   6.751 -0.9156 -0.3692 -0.0288
18995THY    HM358467   5.521   1.429   6.913  0.4676  0.4713  0.1596
18995THY    CA658468   5.426   1.204   7.041 -0.2669 -0.2625 -0.6434
18995THY    HA658469   5.422   1.297   7.097  2.9605  1.6327 -1.5032
18996THY      O58470   8.709   2.139   4.223  0.1068 -0.0180  0.0414
18996THY     HO58471   8.648   2.063   4.225  0.0345  2.2593  0.0749
18996THY    CA158472   8.629   2.223   4.165  1.0019  0.3527  0.4608
18996THY    CA258473   8.654   2.359   4.147 -0.1205 -0.1329 -0.5706
18996THY    CP158474   8.788   2.423   4.204 -0.3839  0.2557 -0.0709
18996THY    HP158475   8.848   2.352   4.264  3.1524  0.5633  2.8611
18996THY    CP258476   8.753   2.527   4.305  0.4681 -0.1415 -0.3239
18996THY    HP258477   8.681   2.484   4.375  0.7828  0.7801  0.5988
18996THY    HP358478   8.720   2.624   4.265  1.1290  1.8006  0.7613
18996THY    HP458479   8.845   2.538   4.364  0.1090  0.4106 -0.2512
18996THY    CP358480   8.883   2.484   4.092 -0.2534  0.4716 -0.0539
18996THY    HP558481   8.832   2.563   4.036  0.5023 -1.2163 -0.7122
18996THY    HP658482   8.908   2.401   4.025 -0.4332  0.5531 -0.1749
18996THY    HP758483   8.972   2.525   4.142 -0.6089  1.1019 -0.0303
18996THY    CA358484   8.560   2.441   4.087  0.1207 -0.1803 -0.8042
18996THY    HA358485   8.569   2.548   4.070  0.1869  1.2858 -0.5615
18996THY    CA458486   8.432   2.395   4.065  0.6794 -0.1315  0.1337
18996THY    HA458487   8.357   2.457   4.017  2.1083 -1.2497  1.0598
18996THY    CA558488   8.402   2.259   4.086  0.7364  0.6812  0.1065
18996THY    CM158489   8.261   2.195   4.057 -0.1111  0.2119 -0.1104
18996THY    HM158490   8.270   2.116   3.981 -0.6516  2.1391 -2.1204
18996THY    HM258491   8.191   2.271   4.022 -0.8294 -1.4567 -1.4621
18996THY    HM358492   8.228   2.137   4.144 -0.9264 -0.6510 -0.9705
18996THY    CA658493   8.499   2.176   4.143 -1.2438  0.4333  0.0046
18996THY    HA658494   8.475   2.071   4.156  0.3312 -0.9315 -0.5710
18997THY      O58495   4.070   4.390   3.987  0.0648 -0.0838  0.2177
18997THY     HO58496   4.059   4.443   3.906 -0.8393 -0.8856 -1.1515
18997THY    CA158497   4.055   4.477   4.094  0.1440  0.1454 -0.0898
18997THY    CA258498   4.080   4.442   4.227 -0.1855 -0.6205 -0.4663
18997THY    CP158499   4.128   4.311   4.272 -0.2347  0.2586  0.6912
18997THY    HP158500   4.183   4.258   4.193 -0.0849  0.1733  0.9691
18997THY    CP258501   4.007   4.214   4.308 -0.0308  0.1325  0.3889
18997THY    HP258502   4.045   4.124   4.358  0.6978  1.0099  1.1627
18997THY    HP358503   3.946   4.196   4.219 -0.2429  0.1557  0.9528
18997THY    HP458504   3.941   4.255   4.386  0.2493 -0.0096  1.1304
18997THY    CP358505   4.227   4.319   4.394 -0.7300  0.6187  0.0824
18997THY    HP558506   4.288   4.410   4.388  1.0706 -0.3695 -1.1269
18997THY    HP658507   4.293   4.232   4.400 -1.2794 -0.2088 -0.4099
18997THY    HP758508   4.178   4.307   4.491 -1.4512  0.0908 -1.6215
18997THY    CA358509   4.051   4.540   4.329  0.7332  0.2168  0.7046
18997THY    HA358510   4.059   4.515   4.434  1.8155 -0.2453 -1.0980
18997THY    CA458511   4.014   4.668   4.296 -0.0690 -0.2315 -0.0770
18997THY    HA458512   3.994   4.740   4.374 -3.6570 -1.0586  0.0327
18997THY    CA558513   3.991   4.700   4.164 -0.3898 -0.0838  0.3979
18997THY    CM158514   3.920   4.828   4.126  0.0476  0.3846 -0.3589
18997THY    HM158515   3.882   4.891   4.207 -1.4193 -0.5253 -0.0375
18997THY    HM258516   3.833   4.802   4.066  0.7013 -0.9551  0.4374
18997THY    HM358517   3.983   4.879   4.053 -1.8385 -0.6078  0.6234
18997THY    CA658518   4.005   4.602   4.065 -0.2513 -0.0212 -0.9502
18997THY    HA658519   3.978   4.632   3.964  0.7547  0.2809  1.1164
18998THY      O58520   0.818   6.158   2.281 -0.3153 -0.0380 -0.7532
18998THY     HO58521   0.854   6.071   2.307 -0.2888  2.4138 -0.0821
18998THY    CA158522   0.908   6.220   2.197 -0.0055 -0.1095 -0.0360
18998THY    CA258523   0.913   6.364   2.176 -0.0370  0.4779  0.5461
18998THY    CP158524   0.823   6.466   2.253 -0.3228  1.0138 -0.2118
18998THY    HP158525   0.759   6.402   2.314  0.0857  0.3252 -1.3222
18998THY    CP258526   0.748   6.548   2.149 -0.1215 -0.5856 -0.0011
18998THY    HP258527   0.669   6.606   2.197 -0.0274  0.2025 -0.5151
18998THY    HP358528   0.686   6.484   2.086 -0.9383  0.0457  0.1626
18998THY    HP458529   0.824   6.609   2.097  0.1350 -1.1707 -0.8076
18998THY    CP358530   0.902   6.547   2.354 -0.2311 -0.1212 -0.6623
18998THY    HP558531   0.845   6.634   2.389  0.1104  2.1701 -1.3034
18998THY    HP658532   0.994   6.587   2.311 -0.4483  1.4110  1.7187
18998THY    HP758533   0.939   6.488   2.438 -4.1126  2.4945  0.2047
18998THY    CA358534   1.006   6.419   2.086 -0.1059  1.0806  0.0214
18998THY    HA358535   1.010   6.528   2.084  2.4090  0.3977 -0.0233
18998THY    CA458536   1.105   6.337   2.028 -0.5285 -0.4589 -0.2834
18998THY    HA458537   1.174   6.384   1.958 -0.9361 -2.1740 -2.0997
18998THY    CA558538   1.107   6.196   2.060  0.5017  0.2655 -0.6208
18998THY    CM158539   1.223   6.110   2.008  0.9923  0.4888  0.2827
18998THY    HM158540   1.255   6.036   2.082 -0.1855 -2.1046 -3.0964
18998THY    HM258541   1.311   6.171   1.984  1.2113 -1.9548 -0.8564
18998THY    HM358542   1.185   6.060   1.918  2.5910 -0.2681  0.3726
18998THY    CA658543   1.014   6.146   2.145 -0.3016 -0.4870  0.4422
18998THY    HA658544   1.011   6.038   2.161  1.3981 -0.5227  0.3667
18999THY      O58545   3.492   3.764   4.890  0.6304  1.1041  0.6002
18999THY     HO58546   3.481   3.838   4.951  0.8209  1.2862  0.4800
18999THY    CA158547   3.549   3.803   4.774 -0.2518  1.0276  0.2083
18999THY    CA258548   3.587   3.709   4.673  0.7241  0.1113 -0.7527
18999THY    CP158549   3.594   3.562   4.710 -0.5996  0.2921  0.5151
18999THY    HP158550   3.560   3.547   4.814  0.8749  0.6452 -0.6498
18999THY    CP258551   3.740   3.508   4.712 -0.0252  0.3162  0.4082
18999THY    HP258552   3.809   3.582   4.756  4.0276 -1.5664 -1.9121
18999THY    HP358553   3.786   3.494   4.614  0.1940  0.4486  0.1894
18999THY    HP458554   3.745   3.414   4.767  1.1591 -0.3294  0.0754
18999THY    CP358555   3.514   3.465   4.623 -0.2442  0.0394  0.1669
18999THY    HP558556   3.412   3.504   4.630 -0.9315  2.2352 -1.7599
18999THY    HP658557   3.503   3.373   4.682 -2.5400  2.5918  1.9173
18999THY    HP758558   3.553   3.448   4.522  0.1720  0.0809  0.8613
18999THY    CA358559   3.651   3.751   4.562  0.1382 -0.0705 -0.2826
18999THY    HA358560   3.702   3.678   4.500  2.4779  0.9048  0.4539
18999THY    CA458561   3.671   3.893   4.544  0.4699  0.6327  0.3213
18999THY    HA458562   3.727   3.937   4.462  0.3467  0.7540  0.7062
18999THY    CA558563   3.614   3.984   4.629  0.3723  0.0029  0.2872
18999THY    CM158564   3.624   4.138   4.620  0.1146 -0.5659  0.2106
18999THY    HM158565   3.618   4.179   4.721  1.6905  0.3061 -1.5890
18999THY    HM258566   3.546   4.184   4.558 -2.0130  1.2820 -0.6688
18999THY    HM358567   3.724   4.156   4.580 -0.1288 -0.5291  1.7492
18999THY    CA658568   3.559   3.939   4.750  0.2248  0.2575  0.3194
18999THY    HA658569   3.525   4.003   4.831 -0.1550 -0.3068  0.8361
19000THY      O58570   7.897   2.959   4.192 -0.1308 -0.4638 -0.3813
19000THY     HO58571   7.814   2.961   4.142 -0.0914 -0.5384 -0.6027
19000THY    CA158572   7.916   2.827   4.228 -0.0382 -0.0148 -0.3211
19000THY    CA258573   7.985   2.792   4.348  0.0144 -0.2078 -0.1051
19000THY    CP158574   8.038   2.902   4.442  0.8620  0.1343  0.2307
19000THY    HP158575   8.002   2.998   4.404 -0.1849 -3.1937 -1.3257
19000THY    CP258576   8.191   2.915   4.472 -0.6157 -0.2377  0.8672
19000THY    HP258577   8.237   2.830   4.524 -0.3975 -0.9497  0.5397
19000THY    HP358578   8.221   3.002   4.531  2.6531 -1.2504  0.5466
19000THY    HP458579   8.258   2.919   4.386  0.8610  0.8368  0.1468
19000THY    CP358580   7.970   2.890   4.583  0.1665 -0.2925 -0.5996
19000THY    HP558581   7.860   2.884   4.579  0.1354  0.1733 -0.3830
19000THY    HP658582   8.001   2.979   4.638 -0.2907 -0.6039 -0.2416
19000THY    HP758583   8.007   2.798   4.630  1.7415 -0.0919  0.1027
19000THY    CA358584   8.006   2.655   4.379 -0.6982  0.1833  0.3264
19000THY    HA358585   8.070   2.628   4.461  0.8044 -1.3447 -0.9748
19000THY    CA458586   7.955   2.558   4.292  0.1061  0.1768 -0.1882
19000THY    HA458587   7.953   2.455   4.326 -3.2123  0.9956  0.0556
19000THY    CA558588   7.881   2.593   4.182  0.0159  0.2169 -0.3507
19000THY    CM158589   7.828   2.488   4.095  0.8807  0.7387  0.8619
19000THY    HM158590   7.829   2.522   3.991 -1.1161 -0.2366 -1.6866
19000THY    HM258591   7.727   2.450   4.117  1.6445  0.6792 -1.3731
19000THY    HM358592   7.896   2.403   4.109  1.2710  1.6769  1.3131
19000THY    CA658593   7.863   2.731   4.148 -0.3174 -0.3563  0.5141
19000THY    HA658594   7.818   2.760   4.053  0.1644 -0.4112  1.0935
19001THY      O58595   5.780   6.176   4.135  0.3005  0.4251  0.1317
19001THY     HO58596   5.765   6.255   4.081  1.1443  0.4787  0.3419
19001THY    CA158597   5.734   6.076   4.064 -0.7770  0.1715  0.2661
19001THY    CA258598   5.813   5.957   4.055  0.2223 -0.1096  0.1504
19001THY    CP158599   5.925   5.933   4.146 -0.8763 -0.0315  0.5805
19001THY    HP158600   5.967   6.029   4.179  0.2612 -0.3415  0.2016
19001THY    CP258601   6.039   5.858   4.067 -0.6882  0.0725  0.0231
19001THY    HP258602   6.028   5.749   4.068 -0.0577  2.9381 -0.0897
19001THY    HP358603   6.129   5.871   4.128 -0.3252 -0.7783  1.7732
19001THY    HP458604   6.062   5.908   3.973  1.9230  0.3657 -0.5130
19001THY    CP358605   5.881   5.867   4.277 -1.2165  0.5019  0.0115
19001THY    HP558606   5.785   5.815   4.264 -1.9875  1.2570  1.1967
19001THY    HP658607   5.873   5.950   4.348  1.0950  0.6878  0.1512
19001THY    HP758608   5.958   5.797   4.311  1.5867 -2.5301  1.3367
19001THY    CA358609   5.764   5.848   3.976 -0.0684  0.3084  0.2540
19001THY    HA358610   5.814   5.751   3.975  1.3054 -1.0969  0.9173
19001THY    CA458611   5.645   5.868   3.898 -0.1377  0.3226 -0.9305
19001THY    HA458612   5.623   5.793   3.822  0.9765 -1.2264  0.2205
19001THY    CA558613   5.572   5.990   3.900  0.0468 -0.8432  0.4484
19001THY    CM158614   5.455   6.007   3.807  0.2602  0.0548  0.3465
19001THY    HM158615   5.473   6.082   3.730 -2.6770 -1.2323 -0.1568
19001THY    HM258616   5.368   6.043   3.863  0.1634  0.7071 -0.8582
19001THY    HM358617   5.434   5.912   3.757 -1.2976 -0.7674  1.0999
19001THY    CA658618   5.619   6.097   3.984  0.2772  1.0719  0.6121
19001THY    HA658619   5.564   6.190   3.992 -1.0443  1.2982 -0.1645
19002THY      O58620   8.122   6.480   2.340 -0.0299  0.1553  0.0207
19002THY     HO58621   8.182   6.494   2.264  0.2036  0.4345  0.5779
19002THY    CA158622   8.197   6.428   2.438  0.5485 -0.2476 -0.0817
19002THY    CA258623   8.150   6.378   2.558  0.1215 -0.1617  0.0351
19002THY    CP158624   8.001   6.393   2.590 -0.5146 -0.4139 -0.1319
19002THY    HP158625   7.951   6.480   2.546  0.8137  1.4984  1.6930
19002THY    CP258626   7.976   6.412   2.742  0.6551  0.2859  0.4993
19002THY    HP258627   7.979   6.318   2.798 -0.1972 -0.7492 -0.1740
19002THY    HP358628   7.876   6.453   2.757  0.7694  2.0266  0.2044
19002THY    HP458629   8.046   6.484   2.786  1.2000  0.8898 -0.3741
19002THY    CP358630   7.936   6.263   2.544  0.0182  0.0531 -0.2681
19002THY    HP558631   7.827   6.273   2.556  0.1990  0.0324  2.9741
19002THY    HP658632   7.974   6.168   2.584  1.5624 -2.0343 -0.6052
19002THY    HP758633   7.931   6.249   2.435  0.9022  0.1485 -1.4300
19002THY    CA358634   8.229   6.308   2.648 -0.3054 -0.2628  0.3152
19002THY    HA358635   8.189   6.269   2.741  0.6991 -0.1870 -0.5793
19002THY    CA458636   8.358   6.281   2.606 -0.4999  0.4207  0.1397
19002THY    HA458637   8.427   6.217   2.660  1.2650 -1.3306  0.4813
19002THY    CA558638   8.409   6.334   2.491  0.0767  0.2172 -0.2278
19002THY    CM158639   8.556   6.323   2.458  0.1348 -0.6630  0.3615
19002THY    HM158640   8.611   6.299   2.550 -1.1151  1.0179  3.2604
19002THY    HM258641   8.595   6.415   2.413  0.1940 -2.4941 -0.5303
19002THY    HM358642   8.565   6.239   2.389 -0.0664  0.1596 -0.3488
19002THY    CA658643   8.330   6.412   2.411  0.0573 -0.3405 -0.7031
19002THY    HA658644   8.381   6.447   2.322 -0.3697 -0.6218 -0.7904
19003THY      O58645   1.294   2.503   2.490 -0.3332  0.8179 -0.2673
19003THY     HO58646   1.212   2.481   2.537 -0.6903 -0.0699 -0.8889
19003THY    CA158647   1.271   2.609   2.408 -0.2451  0.1227  0.3167
19003THY    CA258648   1.372   2.660   2.331  0.7447  0.3067  0.2272
19003THY    CP158649   1.513   2.604   2.340  0.0184  0.4398 -0.1461
19003THY    HP158650   1.517   2.512   2.400  1.1075 -0.5822 -0.7958
19003THY    CP258651   1.609   2.713   2.401 -0.1627  0.4758  0.1109
19003THY    HP258652   1.701   2.664   2.436 -1.4408  1.5253 -1.6847
19003THY    HP358653   1.549   2.765   2.477 -0.8008  0.4923 -0.6309
19003THY    HP458654   1.639   2.774   2.315 -0.2536  0.2074 -0.2182
19003THY    CP358655   1.564   2.555   2.198  0.3840  0.1856 -0.3613
19003THY    HP558656   1.589   2.642   2.137  3.3065  3.0573  1.0299
19003THY    HP658657   1.487   2.489   2.157 -0.0996  1.9178 -0.9409
19003THY    HP758658   1.658   2.503   2.221 -0.5459  2.6031 -1.1282
19003THY    CA358659   1.339   2.768   2.238  0.1764  0.1281  0.3785
19003THY    HA358660   1.419   2.810   2.178  1.0664 -0.9381 -2.5830
19003THY    CA458661   1.209   2.820   2.238  0.1397 -0.2603 -0.2457
19003THY    HA458662   1.191   2.914   2.186 -2.3982  1.0240  0.0653
19003THY    CA558663   1.111   2.770   2.324  0.0824 -0.2739  0.5536
19003THY    CM158664   0.969   2.812   2.322  0.6020  0.2021  0.0223
19003THY    HM158665   0.918   2.805   2.419 -1.9156 -0.9790  0.8744
19003THY    HM258666   0.908   2.761   2.247 -0.3837  0.9169  0.1345
19003THY    HM358667   0.963   2.917   2.293 -0.4452  0.3531  0.0117
19003THY    CA658668   1.151   2.664   2.404  0.4462  0.5721 -0.7995
19003THY    HA658669   1.073   2.624   2.468  0.7103  2.1897  1.1154
19004THY      O58670   3.692   2.843   7.153  0.3436  0.0974 -0.3105
19004THY     HO58671   3.762   2.909   7.141 -0.9010 -0.4774  0.9413
19004THY    CA158672   3.588   2.912   7.216 -0.0655  0.2221  0.0233
19004THY    CA258673   3.466   2.854   7.259  0.3015  0.4874 -0.1500
19004THY    CP158674   3.432   2.715   7.214 -0.0260  0.1802  0.3403
19004THY    HP158675   3.525   2.663   7.189 -0.2942 -3.2518  1.3118
19004THY    CP258676   3.351   2.716   7.078 -0.0178  0.0017  0.4323
19004THY    HP258677   3.312   2.618   7.047  1.3287 -3.5875  0.8633
19004THY    HP358678   3.417   2.744   6.995 -0.0775  0.2395  1.3136
19004THY    HP458679   3.270   2.789   7.075 -0.4194 -1.6788 -0.0480
19004THY    CP358680   3.357   2.632   7.319 -0.4835  0.0221  0.1261
19004THY    HP558681   3.400   2.672   7.411  1.5706 -1.3040  1.1654
19004THY    HP658682   3.386   2.526   7.317  1.4784  0.9636  0.6015
19004THY    HP758683   3.248   2.647   7.322 -0.1460  1.1216  2.9405
19004THY    CA358684   3.386   2.934   7.349 -0.1037  0.1112  0.5582
19004THY    HA358685   3.291   2.904   7.391  0.3118  0.5515 -0.1793
19004THY    CA458686   3.433   3.059   7.392  0.4579 -0.5914  0.2990
19004THY    HA458687   3.364   3.117   7.452 -2.4203 -2.8051 -0.5803
19004THY    CA558688   3.544   3.116   7.331 -0.2468 -0.0815  0.0634
19004THY    CM158689   3.580   3.256   7.370  0.0941 -0.4283  0.4512
19004THY    HM158690   3.651   3.291   7.294  0.4107 -0.4416 -0.2084
19004THY    HM258691   3.641   3.258   7.461  0.9638 -1.0106  2.0145
19004THY    HM358692   3.501   3.326   7.400  1.6159 -2.6415  3.3383
19004THY    CA658693   3.629   3.036   7.256 -0.5060 -0.1920 -0.2209
19004THY    HA658694   3.724   3.081   7.226 -0.1960 -1.5546 -1.6705
19005THY      O58695   0.459   3.153   5.743 -0.2214  0.5485 -0.2601
19005THY     HO58696   0.371   3.141   5.703 -0.7110  1.4378  0.2086
19005THY    CA158697   0.436   3.137   5.878  0.6242  0.2096  0.4331
19005THY    CA258698   0.504   3.205   5.976 -0.2405 -0.9570 -0.0894
19005THY    CP158699   0.626   3.297   5.933  1.1884 -0.3012 -0.5029
19005THY    HP158700   0.651   3.271   5.830  0.2878 -0.1923 -1.8782
19005THY    CP258701   0.747   3.282   6.021  0.4485 -0.0240  0.2927
19005THY    HP258702   0.781   3.178   6.011  0.3092 -0.3067  0.2753
19005THY    HP358703   0.727   3.288   6.129 -1.4787 -0.3100 -0.4600
19005THY    HP458704   0.830   3.349   5.994  1.1627 -0.8444 -0.8744
19005THY    CP358705   0.573   3.441   5.938 -0.0733 -0.7989 -0.3092
19005THY    HP558706   0.487   3.453   5.871 -0.3988 -0.2263  0.6798
19005THY    HP658707   0.655   3.500   5.895  1.1556  0.4240 -1.0805
19005THY    HP758708   0.559   3.474   6.042  0.6192 -0.7830 -0.0457
19005THY    CA358709   0.458   3.192   6.112  0.5010 -0.0255 -0.9139
19005THY    HA358710   0.508   3.252   6.187 -1.3167 -0.4743  1.2823
19005THY    CA458711   0.354   3.107   6.147 -0.2880  0.3466  0.8278
19005THY    HA458712   0.320   3.095   6.250 -1.1422  0.0084  0.2411
19005THY    CA558713   0.295   3.023   6.045 -0.5563 -0.2314  0.0547
19005THY    CM158714   0.195   2.927   6.094 -0.8168  0.2720 -0.1210
19005THY    HM158715   0.219   2.917   6.200 -0.2628  0.3848  1.8868
19005THY    HM258716   0.195   2.827   6.050  1.7486 -0.1833  0.0069
19005THY    HM358717   0.092   2.961   6.080 -0.3815  0.1951  1.2358
19005THY    CA658718   0.344   3.035   5.913  0.5987 -0.8466 -0.1330
19005THY    HA658719   0.284   2.981   5.840  0.9401 -1.4273  0.2640
19006THY      O58720   8.707   8.500   6.633  0.2821  0.1506 -0.7017
19006THY     HO58721   8.726   8.405   6.640  2.1459 -0.8779 -0.4455
19006THY    CA158722   8.734   8.539   6.507 -1.0224 -0.9791 -0.1159
19006THY    CA258723   8.739   8.674   6.467  0.4537 -0.1121  0.3536
19006THY    CP158724   8.671   8.788   6.551  0.0595  0.3621 -0.6106
19006THY    HP158725   8.611   8.734   6.626  1.7890  2.4159  0.1905
19006THY    CP258726   8.578   8.871   6.467 -0.3148 -0.1597 -0.5284
19006THY    HP258727   8.645   8.911   6.390 -0.1353  0.4403  0.3600
19006THY    HP358728   8.542   8.954   6.530 -0.2712  1.0224 -1.3735
19006THY    HP458729   8.490   8.815   6.432 -1.5061  0.7408  0.7032
19006THY    CP358730   8.775   8.885   6.612 -0.8985  0.4080  0.6214
19006THY    HP558731   8.844   8.829   6.676 -0.6481 -0.4436 -0.0661
19006THY    HP658732   8.730   8.960   6.679 -1.0525  2.3508 -1.1231
19006THY    HP758733   8.840   8.931   6.537  0.2440  0.5675 -0.6803
19006THY    CA358734   8.803   8.700   6.346 -0.5601 -0.0217 -0.1734
19006THY    HA358735   8.815   8.802   6.311  1.5059  0.5407 -0.1590
19006THY    CA458736   8.843   8.599   6.254 -0.0023 -0.4291  0.9797
19006THY    HA458737   8.892   8.621   6.160 -0.4668 -0.7628  0.6132
19006THY    CA558738   8.826   8.463   6.291  1.3177 -0.8917 -0.8822
19006THY    CM158739   8.867   8.357   6.194  0.1442  1.0079 -0.4775
19006THY    HM158740   8.829   8.257   6.220 -1.1987  1.7080  0.1901
19006THY    HM258741   8.975   8.345   6.197 -0.0666  2.1413 -2.5822
19006THY    HM358742   8.830   8.385   6.094 -0.1000  0.6951 -1.8412
19006THY    CA658743   8.775   8.440   6.420 -0.0119  0.3648  0.7515
19006THY    HA658744   8.767   8.334   6.441 -1.5329  0.2376  0.8113
19007THY      O58745   5.572   2.555   5.073 -0.2918 -0.0650  0.0292
19007THY     HO58746   5.568   2.596   5.161  0.7735  0.3171 -0.6459
19007THY    CA158747   5.443   2.537   5.027 -0.0719  0.0939  0.4613
19007THY    CA258748   5.424   2.507   4.888  0.1790  0.2335 -0.1501
19007THY    CP158749   5.541   2.505   4.783 -0.2355 -0.9178  0.3880
19007THY    HP158750   5.625   2.456   4.834  0.1049 -0.9034  0.9746
19007THY    CP258751   5.580   2.641   4.739  0.3525  0.2877  0.3896
19007THY    HP258752   5.633   2.695   4.818  0.8124 -0.4154  0.9719
19007THY    HP358753   5.488   2.695   4.713  0.1807 -1.2165 -0.5729
19007THY    HP458754   5.647   2.637   4.653  0.6630  0.4652  1.4910
19007THY    CP358755   5.516   2.418   4.652 -0.1936  0.6382 -0.9012
19007THY    HP558756   5.615   2.380   4.623 -0.7991 -1.1984 -1.1639
19007THY    HP658757   5.470   2.472   4.569 -1.4947 -0.1778 -3.1084
19007THY    HP758758   5.454   2.329   4.669 -2.4740 -1.1994  0.2349
19007THY    CA358759   5.290   2.476   4.850  0.8007 -0.0301 -0.3467
19007THY    HA358760   5.273   2.448   4.746 -0.6271 -0.1033  0.6697
19007THY    CA458761   5.186   2.476   4.943 -0.0553  0.0063 -0.3009
19007THY    HA458762   5.083   2.456   4.918 -0.1035  0.2944 -0.4162
19007THY    CA558763   5.207   2.513   5.082 -0.0265 -0.0834  0.3905
19007THY    CM158764   5.089   2.524   5.176  0.7666 -0.3837 -0.2708
19007THY    HM158765   5.012   2.582   5.123  1.1642 -2.0288 -1.1942
19007THY    HM258766   5.123   2.579   5.265  1.7403 -0.3466 -0.9122
19007THY    HM358767   5.044   2.426   5.195 -2.9387 -0.6792  1.2186
19007THY    CA658768   5.341   2.544   5.120  0.8117 -0.4886 -0.4646
19007THY    HA658769   5.353   2.570   5.225 -3.4782  0.2510 -0.6701
19008THY      O58770   1.232   4.209   6.520 -0.2782 -0.3314  0.3138
19008THY     HO58771   1.269   4.287   6.474  0.4880  0.8077  0.6390
19008THY    CA158772   1.104   4.251   6.539  0.1963 -0.3533 -0.6431
19008THY    CA258773   1.032   4.192   6.644  0.1647 -0.5496  1.0265
19008THY    CP158774   1.087   4.070   6.709 -0.2367 -0.3479  0.4859
19008THY    HP158775   1.145   4.003   6.645  1.3883  1.8963 -0.3657
19008THY    CP258776   0.979   3.980   6.764  0.1652 -0.2313 -0.0373
19008THY    HP258777   1.015   3.878   6.781  0.5251 -1.4042 -0.1266
19008THY    HP358778   0.896   3.982   6.692 -2.5635  2.6882  0.9253
19008THY    HP458779   0.941   4.012   6.862 -0.6914  0.0876 -1.8903
19008THY    CP358780   1.177   4.112   6.826 -0.0603 -0.5165  0.6818
19008THY    HP558781   1.133   4.188   6.892  1.0348  0.6105  0.3647
19008THY    HP658782   1.265   4.168   6.791 -0.7162 -2.3969  0.6256
19008THY    HP758783   1.219   4.025   6.877 -0.4517 -2.8510 -0.9460
19008THY    CA358784   0.909   4.253   6.686 -0.7136 -0.0767  0.2809
19008THY    HA358785   0.855   4.208   6.769  0.6471  0.0622 -1.2058
19008THY    CA458786   0.863   4.365   6.620 -1.0163  0.2024 -0.5320
19008THY    HA458787   0.766   4.410   6.638 -0.2114 -1.0839  1.9662
19008THY    CA558788   0.937   4.420   6.513  0.5205  0.0674 -0.2414
19008THY    CM158789   0.905   4.555   6.455  0.1047 -0.0132 -0.7062
19008THY    HM158790   0.810   4.543   6.401 -0.4896  0.0868  2.5239
19008THY    HM258791   0.969   4.604   6.381 -0.1856  0.3848  0.2987
19008THY    HM358792   0.884   4.628   6.534 -0.4450 -1.9392  1.3670
19008THY    CA658793   1.058   4.366   6.476  0.1508  0.3021 -0.2341
19008THY    HA658794   1.118   4.422   6.405  0.0015  0.3127 -0.0590
19009THY      O58795   1.598   4.857   3.317 -0.7372 -0.4678 -0.1790
19009THY     HO58796   1.602   4.885   3.225  0.6644 -0.2468  0.4049
19009THY    CA158797   1.726   4.880   3.369 -0.2344 -0.1311  0.1404
19009THY    CA258798   1.771   4.813   3.482  0.1167 -0.2135 -0.1357
19009THY    CP158799   1.669   4.713   3.546 -0.7120  0.3208  0.9188
19009THY    HP158800   1.597   4.663   3.480  0.0458  1.3524 -1.7053
19009THY    CP258801   1.586   4.791   3.648 -0.5513 -0.1134 -0.0467
19009THY    HP258802   1.558   4.892   3.618  1.4459  1.8854  1.1992
19009THY    HP358803   1.635   4.797   3.745 -1.9182  0.6726 -0.9750
19009THY    HP458804   1.498   4.726   3.652 -0.1973 -0.3651 -0.5495
19009THY    CP358805   1.750   4.593   3.613 -0.5515  0.7146  0.1109
19009THY    HP558806   1.680   4.515   3.646  0.8089  1.1875 -0.9525
19009THY    HP658807   1.811   4.630   3.696 -0.3380 -0.2144  1.9420
19009THY    HP758808   1.818   4.551   3.538 -2.3473 -0.4141 -0.9573
19009THY    CA358809   1.893   4.843   3.538 -0.0220 -0.2051 -0.6445
19009THY    HA358810   1.916   4.794   3.633 -1.9299 -0.2138 -1.6377
19009THY    CA458811   1.978   4.931   3.472  0.2279  0.5182 -0.5075
19009THY    HA458812   2.073   4.944   3.523 -1.1374  3.5201 -1.4787
19009THY    CA558813   1.934   4.999   3.353 -0.7091 -0.8975  0.1908
19009THY    CM158814   2.027   5.073   3.273  0.1346  0.0476 -0.2423
19009THY    HM158815   1.972   5.164   3.246  0.1151 -0.6171 -0.4421
19009THY    HM258816   2.062   5.019   3.184  1.4634 -1.5281  2.9719
19009THY    HM358817   2.112   5.104   3.333  2.0943 -2.2145 -0.9135
19009THY    CA658818   1.808   4.976   3.308  0.6139 -0.0996 -0.5494
19009THY    HA658819   1.775   5.028   3.218  2.4039 -1.1029 -1.0299
19010THY      O58820   6.821   7.644   5.680 -0.2241  0.0521  0.0094
19010THY     HO58821   6.788   7.732   5.704 -0.4548 -2.1986  0.6022
19010THY    CA158822   6.730   7.592   5.583 -0.0121 -0.6420  0.1081
19010THY    CA258823   6.650   7.480   5.612 -0.0590  0.1056  0.3207
19010THY    CP158824   6.669   7.390   5.730  0.1212 -0.0196 -0.3195
19010THY    HP158825   6.748   7.430   5.794  1.1264 -0.8958 -0.8467
19010THY    CP258826   6.716   7.254   5.677 -0.7829 -0.1103 -0.7991
19010THY    HP258827   6.658   7.219   5.591 -0.2506 -0.4586 -0.8266
19010THY    HP358828   6.705   7.184   5.761  1.0989 -0.1264 -1.1696
19010THY    HP458829   6.822   7.247   5.649 -0.7314  0.3736 -2.1518
19010THY    CP358830   6.544   7.363   5.818 -0.5940 -0.6916  0.2107
19010THY    HP558831   6.574   7.344   5.921 -0.1225 -1.0214 -0.8704
19010THY    HP658832   6.475   7.287   5.781 -1.4209 -3.2378  2.0531
19010THY    HP758833   6.484   7.455   5.827 -1.0106  0.3253 -0.1478
19010THY    CA358834   6.535   7.456   5.537  0.1800 -0.4199  0.3799
19010THY    HA358835   6.459   7.385   5.568 -1.4270 -2.3667  1.1407
19010THY    CA458836   6.518   7.534   5.421 -0.0155 -0.1070  0.1069
19010THY    HA458837   6.439   7.511   5.351 -1.5993  0.9487  2.0434
19010THY    CA558838   6.600   7.642   5.390  0.0968  0.2345 -0.7518
19010THY    CM158839   6.566   7.732   5.272 -0.0892 -0.3872  0.1130
19010THY    HM158840   6.485   7.684   5.216  1.5529 -1.1396 -1.9701
19010THY    HM258841   6.657   7.738   5.211  0.3633  0.1023 -1.2346
19010THY    HM358842   6.541   7.833   5.307  2.0998 -2.0379  1.3016
19010THY    CA658843   6.709   7.666   5.468  0.3244 -1.4349 -1.7344
19010THY    HA658844   6.772   7.755   5.465  0.9854  1.5982 -1.9790
19011THY      O58845   7.354   3.631   5.923  0.4468  0.2992  0.3748
19011THY     HO58846   7.437   3.639   5.873  0.4145 -0.2019 -1.6580
19011THY    CA158847   7.350   3.508   5.980  0.3312  0.1459  0.1920
19011THY    CA258848   7.228   3.453   6.033  0.1014 -0.1641 -0.1006
19011THY    CP158849   7.088   3.513   6.002  0.0016 -0.3781  0.4510
19011THY    HP158850   7.093   3.612   5.955  0.1903 -0.3998  0.4300
19011THY    CP258851   7.017   3.561   6.138  0.1331  0.5946  0.8203
19011THY    HP258852   7.077   3.634   6.195 -1.2770  2.8262  0.3381
19011THY    HP358853   6.994   3.483   6.211 -0.5704 -0.3991  0.0795
19011THY    HP458854   6.928   3.620   6.113  0.1169  1.2871  1.0967
19011THY    CP358855   6.994   3.426   5.916 -0.7812 -0.3572  0.0424
19011THY    HP558856   7.046   3.418   5.820  1.8297  0.9347  0.3360
19011THY    HP658857   6.896   3.473   5.905 -0.4004 -0.4874  0.8249
19011THY    HP758858   6.977   3.321   5.944  0.1401  1.0670  0.2452
19011THY    CA358859   7.236   3.325   6.090  0.4736 -0.2044  0.3149
19011THY    HA358860   7.146   3.269   6.116  0.9014 -0.4433 -0.4969
19011THY    CA458861   7.353   3.251   6.093 -0.1012  0.0091  0.4501
19011THY    HA458862   7.343   3.144   6.105 -0.3624 -1.0386  0.3508
19011THY    CA558863   7.467   3.315   6.053 -0.2226 -0.2331 -0.3689
19011THY    CM158864   7.591   3.239   6.076 -0.5961 -0.0443 -0.2571
19011THY    HM158865   7.588   3.132   6.050  0.4642  0.0013 -0.3102
19011THY    HM258866   7.630   3.244   6.179  1.5942 -0.6993 -2.0450
19011THY    HM358867   7.665   3.275   6.004 -0.5372  0.2819  0.2841
19011THY    CA658868   7.470   3.443   5.995  0.0281 -0.5384  0.6793
19011THY    HA658869   7.564   3.481   5.957  0.8393 -0.0383 -0.7562
19012THY      O58870   4.097   1.989   6.709 -0.3900  0.2124  0.1760
19012THY     HO58871   4.020   1.981   6.769 -0.6553 -0.1687 -0.1733
19012THY    CA158872   4.181   1.891   6.749  0.3928  0.3608  0.3957
19012THY    CA258873   4.313   1.889   6.701  0.0142 -0.4068 -0.8918
19012THY    CP158874   4.369   1.997   6.600 -0.2251 -1.0266  0.4006
19012THY    HP158875   4.294   2.062   6.552  0.5519 -0.8643  1.4425
19012THY    CP258876   4.443   1.921   6.485 -0.3710 -0.4210 -0.0426
19012THY    HP258877   4.540   1.874   6.506 -0.7577  2.5039  0.2633
19012THY    HP358878   4.449   2.006   6.417 -0.2693  0.0482  0.3285
19012THY    HP458879   4.373   1.854   6.434 -0.4573 -0.7826  0.3244
19012THY    CP358880   4.453   2.099   6.669 -0.9494  0.6223 -0.1644
19012THY    HP558881   4.557   2.065   6.683 -0.1637 -2.5085  0.5733
19012THY    HP658882   4.403   2.127   6.762 -0.0340  0.6333  1.5460
19012THY    HP758883   4.451   2.183   6.599  0.1581  0.7887  0.0258
19012THY    CA358884   4.399   1.792   6.758 -0.5703  0.1974  0.1391
19012THY    HA358885   4.501   1.778   6.723 -0.0081  1.9987 -0.5278
19012THY    CA458886   4.357   1.706   6.858 -0.0837  0.8550  0.3829
19012THY    HA458887   4.428   1.632   6.895 -0.7586 -1.2754 -1.4417
19012THY    CA558888   4.222   1.707   6.902  0.3140  1.2406 -0.1072
19012THY    CM158889   4.173   1.610   6.991  0.6256  0.0854 -0.5496
19012THY    HM158890   4.217   1.602   7.091  1.3319  0.0917  2.2405
19012THY    HM258891   4.178   1.511   6.944 -0.1521 -0.0296 -0.5445
19012THY    HM358892   4.067   1.627   7.014  0.2600 -2.1493  0.5337
19012THY    CA658893   4.138   1.798   6.839  0.6457  0.4105 -0.0982
19012THY    HA658894   4.032   1.794   6.863  0.2400 -1.3545 -0.5032
19013THY      O58895   0.655   3.979   5.200  0.1674  0.5139 -0.1452
19013THY     HO58896   0.579   3.923   5.179 -0.4403 -0.4567  1.0143
19013THY    CA158897   0.685   4.032   5.079 -0.4479  0.1892 -0.0289
19013THY    CA258898   0.708   4.166   5.056  0.1256 -0.6827 -0.7174
19013THY    CP158899   0.713   4.266   5.175 -0.7528 -0.0386 -0.6058
19013THY    HP158900   0.725   4.219   5.273  2.6752  0.1767  0.4673
19013THY    CP258901   0.580   4.338   5.166 -0.5229  0.1949 -0.0498
19013THY    HP258902   0.575   4.404   5.253 -1.7001 -0.1695  0.3641
19013THY    HP358903   0.495   4.270   5.178  0.1595 -1.1000 -1.2057
19013THY    HP458904   0.569   4.385   5.067 -0.6483  0.2547  0.0438
19013THY    CP358905   0.833   4.372   5.164  0.0728  0.6640 -0.2309
19013THY    HP558906   0.858   4.410   5.264  0.4475  0.5981 -0.2985
19013THY    HP658907   0.810   4.451   5.092  2.2372 -0.5233 -0.5995
19013THY    HP758908   0.918   4.318   5.120  1.0244  0.0334  1.7034
19013THY    CA358909   0.732   4.214   4.931 -0.5543  0.3396 -0.6273
19013THY    HA358910   0.754   4.319   4.916  0.7711 -0.3539 -0.9818
19013THY    CA458911   0.735   4.119   4.824 -0.3470 -0.2592  0.1142
19013THY    HA458912   0.760   4.157   4.725 -1.5022 -0.3771  0.6217
19013THY    CA558913   0.732   3.980   4.852  0.5714 -0.6232 -0.8422
19013THY    CM158914   0.768   3.875   4.760  0.0964  0.0752 -0.0485
19013THY    HM158915   0.856   3.820   4.795 -0.3623  0.3098 -0.6394
19013THY    HM258916   0.773   3.908   4.655  0.4342 -0.4217 -1.5766
19013THY    HM358917   0.686   3.803   4.767 -0.7386  0.4816  0.9303
19013THY    CA658918   0.694   3.936   4.979 -0.2327 -0.3220 -0.2611
19013THY    HA658919   0.698   3.830   4.999  0.8503 -0.9489 -0.3558
19014THY      O58920   8.424   2.643   3.673 -0.5371 -0.1411 -0.2239
19014THY     HO58921   8.431   2.736   3.645  0.0742  2.5103  0.6036
19014THY    CA158922   8.343   2.650   3.785 -0.7875 -0.7926 -0.4718
19014THY    CA258923   8.223   2.589   3.792 -0.2166 -0.5460  0.3171
19014THY    CP158924   8.163   2.512   3.680  0.2955  0.3328 -0.2988
19014THY    HP158925   8.215   2.548   3.590  0.8750  0.9434  0.4268
19014THY    CP258926   8.015   2.544   3.647  0.1040  0.0016 -0.5072
19014THY    HP258927   8.009   2.648   3.614 -1.1975 -1.4831 -1.0121
19014THY    HP358928   7.951   2.522   3.732  1.2765  0.9267 -0.4720
19014THY    HP458929   7.976   2.484   3.564  0.0818 -1.5523  1.5263
19014THY    CP358930   8.176   2.367   3.685 -0.6202 -0.0917  1.0368
19014THY    HP558931   8.122   2.315   3.765 -0.3980 -0.4924  0.1559
19014THY    HP658932   8.281   2.338   3.703 -0.7423  3.5646  2.3185
19014THY    HP758933   8.158   2.323   3.587 -0.0353 -0.1062  0.8185
19014THY    CA358934   8.141   2.605   3.907  0.0824 -0.2793 -1.2617
19014THY    HA358935   8.044   2.557   3.920  1.0889  1.6212 -2.9370
19014THY    CA458936   8.186   2.690   4.011  0.5333 -0.0099  1.1607
19014THY    HA458937   8.137   2.713   4.105  4.1300  2.0254  1.2583
19014THY    CA558938   8.309   2.752   4.001  0.1498 -0.5528  0.2865
19014THY    CM158939   8.359   2.824   4.121 -0.5014 -0.7843  0.1666
19014THY    HM158940   8.294   2.810   4.209  0.2128 -0.3889 -0.7529
19014THY    HM258941   8.368   2.932   4.106 -0.1552 -0.7914  0.1392
19014THY    HM358942   8.455   2.782   4.154 -0.4544  1.2254  1.6841
19014THY    CA658943   8.387   2.738   3.890  0.3826 -0.5217 -0.2618
19014THY    HA658944   8.486   2.781   3.886  0.4732  2.0449 -0.1056
19015THY      O58945   5.378   5.487   5.120 -1.1332 -0.1944  0.1273
19015THY     HO58946   5.470   5.472   5.092 -0.2290  2.1994  0.7628
19015THY    CA158947   5.353   5.607   5.063 -0.3264  0.2615 -0.5833
19015THY    CA258948   5.253   5.688   5.114 -0.4149 -0.8141 -0.0219
19015THY    CP158949   5.164   5.651   5.228  0.1320 -0.4549  0.2898
19015THY    HP158950   5.189   5.547   5.254  2.7316  0.8019  1.1321
19015THY    CP258951   5.014   5.654   5.209 -1.0723 -0.3667 -0.1418
19015THY    HP258952   4.958   5.634   5.301 -0.9031 -0.1386  0.4088
19015THY    HP358953   4.997   5.568   5.144 -1.7075  2.7955 -2.5923
19015THY    HP458954   4.989   5.755   5.175  1.4241  0.6308  0.8958
19015THY    CP358955   5.198   5.730   5.357 -0.3275  0.0641 -0.2026
19015THY    HP558956   5.173   5.836   5.358  1.1665 -0.0232  0.1748
19015THY    HP658957   5.306   5.721   5.375 -0.3485  0.2167 -0.1607
19015THY    HP758958   5.152   5.689   5.448  1.4430  1.2540  0.3346
19015THY    CA358959   5.247   5.819   5.073 -0.0082 -0.2062  0.8297
19015THY    HA358960   5.180   5.891   5.119  1.6679  3.2256  0.3939
19015THY    CA458961   5.315   5.858   4.954  0.2198 -0.1482  0.5496
19015THY    HA458962   5.295   5.957   4.913 -0.3402 -1.5272 -0.1272
19015THY    CA558963   5.413   5.778   4.895  0.1736 -0.5373 -0.2708
19015THY    CM158964   5.480   5.826   4.772 -0.6340  0.0976  0.0220
19015THY    HM158965   5.580   5.864   4.797 -0.1708  0.3824 -1.3422
19015THY    HM258966   5.436   5.909   4.716  0.3031  0.1331  0.5676
19015THY    HM358967   5.488   5.749   4.695 -4.5019 -1.2126  0.6876
19015THY    CA658968   5.434   5.651   4.954 -0.0390  0.2235  0.4265
19015THY    HA658969   5.503   5.582   4.906  0.1532 -0.3282  1.0002
19016THY      O58970   0.994   4.489   7.289 -0.1368 -0.2207  0.4323
19016THY     HO58971   0.951   4.574   7.273 -3.4477 -0.3805 -1.1056
19016THY    CA158972   0.925   4.395   7.219  0.9318  0.1399 -0.2834
19016THY    CA258973   0.970   4.263   7.198 -0.1738  0.0281  0.4354
19016THY    CP158974   1.103   4.216   7.269 -0.1503 -0.5602 -0.9078
19016THY    HP158975   1.114   4.275   7.361  0.2657 -0.7522 -0.6824
19016THY    CP258976   1.232   4.247   7.189 -0.1450  0.3862  0.0764
19016THY    HP258977   1.317   4.228   7.255  1.3146 -1.9673 -2.1090
19016THY    HP358978   1.236   4.355   7.171 -1.5028 -1.3488 -0.1235
19016THY    HP458979   1.247   4.182   7.103  2.1971 -0.2810  1.3753
19016THY    CP358980   1.103   4.072   7.316 -0.3110 -0.1987 -0.2243
19016THY    HP558981   1.140   4.001   7.241  1.0975  1.1261 -0.9667
19016THY    HP658982   1.001   4.044   7.342 -0.8141 -2.6057 -0.8285
19016THY    HP758983   1.172   4.052   7.400 -2.2218  1.1566 -1.4829
19016THY    CA358984   0.902   4.172   7.115  0.2342  0.3923 -0.7295
19016THY    HA358985   0.953   4.079   7.092  0.4262  2.4032 -1.1763
19016THY    CA458986   0.786   4.215   7.052  0.4845 -0.8438  0.4800
19016THY    HA458987   0.734   4.149   6.984 -0.5686  0.3008  0.0877
19016THY    CA558988   0.732   4.342   7.078 -0.2980  0.1943  0.1605
19016THY    CM158989   0.617   4.392   6.992  0.1766 -0.5291 -0.4754
19016THY    HM158990   0.565   4.299   6.966  1.6397  0.1371 -1.5286
19016THY    HM258991   0.651   4.456   6.910 -1.3315 -1.0184 -0.2502
19016THY    HM358992   0.555   4.454   7.057  0.3959  0.7878 -1.5850
19016THY    CA658993   0.804   4.433   7.161  0.2371 -0.5537 -0.3948
19016THY    HA658994   0.759   4.531   7.175 -1.0224 -0.8097 -0.9147
19017THY      O58995   4.988   3.528   4.971  0.4478 -0.3038  0.4159
19017THY     HO58996   5.044   3.466   5.022  0.2679  1.7597  1.8477
19017THY    CA158997   4.862   3.512   5.018 -0.0786  0.0994  0.1200
19017THY    CA258998   4.749   3.575   4.958  0.5792 -0.0301 -0.1825
19017THY    CP158999   4.742   3.649   4.826  0.1030 -0.1841 -0.3604
19017THY    HP159000   4.842   3.652   4.780  0.2203  0.0623  2.0146
19017THY    CP259001   4.681   3.798   4.839 -0.6504 -0.3696  0.2578
19017THY    HP259002   4.599   3.808   4.911 -1.1378 -0.8744 -0.0238
19017THY    HP359003   4.647   3.825   4.739 -1.8645 -0.3472 -1.0370
19017THY    HP459004   4.752   3.876   4.866  0.8316 -0.7754 -0.9010
19017THY    CP359005   4.664   3.573   4.727  0.0744  0.1728 -1.2325
19017THY    HP559006   4.567   3.535   4.758 -0.1223  0.3885 -0.5656
19017THY    HP659007   4.716   3.481   4.696 -1.0492 -1.0550 -1.4878
19017THY    HP759008   4.655   3.621   4.629 -1.5839  1.0300  0.2693
19017THY    CA359009   4.624   3.559   5.025 -0.1671 -0.4824 -0.3702
19017THY    HA359010   4.538   3.603   4.975 -1.4804 -1.6969 -3.9465
19017THY    CA459011   4.617   3.483   5.140 -0.2090  0.9104 -0.0087
19017THY    HA459012   4.524   3.463   5.191 -1.0974  0.6917  3.0994
19017THY    CA559013   4.730   3.430   5.201  0.0125 -0.4608 -0.2873
19017THY    CM159014   4.714   3.347   5.339  0.3799 -0.1757  0.3905
19017THY    HM159015   4.670   3.404   5.421 -0.6926  0.6935 -1.5717
19017THY    HM259016   4.812   3.318   5.378  1.0745 -2.2729 -0.3178
19017THY    HM359017   4.649   3.260   5.325 -1.0436  0.8857  1.2511
19017THY    CA659018   4.856   3.446   5.143 -0.7222 -0.4562  1.0363
19017THY    HA659019   4.942   3.403   5.192 -1.4460  0.1747  0.2774
19018THY      O59020   1.646   0.553   6.146  0.5354 -0.1798 -0.4917
19018THY     HO59021   1.581   0.497   6.192  0.2663  0.2149  0.1389
19018THY    CA159022   1.569   0.652   6.097  0.3009 -0.3936  0.0786
19018THY    CA259023   1.630   0.755   6.021  0.0559  0.8151  0.4737
19018THY    CP159024   1.785   0.762   6.000  0.2627  0.3756  0.3230
19018THY    HP159025   1.830   0.694   6.074 -0.0633  1.8169  1.6228
19018THY    CP259026   1.841   0.902   6.004 -0.2327 -0.8204  0.2949
19018THY    HP259027   1.804   0.953   6.094  1.4399  0.0121  0.1037
19018THY    HP359028   1.826   0.955   5.910  0.5126  0.0972  2.2468
19018THY    HP459029   1.948   0.900   6.029 -0.8667  2.4192 -1.0969
19018THY    CP359030   1.819   0.692   5.861 -0.4850  0.2036 -0.7405
19018THY    HP559031   1.773   0.592   5.872 -0.6575  0.0403 -0.6789
19018THY    HP659032   1.924   0.687   5.830 -0.2851  0.8964 -1.0277
19018THY    HP759033   1.763   0.738   5.779 -2.9222  0.8942 -2.2758
19018THY    CA359034   1.538   0.848   5.964  1.0393 -0.0676 -0.4284
19018THY    HA359035   1.567   0.919   5.887 -0.6779 -0.3646  0.0069
19018THY    CA459036   1.393   0.843   5.985 -0.6622 -0.4737 -0.8110
19018THY    HA459037   1.323   0.915   5.946  0.6447  0.3761  1.0027
19018THY    CA559038   1.345   0.744   6.064 -0.2146 -0.3284  0.4103
19018THY    CM159039   1.200   0.734   6.081  0.1847 -0.2104 -0.9263
19018THY    HM159040   1.166   0.698   6.179 -1.7265 -0.1526  0.8120
19018THY    HM259041   1.150   0.668   6.009 -1.1569 -0.9414  0.8068
19018THY    HM359042   1.162   0.836   6.069  1.5913 -0.9226 -0.4663
19018THY    CA659043   1.430   0.643   6.121  0.4333 -0.3392  0.4367
19018THY    HA659044   1.388   0.566   6.184  1.2568  0.2461  0.4638
19019THY      O59045   8.361   4.796   4.256 -0.6844  0.2124  0.3045
19019THY     HO59046   8.308   4.789   4.175 -1.3418  0.6818 -0.1975
19019THY    CA159047   8.319   4.705   4.344 -0.6444 -0.0771 -0.4705
19019THY    CA259048   8.399   4.658   4.452 -0.1067  0.8629 -0.0822
19019THY    CP159049   8.545   4.695   4.463  0.6670  0.0146  0.5711
19019THY    HP159050   8.560   4.782   4.397  1.4939 -2.0007 -1.0076
19019THY    CP259051   8.645   4.586   4.416  0.5513 -0.5544  0.6439
19019THY    HP259052   8.744   4.629   4.400  0.5608 -2.3827  0.0476
19019THY    HP359053   8.597   4.548   4.325  0.6830  0.2074 -1.5091
19019THY    HP459054   8.648   4.496   4.479 -1.5259 -1.2210  0.0298
19019THY    CP359055   8.587   4.741   4.612  0.0181  0.5160  0.3708
19019THY    HP559056   8.502   4.795   4.655 -1.7060 -0.0462 -1.7425
19019THY    HP659057   8.680   4.799   4.607  1.7553 -0.5758 -2.3008
19019THY    HP759058   8.605   4.652   4.673 -1.7078 -1.9081 -1.7751
19019THY    CA359059   8.343   4.572   4.548 -0.1900  0.6373 -0.3664
19019THY    HA359060   8.402   4.534   4.630 -1.7973  1.8221 -0.4227
19019THY    CA459061   8.213   4.529   4.530  0.3087  0.4650  0.6180
19019THY    HA459062   8.178   4.447   4.592  1.2266 -1.2917 -1.1610
19019THY    CA559063   8.133   4.572   4.424 -0.8073 -0.0970  0.2385
19019THY    CM159064   7.984   4.528   4.406 -1.0954  0.8684 -0.5073
19019THY    HM159065   7.937   4.578   4.320 -0.8485  1.1617  0.2343
19019THY    HM259066   7.925   4.551   4.495 -1.3727  1.0963 -1.9981
19019THY    HM359067   7.974   4.420   4.388 -1.3205 -0.0239 -0.3444
19019THY    CA659068   8.184   4.659   4.331  0.4471  0.3467  0.4837
19019THY    HA659069   8.120   4.703   4.255  0.5217 -0.0674 -0.1114
19020THY      O59070   2.609   1.465   5.454  0.2159  0.5134  0.1356
19020THY     HO59071   2.538   1.506   5.507 -0.8925  1.0920 -2.3582
19020THY    CA159072   2.731   1.491   5.506 -0.5389 -0.1828  1.0003
19020THY    CA259073   2.802   1.378   5.555  0.0239 -0.6408  0.4731
19020THY    CP159074   2.733   1.234   5.567 -0.3163  0.6416  0.1302
19020THY    HP159075   2.629   1.248   5.537 -0.7151  1.5473 -0.8236
19020THY    CP259076   2.734   1.168   5.698 -0.7180 -0.0357  0.0450
19020THY    HP259077   2.654   1.216   5.756  0.6319 -0.3277  2.8801
19020THY    HP359078   2.825   1.185   5.758 -0.8422  0.1561  0.0299
19020THY    HP459079   2.724   1.059   5.697  1.0318  0.3829 -0.1563
19020THY    CP359080   2.798   1.141   5.462 -0.3577  0.6076 -0.1693
19020THY    HP559081   2.748   1.045   5.445  0.2708  2.7470 -0.9366
19020THY    HP659082   2.905   1.133   5.483 -0.0920 -0.1878  1.0466
19020THY    HP759083   2.787   1.187   5.363 -0.9741 -0.0116 -1.5830
19020THY    CA359084   2.934   1.401   5.595 -0.8567  0.9207 -0.6906
19020THY    HA359085   2.994   1.312   5.611 -0.1328  0.7255 -0.2442
19020THY    CA459086   3.001   1.522   5.584  0.3155 -0.2084 -0.0357
19020THY    HA459087   3.109   1.530   5.592  0.3861  1.0760 -1.6531
19020THY    CA559088   2.918   1.636   5.546 -0.1720  0.3243  0.3354
19020THY    CM159089   2.974   1.772   5.564  0.2864  0.7711  0.1304
19020THY    HM159090   3.078   1.767   5.530  0.6768  1.8082  0.8244
19020THY    HM259091   2.981   1.801   5.670  0.2649  0.3855  1.6052
19020THY    HM359092   2.913   1.846   5.512 -1.3470  1.0804 -0.9384
19020THY    CA659093   2.787   1.610   5.511  0.4928  0.2301 -0.0256
19020THY    HA659094   2.723   1.694   5.485 -2.9901  0.9416 -2.2197
19021THY      O59095   7.284   8.485   6.703 -0.1374 -0.5831  0.0225
19021THY     HO59096   7.249   8.394   6.701  0.1212 -3.5641 -0.1080
19021THY    CA159097   7.183   8.569   6.734  0.5490  0.0891 -0.8334
19021THY    CA259098   7.179   8.702   6.678  0.2503 -0.3504 -0.2606
19021THY    CP159099   7.289   8.741   6.582 -0.2924  0.5635 -0.0682
19021THY    HP159100   7.329   8.648   6.540  2.2833  1.6269  0.4894
19021THY    CP259101   7.395   8.816   6.663  0.2653 -0.1890  0.3418
19021THY    HP259102   7.408   8.759   6.755  2.4249 -0.0615  0.9284
19021THY    HP359103   7.358   8.918   6.682 -1.5791  1.3325 -0.5619
19021THY    HP459104   7.498   8.815   6.623  0.5659  0.5420  1.0863
19021THY    CP359105   7.234   8.822   6.452  0.1552 -0.0228 -0.2510
19021THY    HP559106   7.316   8.845   6.382 -0.4210 -0.7782 -0.4858
19021THY    HP659107   7.202   8.924   6.478  0.5041 -0.9154  0.0909
19021THY    HP759108   7.153   8.774   6.398 -0.1240 -0.4875  0.7097
19021THY    CA359109   7.082   8.788   6.722 -0.0715  0.1196 -0.1017
19021THY    HA359110   7.084   8.885   6.672  0.0193  0.1406 -0.0923
19021THY    CA459111   6.993   8.754   6.829  0.1445 -0.0950  0.1565
19021THY    HA459112   6.911   8.821   6.854 -0.2965 -0.2141 -0.3393
19021THY    CA559113   7.009   8.628   6.891  1.0189 -0.1026 -0.0114
19021THY    CM159114   6.918   8.579   7.005 -0.6812 -0.0352  0.5428
19021THY    HM159115   6.962   8.497   7.064 -1.7454  0.5716  0.3995
19021THY    HM259116   6.830   8.545   6.950 -0.8883 -0.0190  1.0416
19021THY    HM359117   6.895   8.655   7.081 -0.9637 -0.9081  1.3479
19021THY    CA659118   7.099   8.534   6.841 -0.2835  0.3897  0.2263
19021THY    HA659119   7.102   8.434   6.883 -2.5369  0.5635  0.1879
19022THY      O59120   5.037   1.667   3.318  0.1348 -0.1182 -0.1378
19022THY     HO59121   5.114   1.725   3.309 -0.0392 -0.2854  0.0698
19022THY    CA159122   4.988   1.700   3.444  0.0067  0.4061 -0.9751
19022THY    CA259123   4.857   1.677   3.473  0.9776 -0.4185 -0.3053
19022THY    CP159124   4.761   1.617   3.380  0.1326 -0.1246  0.1544
19022THY    HP159125   4.817   1.564   3.302  2.2044  0.1220  1.8609
19022THY    CP259126   4.685   1.732   3.301 -0.5630 -0.0422  0.0790
19022THY    HP259127   4.612   1.680   3.237  1.4296 -1.3489 -1.2485
19022THY    HP359128   4.756   1.801   3.256  1.1250  1.8092 -0.3627
19022THY    HP459129   4.629   1.795   3.372 -0.8860 -2.1011  2.2388
19022THY    CP359130   4.670   1.513   3.443 -0.4065 -0.4280  0.0222
19022THY    HP559131   4.599   1.556   3.515  0.7225  3.0189 -3.2651
19022THY    HP659132   4.731   1.455   3.514 -0.3340  0.4336  1.0970
19022THY    HP759133   4.616   1.450   3.372 -1.1964  1.7175 -1.8492
19022THY    CA359134   4.814   1.714   3.601 -0.7328  0.1578  0.8374
19022THY    HA359135   4.717   1.692   3.646  0.1914  1.1088 -1.6566
19022THY    CA459136   4.910   1.771   3.686  0.0477  0.4138  0.2993
19022THY    HA459137   4.882   1.800   3.786  4.1266  1.5898  0.7778
19022THY    CA559138   5.048   1.785   3.653  0.7999  0.4877 -0.0766
19022THY    CM159139   5.154   1.838   3.755 -0.2430  0.0543 -0.1163
19022THY    HM159140   5.185   1.764   3.830 -1.6058 -0.2990 -1.0970
19022THY    HM259141   5.111   1.921   3.812 -0.1236  0.4340 -0.3120
19022THY    HM359142   5.242   1.884   3.709  1.6565  1.4624 -2.1177
19022THY    CA659143   5.087   1.753   3.527 -0.5838  0.0775  0.9649
19022THY    HA659144   5.191   1.757   3.495 -0.6829 -0.6516 -1.0225
19023THY      O59145   8.531   5.527   2.369 -0.3090 -0.1028 -0.1079
19023THY     HO59146   8.599   5.475   2.324  0.4097 -2.6403  2.7404
19023THY    CA159147   8.587   5.647   2.359  0.0760 -0.2359 -0.5150
19023THY    CA259148   8.501   5.761   2.364 -0.1914 -0.7026 -0.2315
19023THY    CP159149   8.351   5.744   2.397 -0.1020 -0.0988 -0.9877
19023THY    HP159150   8.326   5.667   2.471 -1.5955 -0.1557 -0.6045
19023THY    CP259151   8.270   5.721   2.274  0.0105 -0.0255 -0.1336
19023THY    HP259152   8.163   5.702   2.291  0.2968  1.2444 -0.7160
19023THY    HP359153   8.300   5.637   2.211 -0.5939 -1.1223  0.4489
19023THY    HP459154   8.272   5.812   2.212 -0.9728 -0.5652 -0.4674
19023THY    CP359155   8.286   5.873   2.466 -0.6292 -0.6797  0.2053
19023THY    HP559156   8.187   5.853   2.509 -0.6227 -2.1498 -4.0091
19023THY    HP659157   8.275   5.956   2.395 -4.3893  0.1366  0.5658
19023THY    HP759158   8.355   5.919   2.539  0.4398 -0.6321 -1.3994
19023THY    CA359159   8.552   5.890   2.323  0.9315  0.0667  0.6990
19023THY    HA359160   8.475   5.965   2.303 -1.4154  1.2540 -1.2448
19023THY    CA459161   8.683   5.897   2.300 -0.1011  0.5692 -0.9626
19023THY    HA459162   8.733   5.993   2.295 -1.1408  1.0986 -0.3867
19023THY    CA559163   8.773   5.791   2.316 -0.0614  0.4742  0.2151
19023THY    CM159164   8.915   5.794   2.288  0.2823  0.1174 -0.1499
19023THY    HM159165   8.934   5.901   2.274  0.2204  2.7192  0.2577
19023THY    HM259166   8.949   5.738   2.200 -0.4952 -1.1179  1.2483
19023THY    HM359167   8.968   5.746   2.372  1.7814 -1.1750 -0.8587
19023THY    CA659168   8.723   5.661   2.334  0.0804 -0.4302 -0.2905
19023THY    HA659169   8.784   5.571   2.338 -1.8746 -0.0196 -1.6740
19024THY      O59170   0.877   1.318   2.450 -0.3737  0.3674 -0.0523
19024THY     HO59171   0.804   1.288   2.507 -0.0146  0.8302 -0.0525
19024THY    CA159172   0.984   1.303   2.537  0.0298 -0.0718  0.8276
19024THY    CA259173   1.116   1.268   2.490  0.5568 -0.4028 -0.8260
19024THY    CP159174   1.146   1.287   2.335  0.0444  0.3058  0.3059
19024THY    HP159175   1.096   1.380   2.303 -1.2859  1.1418 -0.0952
19024THY    CP259176   1.084   1.172   2.264 -0.4422  0.3943  0.6188
19024THY    HP259177   1.123   1.078   2.305 -1.7295  1.3255  0.4604
19024THY    HP359178   1.110   1.189   2.159 -0.6333  0.5082  1.6622
19024THY    HP459179   0.974   1.172   2.268 -0.5511 -0.3832 -2.3921
19024THY    CP359180   1.295   1.303   2.292  0.6123  0.0507 -0.1995
19024THY    HP559181   1.311   1.334   2.188  0.9396  0.0329 -0.4246
19024THY    HP659182   1.336   1.202   2.295 -1.5458 -1.5313 -1.1895
19024THY    HP759183   1.354   1.373   2.353 -1.2591 -2.1164  3.5645
19024THY    CA359184   1.216   1.240   2.586 -0.6051  0.1590  0.1645
19024THY    HA359185   1.319   1.220   2.557  0.1985  2.2479  0.9655
19024THY    CA459186   1.183   1.238   2.722 -0.0465 -0.4786 -0.7562
19024THY    HA459187   1.271   1.213   2.780  0.1947 -0.5876 -0.1931
19024THY    CA559188   1.053   1.259   2.763  0.2280  0.0141  0.0700
19024THY    CM159189   1.014   1.228   2.903 -0.3206  0.4416 -0.5157
19024THY    HM159190   1.072   1.295   2.969 -0.5524 -0.8783  1.0695
19024THY    HM259191   1.064   1.132   2.919  2.9433  0.0471  0.9465
19024THY    HM359192   0.908   1.229   2.927 -0.8198 -1.4849  1.2341
19024THY    CA659193   0.951   1.295   2.674 -0.4709  0.1171  0.6868
19024THY    HA659194   0.848   1.303   2.707 -1.3298 -2.6077  2.2822
19025THY      O59195   6.076   0.313   2.854  0.1066 -0.1031 -0.0023
19025THY     HO59196   6.068   0.216   2.848 -1.1455 -1.0075  0.1306
19025THY    CA159197   6.043   0.361   2.733 -0.4301 -0.3476  0.4885
19025THY    CA259198   6.030   0.500   2.711  0.4438 -0.1316 -0.1368
19025THY    CP159199   6.041   0.597   2.827  0.1706  0.1330  0.1380
19025THY    HP159200   6.135   0.581   2.880  0.9125 -0.4533  2.1833
19025THY    CP259201   5.929   0.589   2.932 -0.1173 -0.6206 -0.5627
19025THY    HP259202   5.829   0.616   2.897  0.1954  1.0101  3.2873
19025THY    HP359203   5.946   0.658   3.015  1.9776 -0.6878 -0.9129
19025THY    HP459204   5.906   0.492   2.978  0.9441 -0.5237 -0.7839
19025THY    CP359205   6.056   0.749   2.801  0.3501  0.5128  0.0780
19025THY    HP559206   5.957   0.790   2.779  1.0447  3.2288  3.7303
19025THY    HP659207   6.124   0.772   2.718  0.7197  0.6864 -0.3778
19025THY    HP759208   6.090   0.800   2.892  0.7402 -0.7321  2.1640
19025THY    CA359209   5.986   0.541   2.582  0.4892 -0.2599  0.6241
19025THY    HA359210   5.971   0.645   2.554 -1.3244 -0.8008  0.2444
19025THY    CA459211   5.956   0.444   2.477 -0.4100 -0.3862 -0.4358
19025THY    HA459212   5.913   0.481   2.384 -1.9822  0.3611 -0.3246
19025THY    CA559213   5.979   0.303   2.506 -0.6231  0.0357  0.1492
19025THY    CM159214   5.953   0.201   2.396  0.1109 -0.0143 -0.8792
19025THY    HM159215   5.913   0.109   2.442  3.1383  1.9283 -1.3655
19025THY    HM259216   6.047   0.180   2.343  0.9309  1.5011 -1.1551
19025THY    HM359217   5.877   0.226   2.320  1.3488 -1.0185 -0.0419
19025THY    CA659218   6.023   0.265   2.633 -0.4505  0.6512  0.0709
19025THY    HA659219   6.037   0.160   2.654 -1.0651  0.9964  0.0537
19026THY      O59220   1.390   1.853   4.914 -0.4633 -0.0771 -0.1557
19026THY     HO59221   1.417   1.765   4.945 -0.0888 -0.7591 -0.2887
19026THY    CA159222   1.507   1.927   4.925 -0.4167 -0.9148 -0.2650
19026THY    CA259223   1.517   2.063   4.895 -0.0779 -0.1670  0.1709
19026THY    CP159224   1.400   2.144   4.846  0.0504  1.0631  0.4707
19026THY    HP159225   1.309   2.100   4.889  1.2150  1.7111 -1.3759
19026THY    CP259226   1.383   2.126   4.688 -0.2791 -0.2145 -0.1085
19026THY    HP259227   1.471   2.172   4.643  0.5758  1.7025  0.2205
19026THY    HP359228   1.292   2.169   4.643  1.1194 -1.1880  2.0146
19026THY    HP459229   1.397   2.020   4.666  2.5745 -3.8917  0.8199
19026THY    CP359230   1.396   2.296   4.894  0.0283  0.8135 -0.3091
19026THY    HP559231   1.312   2.347   4.845 -0.6587  3.0584  0.8386
19026THY    HP659232   1.484   2.354   4.867  2.6309 -0.7047 -4.5254
19026THY    HP759233   1.379   2.302   5.002 -1.8019  0.4995  1.2558
19026THY    CA359234   1.645   2.129   4.911  0.5902 -0.4276  0.1913
19026THY    HA359235   1.656   2.233   4.882 -0.8986  0.4256  0.6101
19026THY    CA459236   1.757   2.063   4.942  0.0052 -1.0999  0.5939
19026THY    HA459237   1.856   2.106   4.939  0.9592  2.0965 -1.0524
19026THY    CA559238   1.746   1.922   4.970  0.0015 -0.1284 -0.0342
19026THY    CM159239   1.872   1.840   4.983 -0.0550 -0.0637  0.0558
19026THY    HM159240   1.966   1.896   4.990  0.7682  1.8752 -1.4408
19026THY    HM259241   1.884   1.753   4.918  2.5471  1.6867 -1.0223
19026THY    HM359242   1.877   1.783   5.077  0.7524  0.4236  0.9190
19026THY    CA659243   1.626   1.856   4.956  0.0253  0.3296  0.5283
19026THY    HA659244   1.618   1.750   4.976 -1.1562  1.6840  0.8314
19027THY      O59245   4.700   5.843   4.055 -0.0253 -0.2111  0.5511
19027THY     HO59246   4.757   5.873   3.981  1.6253  1.2155  1.0732
19027THY    CA159247   4.629   5.735   4.020 -0.3782  0.6379  0.5089
19027THY    CA259248   4.569   5.657   4.118 -0.2841 -0.0139  0.2152
19027THY    CP159249   4.591   5.693   4.267  0.0302 -1.1780 -0.1039
19027THY    HP159250   4.586   5.802   4.276 -1.1299 -1.0710 -0.1586
19027THY    CP259251   4.726   5.646   4.333  0.8662  0.2137 -0.2129
19027THY    HP259252   4.719   5.537   4.329  0.9295 -3.4268 -0.2091
19027THY    HP359253   4.733   5.674   4.438  0.6927  0.2063 -0.1350
19027THY    HP459254   4.819   5.666   4.279  0.1999 -0.6239  0.7491
19027THY    CP359255   4.481   5.650   4.370  0.3657  0.1697  0.3109
19027THY    HP559256   4.393   5.667   4.308  2.0386 -1.7299  2.7021
19027THY    HP659257   4.466   5.721   4.452 -0.5293 -1.2489  1.8324
19027THY    HP759258   4.478   5.544   4.398  0.4099  1.1021  0.5401
19027THY    CA359259   4.494   5.548   4.083  0.2376  0.3515  0.5836
19027THY    HA359260   4.447   5.482   4.155 -0.1781 -1.2930 -1.0348
19027THY    CA459261   4.473   5.522   3.949 -0.1507 -0.1439  0.1505
19027THY    HA459262   4.414   5.431   3.938  0.0941  4.3416 -0.8135
19027THY    CA559263   4.532   5.595   3.850  0.2208  0.6105 -0.4171
19027THY    CM159264   4.515   5.549   3.697  0.1469 -0.4761 -0.4198
19027THY    HM159265   4.416   5.502   3.684  0.2002  0.9630 -0.9968
19027THY    HM259266   4.595   5.485   3.660 -0.3550 -0.6815 -0.9424
19027THY    HM359267   4.496   5.632   3.628 -0.8328  0.6009  0.2869
19027THY    CA659268   4.611   5.701   3.887  0.3317  0.0039 -0.7818
19027THY    HA659269   4.671   5.754   3.814  1.0735  1.0444 -0.1443
19028THY      O59270   1.987   5.143   7.373  0.1998  0.0289  0.8519
19028THY     HO59271   1.974   5.222   7.428 -0.7900  2.3651 -0.8321
19028THY    CA159272   1.860   5.126   7.319  0.3802  0.3303  0.7292
19028THY    CA259273   1.831   5.031   7.220  0.5186 -0.6583  0.2005
19028THY    CP159274   1.933   4.932   7.177 -0.2135  0.1119  0.6675
19028THY    HP159275   2.003   4.924   7.261  0.2198 -0.1135  1.9268
19028THY    CP259276   2.014   4.985   7.059 -0.6709  0.0047 -0.1378
19028THY    HP259277   2.119   4.953   7.066 -1.2729  2.1276 -1.8750
19028THY    HP359278   2.020   5.094   7.071 -0.5668  4.2252 -0.4593
19028THY    HP459279   1.967   4.961   6.963 -1.0934  0.2897 -0.4754
19028THY    CP359280   1.897   4.785   7.155  0.2578 -0.3589 -0.1778
19028THY    HP559281   1.842   4.744   7.240  1.1298  0.2773 -0.0456
19028THY    HP659282   1.985   4.726   7.128  0.9921  0.8738  0.3404
19028THY    HP759283   1.829   4.771   7.070 -1.0189  0.3633  1.3172
19028THY    CA359284   1.695   5.017   7.172 -0.7362  0.1209  0.4699
19028THY    HA359285   1.666   4.943   7.098  1.3130  0.4299 -0.7338
19028THY    CA459286   1.606   5.111   7.205  0.6742 -0.5986  0.5716
19028THY    HA459287   1.505   5.112   7.165 -0.4123  1.9033 -0.6047
19028THY    CA559288   1.637   5.212   7.297 -0.1982  0.4011  0.5848
19028THY    CM159289   1.536   5.314   7.338 -0.4510  0.5164  0.6247
19028THY    HM159290   1.579   5.414   7.323 -1.8729 -0.3792  1.1424
19028THY    HM259291   1.510   5.303   7.443 -0.8033  0.3208 -0.4835
19028THY    HM359292   1.439   5.295   7.290  0.6204 -0.9115 -1.6194
19028THY    CA659293   1.766   5.218   7.350 -0.0121 -0.2440  0.0294
19028THY    HA659294   1.789   5.295   7.423  1.3911  1.1682 -1.6320
19029THY      O59295   3.057   5.385   3.632  0.2050 -0.1078  0.9564
19029THY     HO59296   3.079   5.290   3.636  1.6843  0.7365  1.2997
19029THY    CA159297   3.084   5.427   3.510  0.2969  0.7749  0.9238
19029THY    CA259298   3.016   5.540   3.454 -0.0338  0.1389  0.1297
19029THY    CP159299   2.913   5.610   3.535  0.4434  0.0314  0.3377
19029THY    HP159300   2.867   5.544   3.609  0.7265 -0.1871 -0.1065
19029THY    CP259301   2.790   5.656   3.455 -1.1842 -0.1165 -0.5702
19029THY    HP259302   2.706   5.675   3.523 -0.8954 -0.0783  0.6261
19029THY    HP359303   2.764   5.583   3.378 -2.1143 -1.5002  1.1536
19029THY    HP459304   2.792   5.751   3.401  0.0568  0.8391 -0.0119
19029THY    CP359305   2.973   5.718   3.617 -0.0040 -0.6248 -0.6310
19029THY    HP559306   3.010   5.786   3.539  0.4471 -0.0037 -0.1510
19029THY    HP659307   3.056   5.675   3.673  1.3407 -1.2258  1.0768
19029THY    HP759308   2.901   5.755   3.691  0.6507  1.0491 -2.5169
19029THY    CA359309   3.041   5.572   3.317  0.1261  0.8094 -0.1889
19029THY    HA359310   2.976   5.640   3.264  0.0055 -0.8948 -1.5499
19029THY    CA459311   3.132   5.494   3.242 -0.3617 -0.0058  0.0436
19029THY    HA459312   3.161   5.523   3.141  0.5674  0.3536  0.4384
19029THY    CA559313   3.202   5.382   3.301 -0.3006  0.2505  0.6214
19029THY    CM159314   3.309   5.303   3.227  1.2441 -0.0289 -0.6513
19029THY    HM159315   3.320   5.330   3.121  3.6640 -0.0770 -1.5320
19029THY    HM259316   3.298   5.194   3.237  2.0694 -3.0366 -1.1205
19029THY    HM359317   3.402   5.339   3.271  0.8750 -0.2102  0.5535
19029THY    CA659318   3.177   5.349   3.433 -0.1903 -0.7998 -0.1184
19029THY    HA659319   3.226   5.266   3.483 -2.0953 -0.6498 -1.2234
19030THY      O59320   2.430   2.976   4.523  0.3119  0.1026  0.0503
19030THY     HO59321   2.493   3.046   4.549  0.6841  1.7904 -0.8651
19030THY    CA159322   2.308   3.026   4.541  0.1343 -0.1362 -0.2453
19030THY    CA259323   2.189   2.952   4.556  0.3426  0.3100  0.3601
19030THY    CP159324   2.201   2.799   4.534  1.1952 -0.2919 -0.0468
19030THY    HP159325   2.301   2.755   4.525  0.6600  0.6021 -1.5104
19030THY    CP259326   2.131   2.778   4.394  0.0376  0.4286  0.1262
19030THY    HP259327   2.176   2.832   4.310 -1.3171  1.0153  2.3299
19030THY    HP359328   2.034   2.829   4.386  0.9795 -2.3296  1.7490
19030THY    HP459329   2.111   2.676   4.361 -0.0357 -1.3934  0.6953
19030THY    CP359330   2.131   2.718   4.644 -0.2667 -1.3308  0.3553
19030THY    HP559331   2.025   2.742   4.647 -0.4763  2.4098 -0.3868
19030THY    HP659332   2.169   2.731   4.747 -1.8680 -0.8025  1.0466
19030THY    HP759333   2.147   2.615   4.609 -0.7916 -0.2135 -0.1220
19030THY    CA359334   2.062   3.013   4.586  0.3803  0.0036 -0.2778
19030THY    HA359335   1.971   2.956   4.601 -0.6097  2.3517  1.7370
19030THY    CA459336   2.064   3.150   4.610  0.2672 -0.6558 -0.1522
19030THY    HA459337   1.977   3.204   4.645  0.1706 -1.1151 -0.0067
19030THY    CA559338   2.180   3.219   4.599  0.0495 -0.1672  0.9644
19030THY    CM159339   2.189   3.361   4.651  0.5895 -0.1232  0.5515
19030THY    HM159340   2.108   3.427   4.617 -0.6961  1.9443  0.1303
19030THY    HM259341   2.286   3.406   4.627  0.8772  0.4427  0.2457
19030THY    HM359342   2.194   3.364   4.760  0.2041 -0.0642 -0.7304
19030THY    CA659343   2.303   3.162   4.566  0.4601 -0.4741 -0.1643
19030THY    HA659344   2.394   3.223   4.563 -1.5414 -1.3088  3.0156
19031THY      O59345   1.318   4.358   3.319  0.4611  0.2714 -0.7103
19031THY     HO59346   1.320   4.452   3.341  0.1591 -1.8174 -0.1641
19031THY    CA159347   1.331   4.284   3.425 -0.0236  0.4629 -0.1295
19031THY    CA259348   1.327   4.142   3.410 -0.6668  0.4920  0.4124
19031THY    CP159349   1.276   4.071   3.285  0.0991  0.2746 -0.0349
19031THY    HP159350   1.307   4.124   3.194 -0.2434  1.1167  1.6883
19031THY    CP259351   1.120   4.058   3.296 -0.3170 -0.3011 -0.6787
19031THY    HP259352   1.083   4.011   3.204  0.0593  0.1604 -1.9436
19031THY    HP359353   1.063   4.149   3.316 -2.5598 -0.5326 -1.9657
19031THY    HP459354   1.094   3.983   3.372 -1.0551 -1.1741 -1.3272
19031THY    CP359355   1.342   3.928   3.267  0.2528  0.4096 -1.1590
19031THY    HP559356   1.304   3.911   3.166  0.4528 -0.2121  1.5541
19031THY    HP659357   1.305   3.851   3.335 -0.0393  0.0339 -1.3481
19031THY    HP759358   1.452   3.937   3.266  0.0812  0.7106  2.6448
19031THY    CA359359   1.358   4.066   3.525  0.4627  0.0741 -0.3063
19031THY    HA359360   1.352   3.957   3.523  2.2616 -1.0070 -0.4335
19031THY    CA459361   1.381   4.128   3.649 -0.5902  0.5185 -0.5626
19031THY    HA459362   1.410   4.063   3.731  2.2132  0.8687  0.9927
19031THY    CA559363   1.404   4.270   3.651 -0.8177 -0.0589  0.8418
19031THY    CM159364   1.455   4.338   3.782 -0.6440  0.3001  0.2379
19031THY    HM159365   1.562   4.328   3.803 -0.6366  0.0446 -0.2643
19031THY    HM259366   1.397   4.290   3.862 -0.1467 -0.2817 -1.4147
19031THY    HM359367   1.439   4.446   3.790  3.1769  0.5038  0.9076
19031THY    CA659368   1.368   4.349   3.548 -0.5262  0.8717  0.2709
19031THY    HA659369   1.394   4.454   3.548 -1.2594 -2.5210  0.5698
19032THY      O59370   5.858   2.281   3.842  0.6055  0.0429  0.1233
19032THY     HO59371   5.945   2.310   3.874  1.0471  1.6284 -2.6971
19032THY    CA159372   5.849   2.336   3.722 -0.3185 -0.0128 -0.0642
19032THY    CA259373   5.727   2.333   3.650  0.2995 -0.2487  0.1140
19032THY    CP159374   5.598   2.284   3.717 -0.4868  0.1637 -0.1980
19032THY    HP159375   5.587   2.283   3.826  1.6548  0.4247 -1.3462
19032THY    CP259376   5.583   2.128   3.679 -0.1512 -0.1390 -0.2223
19032THY    HP259377   5.580   2.106   3.572 -0.9284 -0.0199 -0.7799
19032THY    HP359378   5.484   2.086   3.704  0.2902  0.5998 -0.8390
19032THY    HP459379   5.661   2.067   3.726  0.2090  2.0448  1.7820
19032THY    CP359380   5.485   2.365   3.664  0.3280  0.5848 -0.7465
19032THY    HP559381   5.493   2.465   3.707 -0.5324 -0.6406 -0.1172
19032THY    HP659382   5.384   2.326   3.685 -0.2305 -0.7328 -0.0993
19032THY    HP759383   5.491   2.381   3.556  1.8384  0.6690 -0.6016
19032THY    CA359384   5.729   2.378   3.515 -1.1601  0.2876 -0.5001
19032THY    HA359385   5.649   2.375   3.442 -0.4920 -0.4302 -1.5710
19032THY    CA459386   5.845   2.429   3.461 -1.4424  0.2880 -0.7573
19032THY    HA459387   5.852   2.471   3.361  0.6067  1.2934  1.5387
19032THY    CA559388   5.968   2.432   3.541 -0.6913  0.2901  0.3970
19032THY    CM159389   6.099   2.496   3.500 -0.7899 -0.1870  0.0377
19032THY    HM159390   6.154   2.541   3.583  0.7580 -0.1293 -1.7894
19032THY    HM259391   6.074   2.570   3.423 -1.3772  0.1809  0.2256
19032THY    HM359392   6.168   2.436   3.439  2.6144  1.3046  2.1496
19032THY    CA659393   5.963   2.380   3.671 -0.3800 -0.5254 -0.8930
19032THY    HA659394   6.050   2.387   3.736 -0.3247 -0.3732 -2.6463
19033THY      O59395   9.120   6.346   5.952  0.1242 -0.9167  0.0498
19033THY     HO59396   9.173   6.421   5.984  2.6136 -0.4906 -1.7299
19033THY    CA159397   9.146   6.234   6.022  0.7858  0.6100  0.6803
19033THY    CA259398   9.042   6.144   6.067 -0.2830  0.8227 -0.1292
19033THY    CP159399   8.901   6.172   6.041 -0.3333 -0.0821  0.2062
19033THY    HP159400   8.896   6.240   5.955  0.9877 -0.3295  0.0141
19033THY    CP259401   8.837   6.245   6.162 -0.3987  0.5120  0.8472
19033THY    HP259402   8.842   6.353   6.144 -0.2411  1.4229  0.9951
19033THY    HP359403   8.876   6.216   6.260  0.4533 -0.6511 -2.3958
19033THY    HP459404   8.731   6.221   6.169  0.2969  4.4180 -1.9209
19033THY    CP359405   8.833   6.044   6.001 -0.1744  0.0055 -0.6049
19033THY    HP559406   8.740   6.080   5.957 -0.5376  0.0676 -1.4558
19033THY    HP659407   8.816   5.972   6.082 -0.7083 -0.8330 -1.4482
19033THY    HP759408   8.890   5.985   5.929  0.8149  0.8534 -0.7200
19033THY    CA359409   9.079   6.033   6.147 -0.3123  0.0865 -0.8906
19033THY    HA359410   9.005   5.967   6.191 -1.0720 -1.6878 -1.2684
19033THY    CA459411   9.218   6.022   6.176 -0.3103  0.4032 -0.4477
19033THY    HA459412   9.245   5.946   6.249 -1.2832  0.1803 -1.0210
19033THY    CA559413   9.316   6.115   6.134 -0.2869  0.2096 -0.2537
19033THY    CM159414   9.457   6.102   6.182  0.2115  0.4358  0.7615
19033THY    HM159415   9.526   6.181   6.152  1.3144 -1.3348 -0.7982
19033THY    HM259416   9.492   6.012   6.130  0.1562 -0.2214  1.1177
19033THY    HM359417   9.453   6.075   6.288  2.9157  0.0847 -1.5479
19033THY    CA659418   9.282   6.214   6.047 -0.3942  0.2620 -0.0761
19033THY    HA659419   9.357   6.284   6.010  0.2709  0.8392 -0.4735
19034THY      O59420   3.163   3.577   6.624  0.6291  0.1241 -0.0184
19034THY     HO59421   3.239   3.537   6.670 -0.2812 -0.1841 -2.2140
19034THY    CA159422   3.051   3.504   6.643 -0.4834  0.6070  0.5015
19034THY    CA259423   2.955   3.487   6.540 -0.1356  0.1740 -0.1412
19034THY    CP159424   2.974   3.561   6.401 -0.5556  0.0657  0.4999
19034THY    HP159425   3.061   3.627   6.396  0.6651  1.5803 -0.8902
19034THY    CP259426   2.843   3.640   6.375  0.3764  0.1538 -0.6034
19034THY    HP259427   2.825   3.713   6.455 -0.8336  1.5911 -2.3874
19034THY    HP359428   2.756   3.573   6.378  0.5087 -3.4281 -1.0963
19034THY    HP459429   2.862   3.691   6.281  2.4973  0.7341 -0.2514
19034THY    CP359430   2.992   3.464   6.285  0.7040  0.1566  0.9556
19034THY    HP559431   3.072   3.392   6.300  0.7841  0.7587  1.1691
19034THY    HP659432   3.031   3.515   6.196  1.1020 -0.6124 -0.6371
19034THY    HP759433   2.903   3.407   6.255  1.8105 -0.3176 -0.5916
19034THY    CA359434   2.848   3.393   6.556  0.3090 -0.7956  0.5761
19034THY    HA359435   2.781   3.364   6.476 -0.0484  0.7266 -3.4604
19034THY    CA459436   2.839   3.336   6.689  0.0470  0.3616  0.4129
19034THY    HA459437   2.753   3.272   6.704  0.1420  0.4269  0.3005
19034THY    CA559438   2.931   3.367   6.797  0.5414  0.5428  0.0675
19034THY    CM159439   2.921   3.302   6.935 -0.0715 -0.8905  0.1098
19034THY    HM159440   2.874   3.205   6.916 -0.4654 -1.9978  0.4983
19034THY    HM259441   2.856   3.359   7.003  1.4676 -0.4847  1.4379
19034THY    HM359442   3.019   3.282   6.978 -0.0597  0.3061  2.4278
19034THY    CA659443   3.038   3.452   6.769  0.1066  0.4928  0.5431
19034THY    HA659444   3.119   3.457   6.841  1.4754 -0.7130 -2.1735
19035THY      O59445   4.719   8.046   2.161 -0.1376 -0.0061 -0.4102
19035THY     HO59446   4.644   8.106   2.146  0.2910 -3.5524 -0.5467
19035THY    CA159447   4.836   8.116   2.148  0.0780  0.6495  0.0429
19035THY    CA259448   4.947   8.089   2.231  0.4036 -0.9598 -0.2231
19035THY    CP159449   4.951   7.968   2.320  0.0489  0.7233 -0.1724
19035THY    HP159450   4.886   7.888   2.283 -0.3328 -0.7119  0.7612
19035THY    CP259451   4.909   7.983   2.460  0.0160 -0.6145 -0.3920
19035THY    HP259452   4.902   7.888   2.515 -2.5117 -0.4068 -0.1565
19035THY    HP359453   4.816   8.040   2.473 -0.2730 -1.9368 -0.5488
19035THY    HP459454   4.983   8.049   2.507 -0.8218  0.7191 -0.3605
19035THY    CP359455   5.091   7.899   2.308  0.4981  1.0794 -0.9408
19035THY    HP559456   5.126   7.909   2.205 -0.0046  0.7784 -2.1510
19035THY    HP659457   5.082   7.794   2.337 -3.5325  0.9888 -0.7813
19035THY    HP759458   5.171   7.963   2.345 -0.5564 -1.0333  1.8274
19035THY    CA359459   5.057   8.176   2.223  0.2788  0.1404 -0.3748
19035THY    HA359460   5.140   8.160   2.291  0.9403 -0.8766 -1.4637
19035THY    CA459461   5.063   8.280   2.131  0.6143 -0.3619  0.1277
19035THY    HA459462   5.146   8.350   2.125 -0.7524 -2.1723  1.6996
19035THY    CA559463   4.949   8.309   2.048  0.0129 -0.7227 -1.1793
19035THY    CM159464   4.957   8.434   1.961  0.1763 -0.2021  0.8364
19035THY    HM159465   4.934   8.385   1.866 -1.0508  1.6196 -2.4652
19035THY    HM259466   5.060   8.473   1.961  0.9963 -3.4114 -0.9696
19035THY    HM359467   4.885   8.512   1.986 -1.2790 -2.3342  0.2473
19035THY    CA659468   4.832   8.227   2.055  0.0133  0.5988  0.6908
19035THY    HA659469   4.740   8.250   2.002  0.9437 -1.5504 -0.2828
19036THY      O59470   8.726   8.816   7.735 -0.1527  1.0769  0.0185
19036THY     HO59471   8.667   8.824   7.658  0.5676  0.5481  0.3955
19036THY    CA159472   8.821   8.736   7.678 -0.1703 -0.4776 -0.4878
19036THY    CA259473   8.942   8.705   7.741  0.0379  0.7405 -0.3840
19036THY    CP159474   8.974   8.762   7.876  0.2755  0.0161 -0.0269
19036THY    HP159475   8.879   8.795   7.921 -0.1080 -0.1534 -0.8726
19036THY    CP259476   9.072   8.878   7.873 -0.1289  0.5270  0.0325
19036THY    HP259477   9.045   8.967   7.814  2.4978  1.0332  1.2508
19036THY    HP359478   9.171   8.841   7.845 -0.3772  0.4014 -0.5481
19036THY    HP459479   9.089   8.907   7.977  1.6059  1.1294 -2.7841
19036THY    CP359480   9.028   8.653   7.964 -0.7549 -0.2501 -0.2107
19036THY    HP559481   9.126   8.612   7.936  0.9774 -0.0226  3.4250
19036THY    HP659482   8.955   8.572   7.977 -1.7740  1.1840  0.8982
19036THY    HP759483   9.033   8.690   8.067  1.5672 -0.9609  1.7149
19036THY    CA359484   9.038   8.627   7.673 -0.0725  0.2063  0.0874
19036THY    HA359485   9.140   8.615   7.707  0.4929 -1.7701 -1.1317
19036THY    CA459486   8.997   8.583   7.542 -0.0619 -0.0470 -0.4113
19036THY    HA459487   9.069   8.517   7.495  0.8616  0.6449  0.0795
19036THY    CA559488   8.870   8.612   7.486 -0.4488 -1.1522  0.7082
19036THY    CM159489   8.823   8.554   7.357  0.1416 -0.4003 -0.5527
19036THY    HM159490   8.843   8.628   7.278  1.9455  1.0042  0.5315
19036THY    HM259491   8.713   8.549   7.354  0.1642  0.7815 -3.6337
19036THY    HM359492   8.855   8.453   7.329 -0.6031  2.7732 -1.7684
19036THY    CA659493   8.785   8.687   7.556 -0.3435 -0.6046 -0.0139
19036THY    HA659494   8.693   8.726   7.513 -0.0901  1.5049  3.2811
19037THY      O59495   8.409   2.557   5.439  0.2307 -0.2848 -0.6364
19037THY     HO59496   8.412   2.653   5.428 -2.4626  1.1722 -0.2700
19037THY    CA159497   8.516   2.505   5.392  0.1057 -0.1873  0.8326
19037THY    CA259498   8.527   2.374   5.338  0.3977  0.6139  0.8935
19037THY    CP159499   8.407   2.278   5.332  0.2860 -0.0427  0.3167
19037THY    HP159500   8.318   2.332   5.365 -0.5191 -0.0518 -0.9677
19037THY    CP259501   8.422   2.163   5.429  0.1293  0.0536  1.2898
19037THY    HP259502   8.413   2.207   5.529 -1.8646  0.8599 -0.7029
19037THY    HP359503   8.516   2.106   5.421 -0.5829 -1.8450  0.2910
19037THY    HP459504   8.339   2.092   5.420  0.6631 -1.1178  0.8014
19037THY    CP359505   8.387   2.220   5.187 -0.0217  0.1323 -0.7008
19037THY    HP559506   8.293   2.164   5.180 -0.7226 -0.8417  0.5374
19037THY    HP659507   8.462   2.155   5.140  0.8440  0.6762 -0.1141
19037THY    HP759508   8.374   2.306   5.120 -2.4020  0.4717 -0.7281
19037THY    CA359509   8.650   2.328   5.285  0.7486  0.2857 -0.1829
19037THY    HA359510   8.666   2.226   5.252  2.4534  0.4032  0.0138
19037THY    CA459511   8.755   2.411   5.290  0.4782 -0.4788 -0.8911
19037THY    HA459512   8.846   2.375   5.242  0.8468 -0.2820 -0.2426
19037THY    CA559513   8.748   2.540   5.354 -0.3923  0.3064  0.2891
19037THY    CM159514   8.869   2.622   5.365 -0.4483 -0.6941  0.5621
19037THY    HM159515   8.955   2.557   5.385 -0.4070 -0.0401  0.8075
19037THY    HM259516   8.857   2.693   5.448 -1.4053  0.5931 -1.0365
19037THY    HM359517   8.894   2.679   5.275  2.6544 -1.0117 -1.1148
19037THY    CA659518   8.633   2.583   5.404  0.3092  0.0550 -0.0728
19037THY    HA659519   8.625   2.670   5.468  0.1513  1.3314 -1.0003
19038THY      O59520   8.465   0.544   2.374  1.1378  0.6085 -0.4139
19038THY     HO59521   8.470   0.641   2.382 -0.9483  0.6972 -0.2557
19038THY    CA159522   8.584   0.492   2.426 -0.0322  0.0319  0.3172
19038THY    CA259523   8.654   0.386   2.360  0.3307  0.0116 -0.5321
19038THY    CP159524   8.600   0.326   2.229  0.4070 -0.8059  0.0046
19038THY    HP159525   8.495   0.357   2.222  0.2605 -0.9773 -0.5222
19038THY    CP259526   8.598   0.172   2.227 -0.3946 -0.1026  0.1614
19038THY    HP259527   8.567   0.142   2.328 -0.2313  0.5887  2.1489
19038THY    HP359528   8.699   0.135   2.207 -0.6898 -1.9455  0.2287
19038THY    HP459529   8.530   0.131   2.151 -0.0562  0.1557 -0.9238
19038THY    CP359530   8.676   0.372   2.107  0.0030  0.5162 -0.2301
19038THY    HP559531   8.650   0.476   2.086  1.2578 -1.0162 -0.1849
19038THY    HP659532   8.644   0.310   2.023 -0.5585  0.4232  0.1877
19038THY    HP759533   8.783   0.353   2.122  0.1255 -0.7340 -0.5684
19038THY    CA359534   8.775   0.340   2.410 -0.0896 -0.3157 -0.9048
19038THY    HA359535   8.833   0.261   2.363  2.4536  1.0288  0.0292
19038THY    CA459536   8.828   0.401   2.530 -0.0444 -0.5500 -0.3465
19038THY    HA459537   8.915   0.362   2.582 -0.9941  0.4440 -1.2248
19038THY    CA559538   8.754   0.501   2.590 -0.0108 -0.4342 -0.2932
19038THY    CM159539   8.783   0.547   2.722 -1.0167  0.3370 -0.3008
19038THY    HM159540   8.819   0.649   2.710  0.9129 -0.5360 -1.0394
19038THY    HM259541   8.867   0.490   2.763 -0.7784  1.7025  0.9900
19038THY    HM359542   8.696   0.550   2.788 -1.5458 -0.3953  1.7304
19038THY    CA659543   8.638   0.551   2.537  0.4827  1.1976 -0.6002
19038THY    HA659544   8.581   0.629   2.586  1.2294 -0.9839  1.4241
19039THY      O59545   6.495   4.802   5.114 -0.0124  0.5864  0.2474
19039THY     HO59546   6.408   4.774   5.147 -1.4795 -1.2959  2.2284
19039THY    CA159547   6.551   4.699   5.044  0.3552 -0.4638 -0.3074
19039THY    CA259548   6.669   4.715   4.966  0.2771 -0.0207  0.0425
19039THY    CP159549   6.730   4.854   4.945 -0.2676  0.0753 -0.0094
19039THY    HP159550   6.701   4.925   5.023  0.8421 -0.3965  0.9818
19039THY    CP259551   6.696   4.914   4.804  0.2668 -0.4472 -0.4693
19039THY    HP259552   6.726   4.846   4.724 -0.6084 -1.4804  0.3118
19039THY    HP359553   6.748   5.008   4.783 -1.6459 -1.0194  0.5283
19039THY    HP459554   6.587   4.925   4.798  0.4107  0.5467  2.3252
19039THY    CP359555   6.885   4.854   4.968 -0.2270 -0.3518 -0.4176
19039THY    HP559556   6.919   4.959   4.970 -1.7662  1.1906  0.0922
19039THY    HP659557   6.940   4.811   4.883 -0.6113 -0.7971 -0.0402
19039THY    HP759558   6.917   4.797   5.056 -0.4564 -1.4156 -2.2578
19039THY    CA359559   6.724   4.599   4.899  1.1945 -0.5312 -0.8769
19039THY    HA359560   6.813   4.624   4.842  0.5771 -0.2105  2.5791
19039THY    CA459561   6.659   4.477   4.908 -0.5632 -0.1530  0.6686
19039THY    HA459562   6.697   4.391   4.853 -0.3030  1.1022 -0.0392
19039THY    CA559563   6.537   4.469   4.979 -0.2831  0.2429  0.1688
19039THY    CM159564   6.467   4.335   4.977 -0.3728  0.4529  0.3878
19039THY    HM159565   6.470   4.294   4.876 -2.0826  0.2200  0.7555
19039THY    HM259566   6.360   4.342   4.997 -0.3876  1.4591 -1.7539
19039THY    HM359567   6.523   4.273   5.048  0.3111  0.8824  1.4520
19039THY    CA659568   6.486   4.577   5.046 -0.1382 -0.1182  0.2393
19039THY    HA659569   6.397   4.565   5.108  0.0437  0.5208  1.9546
19040THY      O59570   4.224   9.427   4.829 -0.1781  0.2433 -0.6561
19040THY     HO59571   4.238   9.481   4.750 -1.4735  0.2681 -0.2627
19040THY    CA159572   4.336   9.359   4.864  0.5144  0.3193  0.0741
19040THY    CA259573   4.349   9.303   4.994 -0.9788 -0.0918 -0.2610
19040THY    CP159574   4.245   9.321   5.095  0.3691 -0.0698 -0.1461
19040THY    HP159575   4.178   9.406   5.081  2.5602 -2.0003  1.3893
19040THY    CP259576   4.296   9.354   5.238 -0.4583  0.3871 -0.4077
19040THY    HP259577   4.366   9.283   5.284  1.5444  2.3586  2.5660
19040THY    HP359578   4.207   9.354   5.302 -0.1615  0.8003 -0.6467
19040THY    HP459579   4.344   9.453   5.242  0.1844  0.5669 -0.7209
19040THY    CP359580   4.173   9.180   5.095  0.6767 -0.1319 -0.4930
19040THY    HP559581   4.236   9.095   5.125  0.7863  1.3897  0.0852
19040THY    HP659582   4.146   9.144   4.995 -0.7197  0.3830 -0.9267
19040THY    HP759583   4.091   9.183   5.168  0.9297  0.1304  0.4334
19040THY    CA359584   4.470   9.234   5.021 -0.0248  0.3410  0.5497
19040THY    HA359585   4.492   9.200   5.122 -0.2790 -0.7701 -3.4985
19040THY    CA459586   4.566   9.217   4.923  0.1034  0.5231  0.4711
19040THY    HA459587   4.660   9.164   4.939  0.0990  1.3832  0.6988
19040THY    CA559588   4.546   9.260   4.792 -0.3010  0.8403  0.4189
19040THY    CM159589   4.654   9.246   4.687 -0.2193 -0.5775  0.7846
19040THY    HM159590   4.735   9.314   4.714 -1.0634 -0.0893  1.6173
19040THY    HM259591   4.620   9.258   4.584 -2.0899 -0.2574 -1.1746
19040THY    HM359592   4.682   9.140   4.695 -0.4981  1.4240  0.8127
19040THY    CA659593   4.436   9.346   4.767  0.0339  0.1476 -0.1395
19040THY    HA659594   4.425   9.389   4.668 -0.6269  0.5793  0.7027
19041THY      O59595   5.268   1.603   6.704 -0.7037  0.0743  0.1946
19041THY     HO59596   5.351   1.631   6.662  1.2557  2.6650 -1.2471
19041THY    CA159597   5.183   1.707   6.727  0.4726  0.3826  0.8516
19041THY    CA259598   5.060   1.671   6.779  0.3543  0.4585  0.5239
19041THY    CP159599   5.019   1.533   6.814 -0.3049 -0.1822 -0.2721
19041THY    HP159600   5.098   1.459   6.793  0.3109 -0.1067  0.3451
19041THY    CP259601   4.888   1.488   6.744 -0.0548  0.2017 -0.4024
19041THY    HP259602   4.813   1.565   6.765 -0.2179 -1.2216 -0.1377
19041THY    HP359603   4.855   1.392   6.785  0.6494 -2.8545 -2.1068
19041THY    HP459604   4.902   1.486   6.635 -0.5373  0.0770  1.1570
19041THY    CP359605   5.013   1.521   6.966  0.3157  0.3073  0.0985
19041THY    HP559606   5.012   1.414   6.990 -3.8612 -0.9503 -0.3344
19041THY    HP659607   4.917   1.566   6.995  0.0885  0.6005 -0.5684
19041THY    HP759608   5.093   1.573   7.020 -0.7854  1.2577  0.8669
19041THY    CA359609   4.974   1.785   6.801 -0.2183 -0.5409 -0.4345
19041THY    HA359610   4.871   1.789   6.835  0.4920  1.6099  1.9396
19041THY    CA459611   5.024   1.914   6.782  1.0500 -0.5617 -0.7531
19041THY    HA459612   4.961   2.000   6.807  0.3877 -0.7648 -1.1702
19041THY    CA559613   5.149   1.942   6.745 -0.2747  0.0692  0.7231
19041THY    CM159614   5.199   2.082   6.734 -0.9928 -0.3785 -0.0535
19041THY    HM159615   5.121   2.154   6.760  1.5076  1.4342  2.2308
19041THY    HM259616   5.249   2.103   6.639 -0.9860  0.2585  3.2658
19041THY    HM359617   5.274   2.107   6.811 -2.2964  1.4257 -1.4400
19041THY    CA659618   5.228   1.836   6.712 -0.1877  0.0875  0.5900
19041THY    HA659619   5.330   1.851   6.678  0.3669  1.3036 -0.2617
19042THY      O59620   6.606   1.429   3.574  0.6284 -0.2808 -0.1695
19042THY     HO59621   6.694   1.467   3.589  0.2903  0.3321  0.4019
19042THY    CA159622   6.526   1.540   3.591  0.5504  0.7469  0.1069
19042THY    CA259623   6.425   1.539   3.682 -0.0002  0.0673 -0.7273
19042THY    CP159624   6.392   1.406   3.749  0.1137 -0.3747 -0.5484
19042THY    HP159625   6.447   1.315   3.721  0.5630  2.3756 -1.2190
19042THY    CP259626   6.237   1.373   3.733 -0.1150 -0.3858  0.0391
19042THY    HP259627   6.177   1.464   3.732 -0.8838 -2.2320 -0.4400
19042THY    HP359628   6.200   1.324   3.823 -0.9993 -0.0371  1.3157
19042THY    HP459629   6.212   1.320   3.640 -2.1165  0.3401 -0.3776
19042THY    CP359630   6.411   1.423   3.902 -0.1006  0.1135 -0.1633
19042THY    HP559631   6.339   1.500   3.932 -1.2078  0.0299 -1.1351
19042THY    HP659632   6.511   1.460   3.927 -0.5371 -0.2025  1.2738
19042THY    HP759633   6.392   1.329   3.956  0.7560 -0.3494 -0.6094
19042THY    CA359634   6.338   1.650   3.700  0.4635 -0.0786  0.0116
19042THY    HA359635   6.262   1.651   3.778  1.6005  1.0579  1.3004
19042THY    CA459636   6.371   1.766   3.634 -0.4464  0.2677  0.3278
19042THY    HA459637   6.314   1.856   3.654  0.8056  0.7775  1.0375
19042THY    CA559638   6.475   1.774   3.539  0.0232 -1.0381  0.4247
19042THY    CM159639   6.513   1.907   3.473 -0.3369 -0.5662  0.1459
19042THY    HM159640   6.587   1.960   3.534 -0.7647 -1.1021  1.3900
19042THY    HM259641   6.430   1.975   3.454 -1.3667 -0.3644 -1.0154
19042THY    HM359642   6.576   1.901   3.383 -0.2952 -0.6061  1.0644
19042THY    CA659643   6.555   1.657   3.519 -0.3686 -0.2803 -0.3915
19042THY    HA659644   6.631   1.663   3.441 -0.9137 -0.8401 -0.6323
19043THY      O59645   0.773   7.576   2.698  0.5457 -0.2518 -0.4873
19043THY     HO59646   0.759   7.483   2.674 -0.0796  1.3824 -0.8561
19043THY    CA159647   0.906   7.586   2.710  0.2589  0.0748  0.4169
19043THY    CA259648   0.969   7.709   2.698 -0.4342 -0.8828 -0.1315
19043THY    CP159649   0.893   7.828   2.652  0.8395  0.8036 -0.4100
19043THY    HP159650   0.789   7.803   2.625  0.6159  0.6505  0.6113
19043THY    CP259651   0.967   7.880   2.519  0.0345 -0.2464  0.0356
19043THY    HP259652   0.901   7.939   2.454  0.8140 -1.1893 -0.1020
19043THY    HP359653   0.997   7.789   2.466  1.3014 -0.9686  0.8454
19043THY    HP459654   1.056   7.938   2.544 -0.0442  0.9831 -0.3556
19043THY    CP359655   0.873   7.936   2.756  0.0042 -0.2682  0.0791
19043THY    HP559656   0.790   7.997   2.718  0.1326 -2.2010 -0.8748
19043THY    HP659657   0.952   8.004   2.790  1.6146  0.0955 -1.8749
19043THY    HP759658   0.828   7.886   2.842 -1.3787 -0.7921  0.3869
19043THY    CA359659   1.105   7.711   2.729  0.4170 -0.0035  0.9838
19043THY    HA359660   1.169   7.798   2.719  1.1701  1.5112  0.6344
19043THY    CA459661   1.168   7.600   2.782 -0.2638  0.3481 -0.5740
19043THY    HA459662   1.275   7.610   2.797 -0.1241 -0.9011  0.0791
19043THY    CA559663   1.103   7.480   2.789 -0.0971 -0.4396 -0.4084
19043THY    CM159664   1.169   7.361   2.846  0.5709 -0.1993 -0.8420
19043THY    HM159665   1.181   7.290   2.763 -0.8859 -1.1761  0.0041
19043THY    HM259666   1.098   7.302   2.904 -0.1100 -1.5249 -1.3777
19043THY    HM359667   1.255   7.396   2.904 -0.6677 -0.6978  3.5597
19043THY    CA659668   0.971   7.469   2.750 -0.1611  0.0341 -0.3273
19043THY    HA659669   0.927   7.370   2.755 -0.0595 -2.2245 -0.5446
19044THY      O59670   2.321   8.077   2.288 -0.5927 -0.4318 -0.4051
19044THY     HO59671   2.275   8.081   2.374 -2.1634 -1.2530 -0.2142
19044THY    CA159672   2.451   8.110   2.316  0.4152  0.3548  0.1684
19044THY    CA259673   2.547   8.112   2.216  0.3170  0.1607 -0.1767
19044THY    CP159674   2.512   8.070   2.075  0.0410 -0.3575  0.5785
19044THY    HP159675   2.409   8.038   2.059  0.5151 -0.5986 -0.9046
19044THY    CP259676   2.602   7.947   2.039 -0.5944  0.1740 -0.2402
19044THY    HP259677   2.595   7.870   2.117 -0.7810 -0.8064 -1.2577
19044THY    HP359678   2.707   7.978   2.040 -0.6316  0.0550 -0.1110
19044THY    HP459679   2.576   7.898   1.944 -1.9350 -0.1673  1.0753
19044THY    CP359680   2.545   8.193   1.996  0.3207 -0.0678 -0.4665
19044THY    HP559681   2.533   8.166   1.890 -1.4509  0.2976 -1.2717
19044THY    HP659682   2.645   8.233   2.016  0.2213 -1.4277  0.5651
19044THY    HP759683   2.473   8.271   2.024 -3.1226 -0.0692 -3.3648
19044THY    CA359684   2.679   8.155   2.253  0.4127  0.8929 -0.3688
19044THY    HA359685   2.763   8.175   2.187  0.9891  1.4133 -1.0235
19044THY    CA459686   2.702   8.211   2.381  0.2484 -0.4878  0.1879
19044THY    HA459687   2.800   8.253   2.400 -0.1330 -2.6168  2.2710
19044THY    CA559688   2.605   8.197   2.472 -0.3571 -0.7673  0.1355
19044THY    CM159689   2.632   8.250   2.612  0.1811 -0.1165  0.1548
19044THY    HM159690   2.593   8.349   2.639 -0.3692 -0.7680  0.1182
19044THY    HM259691   2.738   8.261   2.639  0.5979 -0.3203 -2.6670
19044THY    HM359692   2.581   8.178   2.676  0.0375 -0.9609 -0.5033
19044THY    CA659693   2.484   8.145   2.443  0.6281 -0.4947 -0.5656
19044THY    HA659694   2.409   8.135   2.521 -0.6116 -1.4948  0.4362
19045THY      O59695   5.751   4.900   3.198 -0.5224  0.4022 -0.1027
19045THY     HO59696   5.688   4.956   3.149  1.0201 -1.5407  0.0442
19045THY    CA159697   5.701   4.881   3.316 -0.3301 -0.4760  0.8271
19045THY    CA259698   5.775   4.824   3.418 -0.3764  1.1204 -0.0775
19045THY    CP159699   5.919   4.775   3.400  0.4166 -0.2803  0.2225
19045THY    HP159700   5.951   4.802   3.299  1.3257 -0.5757 -1.7651
19045THY    CP259701   5.934   4.623   3.398  0.0681  0.6776  0.5577
19045THY    HP259702   5.871   4.575   3.322 -2.6838  1.1097  3.1868
19045THY    HP359703   5.898   4.579   3.492 -2.0104  0.3397  1.4317
19045THY    HP459704   6.040   4.598   3.383 -0.0421  1.3071 -0.3363
19045THY    CP359705   6.010   4.834   3.510  0.8657  0.3582 -0.2233
19045THY    HP559706   6.111   4.865   3.481 -0.5190 -1.3360  3.1723
19045THY    HP659707   6.020   4.766   3.596 -1.1924 -0.5738 -1.7939
19045THY    HP759708   5.964   4.930   3.535  0.3308 -0.8362 -0.1610
19045THY    CA359709   5.722   4.814   3.545  1.3950 -0.4290  0.2760
19045THY    HA359710   5.781   4.773   3.627 -2.4305  1.8325 -1.1980
19045THY    CA459711   5.589   4.863   3.563  0.9873 -0.4644  0.4797
19045THY    HA459712   5.543   4.864   3.661 -0.7386 -1.2075 -0.4703
19045THY    CA559713   5.517   4.915   3.457  0.2328  0.5463  0.6931
19045THY    CM159714   5.382   4.981   3.479  0.4109  0.7481 -0.4380
19045THY    HM159715   5.364   5.043   3.391 -2.6325  0.9829 -0.8152
19045THY    HM259716   5.383   5.039   3.572 -0.5330  0.0515  0.7353
19045THY    HM359717   5.305   4.903   3.489 -1.7754  0.3599  1.5603
19045THY    CA659718   5.577   4.928   3.331  0.0079  0.0860 -0.1648
19045THY    HA659719   5.523   4.972   3.247 -0.6742 -0.0397 -1.2196
19046THY      O59720   8.148   8.552   7.696  0.4888 -0.1473  0.0820
19046THY     HO59721   8.242   8.544   7.673  0.8448  0.7853  1.2426
19046THY    CA159722   8.090   8.430   7.694  0.0657 -0.1930  0.2108
19046THY    CA259723   7.956   8.403   7.662  0.5544 -0.1871 -0.1486
19046THY    CP159724   7.861   8.516   7.603 -0.4177  0.6735  0.7190
19046THY    HP159725   7.916   8.608   7.623  1.1065 -4.7500  1.3254
19046THY    CP259726   7.723   8.514   7.662  0.1515 -0.1700 -0.2591
19046THY    HP259727   7.669   8.602   7.625  0.6021 -1.2094 -0.4007
19046THY    HP359728   7.735   8.521   7.770  0.4002 -0.2867  1.7581
19046THY    HP459729   7.662   8.427   7.634  0.2033 -0.1979 -0.2873
19046THY    CP359730   7.858   8.513   7.445  0.6588  0.0065 -0.2161
19046THY    HP559731   7.837   8.614   7.408  2.3352 -0.9015 -0.1657
19046THY    HP659732   7.777   8.448   7.408  0.2088  0.5435  0.0273
19046THY    HP759733   7.951   8.477   7.401 -0.0844 -0.5574 -1.5290
19046THY    CA359734   7.900   8.278   7.668  0.0876  0.3726  0.2833
19046THY    HA359735   7.800   8.253   7.633 -0.4836  1.5028  0.9287
19046THY    CA459736   7.984   8.168   7.712 -0.0220 -0.6162  0.6779
19046THY    HA459737   7.950   8.066   7.723 -0.0961  0.5089  0.8142
19046THY    CA559738   8.119   8.193   7.731 -0.4283 -0.1873  0.5713
19046THY    CM159739   8.208   8.078   7.771 -0.5721  0.4239 -0.1260
19046THY    HM159740   8.265   8.047   7.682 -3.2980 -1.5093  0.0771
19046THY    HM259741   8.143   7.994   7.798  1.6298  2.8231 -1.2116
19046THY    HM359742   8.277   8.097   7.854  2.1344 -1.4768 -1.0068
19046THY    CA659743   8.168   8.319   7.726 -0.4557  0.5241 -0.1653
19046THY    HA659744   8.271   8.339   7.755 -0.1149 -0.4943 -0.3550
19047THY      O59745   4.904   8.318   4.067  0.4240 -0.0568 -0.5614
19047THY     HO59746   4.994   8.325   4.103  0.2323  0.3676 -0.2223
19047THY    CA159747   4.827   8.427   4.096 -0.1262  0.6503 -0.5005
19047THY    CA259748   4.694   8.428   4.066 -0.7417 -0.7113  0.9929
19047THY    CP159749   4.626   8.311   3.996 -0.5174 -0.2065 -0.2747
19047THY    HP159750   4.695   8.226   4.001  0.7077 -2.1604  0.5412
19047THY    CP259751   4.623   8.335   3.845  0.0665 -0.1723 -0.9752
19047THY    HP259752   4.556   8.420   3.830 -1.0807 -0.0704 -1.8371
19047THY    HP359753   4.579   8.245   3.800 -1.2121  1.7128 -1.3652
19047THY    HP459754   4.723   8.356   3.806 -0.1025 -0.1122 -0.0091
19047THY    CP359755   4.488   8.272   4.054 -0.5123 -0.2893  0.0812
19047THY    HP559756   4.427   8.362   4.069  1.0091 -1.4448  1.3731
19047THY    HP659757   4.509   8.217   4.146  0.0336 -1.5319 -1.8703
19047THY    HP759758   4.441   8.198   3.989  0.6858  0.3661 -1.3018
19047THY    CA359759   4.625   8.550   4.082  0.1858  0.4273 -0.0153
19047THY    HA359760   4.524   8.557   4.043  0.6090 -0.4271  1.8620
19047THY    CA459761   4.682   8.660   4.156 -0.0525  0.0612 -0.2507
19047THY    HA459762   4.625   8.749   4.178  1.2766 -2.2030  1.2754
19047THY    CA559763   4.818   8.655   4.177 -0.0245 -0.7265  0.0772
19047THY    CM159764   4.889   8.772   4.235 -0.5484 -0.3105 -0.0542
19047THY    HM159765   4.896   8.851   4.159  0.4318 -0.7082 -0.4988
19047THY    HM259766   4.987   8.732   4.263 -0.1848 -2.9448 -1.2622
19047THY    HM359767   4.856   8.819   4.328  2.9269 -0.3468  2.8973
19047THY    CA659768   4.890   8.535   4.150  0.0288 -0.5038 -0.1349
19047THY    HA659769   4.995   8.531   4.177 -0.0775  0.5600  2.6835
19048THY      O59770   7.521   2.075   7.680  0.6802 -0.1825 -0.1085
19048THY     HO59771   7.600   2.072   7.736  0.0633  0.7002 -0.4207
19048THY    CA159772   7.510   1.954   7.645  0.8130  0.6455  0.0708
19048THY    CA259773   7.411   1.917   7.554  0.6640 -0.1959  0.7516
19048THY    CP159774   7.308   2.023   7.509  0.6275  0.8152  0.1639
19048THY    HP159775   7.326   2.127   7.539  1.8592 -2.8058  1.1594
19048THY    CP259776   7.166   1.972   7.549 -0.0027  0.1161  0.1878
19048THY    HP259777   7.084   2.000   7.483  0.7998 -1.4628 -1.0291
19048THY    HP359778   7.140   2.033   7.636  0.5056 -0.6801  1.5713
19048THY    HP459779   7.152   1.867   7.580 -1.5589  0.2751  0.4290
19048THY    CP359780   7.312   2.035   7.356  0.1066  0.7117 -0.3037
19048THY    HP559781   7.273   2.127   7.312  0.0646 -3.1388 -1.9526
19048THY    HP659782   7.281   1.946   7.300  1.0191 -0.6819  0.2102
19048THY    HP759783   7.416   2.048   7.324 -0.2943 -0.2495  0.6957
19048THY    CA359784   7.403   1.780   7.520  0.3990  0.5858 -0.5988
19048THY    HA359785   7.343   1.741   7.438  1.2171  0.6872 -2.1471
19048THY    CA459786   7.494   1.688   7.572 -0.0105  0.1304 -0.2088
19048THY    HA459787   7.482   1.584   7.540 -1.4760 -0.3379  0.0740
19048THY    CA559788   7.585   1.728   7.670 -0.4200  0.1027  0.5153
19048THY    CM159789   7.695   1.638   7.718  0.0455  0.0822  0.0989
19048THY    HM159790   7.702   1.636   7.828  0.8941  0.0581 -3.2223
19048THY    HM259791   7.794   1.659   7.674 -0.5507 -0.6982  1.4391
19048THY    HM359792   7.665   1.539   7.685 -0.4744  1.7073 -0.3144
19048THY    CA659793   7.601   1.863   7.699  0.1052 -0.4910 -0.3552
19048THY    HA659794   7.678   1.904   7.764 -0.3770  0.1455 -0.4459
19049THY      O59795   3.093   2.989   3.284 -0.0818 -0.6073 -0.3119
19049THY     HO59796   3.068   3.023   3.372  2.4496  0.8275 -1.7467
19049THY    CA159797   3.042   2.859   3.282 -0.5092 -0.5302 -0.0004
19049THY    CA259798   2.926   2.825   3.207 -0.2617  0.2626  0.4463
19049THY    CP159799   2.844   2.939   3.141  0.5034 -0.2514 -0.9328
19049THY    HP159800   2.900   3.033   3.150  1.1291 -2.1335 -1.0895
19049THY    CP259801   2.718   2.963   3.211 -0.2827 -0.5038 -0.0006
19049THY    HP259802   2.671   3.054   3.170  0.3626 -0.2911  0.4370
19049THY    HP359803   2.749   2.989   3.312  1.0582 -0.7779 -0.4768
19049THY    HP459804   2.656   2.874   3.203 -1.3740  0.6491  0.6251
19049THY    CP359805   2.822   2.912   2.997 -0.2990  1.0202  0.1098
19049THY    HP559806   2.919   2.901   2.948  0.1998  1.8363  0.7932
19049THY    HP659807   2.781   2.995   2.938  0.5462  0.1744 -0.0557
19049THY    HP759808   2.755   2.825   2.994 -0.7558  0.0097  0.4775
19049THY    CA359809   2.886   2.690   3.192  0.3426  0.0418 -0.0070
19049THY    HA359810   2.802   2.659   3.130  0.5353 -0.2511  0.0548
19049THY    CA459811   2.959   2.588   3.256  0.1213 -0.2700 -0.0650
19049THY    HA459812   2.931   2.484   3.244 -1.7411  1.0881  0.2270
19049THY    CA559813   3.078   2.620   3.328  0.5688  0.0513  0.1867
19049THY    CM159814   3.168   2.515   3.373  0.8361  0.4638  0.5519
19049THY    HM159815   3.108   2.425   3.392 -1.5390  2.0177  2.3256
19049THY    HM259816   3.203   2.548   3.472 -0.7089  1.4441 -0.5734
19049THY    HM359817   3.254   2.498   3.308  1.3057  0.4659  2.7163
19049THY    CA659818   3.118   2.758   3.334  0.1280 -0.4216  0.8103
19049THY    HA659819   3.212   2.780   3.385  1.1739 -1.4517 -0.9620
19050THY      O59820   1.469   5.545   3.665 -0.0998  0.3012 -0.3398
19050THY     HO59821   1.457   5.637   3.693  0.5791  0.5219 -0.3078
19050THY    CA159822   1.413   5.549   3.544  0.1183  0.0362  0.3055
19050THY    CA259823   1.409   5.440   3.453 -0.4368 -0.2491  0.8994
19050THY    CP159824   1.440   5.295   3.496 -0.5372  0.6628  0.1175
19050THY    HP159825   1.498   5.292   3.589 -1.5062  1.2788 -2.1203
19050THY    CP259826   1.529   5.217   3.403  0.2025  0.3989 -0.4475
19050THY    HP259827   1.553   5.121   3.449  0.5145  1.7525  0.2524
19050THY    HP359828   1.624   5.269   3.383 -0.7303 -2.2025  0.4554
19050THY    HP459829   1.490   5.189   3.305 -0.1050  0.0317  1.1609
19050THY    CP359830   1.310   5.217   3.525  0.3559 -0.0309  0.1966
19050THY    HP559831   1.338   5.113   3.544 -1.2295 -0.9217 -0.4306
19050THY    HP659832   1.230   5.221   3.450 -0.1182  0.4786  0.3744
19050THY    HP759833   1.271   5.260   3.618 -0.0015 -0.0940  0.0096
19050THY    CA359834   1.363   5.464   3.323 -0.9885  0.6500  0.2163
19050THY    HA359835   1.352   5.394   3.241 -0.8444  1.1623 -0.4194
19050THY    CA459836   1.306   5.590   3.291 -0.1537 -0.1781  0.3463
19050THY    HA459837   1.258   5.604   3.194  1.2720 -0.8304  1.0101
19050THY    CA559838   1.306   5.696   3.383  0.0212  0.6177 -0.3598
19050THY    CM159839   1.246   5.819   3.337  0.3866 -0.7571 -0.4096
19050THY    HM159840   1.142   5.813   3.304  0.2920 -0.4445 -0.5268
19050THY    HM259841   1.316   5.866   3.267  0.8022 -0.6870 -0.9078
19050THY    HM359842   1.243   5.881   3.427  0.6840 -0.2735 -1.0740
19050THY    CA659843   1.356   5.672   3.513  0.5323 -0.0950 -0.3965
19050THY    HA659844   1.351   5.752   3.586 -5.0141 -1.5460  0.9685
19051THY      O59845   5.938   4.717   4.979  0.0580  0.0295  0.3849
19051THY     HO59846   5.893   4.632   4.992  0.6942 -0.4995 -0.0446
19051THY    CA159847   6.017   4.710   5.084 -0.1115 -0.5619  0.1104
19051THY    CA259848   6.086   4.820   5.130  0.2241  0.2095 -0.1854
19051THY    CP159849   6.062   4.951   5.055 -0.2701 -0.0875 -0.2507
19051THY    HP159850   6.001   4.951   4.964 -2.4868  1.3096 -0.8419
19051THY    CP259851   6.200   5.019   5.008 -0.0978  0.4734  0.4091
19051THY    HP259852   6.267   5.042   5.091  0.4986 -0.4760  2.3199
19051THY    HP359853   6.177   5.112   4.955  1.7814 -0.7627  0.2205
19051THY    HP459854   6.248   4.949   4.937 -0.0470  0.7612  0.1518
19051THY    CP359855   6.005   5.056   5.151  0.7654 -0.0805 -0.1237
19051THY    HP559856   5.909   5.024   5.194  0.2056 -1.3706 -0.2256
19051THY    HP659857   5.991   5.150   5.097  2.1119  2.6649  1.8015
19051THY    HP759858   6.061   5.079   5.243  1.3746  0.3500 -2.9738
19051THY    CA359859   6.180   4.804   5.238  0.4740 -0.1766 -0.4146
19051THY    HA359860   6.237   4.886   5.281 -1.8668  0.9540  0.6956
19051THY    CA459861   6.200   4.670   5.288 -0.2501 -0.0070 -0.0910
19051THY    HA459862   6.268   4.656   5.372  0.1694  0.7263  4.7162
19051THY    CA559863   6.128   4.558   5.244  0.0377  1.2424  0.4458
19051THY    CM159864   6.144   4.418   5.300 -0.1795  0.6721  0.1073
19051THY    HM159865   6.215   4.357   5.244  1.9639  2.0406  1.2157
19051THY    HM259866   6.048   4.366   5.301 -0.6085  0.1070  0.8669
19051THY    HM359867   6.179   4.423   5.404 -1.0342  0.9196  1.3145
19051THY    CA659868   6.039   4.578   5.138  0.3040  0.1127 -0.1821
19051THY    HA659869   5.986   4.490   5.102  0.3836  0.9053 -0.5670
19052THY      O59870   2.442   4.960   2.024 -0.2394  0.1231 -0.0166
19052THY     HO59871   2.450   5.040   1.969 -2.6993 -0.3716 -0.0312
19052THY    CA159872   2.491   4.846   1.965 -0.0216 -0.4609 -0.2142
19052THY    CA259873   2.512   4.733   2.049 -0.3429  0.9208  0.4685
19052THY    CP159874   2.474   4.732   2.198 -0.5316 -0.0004 -0.0963
19052THY    HP159875   2.403   4.815   2.209 -0.2212 -0.8183  0.2879
19052THY    CP259876   2.590   4.754   2.292 -0.6223 -0.2397  0.4363
19052THY    HP259877   2.634   4.854   2.279 -1.0518  2.5602  1.0578
19052THY    HP359878   2.664   4.673   2.294  0.2461 -1.6053  1.1534
19052THY    HP459879   2.548   4.752   2.393  1.1759  0.5754  1.2299
19052THY    CP359880   2.388   4.607   2.236 -0.1185  1.1585 -0.7052
19052THY    HP559881   2.290   4.621   2.189  0.4968  0.1367  0.3798
19052THY    HP659882   2.362   4.599   2.342  0.0114  1.1301 -1.5574
19052THY    HP759883   2.438   4.513   2.209 -0.9576 -0.9166 -0.5998
19052THY    CA359884   2.578   4.622   1.979  0.8001  0.5292  0.5749
19052THY    HA359885   2.606   4.531   2.032  1.4318 -0.3785  0.2312
19052THY    CA459886   2.605   4.622   1.846 -0.6859  0.3293 -0.7824
19052THY    HA459887   2.653   4.539   1.795  0.9343 -1.5204  1.1596
19052THY    CA559888   2.579   4.737   1.766  0.7134 -0.9779  0.4193
19052THY    CM159889   2.612   4.735   1.621  0.5590 -0.1504 -0.1405
19052THY    HM159890   2.514   4.735   1.571  0.4429  0.0680  0.2707
19052THY    HM259891   2.655   4.637   1.600  1.6985  0.3621  0.2417
19052THY    HM359892   2.669   4.826   1.600 -0.6590 -1.6502  0.3272
19052THY    CA659893   2.524   4.852   1.830 -0.0123 -0.1100  0.5554
19052THY    HA659894   2.508   4.941   1.770  2.0816 -1.2061  0.2684
19053THY      O59895   1.419   1.779   3.299  0.0380 -0.3863 -0.5749
19053THY     HO59896   1.425   1.684   3.320 -0.3128  0.6357 -0.3891
19053THY    CA159897   1.370   1.837   3.416 -0.2230 -0.1021 -0.0015
19053THY    CA259898   1.299   1.955   3.406 -0.3467  0.1347  0.1793
19053THY    CP159899   1.272   2.022   3.270 -0.0746  0.9095  0.4098
19053THY    HP159900   1.356   2.006   3.200  0.1107  0.2112  3.7790
19053THY    CP259901   1.266   2.177   3.273  0.5297  0.4092  0.9016
19053THY    HP259902   1.181   2.213   3.333 -0.6799 -0.5968 -0.1520
19053THY    HP359903   1.244   2.211   3.171 -0.6576  0.3332 -0.0301
19053THY    HP459904   1.363   2.220   3.298  0.6032  1.0923  0.3476
19053THY    CP359905   1.138   1.969   3.208 -0.2368  0.0372 -0.1645
19053THY    HP559906   1.115   2.017   3.113  2.1473  0.6497  2.4326
19053THY    HP659907   1.056   1.991   3.278 -1.4327 -1.3936  0.0450
19053THY    HP759908   1.139   1.860   3.195  0.3085 -1.2654 -0.0161
19053THY    CA359909   1.261   2.015   3.530 -0.3198 -1.0676 -0.6745
19053THY    HA359910   1.205   2.108   3.531  1.1055  0.6134  0.2365
19053THY    CA459911   1.279   1.934   3.650 -0.0224 -0.5549  0.0327
19053THY    HA459912   1.227   1.964   3.740  0.0645 -0.6283  0.4110
19053THY    CA559913   1.350   1.818   3.651 -0.5061  0.6251  0.0382
19053THY    CM159914   1.364   1.734   3.771 -0.2071 -0.4398 -0.0772
19053THY    HM159915   1.470   1.715   3.791 -0.1050 -0.0051  0.8915
19053THY    HM259916   1.300   1.644   3.765 -0.8657  0.7512  0.2906
19053THY    HM359917   1.328   1.784   3.862 -0.4223 -0.4754 -0.1637
19053THY    CA659918   1.406   1.776   3.529  0.4318 -0.6048  0.8747
19053THY    HA659919   1.453   1.679   3.525 -1.9689  2.2232 -0.5350
19054THY      O59920   7.119   2.870   2.492  0.2994  0.5826 -0.0755
19054THY     HO59921   7.159   2.818   2.421  1.6024  0.8834  0.4803
19054THY    CA159922   7.161   2.997   2.469 -0.3071  0.0774  1.3874
19054THY    CA259923   7.125   3.098   2.559  0.1547 -0.5227 -0.1189
19054THY    CP159924   7.079   3.063   2.701  0.3743 -0.4256  0.2345
19054THY    HP159925   7.018   2.971   2.707 -0.2653  2.3741  0.7423
19054THY    CP259926   6.988   3.162   2.772  0.2099  0.3369 -0.0140
19054THY    HP259927   7.044   3.250   2.805 -0.0081  2.1856 -0.5277
19054THY    HP359928   6.948   3.123   2.866 -0.6778 -0.0935 -0.1837
19054THY    HP459929   6.896   3.192   2.720 -1.1823  3.1453  0.9534
19054THY    CP359930   7.202   3.032   2.788 -0.3699 -0.0277 -0.2852
19054THY    HP559931   7.285   3.102   2.771 -1.1941  1.9132  1.2528
19054THY    HP659932   7.236   2.931   2.759 -0.2218  0.7187 -0.4537
19054THY    HP759933   7.184   3.020   2.895  0.2639  0.2195  0.8086
19054THY    CA359934   7.164   3.229   2.531 -0.1055 -0.2486 -0.6815
19054THY    HA359935   7.151   3.310   2.601  2.7992 -0.2368 -0.1113
19054THY    CA459936   7.228   3.254   2.410 -0.3994 -0.3322 -0.2812
19054THY    HA459937   7.253   3.353   2.371  0.2446  1.4496  0.2986
19054THY    CA559938   7.247   3.161   2.314 -0.2876  0.8198 -0.6921
19054THY    CM159939   7.327   3.191   2.193  0.0613 -0.3363 -0.2559
19054THY    HM159940   7.398   3.119   2.150  1.4033  1.1405  0.1251
19054THY    HM259941   7.381   3.286   2.187  2.5117  1.2080 -1.4576
19054THY    HM359942   7.249   3.201   2.116 -0.5228  0.3070  0.2587
19054THY    CA659943   7.222   3.028   2.343  0.6057 -0.0671  0.2239
19054THY    HA659944   7.249   2.947   2.276  0.8308 -0.0780  0.3079
19055THY      O59945   5.529   2.840   2.626  0.1193 -0.7563 -0.0133
19055THY     HO59946   5.569   2.751   2.625  0.7672 -1.4615  0.2717
19055THY    CA159947   5.540   2.880   2.496 -0.3558 -0.5757 -0.0700
19055THY    CA259948   5.466   2.986   2.448 -0.0627  0.4056 -0.3343
19055THY    CP159949   5.380   3.072   2.531  0.5845  0.2225  0.2851
19055THY    HP159950   5.362   3.034   2.632 -1.4975 -0.6110 -1.1023
19055THY    CP259951   5.234   3.091   2.474 -0.0958  0.4292  0.0482
19055THY    HP259952   5.176   3.144   2.550 -0.7341  1.0111 -1.4414
19055THY    HP359953   5.188   2.993   2.459 -0.8260  1.8059  0.1627
19055THY    HP459954   5.228   3.151   2.382 -1.3595  0.5701  0.1680
19055THY    CP359955   5.441   3.211   2.544  0.7707  0.4656 -0.3349
19055THY    HP559956   5.382   3.269   2.615  1.2822  2.2412 -1.8593
19055THY    HP659957   5.433   3.274   2.455  0.0019  0.3938 -0.5228
19055THY    HP759958   5.545   3.207   2.581  1.1538 -0.6306 -1.1914
19055THY    CA359959   5.488   3.027   2.316 -0.0933  0.4303 -0.0790
19055THY    HA359960   5.439   3.117   2.281 -0.2147 -1.5106 -0.8650
19055THY    CA459961   5.580   2.961   2.232  0.2736 -0.1822 -0.6854
19055THY    HA459962   5.594   2.994   2.129 -1.4018 -1.0493 -2.4660
19055THY    CA559963   5.654   2.855   2.285  0.8434 -0.5724  0.1342
19055THY    CM159964   5.753   2.785   2.197  0.2223  0.1316 -0.1219
19055THY    HM159965   5.840   2.849   2.181  0.0866 -0.4466 -0.0750
19055THY    HM259966   5.701   2.761   2.103 -1.3986  1.6164 -2.9330
19055THY    HM359967   5.781   2.690   2.245  0.1387 -1.0522 -0.7669
19055THY    CA659968   5.626   2.811   2.415  0.0032  0.0762  0.1241
19055THY    HA659969   5.689   2.730   2.451 -0.7707  0.1846 -0.4408
19056THY      O59970   8.714   3.201   1.729 -0.0889  0.8425 -0.1277
19056THY     HO59971   8.680   3.271   1.671  1.9635  0.5643  0.7315
19056THY    CA159972   8.845   3.227   1.730 -0.8600  0.2448 -0.4924
19056THY    CA259973   8.946   3.132   1.776  0.2207  0.4343 -0.0071
19056THY    CP159974   8.925   2.979   1.760  0.6705 -0.6215 -0.8986
19056THY    HP159975   8.825   2.959   1.721  1.0996 -1.5353 -1.3907
19056THY    CP259976   8.941   2.902   1.882 -0.3547 -0.4722  0.4242
19056THY    HP259977   8.868   2.940   1.954  0.1553  0.8052 -0.9442
19056THY    HP359978   9.047   2.918   1.905  0.1981 -0.8300 -2.1823
19056THY    HP459979   8.912   2.797   1.871 -2.7798 -0.6444  1.0566
19056THY    CP359980   9.010   2.913   1.648  1.3600 -0.5813  0.1290
19056THY    HP559981   8.954   2.827   1.611  1.7294 -0.0486 -0.3460
19056THY    HP659982   9.107   2.876   1.683  0.6090  0.8739 -0.5214
19056THY    HP759983   9.019   2.989   1.569 -0.6477 -1.1496 -0.1797
19056THY    CA359984   9.078   3.182   1.804 -0.1503  0.6979  0.3872
19056THY    HA359985   9.160   3.112   1.818  0.4264  0.6752  1.0469
19056THY    CA459986   9.103   3.321   1.795 -0.0611 -1.3140 -0.7453
19056THY    HA459987   9.201   3.363   1.816 -0.6644  0.0461  0.0326
19056THY    CA559988   9.006   3.413   1.765  0.0829 -0.0458 -0.5066
19056THY    CM159989   9.037   3.559   1.776  0.2265  0.5365  1.1822
19056THY    HM159990   9.044   3.591   1.881 -0.3692  1.0902 -0.4424
19056THY    HM259991   8.964   3.623   1.724 -0.0348  0.2692  0.6660
19056THY    HM359992   9.135   3.586   1.733  1.2972  1.5610 -0.8661
19056THY    CA659993   8.877   3.364   1.733 -0.4430 -0.1236 -0.1468
19056THY    HA659994   8.791   3.428   1.717 -1.9058  1.0296 -1.7454
19057THY      O59995   8.359   8.494   4.728 -0.1548  0.4771 -0.1934
19057THY     HO59996   8.314   8.518   4.811 -0.8595 -0.6057  2.6584
19057THY    CA159997   8.458   8.398   4.758 -0.0472  0.5946  0.3316
19057THY    CA259998   8.518   8.325   4.658  0.0540 -0.0211  0.4285
19057THY    CP159999   8.507   8.349   4.507  0.1573  0.5758  0.6698
19057THY    HP160000   8.451   8.441   4.486  1.3433  2.7150  1.9692
19057THY    CP260001   8.427   8.228   4.450  0.0257 -0.7075 -0.0376
19057THY    HP260002   8.329   8.219   4.498 -0.2203 -1.0753  0.6351
19057THY    HP360003   8.481   8.133   4.458 -0.2815 -0.2956 -0.1803
19057THY    HP460004   8.410   8.259   4.346  0.7987 -0.1191  2.6215
19057THY    CP360005   8.635   8.394   4.436 -0.0073 -0.2885 -0.0576
19057THY    HP560006   8.615   8.435   4.336  0.1555 -1.2579 -2.2162
19057THY    HP660007   8.710   8.315   4.421 -0.5098  1.7311 -0.9851
19057THY    HP760008   8.695   8.457   4.503  2.7020 -1.8435 -0.7939
19057THY    CA360009   8.604   8.223   4.701  0.0815 -0.4876  0.2834
19057THY    HA360010   8.666   8.167   4.632  0.9785  0.2344  0.3803
19057THY    CA460011   8.623   8.193   4.841 -0.0877 -0.3946  0.5144
19057THY    HA460012   8.693   8.124   4.886  0.9250  1.3945  2.5961
19057THY    CA560013   8.571   8.280   4.936 -0.4758 -0.4282 -0.0397
19057THY    CM160014   8.603   8.271   5.081 -0.2099 -0.0693  0.1562
19057THY    HM160015   8.538   8.205   5.140  0.4752  2.2038  1.3952
19057THY    HM260016   8.589   8.371   5.124 -0.5083 -1.9239  0.9626
19057THY    HM360017   8.706   8.238   5.097 -0.6252 -1.2753 -1.8993
19057THY    CA660018   8.488   8.386   4.892  0.0604  0.6487  0.6344
19057THY    HA660019   8.440   8.445   4.970 -0.8059  0.2471  0.4790
19058THY      O60020   3.052   6.653   2.566 -0.1484 -0.1449  0.0060
19058THY     HO60021   3.113   6.726   2.545  0.1042  0.3962 -0.0482
19058THY    CA160022   3.028   6.689   2.699 -0.7489 -0.1520 -0.8287
19058THY    CA260023   3.021   6.595   2.803  0.6823  0.1893  0.5856
19058THY    CP160024   3.031   6.443   2.781 -0.5194  0.3677  0.2829
19058THY    HP160025   3.047   6.411   2.677  0.1410  0.5279  0.0771
19058THY    CP260026   2.908   6.371   2.828 -0.3968  0.2209 -0.7129
19058THY    HP260027   2.906   6.267   2.794 -1.7427 -1.2213 -0.2595
19058THY    HP360028   2.826   6.418   2.772 -0.5046  2.1958  1.6710
19058THY    HP460029   2.885   6.370   2.935  1.7511  0.7374 -1.0557
19058THY    CP360030   3.164   6.387   2.844 -0.1194  0.1333  0.2447
19058THY    HP560031   3.150   6.279   2.835  1.3598  2.6496 -0.2446
19058THY    HP660032   3.171   6.412   2.951 -3.0376  0.3811  0.2850
19058THY    HP760033   3.251   6.422   2.788  0.2998  0.4973 -0.2037
19058THY    CA360034   3.006   6.644   2.936  0.8605 -0.1609  0.5610
19058THY    HA360035   3.008   6.573   3.018  0.6656 -0.6803 -0.0598
19058THY    CA460036   2.989   6.778   2.959 -0.6210  0.3678  0.1138
19058THY    HA460037   2.970   6.815   3.059 -1.5802  0.3925 -0.4195
19058THY    CA560038   2.999   6.867   2.858  0.6394  0.8155 -0.1671
19058THY    CM160039   2.968   7.015   2.883 -0.0564 -0.5412 -0.1142
19058THY    HM160040   2.967   7.068   2.787 -3.0091  0.1849  1.3758
19058THY    HM260041   3.047   7.065   2.940  0.4430 -0.4609 -0.9888
19058THY    HM360042   2.868   7.019   2.928  0.1057 -0.1668 -0.2298
19058THY    CA660043   3.031   6.827   2.727 -0.0020 -0.2530  0.2696
19058THY    HA660044   3.030   6.898   2.645  0.3405  0.5174  1.1875
19059THY      O60045   8.586   2.697   3.362 -0.5603 -0.4944 -0.1170
19059THY     HO60046   8.579   2.613   3.410 -0.4175  0.9423  0.6598
19059THY    CA160047   8.666   2.673   3.259  0.4310  0.0656  0.9311
19059THY    CA260048   8.631   2.695   3.125  0.4740  0.0102 -0.0135
19059THY    CP160049   8.494   2.753   3.094 -0.8380 -0.1692  0.2265
19059THY    HP160050   8.437   2.780   3.184 -0.3955 -0.0874  0.9137
19059THY    CP260051   8.414   2.644   3.019  0.6932 -0.4046 -0.4287
19059THY    HP260052   8.391   2.566   3.092 -0.2260 -1.1062 -0.8334
19059THY    HP360053   8.479   2.601   2.942  2.0490  1.1291 -1.2041
19059THY    HP460054   8.327   2.695   2.976  0.8264 -0.1963 -0.0213
19059THY    CP360055   8.496   2.881   3.009 -0.0252 -0.0825 -0.0477
19059THY    HP560056   8.405   2.941   3.020  0.7509 -3.8877  2.1748
19059THY    HP660057   8.524   2.861   2.904  0.0203  0.1029 -1.0017
19059THY    HP760058   8.572   2.944   3.056 -0.2252  0.1754  0.0030
19059THY    CA360059   8.718   2.668   3.016  0.0811  0.9099  0.3577
19059THY    HA360060   8.705   2.694   2.911 -0.3279  0.8610 -0.0452
19059THY    CA460061   8.843   2.620   3.051  0.2460 -0.1895 -0.5598
19059THY    HA460062   8.919   2.597   2.977  2.4477  0.7795  2.8514
19059THY    CA560063   8.885   2.597   3.178  0.0898  0.0438 -0.8652
19059THY    CM160064   9.017   2.530   3.195  1.0572 -0.3377 -0.3399
19059THY    HM160065   9.012   2.424   3.224  2.1363  2.7905  0.3585
19059THY    HM260066   9.081   2.576   3.271  1.6335  0.1593 -1.8989
19059THY    HM360067   9.069   2.517   3.099  1.3640 -0.0723 -1.1221
19059THY    CA660068   8.795   2.620   3.286 -0.6378  0.4956  0.5972
19059THY    HA660069   8.827   2.600   3.388 -1.4086  0.7810  0.7920
19060THY      O60070   1.570   1.531   3.334 -0.0186  0.7541  0.4225
19060THY     HO60071   1.658   1.571   3.341 -1.6208 -1.1288  4.9482
19060THY    CA160072   1.591   1.403   3.290  0.1805  0.4843  0.1357
19060THY    CA260073   1.487   1.306   3.289 -0.2264  0.2731 -0.1605
19060THY    CP160074   1.344   1.346   3.305 -0.6859 -0.6803  0.1824
19060THY    HP160075   1.340   1.453   3.328 -1.0484 -1.0442  0.2480
19060THY    CP260076   1.282   1.273   3.424 -0.0889 -0.3078 -0.8106
19060THY    HP260077   1.265   1.167   3.402  0.6551 -2.3667 -0.5379
19060THY    HP360078   1.180   1.308   3.445  1.0264  0.8849  2.0603
19060THY    HP460079   1.347   1.271   3.512 -0.2371 -0.0755  1.6057
19060THY    CP360080   1.277   1.327   3.177  0.3501  0.3269 -0.0606
19060THY    HP560081   1.270   1.223   3.145  0.4712 -0.4808  0.1761
19060THY    HP660082   1.308   1.397   3.099  0.3269  1.5098  1.3100
19060THY    HP760083   1.169   1.345   3.187 -0.0464 -1.4504 -1.2465
19060THY    CA360084   1.528   1.171   3.269  0.0130  0.2556  0.6867
19060THY    HA360085   1.462   1.085   3.275  1.2638  1.3917 -0.2362
19060THY    CA460086   1.661   1.139   3.249 -0.4917  1.2955 -0.2294
19060THY    HA460087   1.692   1.037   3.230  0.3453 -0.7616  0.3624
19060THY    CA560088   1.749   1.241   3.219 -0.2506 -0.0877 -0.5406
19060THY    CM160089   1.893   1.202   3.189 -0.1453  0.1198 -0.0931
19060THY    HM160090   1.947   1.276   3.128 -0.0124  1.6149  1.0963
19060THY    HM260091   1.914   1.106   3.142  0.6744  0.8927 -0.3048
19060THY    HM360092   1.941   1.193   3.287  0.1999 -0.1706 -1.6753
19060THY    CA660093   1.719   1.372   3.256 -1.0778 -0.1699  0.4828
19060THY    HA660094   1.783   1.459   3.249 -0.3635  1.6722  0.1688
19061THY      O60095   3.139   6.466   5.356 -0.5763  0.1692  0.0620
19061THY     HO60096   3.186   6.519   5.422 -0.2318 -1.3237  1.6961
19061THY    CA160097   3.207   6.483   5.240  0.4938  0.3646 -0.6948
19061THY    CA260098   3.161   6.418   5.119  0.2994 -0.1883 -0.9208
19061THY    CP160099   3.025   6.347   5.116  0.7076 -0.3198  0.4614
19061THY    HP160100   2.963   6.400   5.189  0.6501 -0.6303  0.8315
19061THY    CP260101   3.036   6.192   5.155 -0.8755 -0.1351 -0.0652
19061THY    HP260102   3.108   6.131   5.099  0.4477  2.7006 -1.3142
19061THY    HP360103   2.938   6.145   5.143  0.8944 -1.0833 -3.8729
19061THY    HP460104   3.055   6.174   5.262 -0.7233 -0.2467 -0.5778
19061THY    CP360105   2.941   6.369   4.991  0.3465  0.3987  0.1341
19061THY    HP560106   2.835   6.341   5.002  0.1352 -2.0111 -0.2642
19061THY    HP660107   2.976   6.329   4.895  1.7582  1.4367 -1.2618
19061THY    HP760108   2.945   6.476   4.969  0.3678 -1.6700 -0.2581
19061THY    CA360109   3.253   6.421   5.011 -0.0322 -0.4511  0.6672
19061THY    HA360110   3.234   6.366   4.920 -0.8946  0.0247  0.1460
19061THY    CA460111   3.366   6.510   5.012 -0.2320 -0.2030 -0.2226
19061THY    HA460112   3.425   6.521   4.922 -0.7474 -0.9708 -2.8197
19061THY    CA560113   3.406   6.577   5.130 -0.5316  0.2624  0.1375
19061THY    CM160114   3.544   6.646   5.132 -0.1959  0.4021  0.5051
19061THY    HM160115   3.556   6.744   5.180 -0.4934  0.7573  0.3723
19061THY    HM260116   3.593   6.649   5.034 -0.4121  0.2704 -0.0954
19061THY    HM360117   3.615   6.586   5.189  1.6919 -0.7333  1.5504
19061THY    CA660118   3.322   6.568   5.239  0.0358 -0.5169  0.0846
19061THY    HA660119   3.352   6.616   5.332 -0.8033 -0.3017  0.2105
19062THY      O60120   7.308   7.237   4.726 -0.0020  0.4273  0.3079
19062THY     HO60121   7.260   7.214   4.644  2.3214 -1.3037  1.1955
19062THY    CA160122   7.228   7.204   4.829  0.4195 -0.2388  0.3427
19062THY    CA260123   7.263   7.213   4.962  0.4475  0.3026 -0.4945
19062THY    CP160124   7.406   7.263   4.993 -0.1574  0.3797  1.0514
19062THY    HP160125   7.476   7.262   4.909  1.0683  1.2312 -3.1867
19062THY    CP260126   7.491   7.163   5.073  0.2192 -0.0143  0.1246
19062THY    HP260127   7.583   7.189   5.127  0.6622 -0.0872 -1.2211
19062THY    HP360128   7.506   7.073   5.012 -0.4171 -0.3536  0.2454
19062THY    HP460129   7.431   7.136   5.160  1.6928  1.4759  1.4135
19062THY    CP360130   7.411   7.399   5.051  0.3008  0.2468 -0.4186
19062THY    HP560131   7.344   7.470   5.002  3.4886 -1.7159  1.4992
19062THY    HP660132   7.513   7.437   5.033 -0.6126 -0.7014  1.7355
19062THY    HP760133   7.388   7.391   5.158  1.4533  0.6689  1.3369
19062THY    CA360134   7.163   7.186   5.058  0.0908  0.0519 -0.4879
19062THY    HA360135   7.186   7.186   5.164  2.7684 -0.3771 -3.1437
19062THY    CA460136   7.041   7.143   5.016 -0.5183 -0.5853  0.4313
19062THY    HA460137   6.964   7.112   5.086 -0.7647 -1.3987 -0.8714
19062THY    CA560138   7.009   7.135   4.882  0.1181  0.4039  0.1239
19062THY    CM160139   6.870   7.091   4.839  0.1695 -0.0261 -0.3623
19062THY    HM160140   6.867   7.011   4.764 -0.1843  0.1077 -0.4716
19062THY    HM260141   6.822   7.179   4.795 -0.9827  0.8286 -0.5482
19062THY    HM360142   6.796   7.064   4.915 -1.4376 -1.3913  0.0242
19062THY    CA660143   7.106   7.158   4.786  0.4294 -0.1897  0.6897
19062THY    HA660144   7.077   7.148   4.682 -1.2852  0.1322  1.8925
19063THY      O60145   6.940   0.774   6.196 -0.3139  0.0700 -0.2398
19063THY     HO60146   7.029   0.754   6.230 -0.4491  0.6748  0.1684
19063THY    CA160147   6.858   0.708   6.276 -0.2670 -0.0937  0.2481
19063THY    CA260148   6.723   0.729   6.262  0.3015 -0.1202  0.0844
19063THY    CP160149   6.670   0.842   6.169  0.0827  0.6644  0.0329
19063THY    HP160150   6.744   0.910   6.124 -3.5071 -2.2912  2.4212
19063THY    CP260151   6.590   0.936   6.260 -0.0452  0.1554 -0.3706
19063THY    HP260152   6.511   0.889   6.321 -0.9299  0.5073  1.4840
19063THY    HP360153   6.549   1.024   6.210  3.2993 -1.2963  0.4980
19063THY    HP460154   6.663   0.979   6.328  1.1131 -2.2704  1.7373
19063THY    CP360155   6.574   0.790   6.066  0.6214  0.2259  0.0798
19063THY    HP560156   6.505   0.870   6.035  1.6654 -1.5616  0.3274
19063THY    HP660157   6.511   0.720   6.122  0.2486  0.6272  0.7263
19063THY    HP760158   6.619   0.747   5.976  1.3591  0.0479  1.1740
19063THY    CA360159   6.632   0.644   6.332 -1.0415  0.4772 -0.7782
19063THY    HA360160   6.525   0.656   6.323 -0.9506  0.0799 -0.2030
19063THY    CA460161   6.680   0.555   6.426  0.4798 -0.2124 -0.1864
19063THY    HA460162   6.603   0.500   6.479 -2.8697 -4.2492  0.1076
19063THY    CA560163   6.815   0.531   6.434  0.1746  1.0889 -0.5481
19063THY    CM160164   6.874   0.426   6.528 -0.6161  0.5509  0.5267
19063THY    HM160165   6.973   0.457   6.564 -0.8045  0.7076  0.9541
19063THY    HM260166   6.897   0.341   6.462  0.0897  0.4872  0.7582
19063THY    HM360167   6.809   0.401   6.612 -1.7490 -0.9635 -1.8775
19063THY    CA660168   6.905   0.609   6.361 -0.8104 -0.3423 -0.8134
19063THY    HA660169   7.011   0.588   6.356 -0.7478 -0.5648 -0.4513
19064THY      O60170   8.387   5.250   2.423 -0.1254 -0.0566  0.1703
19064THY     HO60171   8.395   5.255   2.519  1.9972 -0.2244  0.9461
19064THY    CA160172   8.281   5.323   2.389 -0.0316 -0.1342  0.5566
19064THY    CA260173   8.207   5.288   2.271  0.3949 -0.4422 -0.2066
19064THY    CP160174   8.261   5.183   2.167  0.6212  0.2556 -0.5353
19064THY    HP160175   8.330   5.113   2.217  0.5393  1.6342  0.3307
19064THY    CP260176   8.335   5.259   2.052 -0.1331 -0.4284 -0.0078
19064THY    HP260177   8.267   5.296   1.974 -0.0370 -1.6870 -2.3101
19064THY    HP360178   8.404   5.189   2.002 -1.6109 -0.1379 -1.7379
19064THY    HP460179   8.390   5.344   2.094  0.1595 -1.5639  0.3907
19064THY    CP360180   8.139   5.102   2.122 -0.2420  0.6991  0.3791
19064THY    HP560181   8.073   5.075   2.205 -0.2605  0.6187  0.1797
19064THY    HP660182   8.168   5.015   2.063  0.2054 -0.4266  1.2613
19064THY    HP760183   8.070   5.161   2.060  1.4352 -0.4181  1.2524
19064THY    CA360184   8.085   5.354   2.247  0.0183  0.2481 -0.6120
19064THY    HA360185   8.026   5.337   2.158 -0.6997  0.9139 -1.7666
19064THY    CA460186   8.033   5.447   2.345  0.2351  0.3423 -1.0893
19064THY    HA460187   7.934   5.491   2.337  0.2450  1.4007 -0.8321
19064THY    CA560188   8.100   5.466   2.464 -0.2969 -0.4071 -0.0774
19064THY    CM160189   8.056   5.572   2.559 -0.3354 -0.4022  0.0082
19064THY    HM160190   7.967   5.547   2.618 -0.4995 -0.1694  1.0906
19064THY    HM260191   8.039   5.660   2.495 -0.2232 -0.8566 -0.2971
19064THY    HM360192   8.123   5.613   2.635 -1.9257  0.6944  0.6821
19064THY    CA660193   8.226   5.403   2.486  0.4641  0.1001  0.3886
19064THY    HA660194   8.277   5.414   2.582 -1.6957  1.2939  0.6226
19065THY      O60195   6.356   3.098   3.501  0.0571 -0.1843  0.2212
19065THY     HO60196   6.429   3.130   3.446  1.0107  1.5038  1.0057
19065THY    CA160197   6.251   3.096   3.421 -0.0842  0.1204 -0.7969
19065THY    CA260198   6.121   3.127   3.468 -0.3416 -0.0939 -0.2356
19065THY    CP160199   6.099   3.165   3.610  0.1457 -0.3654 -0.1444
19065THY    HP160200   6.189   3.147   3.670  0.1808 -0.6341 -0.9114
19065THY    CP260201   5.984   3.091   3.672  0.0775 -0.2042 -0.0839
19065THY    HP260202   5.961   3.118   3.776  0.1040  0.1648 -1.4122
19065THY    HP360203   5.987   2.982   3.673 -2.8859 -1.6185 -0.3077
19065THY    HP460204   5.892   3.113   3.616 -0.3036  1.4337  3.1069
19065THY    CP360205   6.073   3.311   3.633  0.6200 -0.0292 -0.0768
19065THY    HP560206   6.059   3.329   3.740  1.4685  0.1606 -0.4917
19065THY    HP660207   5.991   3.345   3.569  1.0387  0.8407  2.9341
19065THY    HP760208   6.156   3.374   3.597  0.3885 -3.0857 -1.3564
19065THY    CA360209   6.014   3.150   3.381  0.3413  0.0670  0.3368
19065THY    HA360210   5.916   3.185   3.410  0.0018  0.4635 -0.9008
19065THY    CA460211   6.039   3.129   3.244  0.1266 -0.5511  0.1577
19065THY    HA460212   5.955   3.155   3.181  1.0257 -1.8187  0.0438
19065THY    CA560213   6.165   3.080   3.196  1.0104  0.1570  0.0838
19065THY    CM160214   6.191   3.052   3.049 -0.1155 -1.0356  0.3660
19065THY    HM160215   6.099   3.002   3.015 -1.0800  2.4801 -0.5864
19065THY    HM260216   6.282   2.992   3.032  1.2043  0.1497  1.9490
19065THY    HM360217   6.209   3.146   2.997 -2.3123 -1.8743  0.3913
19065THY    CA660218   6.270   3.060   3.282  0.7512 -0.4077 -0.4950
19065THY    HA660219   6.363   3.018   3.244  1.5062  2.4385 -1.5910
19066THY      O60220   1.572   1.088   4.246 -0.4504  0.9831  0.3471
19066THY     HO60221   1.581   1.003   4.294 -1.4056 -0.9184 -0.9005
19066THY    CA160222   1.483   1.164   4.317 -0.2945 -0.3208 -1.5495
19066THY    CA260223   1.454   1.299   4.278 -0.1949 -0.1773 -0.4317
19066THY    CP160224   1.534   1.366   4.162 -0.2586  0.1254  0.0308
19066THY    HP160225   1.562   1.297   4.081  1.0070  0.4778  0.1010
19066THY    CP260226   1.672   1.415   4.205 -0.1102  0.2633  0.0510
19066THY    HP260227   1.736   1.446   4.123  2.0104  0.2140 -3.8308
19066THY    HP360228   1.728   1.331   4.247  1.1700  1.4858  1.4477
19066THY    HP460229   1.664   1.484   4.290  1.7692 -0.5051  1.2755
19066THY    CP360230   1.482   1.481   4.078  0.3226  0.5077  0.6855
19066THY    HP560231   1.473   1.564   4.149 -0.2567  0.2408  0.8550
19066THY    HP660232   1.383   1.466   4.033  0.6068  0.8186 -2.9728
19066THY    HP760233   1.559   1.499   4.001  0.3311 -0.0937 -1.6075
19066THY    CA360234   1.355   1.367   4.345 -0.8572 -0.4423  0.2993
19066THY    HA360235   1.336   1.474   4.333  1.4230  1.3784  1.0247
19066THY    CA460236   1.284   1.299   4.452  0.0365 -0.7050 -0.1355
19066THY    HA460237   1.209   1.352   4.510 -0.4405 -0.2673 -1.2818
19066THY    CA560238   1.310   1.163   4.490 -0.5834 -0.5230  0.2238
19066THY    CM160239   1.230   1.095   4.601 -0.0239 -0.3860  0.6590
19066THY    HM160240   1.304   1.085   4.681  1.0912 -1.4998 -0.2638
19066THY    HM260241   1.183   1.003   4.565 -0.2468  0.7877  0.3001
19066THY    HM360242   1.149   1.166   4.624 -2.3787  1.0270 -2.2505
19066THY    CA660243   1.412   1.104   4.421  0.6308 -0.1071  0.8943
19066THY    HA660244   1.432   1.003   4.455  0.0010 -1.4417  0.3011
19067THY      O60245   2.140   1.424   2.729  0.2643  0.3808 -0.2190
19067THY     HO60246   2.094   1.398   2.648  1.0045 -0.3867  0.7763
19067THY    CA160247   2.272   1.434   2.694 -0.7305 -0.6222 -0.4097
19067THY    CA260248   2.354   1.543   2.730  0.3034  0.3104  0.3336
19067THY    CP160249   2.300   1.662   2.812 -0.2960 -0.9321 -0.3164
19067THY    HP160250   2.198   1.643   2.849  0.5902  1.3787 -0.9442
19067THY    CP260251   2.304   1.798   2.742 -0.1915 -0.0736 -0.6109
19067THY    HP260252   2.288   1.888   2.802 -0.7442 -0.1411 -0.6624
19067THY    HP360253   2.237   1.815   2.656 -1.7608  1.5561  2.2713
19067THY    HP460254   2.394   1.802   2.680 -1.3724 -1.9046 -1.1531
19067THY    CP360255   2.376   1.679   2.957 -0.0882  0.1227 -0.1975
19067THY    HP560256   2.360   1.775   3.007 -0.7586  0.1646 -0.3291
19067THY    HP660257   2.483   1.680   2.932  0.8401  3.4960 -1.5175
19067THY    HP760258   2.366   1.586   3.014  0.7930 -0.5296 -0.7073
19067THY    CA360259   2.488   1.541   2.686  0.2834 -0.1994  0.1367
19067THY    HA360260   2.547   1.627   2.714 -1.2226  1.3475  0.7310
19067THY    CA460261   2.538   1.434   2.613 -0.4976 -0.5015 -0.4849
19067THY    HA460262   2.643   1.440   2.589  0.2018  2.0102 -1.2503
19067THY    CA560263   2.455   1.325   2.583  0.4489 -0.3161  0.5028
19067THY    CM160264   2.511   1.196   2.513  0.4410 -0.1579  0.7611
19067THY    HM160265   2.604   1.220   2.461 -0.3541 -2.6817 -1.2706
19067THY    HM260266   2.438   1.147   2.449  0.6998  0.8667 -1.0435
19067THY    HM360267   2.536   1.120   2.588 -2.0830 -1.3515 -1.4064
19067THY    CA660268   2.323   1.328   2.621  0.1525  0.0766  0.6291
19067THY    HA660269   2.259   1.243   2.601  3.3012  0.6696 -2.0418
19068THY      O60270   8.955   7.407   2.506  0.1438  0.4555  0.3399
19068THY     HO60271   9.048   7.428   2.489 -0.5533 -1.8737  1.9910
19068THY    CA160272   8.914   7.310   2.424 -0.0360  0.6011  0.1646
19068THY    CA260273   8.778   7.289   2.413  0.4727 -0.1166  0.2348
19068THY    CP160274   8.683   7.352   2.514  0.4545 -0.2306  0.6714
19068THY    HP160275   8.739   7.394   2.598  2.8650 -1.6522  0.5624
19068THY    CP260276   8.578   7.260   2.576  0.4942  0.1985 -0.1575
19068THY    HP260277   8.627   7.182   2.637  0.5421 -0.6417 -0.7968
19068THY    HP360278   8.501   7.212   2.514 -0.1744  0.7005  0.2433
19068THY    HP460279   8.523   7.328   2.642 -2.1815 -3.9739  2.1517
19068THY    CP360280   8.604   7.461   2.450  0.1343  0.0245  0.1857
19068THY    HP560281   8.545   7.515   2.526 -0.5697  0.0019 -0.5303
19068THY    HP660282   8.526   7.424   2.382 -0.6262  1.1465 -0.3327
19068THY    HP760283   8.663   7.524   2.383  0.4664 -0.4570 -0.6182
19068THY    CA360284   8.732   7.190   2.327 -0.4207 -0.1950 -0.5286
19068THY    HA360285   8.627   7.165   2.335 -1.1899 -1.0519  2.0428
19068THY    CA460286   8.822   7.130   2.233 -0.5192 -0.1751 -0.0631
19068THY    HA460287   8.797   7.051   2.163 -0.0339 -1.2488  0.7057
19068THY    CA560288   8.959   7.163   2.235 -0.5107  0.4458 -0.2664
19068THY    CM160289   9.055   7.112   2.134  0.2852  0.2696 -0.0682
19068THY    HM160290   9.159   7.122   2.167  0.2925  1.1501 -2.4026
19068THY    HM260291   9.034   7.168   2.043 -1.3103  1.8287  2.0249
19068THY    HM360292   9.044   7.013   2.087 -0.3337 -2.3205  1.1650
19068THY    CA660293   9.003   7.260   2.326 -0.5015 -0.7212  0.0719
19068THY    HA660294   9.106   7.294   2.326 -0.5173  0.6384  0.1589
19069THY      O60295   0.820   8.693   3.743  0.3930 -0.1071 -0.0827
19069THY     HO60296   0.730   8.720   3.770  0.7253 -1.2747  2.5771
19069THY    CA160297   0.827   8.559   3.724  0.4665  0.8586  0.0640
19069THY    CA260298   0.949   8.494   3.724  0.0828  0.3541 -0.5675
19069THY    CP160299   1.077   8.582   3.747 -0.0751 -0.2020 -0.5145
19069THY    HP160300   1.053   8.677   3.795 -2.2054  0.7709 -1.4764
19069THY    CP260301   1.129   8.621   3.604  0.6084  0.7141 -0.0122
19069THY    HP260302   1.114   8.536   3.537  3.6198  1.3359 -1.1733
19069THY    HP360303   1.236   8.644   3.598  0.6015  1.3543  0.2132
19069THY    HP460304   1.075   8.701   3.551  0.7441  0.6533  0.0402
19069THY    CP360305   1.179   8.515   3.838 -0.0612  0.3618 -0.4659
19069THY    HP560306   1.204   8.415   3.800  0.6719  0.9887 -0.5337
19069THY    HP660307   1.142   8.497   3.940 -0.5761  0.6327  1.8614
19069THY    HP760308   1.271   8.573   3.852 -0.8824  2.5995  0.3761
19069THY    CA360309   0.955   8.357   3.696 -0.3233  0.4432  0.7491
19069THY    HA360310   1.045   8.297   3.685 -3.4633  0.0600 -4.5954
19069THY    CA460311   0.839   8.289   3.670 -0.2371  0.0232  0.0992
19069THY    HA460312   0.840   8.186   3.635 -2.8372  0.5633 -0.1834
19069THY    CA560313   0.716   8.355   3.683 -0.0382  0.3177  0.5834
19069THY    CM160314   0.589   8.273   3.654 -0.2100  0.1891 -0.1823
19069THY    HM160315   0.608   8.231   3.554  0.9787 -0.7642  2.4294
19069THY    HM260316   0.491   8.319   3.673 -0.0521  0.4517  0.0439
19069THY    HM360317   0.588   8.196   3.732 -0.8194  0.8504  0.4902
19069THY    CA660318   0.707   8.491   3.701 -0.1282  0.4270  0.0766
19069THY    HA660319   0.617   8.549   3.680  0.6889 -0.7997  0.9468
19070THY      O60320   0.683   5.477   7.142  0.0151  0.3729  0.0264
19070THY     HO60321   0.755   5.412   7.153 -0.9188 -1.4161 -1.3929
19070THY    CA160322   0.630   5.438   7.022 -0.2370 -0.0660 -0.0465
19070THY    CA260323   0.508   5.477   6.982  0.9718  0.3998  0.4669
19070THY    CP160324   0.418   5.554   7.076 -0.1075  0.6251  0.5436
19070THY    HP160325   0.462   5.555   7.176 -0.3416  0.8595 -2.3755
19070THY    CP260326   0.284   5.490   7.092  0.1685  0.1279 -0.0803
19070THY    HP260327   0.309   5.387   7.119 -1.8491 -0.7510 -0.8384
19070THY    HP360328   0.220   5.496   7.003 -3.0758  2.3994  2.8041
19070THY    HP460329   0.232   5.534   7.178 -0.1564  0.3474 -0.8858
19070THY    CP360330   0.408   5.698   7.029  0.4455 -0.8627  0.0355
19070THY    HP560331   0.342   5.710   6.942  0.3408 -0.9481 -1.0803
19070THY    HP660332   0.507   5.745   7.026  0.6642 -3.0198 -0.4386
19070THY    HP760333   0.343   5.748   7.102 -0.1040  0.4474 -2.4613
19070THY    CA360334   0.462   5.444   6.852 -0.5679 -0.2106  0.3701
19070THY    HA360335   0.367   5.485   6.819 -0.7304  1.9094  1.8734
19070THY    CA460336   0.543   5.357   6.769 -0.0621 -0.6019  0.9633
19070THY    HA460337   0.510   5.326   6.670 -0.1918  0.5756 -3.3713
19070THY    CA560338   0.667   5.318   6.815 -0.0160 -0.4830  0.8441
19070THY    CM160339   0.758   5.240   6.735  0.0263  0.3319  0.2923
19070THY    HM160340   0.781   5.154   6.798  1.0213 -0.6032 -0.1548
19070THY    HM260341   0.844   5.303   6.709 -1.1770 -1.3077  1.3447
19070THY    HM360342   0.703   5.197   6.651 -2.7339  1.1906  1.8889
19070THY    CA660343   0.708   5.359   6.940 -0.7205 -0.5673  0.5682
19070THY    HA660344   0.801   5.322   6.982 -1.8209  1.3246 -0.1976
19071THY      O60345   1.095   5.723   5.523  0.3836 -0.5110  0.2730
19071THY     HO60346   1.181   5.766   5.510  0.5057 -2.1523 -0.3836
19071THY    CA160347   1.018   5.778   5.626 -0.1190  0.3376  0.0366
19071THY    CA260348   0.891   5.733   5.651 -0.0663  0.1912  0.0812
19071THY    CP160349   0.818   5.629   5.566 -0.1674  0.0338 -0.3397
19071THY    HP160350   0.880   5.620   5.476  1.6793  1.2766 -0.8257
19071THY    CP260351   0.679   5.682   5.524 -0.3186  0.2015 -0.3127
19071THY    HP260352   0.692   5.786   5.491  4.1032  1.9756 -0.0743
19071THY    HP360353   0.600   5.663   5.598 -0.2023  0.6107  0.7337
19071THY    HP460354   0.641   5.625   5.439 -2.3274 -1.1064  2.6712
19071THY    CP360355   0.806   5.488   5.634  0.8216 -0.0129 -0.4176
19071THY    HP560356   0.704   5.457   5.660  0.8658 -0.3521 -0.8460
19071THY    HP660357   0.863   5.493   5.727  0.5520  0.2693 -2.0555
19071THY    HP760358   0.849   5.409   5.572 -0.6953  1.3772 -2.4199
19071THY    CA360359   0.812   5.786   5.753 -0.4195 -0.8485  0.2120
19071THY    HA360360   0.713   5.745   5.771  0.4229 -1.8807 -2.4666
19071THY    CA460361   0.870   5.880   5.839 -0.0686 -0.1446 -0.7740
19071THY    HA460362   0.815   5.917   5.925  2.1660  1.2733 -0.5951
19071THY    CA560363   1.000   5.928   5.820 -0.0626  0.1260  0.5828
19071THY    CM160364   1.053   6.042   5.895 -0.0372 -0.1658  0.6651
19071THY    HM160365   1.108   6.001   5.981 -0.1064 -0.2627  0.3675
19071THY    HM260366   0.965   6.097   5.931 -1.4913 -2.7132  0.1561
19071THY    HM360367   1.121   6.105   5.837 -1.3640 -0.4985  1.8344
19071THY    CA660368   1.070   5.881   5.705 -0.2761 -0.6348  0.9048
19071THY    HA660369   1.167   5.919   5.675  0.7576  0.5388 -0.6813
19072THY      O60370   0.852   7.768   5.090  0.0829 -0.1413 -0.3859
19072THY     HO60371   0.846   7.730   5.001 -1.8549  0.9466 -2.8975
19072THY    CA160372   0.763   7.697   5.168  0.2129  0.1369  0.1804
19072THY    CA260373   0.712   7.751   5.289  0.5069 -0.6032 -0.4945
19072THY    CP160374   0.747   7.890   5.329 -0.2218 -0.2393 -0.0135
19072THY    HP160375   0.820   7.938   5.263  0.0839 -0.2544 -0.4875
19072THY    CP260376   0.814   7.886   5.466  0.5125 -0.3554  0.4022
19072THY    HP260377   0.907   7.830   5.449 -0.0321 -0.9754 -0.3460
19072THY    HP360378   0.756   7.825   5.536  0.7733 -2.1122 -2.0479
19072THY    HP460379   0.833   7.987   5.503  1.0775  0.7605 -0.1033
19072THY    CP360380   0.625   7.979   5.354 -0.2716  0.6780  0.1330
19072THY    HP560381   0.578   8.003   5.258  1.1890 -0.1655 -0.2407
19072THY    HP660382   0.652   8.079   5.389 -0.8951  0.6360  0.3197
19072THY    HP760383   0.561   7.927   5.426 -0.7937  0.0029 -0.1878
19072THY    CA360384   0.618   7.678   5.374 -0.3311  0.8395 -0.5303
19072THY    HA360385   0.584   7.704   5.474 -0.5906  0.3889  0.9885
19072THY    CA460386   0.582   7.559   5.318  0.2516  0.6328  0.8833
19072THY    HA460387   0.514   7.502   5.380  0.2849 -0.7862 -0.7840
19072THY    CA560388   0.649   7.496   5.209 -0.1438 -0.0343  0.3539
19072THY    CM160389   0.620   7.345   5.180  0.3495 -0.1056 -0.3700
19072THY    HM160390   0.531   7.319   5.240 -0.2201  0.3726  2.4147
19072THY    HM260391   0.694   7.275   5.220  1.6015 -2.9521 -0.7835
19072THY    HM360392   0.604   7.331   5.073 -2.7481  0.0189  1.2882
19072THY    CA660393   0.733   7.568   5.128 -0.5297  0.2533  0.1015
19072THY    HA660394   0.766   7.523   5.035 -0.4368 -0.0915  0.8665
19073THY      O60395   8.966   9.402   2.020 -0.3870 -0.3143 -0.0484
19073THY     HO60396   8.884   9.439   1.982  1.1920 -1.8354  2.1585
19073THY    CA160397   8.954   9.273   2.061 -0.8635 -0.3046 -0.4207
19073THY    CA260398   9.065   9.207   2.111 -0.0741 -0.2402 -0.9695
19073THY    CP160399   9.190   9.287   2.156  0.6328 -0.5479 -0.7376
19073THY    HP160400   9.147   9.387   2.171 -0.5882 -0.1530 -1.3086
19073THY    CP260401   9.296   9.293   2.055 -0.5003  0.4437  0.0083
19073THY    HP260402   9.322   9.189   2.031  2.8927 -0.3704  0.9133
19073THY    HP360403   9.388   9.352   2.067 -1.1141 -1.2430  1.3966
19073THY    HP460404   9.252   9.337   1.965 -0.6895  0.1361 -0.7965
19073THY    CP360405   9.246   9.235   2.290  0.0143 -0.2350  0.0727
19073THY    HP560406   9.167   9.222   2.365  1.6821  1.4746 -0.7347
19073THY    HP660407   9.301   9.320   2.333  0.2736 -0.1840 -0.1210
19073THY    HP760408   9.301   9.140   2.284 -1.4297 -0.8715 -0.7488
19073THY    CA360409   9.063   9.068   2.125 -0.2123  0.5098 -0.5850
19073THY    HA360410   9.149   9.013   2.160  0.7750 -0.0125  0.5722
19073THY    CA460411   8.953   8.997   2.093 -0.0935  0.2530 -0.4675
19073THY    HA460412   8.951   8.889   2.101 -1.7376 -0.1006 -0.4916
19073THY    CA560413   8.837   9.060   2.050  0.2233  0.9549  0.2088
19073THY    CM160414   8.712   8.989   2.035 -0.3115 -0.5722 -0.3341
19073THY    HM160415   8.621   9.049   2.042 -1.0152  0.4391 -1.4584
19073THY    HM260416   8.710   8.899   2.099  2.2284 -0.2361 -0.2148
19073THY    HM360417   8.702   8.951   1.932 -0.0240 -0.5015 -0.6035
19073THY    CA660418   8.838   9.197   2.031 -0.0115 -0.0586  0.2813
19073THY    HA660419   8.744   9.240   1.995  0.0767 -0.1205  0.4221
19074THY      O60420   0.992   3.590   7.372 -0.1798 -0.1355 -0.4865
19074THY     HO60421   1.078   3.632   7.389 -1.2035  0.1775  1.6102
19074THY    CA160422   1.023   3.460   7.353 -0.4224  0.4486 -0.3668
19074THY    CA260423   0.938   3.372   7.290 -0.1191  0.6060 -0.4171
19074THY    CP160424   0.791   3.406   7.254 -0.7032  0.0513  0.6590
19074THY    HP160425   0.751   3.497   7.299 -2.5863  0.7218 -0.4660
19074THY    CP260426   0.703   3.302   7.319  0.2371  0.1787 -0.1600
19074THY    HP260427   0.600   3.336   7.305 -0.2073  2.6761 -0.2869
19074THY    HP360428   0.718   3.298   7.428 -1.4359  0.4263 -0.5600
19074THY    HP460429   0.710   3.201   7.279  0.9475  1.6373 -0.7280
19074THY    CP360430   0.762   3.394   7.098  0.0786  0.4601  0.3832
19074THY    HP560431   0.810   3.482   7.053  1.7136  0.7374 -0.3234
19074THY    HP660432   0.653   3.396   7.087  0.1014  0.2150  0.2846
19074THY    HP760433   0.800   3.306   7.045 -0.4378  0.6539  0.0381
19074THY    CA360434   0.979   3.238   7.274 -0.1664 -0.8919  0.2525
19074THY    HA360435   0.926   3.158   7.223  1.6295  0.7477 -2.1097
19074THY    CA460436   1.109   3.203   7.307  0.7053  0.7282  0.3713
19074THY    HA460437   1.144   3.102   7.287 -0.7100  1.6726 -0.3323
19074THY    CA560438   1.189   3.284   7.387 -0.3733  0.1373 -0.2303
19074THY    CM160439   1.333   3.251   7.410 -0.4366 -0.2369 -0.0748
19074THY    HM160440   1.350   3.277   7.515  0.0214 -0.3478  0.0883
19074THY    HM260441   1.397   3.310   7.344  1.6695 -0.5499 -2.5521
19074THY    HM360442   1.356   3.144   7.397  0.3085 -0.0473  0.0543
19074THY    CA660443   1.146   3.417   7.408  0.5415  0.9832 -0.0395
19074THY    HA660444   1.204   3.491   7.463 -1.7820  1.0742  1.8795
19075THY      O60445   1.096   1.945   4.871  0.0682  0.3139  0.2264
19075THY     HO60446   1.175   1.892   4.890  0.7347  0.0254  1.0857
19075THY    CA160447   1.079   1.940   4.740  0.2351 -0.1872 -0.0029
19075THY    CA260448   1.003   2.034   4.669 -0.0747  0.0054  0.4913
19075THY    CP160449   0.936   2.153   4.743  0.2091  0.3665 -0.2593
19075THY    HP160450   1.008   2.181   4.821 -1.1593  1.3899  0.5544
19075THY    CP260451   0.809   2.105   4.817  0.1430  0.4949  0.2930
19075THY    HP260452   0.818   2.003   4.857  1.6471  1.1429  0.6569
19075THY    HP360453   0.725   2.109   4.747  0.6572 -0.1378  0.2368
19075THY    HP460454   0.787   2.159   4.910  0.8746  0.1888  1.1429
19075THY    CP360455   0.908   2.269   4.659 -0.4576 -0.2363 -0.2177
19075THY    HP560456   0.995   2.281   4.595  0.4127  0.7663 -1.0585
19075THY    HP660457   0.906   2.361   4.719  0.7857  0.6164 -0.7272
19075THY    HP760458   0.820   2.267   4.593 -1.1659  0.5796  1.3336
19075THY    CA360459   0.973   2.000   4.533  0.3208  0.0119  0.2298
19075THY    HA360460   0.918   2.067   4.468  2.4935  0.0254  2.1677
19075THY    CA460461   1.035   1.886   4.471  0.4162  0.1453 -0.8701
19075THY    HA460462   1.012   1.869   4.366  0.2991  0.4354 -2.6801
19075THY    CA560463   1.107   1.797   4.546 -0.1789 -0.3838 -0.1849
19075THY    CM160464   1.165   1.665   4.488 -0.0606 -0.0161  0.1211
19075THY    HM160465   1.119   1.570   4.519  0.7908  0.4012 -0.1741
19075THY    HM260466   1.269   1.653   4.523 -0.6036  1.4403 -0.6373
19075THY    HM360467   1.154   1.678   4.380 -0.4642  0.2644  2.6127
19075THY    CA660468   1.114   1.819   4.685 -0.3705 -0.2450  0.5816
19075THY    HA660469   1.172   1.744   4.738 -1.3684 -1.1587 -0.9032
19076THY      O60470   0.692   7.640   2.437  0.2983 -0.1905 -0.2174
19076THY     HO60471   0.684   7.544   2.454  0.2944 -0.2838 -0.2343
19076THY    CA160472   0.602   7.662   2.337  0.6070  0.1982  0.0970
19076THY    CA260473   0.528   7.779   2.330  0.6783 -0.0452  0.4766
19076THY    CP160474   0.564   7.899   2.414 -1.0643 -0.4135  0.1471
19076THY    HP160475   0.645   7.876   2.485 -1.1343  0.0691  1.3187
19076THY    CP260476   0.441   7.953   2.494 -0.4615 -0.1239  0.2888
19076THY    HP260477   0.355   7.975   2.430 -0.2580 -1.1625 -1.6993
19076THY    HP360478   0.468   8.047   2.545  2.1749 -0.7919 -0.0158
19076THY    HP460479   0.422   7.887   2.580 -1.8756 -0.6865 -0.0723
19076THY    CP360480   0.624   8.003   2.318 -0.1757 -0.2318  0.3959
19076THY    HP560481   0.551   8.029   2.241  0.0546 -0.5308  0.1729
19076THY    HP660482   0.708   7.956   2.265  1.1218  1.8616  0.2096
19076THY    HP760483   0.667   8.094   2.360 -0.0162 -2.6522  1.5174
19076THY    CA360484   0.418   7.791   2.235  0.8070  0.1007  0.2150
19076THY    HA360485   0.366   7.886   2.222  2.3113  0.2911  1.1069
19076THY    CA460486   0.391   7.677   2.149  0.7468 -0.8308  0.6377
19076THY    HA460487   0.308   7.689   2.079 -1.1267  1.2569  0.4335
19076THY    CA560488   0.479   7.568   2.150  0.9165 -0.3575  0.5536
19076THY    CM160489   0.458   7.445   2.064 -0.4178  0.1378  0.3765
19076THY    HM160490   0.350   7.436   2.049 -0.5810  1.0275  0.7099
19076THY    HM260491   0.501   7.355   2.111  1.5311  0.5130  1.4665
19076THY    HM360492   0.512   7.452   1.969  0.2378  0.5098  0.4126
19076THY    CA660493   0.579   7.562   2.248 -0.4707  0.1611 -0.2237
19076THY    HA660494   0.657   7.487   2.244  0.8922 -0.1799  1.1669
19077THY      O60495   3.732   7.069   7.452  0.8460  0.3968  0.4677
19077THY     HO60496   3.701   7.057   7.544  0.8550  0.4232  0.6320
19077THY    CA160497   3.673   7.185   7.414  0.0802  0.6082 -0.8293
19077THY    CA260498   3.701   7.235   7.285 -0.0624 -0.1804 -0.2127
19077THY    CP160499   3.801   7.148   7.200 -0.3968  0.1848  0.5432
19077THY    HP160500   3.802   7.040   7.220  0.2764 -1.3275  0.2351
19077THY    CP260501   3.951   7.196   7.227  0.4505 -0.3283  0.1051
19077THY    HP260502   3.957   7.304   7.210 -2.4092  1.5446  0.6797
19077THY    HP360503   4.021   7.156   7.153  2.0233  0.8901  0.4862
19077THY    HP460504   3.989   7.175   7.327  1.1219 -1.0450 -2.3575
19077THY    CP360505   3.773   7.161   7.047 -0.0786  0.5226 -0.6137
19077THY    HP560506   3.671   7.127   7.023 -0.2995 -1.3345  1.1909
19077THY    HP660507   3.851   7.118   6.983 -1.3892 -0.8109 -1.0930
19077THY    HP760508   3.760   7.268   7.025  0.4087 -1.5736 -0.9496
19077THY    CA360509   3.637   7.359   7.244 -0.2963 -0.7773 -0.1705
19077THY    HA360510   3.653   7.394   7.142 -0.1355 -0.5034  0.5706
19077THY    CA460511   3.556   7.423   7.338  0.4624  0.3284 -0.1637
19077THY    HA460512   3.502   7.510   7.302 -0.3049  1.6047 -0.0907
19077THY    CA560513   3.536   7.369   7.469 -0.2050  0.4367  0.4487
19077THY    CM160514   3.440   7.450   7.559 -0.6569 -0.2004  0.3761
19077THY    HM160515   3.486   7.522   7.628 -0.2084 -1.1052  0.9775
19077THY    HM260516   3.382   7.375   7.614 -1.7357 -3.6253 -1.5514
19077THY    HM360517   3.367   7.503   7.496  0.3035 -4.0086 -2.4362
19077THY    CA660518   3.602   7.249   7.512 -0.8594  0.8535  0.5028
19077THY    HA660519   3.585   7.195   7.604  0.1668 -0.1007 -1.5275
19078THY      O60520   1.003   7.390   6.095 -0.2444  0.2450 -0.5682
19078THY     HO60521   1.005   7.300   6.060 -0.9699 -2.1633  0.2743
19078THY    CA160522   0.874   7.417   6.132  0.2691 -0.3417  0.3390
19078THY    CA260523   0.843   7.502   6.241 -0.3049 -0.1806 -0.0470
19078THY    CP160524   0.955   7.576   6.321 -0.2365 -0.1331  0.1997
19078THY    HP160525   1.025   7.620   6.249 -2.8459 -1.8236  1.8163
19078THY    CP260526   1.034   7.480   6.411 -0.2601  0.4135  0.0034
19078THY    HP260527   0.953   7.451   6.480 -0.2614  0.7496  0.7666
19078THY    HP360528   1.110   7.535   6.468  0.5010 -0.3732 -0.2286
19078THY    HP460529   1.070   7.392   6.357  0.5119  0.4033  0.3147
19078THY    CP360530   0.900   7.690   6.416 -0.9575 -0.4426  0.0361
19078THY    HP560531   0.984   7.753   6.447 -2.5327  1.2786  1.3737
19078THY    HP660532   0.855   7.648   6.506 -1.8471 -0.5343  0.7793
19078THY    HP760533   0.823   7.755   6.372 -2.6715 -1.0653 -2.2975
19078THY    CA360534   0.708   7.509   6.281  0.3492  0.0495 -0.0917
19078THY    HA360535   0.689   7.567   6.371  3.7042  1.1382 -0.4874
19078THY    CA460536   0.603   7.454   6.207  0.9098  0.6690  0.1488
19078THY    HA460537   0.499   7.465   6.236  0.9996  0.6441  1.1147
19078THY    CA560538   0.642   7.368   6.096  0.4217 -0.2216 -0.5872
19078THY    CM160539   0.529   7.317   6.002 -0.0595 -0.0311 -1.5301
19078THY    HM160540   0.577   7.241   5.938  1.8776  0.0569 -0.4604
19078THY    HM260541   0.486   7.387   5.929 -0.6448 -0.3492 -2.2048
19078THY    HM360542   0.459   7.264   6.067  0.8115  0.3430 -2.2669
19078THY    CA660543   0.773   7.350   6.066  0.2071  0.0331 -0.0056
19078THY    HA660544   0.804   7.287   5.984  0.8600  0.4771 -0.2625
19079THY      O60545   1.520   6.807   7.656  0.8004  0.2182  0.2366
19079THY     HO60546   1.518   6.755   7.738  0.4220 -0.1691 -0.3734
19079THY    CA160547   1.415   6.758   7.584  0.3419 -0.7429 -0.5377
19079THY    CA260548   1.345   6.837   7.485 -0.2383 -0.4520  0.7076
19079THY    CP160549   1.405   6.974   7.451  0.3663  0.7712 -0.6287
19079THY    HP160550   1.501   6.998   7.498  1.9442 -2.7192  0.5638
19079THY    CP260551   1.310   7.084   7.495  0.3450 -0.0145  0.2687
19079THY    HP260552   1.216   7.074   7.440  0.4894 -0.0525 -1.0252
19079THY    HP360553   1.356   7.184   7.491  1.2556 -1.0305 -0.1636
19079THY    HP460554   1.275   7.066   7.597 -0.8620 -0.4293  0.1779
19079THY    CP360555   1.422   6.992   7.295 -0.4359 -1.1468 -0.6684
19079THY    HP560556   1.483   6.907   7.262 -0.7684  1.9371 -2.2485
19079THY    HP660557   1.465   7.091   7.277 -0.4359  1.1217 -0.2056
19079THY    HP760558   1.327   6.987   7.240 -2.1782  1.6048  0.1906
19079THY    CA360559   1.239   6.781   7.405  0.5908 -0.7092  0.7645
19079THY    HA360560   1.192   6.832   7.321  0.0199 -1.7016 -1.3204
19079THY    CA460561   1.186   6.655   7.444  0.0361  0.2579 -0.0371
19079THY    HA460562   1.103   6.607   7.393 -2.6886  2.4190  2.0247
19079THY    CA560563   1.261   6.583   7.538  1.0882 -0.2049 -0.0736
19079THY    CM160564   1.212   6.439   7.569 -0.8929 -0.1550  0.2092
19079THY    HM160565   1.210   6.370   7.483 -0.0076  1.2057 -1.6084
19079THY    HM260566   1.111   6.443   7.612 -1.1305 -0.7284  4.3727
19079THY    HM360567   1.284   6.392   7.636 -0.3626 -0.0937  1.1042
19079THY    CA660568   1.367   6.629   7.609 -0.1103 -0.4720 -0.1652
19079THY    HA660569   1.418   6.563   7.679 -1.3116  0.8855  0.3015
19080THY      O60570   2.444   5.548   1.910 -0.1757 -0.1511 -0.3735
19080THY     HO60571   2.463   5.465   1.957 -3.8816  3.2889  0.4297
19080THY    CA160572   2.512   5.647   1.975  0.4712  0.1231 -0.5927
19080THY    CA260573   2.541   5.773   1.920 -0.3105 -0.6058  0.0305
19080THY    CP160574   2.502   5.810   1.781 -0.0204 -0.3264  0.6154
19080THY    HP160575   2.418   5.748   1.747  1.2823 -1.0034 -0.8338
19080THY    CP260576   2.621   5.784   1.693 -0.3745  0.1175  0.6565
19080THY    HP260577   2.709   5.849   1.701  1.9817 -0.8794 -2.1495
19080THY    HP360578   2.589   5.793   1.589 -0.1141 -0.1701 -1.2657
19080THY    HP460579   2.642   5.676   1.694 -0.7724 -2.2672  0.5070
19080THY    CP360580   2.458   5.959   1.759  0.4893  0.0111  0.0577
19080THY    HP560581   2.382   5.991   1.831 -0.2640 -0.5374 -0.4707
19080THY    HP660582   2.404   5.962   1.664 -0.9112  0.6353 -2.6568
19080THY    HP760583   2.548   6.022   1.757  0.6316  0.7729 -0.1143
19080THY    CA360584   2.591   5.875   2.002 -0.2458  0.6616 -0.9240
19080THY    HA360585   2.620   5.970   1.959  0.4572  2.9911 -0.0111
19080THY    CA460586   2.638   5.837   2.130 -0.6202  0.3148  0.4661
19080THY    HA460587   2.697   5.907   2.189  0.9087 -0.8376  0.2025
19080THY    CA560588   2.626   5.711   2.177 -0.3486  0.3198  0.2648
19080THY    CM160589   2.689   5.682   2.314  0.0679  0.2182 -0.2476
19080THY    HM160590   2.648   5.749   2.391 -1.2023 -1.2972  0.7806
19080THY    HM260591   2.796   5.705   2.308  0.0056  0.1355  0.0221
19080THY    HM360592   2.686   5.580   2.356  0.4763  2.3694  0.5598
19080THY    CA660593   2.551   5.617   2.107 -0.1331 -0.1860 -0.6066
19080THY    HA660594   2.528   5.519   2.148  0.8851 -0.5535 -1.0185
19081THY      O60595   3.706   8.471   3.054 -0.2164  0.2908  0.3373
19081THY     HO60596   3.682   8.529   2.980 -2.5292  1.7423  1.3981
19081THY    CA160597   3.757   8.551   3.148  0.6244  0.0308 -0.2757
19081THY    CA260598   3.724   8.537   3.286  0.1489  0.0404 -0.3880
19081THY    CP160599   3.638   8.426   3.335 -0.1785 -0.3216 -0.3946
19081THY    HP160600   3.595   8.376   3.248  2.4653 -1.1004 -1.5014
19081THY    CP260601   3.523   8.462   3.429  0.1760 -0.1110 -0.5477
19081THY    HP260602   3.466   8.371   3.447 -1.6734 -1.7443  0.2258
19081THY    HP360603   3.457   8.539   3.389  0.3752  0.4133 -0.0995
19081THY    HP460604   3.563   8.488   3.528 -0.2376 -0.3328  1.0370
19081THY    CP360605   3.723   8.323   3.406  0.4659 -0.3314  0.3859
19081THY    HP560606   3.660   8.251   3.460  2.6307 -0.8564 -2.0664
19081THY    HP660607   3.784   8.372   3.483 -1.0343  1.5846 -0.5923
19081THY    HP760608   3.772   8.265   3.327 -2.2464  0.0720 -2.7690
19081THY    CA360609   3.771   8.633   3.377 -0.2249 -0.2618  0.1600
19081THY    HA360610   3.745   8.614   3.481  0.8158  0.3862  2.0301
19081THY    CA460611   3.848   8.735   3.321 -0.2300  0.4146 -0.0598
19081THY    HA460612   3.896   8.801   3.393  0.0319  1.6305 -1.5252
19081THY    CA560613   3.875   8.756   3.183  0.1452  0.0870  0.2337
19081THY    CM160614   3.981   8.860   3.136 -1.1375 -0.3173  0.1649
19081THY    HM160615   3.963   8.927   3.052 -1.3273 -0.4516 -0.0523
19081THY    HM260616   4.081   8.815   3.125 -1.9608  3.5883 -3.2657
19081THY    HM360617   4.015   8.925   3.218 -1.3548 -0.8574  0.9737
19081THY    CA660618   3.819   8.661   3.099  0.0086  0.8195  0.0801
19081THY    HA660619   3.848   8.668   2.995 -0.8180  0.4523 -1.4995
19082THY      O60620   0.932   8.874   3.164 -0.1227  0.2439 -0.4674
19082THY     HO60621   0.882   8.811   3.219  1.2064  2.0596  0.0122
19082THY    CA160622   0.953   8.983   3.247  0.5827 -0.1126  0.0380
19082THY    CA260623   0.995   9.107   3.192  0.3930 -0.9754  0.0650
19082THY    CP160624   1.016   9.120   3.042 -0.0682  0.4877 -0.1532
19082THY    HP160625   1.008   9.023   2.992 -0.9297  0.3316 -0.0148
19082THY    CP260626   1.151   9.189   3.012 -0.1138  0.1319  0.1157
19082THY    HP260627   1.163   9.199   2.904 -0.5284 -0.0660 -1.2366
19082THY    HP360628   1.235   9.137   3.059  0.7130  0.9324  2.0747
19082THY    HP460629   1.160   9.289   3.057  1.8854  0.6415 -0.2499
19082THY    CP360630   0.900   9.200   2.981 -0.2945 -0.5503 -0.1254
19082THY    HP560631   0.884   9.298   3.027  0.2259  0.6982 -0.6074
19082THY    HP660632   0.818   9.143   3.028 -0.3839  1.8001  1.7927
19082THY    HP760633   0.885   9.207   2.872  1.2675 -0.7134  1.1038
19082THY    CA360634   1.021   9.216   3.279 -0.3838  0.8093  0.5945
19082THY    HA360635   1.054   9.316   3.251  0.7914 -0.7033 -0.1742
19082THY    CA460636   1.006   9.189   3.417  0.2874 -0.1590 -0.3898
19082THY    HA460637   1.034   9.270   3.483 -0.9262 -1.4926  1.1975
19082THY    CA560638   0.967   9.065   3.473 -0.1471  0.5716  0.0275
19082THY    CM160639   0.968   9.036   3.616  0.6571 -0.3528  0.0508
19082THY    HM160640   1.028   9.110   3.669 -0.0173  0.3196  0.1258
19082THY    HM260641   1.005   8.934   3.635 -0.2665 -0.1885 -0.2634
19082THY    HM360642   0.872   9.028   3.667  1.8337  1.7724 -1.5755
19082THY    CA660643   0.940   8.959   3.383  0.4250  0.0232 -0.0381
19082THY    HA660644   0.903   8.864   3.421  0.6496  0.6477  0.1228
19083THY      O60645   3.853   3.196   2.324  0.2137 -0.1751 -0.1313
19083THY     HO60646   3.811   3.282   2.341 -2.7149  0.5701 -1.5955
19083THY    CA160647   3.740   3.120   2.326  0.0519 -0.1199 -0.2975
19083THY    CA260648   3.741   2.979   2.328  1.0419  0.3920 -0.6341
19083THY    CP160649   3.866   2.896   2.308 -0.2129 -0.1800  0.1643
19083THY    HP160650   3.953   2.922   2.370 -1.9229  2.1230  0.6153
19083THY    CP260651   3.887   2.911   2.157  0.3069 -0.6855  0.7977
19083THY    HP260652   3.815   2.851   2.099  0.2147 -1.9457  2.0771
19083THY    HP360653   3.989   2.875   2.141 -0.2539  0.3417 -1.4279
19083THY    HP460654   3.878   3.011   2.112  0.0407  0.4418  1.2896
19083THY    CP360655   3.859   2.749   2.338  0.1041 -0.1869 -0.2405
19083THY    HP560656   3.957   2.709   2.306  0.5109  1.1979 -0.3911
19083THY    HP660657   3.779   2.706   2.277  1.6878 -2.4139 -0.2333
19083THY    HP760658   3.852   2.722   2.444  0.1730 -0.5656 -1.8751
19083THY    CA360659   3.621   2.906   2.345  0.5029 -0.1375  0.0229
19083THY    HA360660   3.604   2.799   2.345 -2.5221  2.4482  0.3638
19083THY    CA460661   3.503   2.980   2.379 -0.0774 -0.0409  0.7053
19083THY    HA460662   3.408   2.928   2.381 -0.0942  0.5005  0.7528
19083THY    CA560663   3.507   3.122   2.375 -0.3211  0.0830  0.4897
19083THY    CM160664   3.381   3.197   2.396  0.0172 -0.1148 -0.1638
19083THY    HM160665   3.383   3.269   2.478  2.6213 -0.9744  0.8533
19083THY    HM260666   3.306   3.123   2.425  0.1583  1.1877  0.1869
19083THY    HM360667   3.350   3.249   2.304  0.5473 -1.6104 -2.3595
19083THY    CA660668   3.622   3.196   2.351  0.9724  0.0912  0.2132
19083THY    HA660669   3.614   3.305   2.351 -1.8607  0.3463  0.0906
19084THY      O60670   8.907   3.422   3.919  0.3573 -0.1799  0.2221
19084THY     HO60671   8.971   3.388   3.854  2.0974  0.2980  2.3515
19084THY    CA160672   8.793   3.425   3.849 -0.2984  0.2784 -0.0671
19084THY    CA260673   8.700   3.520   3.880  0.2235 -0.7425  0.0387
19084THY    CP160674   8.722   3.623   3.991  0.3389 -0.0890  0.0647
19084THY    HP160675   8.806   3.593   4.053  0.2829 -0.9511 -2.0141
19084THY    CP260676   8.613   3.607   4.087  0.0406 -0.2146  0.3500
19084THY    HP260677   8.635   3.683   4.163  3.0240 -0.1815 -0.4138
19084THY    HP360678   8.614   3.507   4.131  0.8790  1.1008  0.9077
19084THY    HP460679   8.512   3.614   4.044 -0.5471  0.4020 -2.9601
19084THY    CP360680   8.731   3.763   3.936 -0.1637  0.7364  0.0669
19084THY    HP560681   8.777   3.829   4.010 -0.7793 -0.3668  1.7946
19084THY    HP660682   8.633   3.809   3.921 -0.0892 -2.3247 -0.5385
19084THY    HP760683   8.777   3.767   3.836  0.7415  1.0839 -1.0881
19084THY    CA360684   8.582   3.532   3.805  0.0240 -0.0565 -0.0395
19084THY    HA360685   8.503   3.605   3.821 -0.2126 -1.2420 -0.0042
19084THY    CA460686   8.562   3.446   3.695 -0.1084  0.5156 -0.5379
19084THY    HA460687   8.472   3.460   3.636 -1.8032  3.1526  0.3934
19084THY    CA560688   8.665   3.355   3.659  0.3372  1.0006 -0.1598
19084THY    CM160689   8.659   3.268   3.530  0.2682 -0.2471 -0.4878
19084THY    HM160690   8.620   3.323   3.444 -1.0677  1.4561  1.3909
19084THY    HM260691   8.581   3.192   3.539 -2.0241 -0.2686  1.7559
19084THY    HM360692   8.755   3.219   3.510 -0.6781 -1.5945 -1.9100
19084THY    CA660693   8.775   3.342   3.739  0.4950 -0.8755 -0.2147
19084THY    HA660694   8.859   3.279   3.709  0.8049  1.4674 -1.0063
19085THY      O60695   8.271   7.297   5.484 -0.4758 -0.4259  0.6816
19085THY     HO60696   8.202   7.296   5.416  2.6474 -3.9554 -0.5576
19085THY    CA160697   8.231   7.383   5.577  0.3546  0.2954 -0.3119
19085THY    CA260698   8.309   7.488   5.627 -0.5747  0.5172  0.5881
19085THY    CP160699   8.449   7.504   5.577  0.6502 -0.1254  0.2714
19085THY    HP160700   8.456   7.469   5.473 -0.7465 -0.6938  1.5718
19085THY    CP260701   8.535   7.421   5.664  0.7473 -0.0212  0.8471
19085THY    HP260702   8.523   7.458   5.767 -1.5655 -0.5657  1.8094
19085THY    HP360703   8.643   7.422   5.647  0.7635 -0.0430 -0.3016
19085THY    HP460704   8.504   7.316   5.663  0.0575 -1.4122  1.0463
19085THY    CP360705   8.503   7.644   5.566 -0.7137 -0.2711 -0.1203
19085THY    HP560706   8.427   7.713   5.526  0.4287 -0.7781  0.8736
19085THY    HP660707   8.597   7.653   5.511  2.1661  3.5193 -3.5573
19085THY    HP760708   8.512   7.678   5.670  1.1157 -0.2633 -0.5553
19085THY    CA360709   8.247   7.580   5.718  0.5788  0.2130 -0.0077
19085THY    HA360710   8.309   7.662   5.751 -1.7107  1.2513  1.3915
19085THY    CA460711   8.121   7.557   5.764  0.3450  0.0973 -0.1347
19085THY    HA460712   8.066   7.621   5.832  0.1328 -0.4725  0.3025
19085THY    CA560713   8.047   7.444   5.722 -0.5969 -0.1464  0.6443
19085THY    CM160714   7.902   7.429   5.759 -0.0248 -0.4088 -0.4257
19085THY    HM160715   7.857   7.528   5.774  0.2001  1.0966 -0.5337
19085THY    HM260716   7.898   7.366   5.849  2.4996 -0.4420 -0.7524
19085THY    HM360717   7.847   7.362   5.691  0.2842  0.3026 -1.4274
19085THY    CA660718   8.105   7.356   5.628  0.1451 -0.2752  0.0858
19085THY    HA660719   8.037   7.278   5.598  1.0879 -0.0857 -0.8330
19086THY      O60720   1.802   2.495   6.688 -0.2011 -0.0123 -0.7918
19086THY     HO60721   1.839   2.527   6.604 -1.7141 -0.0259  1.0863
19086THY    CA160722   1.693   2.430   6.644  0.5905 -1.4723  0.4089
19086THY    CA260723   1.578   2.408   6.726  0.0952  0.7664 -0.1910
19086THY    CP160724   1.562   2.477   6.860 -0.0045 -0.2332  0.0833
19086THY    HP160725   1.659   2.490   6.910  0.4138 -1.2473  0.9849
19086THY    CP260726   1.485   2.394   6.975 -0.2167 -0.3712 -0.2888
19086THY    HP260727   1.475   2.458   7.063 -0.5976  1.0833 -2.2749
19086THY    HP360728   1.545   2.306   7.000 -1.4615 -2.5867 -1.8560
19086THY    HP460729   1.385   2.368   6.938 -1.5014  0.7557  2.6516
19086THY    CP360730   1.506   2.614   6.843 -0.7032 -0.2886 -0.1695
19086THY    HP560731   1.397   2.624   6.844 -0.6906 -0.4369 -0.0229
19086THY    HP660732   1.530   2.643   6.740  0.6807  0.0665  0.0261
19086THY    HP760733   1.553   2.689   6.909 -0.3707 -2.8384  2.0168
19086THY    CA360734   1.459   2.349   6.662  0.2784 -0.7971  0.0707
19086THY    HA360735   1.363   2.342   6.712  0.8265  0.6608  1.9626
19086THY    CA460736   1.463   2.300   6.528  0.3277 -0.2397  0.3111
19086THY    HA460737   1.383   2.249   6.476  1.5983 -0.4394 -1.5458
19086THY    CA560738   1.585   2.314   6.457  0.1063  0.1158 -0.8780
19086THY    CM160739   1.592   2.241   6.329 -0.5351  0.8463  0.5338
19086THY    HM160740   1.519   2.159   6.326 -2.1824 -2.0601  1.9598
19086THY    HM260741   1.692   2.196   6.320  1.0685  3.8232  3.1365
19086THY    HM360742   1.572   2.312   6.248  0.1005 -1.4266 -1.7174
19086THY    CA660743   1.697   2.382   6.516 -0.7023 -0.0126  0.0876
19086THY    HA660744   1.792   2.385   6.465  0.6943  2.0875 -2.7407
19087THY      O60745   7.773   3.364   2.637 -0.7162 -0.1893 -1.0197
19087THY     HO60746   7.843   3.303   2.607  0.2820 -0.8050  0.3715
19087THY    CA160747   7.812   3.371   2.767 -0.4253 -0.2553 -0.0899
19087THY    CA260748   7.802   3.493   2.828 -0.2296  0.0867  0.3448
19087THY    CP160749   7.769   3.614   2.748 -0.3653  0.0121 -0.1754
19087THY    HP160750   7.732   3.586   2.648  0.2155 -0.2630  0.0255
19087THY    CP260751   7.891   3.701   2.723  0.5569 -0.3151  0.5864
19087THY    HP260752   7.871   3.799   2.679 -0.4833 -0.9139  0.1220
19087THY    HP360753   7.966   3.648   2.662 -0.4465 -1.3691  0.3436
19087THY    HP460754   7.935   3.720   2.821  1.3008 -0.9721  2.4263
19087THY    CP360755   7.655   3.698   2.822 -0.1244 -0.3420  0.7833
19087THY    HP560756   7.623   3.777   2.753  0.5903 -2.5375 -0.7710
19087THY    HP660757   7.681   3.732   2.923 -2.3208  2.1256 -3.9792
19087THY    HP760758   7.566   3.637   2.837 -1.5163 -0.2701  2.7402
19087THY    CA360759   7.821   3.497   2.966  0.0997 -0.5240 -0.1044
19087THY    HA360760   7.810   3.584   3.030  0.2471 -0.2821 -0.2599
19087THY    CA460761   7.851   3.379   3.030 -1.1573  0.2615  0.4412
19087THY    HA460762   7.869   3.380   3.137 -0.0240  0.1458 -1.8002
19087THY    CA560763   7.862   3.257   2.964  0.6825  0.1235  0.6224
19087THY    CM160764   7.885   3.140   3.044 -0.1790  0.3935 -0.0877
19087THY    HM160765   7.860   3.149   3.150 -1.0109  0.3071 -1.0463
19087THY    HM260766   7.988   3.106   3.028  0.2779 -0.2471  1.5304
19087THY    HM360767   7.815   3.060   3.015 -0.9191  1.2331  0.2394
19087THY    CA660768   7.833   3.253   2.829 -0.1921 -0.2053  0.4215
19087THY    HA660769   7.834   3.162   2.770  0.3356 -0.8753  0.8472
19088THY      O60770   1.636   2.427   4.203  0.1524  0.0737 -0.6636
19088THY     HO60771   1.704   2.492   4.181 -2.3364  1.2885  2.5930
19088THY    CA160772   1.627   2.426   4.338 -0.1200 -0.6804 -0.3366
19088THY    CA260773   1.509   2.412   4.410 -0.1701  0.4826  0.2616
19088THY    CP160774   1.379   2.415   4.321  0.0418 -0.6047  0.2218
19088THY    HP160775   1.402   2.368   4.225  0.4466 -0.5348  0.2728
19088THY    CP260776   1.327   2.557   4.323 -0.0997 -0.1866  0.5258
19088THY    HP260777   1.297   2.595   4.422  1.8369  0.3939  0.6521
19088THY    HP360778   1.244   2.580   4.256  0.9833 -2.4244 -1.6859
19088THY    HP460779   1.398   2.628   4.278 -0.6270 -0.7735  0.6943
19088THY    CP360780   1.278   2.314   4.373  0.0677 -0.1107 -1.1398
19088THY    HP560781   1.311   2.216   4.410 -0.7879  2.6680 -0.4620
19088THY    HP660782   1.199   2.312   4.296  1.1327 -1.4919  2.1965
19088THY    HP760783   1.235   2.358   4.463  1.8818  0.3270 -0.1713
19088THY    CA360784   1.508   2.410   4.553  0.4572  0.6606 -0.0739
19088THY    HA360785   1.414   2.412   4.608 -0.6036 -1.0793  0.8951
19088THY    CA460786   1.622   2.435   4.614  0.7440 -0.4339  0.1702
19088THY    HA460787   1.623   2.438   4.722 -0.0622 -0.4019 -0.3857
19088THY    CA560788   1.743   2.441   4.547 -0.1994  0.2190 -0.2162
19088THY    CM160789   1.872   2.445   4.624  0.7119  0.1646 -0.4559
19088THY    HM160790   1.867   2.527   4.696 -1.1381  1.2762 -1.4797
19088THY    HM260791   1.958   2.450   4.556 -0.3821 -1.2965 -0.9460
19088THY    HM360792   1.887   2.353   4.682 -0.3504  0.7729 -0.2698
19088THY    CA660793   1.747   2.435   4.403 -0.1351 -0.6172 -0.2285
19088THY    HA660794   1.840   2.428   4.347  0.1112 -0.5125  1.7678
19089THY      O60795   8.013   4.057   1.766  0.0650 -0.3346  0.4310
19089THY     HO60796   8.020   4.146   1.729 -0.0406  0.2781  0.6964
19089THY    CA160797   7.913   4.072   1.857  0.3229  0.8225 -0.1914
19089THY    CA260798   7.912   3.993   1.983  0.1892  0.2913 -0.4397
19089THY    CP160799   8.007   3.873   1.999 -0.7327 -0.1983 -0.2092
19089THY    HP160800   8.094   3.885   1.934 -0.5784 -0.3459 -1.8260
19089THY    CP260801   7.955   3.732   1.953 -0.5408 -0.0127  0.0708
19089THY    HP260802   7.911   3.684   2.041 -1.0019  0.5004  1.3912
19089THY    HP360803   8.036   3.671   1.910 -1.0013 -0.4264 -0.2493
19089THY    HP460804   7.872   3.747   1.884 -1.0295  0.9420  2.1067
19089THY    CP360805   8.058   3.867   2.146  0.1291 -0.3338 -1.0774
19089THY    HP560806   8.096   3.965   2.179  0.0854  1.2906 -1.5695
19089THY    HP660807   8.138   3.793   2.156  0.4539 -0.4612 -0.7514
19089THY    HP760808   7.972   3.840   2.208  0.3499  0.4110 -0.1421
19089THY    CA360809   7.805   4.022   2.071  0.6668 -0.1512 -0.0435
19089THY    HA360810   7.789   3.963   2.161  0.7952  0.1412  0.3662
19089THY    CA460811   7.713   4.125   2.046 -0.6600  0.3520  0.1320
19089THY    HA460812   7.634   4.147   2.118  1.2189  1.5265  3.9696
19089THY    CA560813   7.724   4.204   1.929  0.0715 -0.0985 -0.2099
19089THY    CM160814   7.619   4.305   1.885 -0.4391  0.0547 -0.1049
19089THY    HM160815   7.544   4.303   1.965  1.9365  2.4212 -0.2719
19089THY    HM260816   7.585   4.265   1.788 -0.6525 -0.0704  0.3839
19089THY    HM360817   7.645   4.409   1.868 -2.7739 -0.5889  0.4406
19089THY    CA660818   7.825   4.182   1.834  0.1195 -0.0231 -0.8187
19089THY    HA660819   7.818   4.238   1.742 -0.6118  1.3248  1.4167
19090THY      O60820   7.470   6.506   3.957 -0.0053 -0.0298  0.3584
19090THY     HO60821   7.496   6.596   3.929  1.1636 -2.6221 -0.6680
19090THY    CA160822   7.533   6.487   4.069 -0.0779  0.1414  0.0181
19090THY    CA260823   7.572   6.366   4.112 -0.1228  0.0909  0.2570
19090THY    CP160824   7.528   6.238   4.039  0.1373  0.1267 -0.0002
19090THY    HP160825   7.520   6.251   3.930  1.4037 -0.3264 -2.3902
19090THY    CP260826   7.390   6.193   4.081  0.5251 -0.1344  0.3068
19090THY    HP260827   7.350   6.105   4.028 -1.8067  2.6296 -0.4505
19090THY    HP360828   7.327   6.282   4.070  1.2661  2.7049  1.2881
19090THY    HP460829   7.392   6.171   4.188 -2.2743  0.2510  1.5419
19090THY    CP360830   7.636   6.128   4.039  0.5698  0.2250  0.7988
19090THY    HP560831   7.645   6.068   4.130 -3.8227 -1.0206 -2.2443
19090THY    HP660832   7.729   6.170   3.999 -0.3375 -2.7854  0.1937
19090THY    HP760833   7.607   6.061   3.957  0.1856  0.5002  0.6209
19090THY    CA360834   7.619   6.351   4.242  0.1089 -0.8161  0.1794
19090THY    HA360835   7.652   6.259   4.289  0.4202  2.9009  1.9917
19090THY    CA460836   7.673   6.468   4.306 -0.4256  0.6730  0.1294
19090THY    HA460837   7.738   6.462   4.393  2.3429 -1.3135 -0.9227
19090THY    CA560838   7.659   6.594   4.255 -0.6356  0.3690 -0.3704
19090THY    CM160839   7.720   6.717   4.317 -0.5431 -0.5840 -0.0132
19090THY    HM160840   7.727   6.797   4.242  2.1958 -0.1686  0.2465
19090THY    HM260841   7.822   6.698   4.351 -0.6631  0.1360  0.5950
19090THY    HM360842   7.668   6.736   4.411 -0.6975 -0.5939 -0.3792
19090THY    CA660843   7.583   6.602   4.139  0.1144  0.1215 -0.4886
19090THY    HA660844   7.558   6.702   4.103  1.7714 -1.3894 -0.5560
19091THY      O60845   6.847   1.584   3.565  0.2362 -0.4569  0.2948
19091THY     HO60846   6.911   1.562   3.496  1.9155  1.6198 -1.8534
19091THY    CA160847   6.854   1.717   3.606  0.2575  0.1723 -0.3071
19091THY    CA260848   6.811   1.764   3.728  0.4360  0.1629 -0.1227
19091THY    CP160849   6.781   1.670   3.846  0.5750 -0.3563  0.3927
19091THY    HP160850   6.767   1.566   3.814  1.6057  0.7749 -0.1243
19091THY    CP260851   6.657   1.706   3.938 -0.6534  0.1741 -0.5955
19091THY    HP260852   6.667   1.799   3.994  0.1381 -0.1868 -0.4470
19091THY    HP360853   6.640   1.628   4.013  0.0637 -1.1871 -2.1475
19091THY    HP460854   6.565   1.722   3.880 -1.2171  1.6555  2.0598
19091THY    CP360855   6.908   1.664   3.931 -0.0331  0.1101  0.4272
19091THY    HP560856   6.928   1.762   3.976 -0.7572 -2.5529  1.9214
19091THY    HP660857   6.995   1.645   3.867 -0.8430 -1.7152  2.4118
19091THY    HP760858   6.913   1.592   4.013  1.5995  0.0235  0.4153
19091THY    CA360859   6.807   1.906   3.754  0.9602  0.2096  1.2031
19091THY    HA360860   6.773   1.953   3.845 -1.2815  0.8619 -1.4114
19091THY    CA460861   6.842   1.992   3.647 -0.5759 -0.4046  0.2124
19091THY    HA460862   6.829   2.099   3.661 -1.0406 -0.5987  0.1847
19091THY    CA560863   6.887   1.937   3.527 -0.1918  0.4144  0.0426
19091THY    CM160864   6.926   2.024   3.414 -0.8698  0.5679  0.0947
19091THY    HM160865   7.033   2.047   3.416 -0.6657 -1.2751 -0.5195
19091THY    HM260866   6.861   2.112   3.409 -1.4454 -0.3933 -0.3679
19091THY    HM360867   6.908   1.973   3.319  0.4288 -0.6535  1.8071
19091THY    CA660868   6.890   1.805   3.506 -0.1103  0.5356 -0.1392
19091THY    HA660869   6.918   1.769   3.407 -1.0566 -0.4934  1.8057
19092THY      O60870   1.765   0.570   4.810  0.0738  0.6229  0.4692
19092THY     HO60871   1.814   0.625   4.875  2.2170 -0.9536  0.5365
19092THY    CA160872   1.645   0.632   4.794 -0.5688 -0.4160  0.1539
19092THY    CA260873   1.547   0.571   4.709  0.9012  0.8686  0.3338
19092THY    CP160874   1.580   0.442   4.641  0.8845  0.3358  0.0414
19092THY    HP160875   1.682   0.405   4.654  0.3953  2.8740 -0.5595
19092THY    CP260876   1.537   0.443   4.489  0.6367 -0.1546 -1.0063
19092THY    HP260877   1.584   0.359   4.437  1.6922 -0.6610 -0.1286
19092THY    HP360878   1.580   0.533   4.443  0.5205 -0.6220 -1.1863
19092THY    HP460879   1.428   0.437   4.473  0.3442  1.5393 -0.7457
19092THY    CP360880   1.499   0.329   4.697 -0.0922  0.4494  0.6350
19092THY    HP560881   1.543   0.232   4.675  2.0405  1.7523  1.2422
19092THY    HP660882   1.398   0.322   4.654 -0.1101  0.8169 -1.9907
19092THY    HP760883   1.476   0.339   4.803  0.2531  0.5161  0.7234
19092THY    CA360884   1.429   0.645   4.682  0.2035  0.2191 -0.9065
19092THY    HA360885   1.362   0.601   4.608  0.0804  0.0869 -0.4992
19092THY    CA460886   1.410   0.769   4.755  0.6161  0.4099 -0.3409
19092THY    HA460887   1.319   0.826   4.740  1.8108  0.6375  1.7546
19092THY    CA560888   1.518   0.825   4.829 -0.5069 -0.1544  0.0909
19092THY    CM160889   1.508   0.957   4.899  0.4983  0.3351 -0.4570
19092THY    HM160890   1.605   1.004   4.918 -0.4383  0.3066  1.6086
19092THY    HM260891   1.455   0.942   4.994  1.8861  1.0310 -1.0559
19092THY    HM360892   1.462   1.023   4.824  3.6218 -1.8690 -0.5537
19092THY    CA660893   1.624   0.752   4.851 -0.4106 -1.1303  0.1798
19092THY    HA660894   1.707   0.784   4.913  1.8746 -4.0383  0.3055
19093THY      O60895   8.882   6.887   4.176 -0.2156  0.1873  0.2101
19093THY     HO60896   8.913   6.930   4.094 -0.2016 -1.1802 -2.2291
19093THY    CA160897   8.809   6.786   4.126 -0.2484  0.3033 -0.2221
19093THY    CA260898   8.801   6.663   4.182 -0.1630 -0.2325  0.0459
19093THY    CP160899   8.865   6.640   4.322 -0.2165  0.0561  0.3449
19093THY    HP160900   8.857   6.734   4.377 -1.3020  1.3232 -0.4468
19093THY    CP260901   9.024   6.620   4.305 -0.0672  0.1219 -0.1498
19093THY    HP260902   9.054   6.520   4.271 -1.3455 -0.0769 -0.4812
19093THY    HP360903   9.070   6.626   4.405 -0.9331  0.7473 -2.4695
19093THY    HP460904   9.068   6.690   4.234  0.4499 -0.0786 -0.6671
19093THY    CP360905   8.799   6.530   4.409  0.2435 -0.3034  0.0853
19093THY    HP560906   8.843   6.523   4.509 -0.7047  0.1291  0.1773
19093THY    HP660907   8.814   6.434   4.357 -0.1688 -0.4350  0.0897
19093THY    HP760908   8.692   6.545   4.424  0.2231 -1.0288  0.7441
19093THY    CA360909   8.733   6.553   4.119  0.7672 -0.6101  0.5237
19093THY    HA360910   8.737   6.452   4.159 -0.6632  1.2676  1.1647
19093THY    CA460911   8.670   6.574   3.994  0.3318 -0.2954  0.1689
19093THY    HA460912   8.624   6.497   3.932  1.2993 -0.9569  0.1038
19093THY    CA560913   8.679   6.704   3.938  1.2998 -0.0900  0.5991
19093THY    CM160914   8.627   6.730   3.800 -0.0349  0.9122  0.2363
19093THY    HM160915   8.646   6.823   3.745 -4.1921 -0.8541  0.2652
19093THY    HM260916   8.517   6.737   3.805 -0.0807  1.4475 -0.8086
19093THY    HM360917   8.641   6.650   3.727  1.1469 -2.3428  3.1149
19093THY    CA660918   8.747   6.804   4.004 -0.0197 -0.4130  0.7886
19093THY    HA660919   8.747   6.901   3.956  1.2921 -0.3384  0.8356
19094THY      O60920   8.281   5.687   3.601  0.1059 -0.3365  0.2841
19094THY     HO60921   8.268   5.675   3.505  0.5441 -0.3932  0.2504
19094THY    CA160922   8.382   5.612   3.640  0.7202  0.1893  0.2747
19094THY    CA260923   8.440   5.634   3.770  0.3068  0.2116  0.0904
19094THY    CP160924   8.384   5.741   3.866 -0.3615  0.1374  0.4714
19094THY    HP160925   8.290   5.779   3.824 -0.8570 -0.4239 -1.2771
19094THY    CP260926   8.484   5.852   3.875  0.4071  0.2398 -0.3880
19094THY    HP260927   8.445   5.934   3.936  0.7825  1.6989 -1.2668
19094THY    HP360928   8.497   5.887   3.772 -1.0698  0.0337 -0.3656
19094THY    HP460929   8.574   5.807   3.919 -0.3861 -0.1240 -2.4596
19094THY    CP360930   8.342   5.685   4.006  1.1533 -0.3215  0.1515
19094THY    HP560931   8.295   5.755   4.076  1.3028 -1.2917  1.2535
19094THY    HP660932   8.428   5.632   4.048 -0.8620  0.7730 -2.4750
19094THY    HP760933   8.271   5.605   3.982 -0.7552 -1.4708  2.0888
19094THY    CA360934   8.545   5.552   3.809  0.3832  0.3753  0.5059
19094THY    HA360935   8.597   5.559   3.904  0.5165  0.4525 -1.2214
19094THY    CA460936   8.603   5.458   3.720  0.5383 -0.1971 -0.8727
19094THY    HA460937   8.689   5.399   3.752  0.2299  1.1547 -0.5989
19094THY    CA560938   8.545   5.446   3.590  0.8909 -0.1773  0.3766
19094THY    CM160939   8.594   5.341   3.492  0.1076 -0.8825 -0.0830
19094THY    HM160940   8.681   5.374   3.434  2.0017  0.3442 -2.6236
19094THY    HM260941   8.515   5.297   3.429  0.1746  0.9664 -3.1210
19094THY    HM360942   8.639   5.258   3.547 -0.1267 -1.8154 -0.8359
19094THY    CA660943   8.429   5.514   3.558  0.8577  0.4026 -0.5225
19094THY    HA660944   8.390   5.494   3.459  0.1609  0.6787 -0.5495
19095THY      O60945   5.419   8.593   3.127  0.3334 -0.2419  0.1219
19095THY     HO60946   5.375   8.506   3.133  0.7405  0.7945 -0.0254
19095THY    CA160947   5.500   8.598   3.239 -0.0666  0.4372  0.1098
19095THY    CA260948   5.524   8.725   3.298 -0.5449 -0.3091  1.0884
19095THY    CP160949   5.453   8.849   3.245  0.1992 -0.0534  0.1093
19095THY    HP160950   5.355   8.817   3.209  1.1422 -0.9578 -1.9227
19095THY    CP260951   5.521   8.918   3.126  0.6188  0.0961 -0.9954
19095THY    HP260952   5.559   8.838   3.061  0.2009  1.2141 -2.1419
19095THY    HP360953   5.613   8.975   3.146  1.8103 -2.7656 -1.7278
19095THY    HP460954   5.453   8.985   3.073 -0.2616 -0.9862 -2.6714
19095THY    CP360955   5.426   8.957   3.346 -0.4552  0.6929  0.2361
19095THY    HP560956   5.527   8.996   3.363 -0.0460  0.0856 -0.5284
19095THY    HP660957   5.369   8.920   3.432 -1.5912 -1.2030 -2.8039
19095THY    HP760958   5.373   9.045   3.307  0.7818  0.5090  0.9154
19095THY    CA360959   5.629   8.738   3.393 -0.8061 -0.1330  0.1543
19095THY    HA360960   5.647   8.834   3.439 -2.1729  1.1882 -0.1816
19095THY    CA460961   5.686   8.621   3.443 -0.1176  0.2535 -0.8033
19095THY    HA460962   5.763   8.636   3.519  0.6706 -1.1238  3.2545
19095THY    CA560963   5.658   8.499   3.382  0.1577 -0.7382 -0.6149
19095THY    CM160964   5.722   8.377   3.432 -0.5517  1.0395 -0.1126
19095THY    HM160965   5.831   8.394   3.427 -0.3791  3.7313 -0.0257
19095THY    HM260966   5.699   8.294   3.364  0.4065  0.6410 -0.0735
19095THY    HM360967   5.700   8.347   3.535 -0.3540  1.6468  1.6997
19095THY    CA660968   5.571   8.489   3.277 -0.1746  0.2099 -0.0110
19095THY    HA660969   5.562   8.396   3.220  2.4269  2.3054 -1.6880
19096THY      O60970   2.318   2.615   7.936 -0.0606 -0.5027  0.1420
19096THY     HO60971   2.257   2.591   8.009 -0.1642 -0.6858 -0.1668
19096THY    CA160972   2.369   2.491   7.916 -0.4263 -0.0710 -0.3492
19096THY    CA260973   2.476   2.466   7.824  0.1051 -0.3680 -0.0852
19096THY    CP160974   2.546   2.576   7.741  0.0472  0.4622  0.3980
19096THY    HP160975   2.480   2.664   7.733 -1.6133 -2.6137 -0.9757
19096THY    CP260976   2.563   2.519   7.596 -0.4837 -0.0712 -0.1101
19096THY    HP260977   2.651   2.456   7.577 -1.3266 -2.0494 -0.7698
19096THY    HP360978   2.565   2.602   7.524  1.8944 -0.0639 -0.0841
19096THY    HP460979   2.473   2.460   7.576 -1.1769 -2.1351  1.4828
19096THY    CP360980   2.687   2.613   7.804  0.4363  0.2605 -0.0271
19096THY    HP560981   2.669   2.617   7.913 -1.2819  0.0075  0.0018
19096THY    HP660982   2.715   2.713   7.772 -1.2261  1.1900  0.7837
19096THY    HP760983   2.762   2.535   7.786 -0.3269 -0.6296 -0.5856
19096THY    CA360984   2.516   2.326   7.811  0.3759 -0.7160  0.1496
19096THY    HA360985   2.605   2.297   7.755  0.8052  0.5270 -1.0334
19096THY    CA460986   2.450   2.227   7.887  0.6884  0.3258  0.0742
19096THY    HA460987   2.473   2.123   7.867 -0.9612 -2.1481  0.0812
19096THY    CA560988   2.352   2.258   7.977 -0.1907 -0.3281 -0.2511
19096THY    CM160989   2.276   2.156   8.052  0.0065  0.3349  0.7590
19096THY    HM160990   2.269   2.178   8.159  2.1801  0.6041  0.3531
19096THY    HM260991   2.315   2.054   8.042 -0.5120  0.3667  0.5563
19096THY    HM360992   2.170   2.158   8.022  0.2747 -0.8563 -0.7776
19096THY    CA660993   2.312   2.390   7.991 -0.0901  0.7922  0.1582
19096THY    HA660994   2.224   2.406   8.054  0.6025  1.2096  2.9008
19097THY      O60995   1.582   4.389   5.974 -0.3828 -0.6492 -0.4215
19097THY     HO60996   1.509   4.325   5.979 -0.0206  1.2816 -0.7632
19097THY    CA160997   1.514   4.487   5.917  0.1923  0.0114  0.6458
19097THY    CA260998   1.538   4.623   5.936  0.2204  0.0415 -0.3185
19097THY    CP160999   1.660   4.677   6.017  0.7417  0.4446 -0.3271
19097THY    HP161000   1.689   4.612   6.100 -1.5318  1.6323  0.1071
19097THY    CP261001   1.656   4.820   6.083  0.2467  0.6828  0.4358
19097THY    HP261002   1.605   4.816   6.180 -0.3326  0.4488  1.6064
19097THY    HP361003   1.614   4.889   6.009  0.0252  0.1032 -0.3105
19097THY    HP461004   1.752   4.860   6.117  0.3062 -0.4004  1.2587
19097THY    CP361005   1.787   4.671   5.925 -1.0322  0.9179  0.5610
19097THY    HP561006   1.880   4.720   5.958  0.6088 -0.7044 -1.3151
19097THY    HP661007   1.761   4.716   5.828  2.2441 -1.2157 -1.6995
19097THY    HP761008   1.813   4.566   5.912 -1.4228  1.2412  0.4196
19097THY    CA361009   1.467   4.713   5.861  1.0311  0.0434 -0.4818
19097THY    HA361010   1.481   4.820   5.862  0.0698  1.4150 -0.3556
19097THY    CA461011   1.381   4.671   5.758  0.7089  0.1978 -0.2974
19097THY    HA461012   1.342   4.745   5.688  1.3536 -1.4145 -1.4278
19097THY    CA561013   1.367   4.533   5.736  0.5868  0.0914  0.1085
19097THY    CM161014   1.279   4.478   5.624  0.5725  0.0549 -0.1848
19097THY    HM161015   1.193   4.545   5.634  0.9275  3.0692 -0.0745
19097THY    HM261016   1.251   4.374   5.641 -0.2407  1.1859  0.2014
19097THY    HM361017   1.319   4.489   5.522 -0.3902 -0.1846  1.6148
19097THY    CA661018   1.431   4.443   5.820  0.3279  0.8217 -0.0180
19097THY    HA661019   1.423   4.340   5.787  2.0276 -1.0013  0.3719
19098THY      O61020   7.995   8.668   6.827 -0.1421  0.2062  0.7044
19098THY     HO61021   7.924   8.611   6.863 -0.9427 -1.5439  0.5329
19098THY    CA161022   8.017   8.641   6.700 -0.4696  0.0274 -0.0588
19098THY    CA261023   8.075   8.735   6.614  0.3060  0.3157  0.4921
19098THY    CP161024   8.103   8.882   6.661  1.3059  0.6773  0.1390
19098THY    HP161025   8.072   8.908   6.763  0.7655  0.1017  1.8962
19098THY    CP261026   8.027   8.986   6.577  0.5356  0.4266 -0.8870
19098THY    HP261027   8.032   9.087   6.619 -0.5460  2.5397 -1.6432
19098THY    HP361028   7.921   8.956   6.583 -0.8727 -0.0911  3.2681
19098THY    HP461029   8.057   8.970   6.473  0.2952  0.6050 -2.6963
19098THY    CP361030   8.241   8.922   6.643 -0.1629  0.0166 -0.9029
19098THY    HP561031   8.272   8.949   6.542 -1.1726 -1.2508 -4.0527
19098THY    HP661032   8.304   8.837   6.670  0.7209  0.8403 -0.0099
19098THY    HP761033   8.256   9.012   6.704  2.5853 -0.8689 -0.6889
19098THY    CA361034   8.092   8.700   6.482 -0.3421  0.5511  0.3204
19098THY    HA361035   8.139   8.773   6.417 -1.2075 -1.0781 -0.5022
19098THY    CA461036   8.043   8.575   6.423  0.6864  0.1380 -0.4717
19098THY    HA461037   8.053   8.556   6.317  0.4397  0.3624 -1.9761
19098THY    CA561038   7.973   8.488   6.503  0.5545  0.3535  0.3515
19098THY    CM161039   7.912   8.353   6.456  0.0631  0.7256 -1.2166
19098THY    HM161040   7.991   8.281   6.430 -1.1068 -2.5451 -1.5116
19098THY    HM261041   7.872   8.385   6.359 -1.5053  1.7498  0.1207
19098THY    HM361042   7.834   8.310   6.520  0.7156  2.3300 -0.1072
19098THY    CA661043   7.964   8.520   6.643  0.1608  0.0604  0.0745
19098THY    HA661044   7.908   8.455   6.710  1.4360  0.3420 -0.7692
19099THY      O61045   5.304   4.842   3.106  0.2364 -0.3257 -0.2905
19099THY     HO61046   5.400   4.851   3.108  0.2319  3.4898  0.6092
19099THY    CA161047   5.288   4.732   3.191  0.4236 -0.0945 -0.2838
19099THY    CA261048   5.176   4.719   3.276 -0.2511 -0.5376  0.3713
19099THY    CP161049   5.062   4.814   3.259 -0.4292 -0.1602  0.2851
19099THY    HP161050   5.101   4.908   3.219 -0.2209 -0.4166  0.0909
19099THY    CP261051   5.000   4.853   3.394 -0.3583  0.7287 -0.1285
19099THY    HP261052   4.966   4.772   3.459  0.9881  0.3371 -1.0602
19099THY    HP361053   4.927   4.935   3.392 -0.7217 -0.2427 -0.4601
19099THY    HP461054   5.082   4.906   3.444  0.8314 -1.0758 -0.1582
19099THY    CP361055   4.945   4.766   3.165  0.0141  0.0604 -0.0056
19099THY    HP561056   4.861   4.836   3.152 -1.2037 -0.0183 -1.4363
19099THY    HP661057   4.911   4.667   3.198  1.1732 -2.9976 -1.5507
19099THY    HP761058   4.984   4.742   3.066 -1.7175 -0.8287  0.7010
19099THY    CA361059   5.183   4.620   3.380  0.7402 -0.4649 -0.2350
19099THY    HA361060   5.093   4.603   3.438 -1.0363 -2.3843  1.9442
19099THY    CA461061   5.302   4.550   3.409 -0.8144 -0.7976 -0.0727
19099THY    HA461062   5.301   4.476   3.488  0.1392 -1.5226 -0.8914
19099THY    CA561063   5.409   4.568   3.326  0.0373  0.3504  0.0043
19099THY    CM161064   5.536   4.497   3.353 -0.3119  0.3218 -0.4171
19099THY    HM161065   5.529   4.432   3.441 -0.7984  1.4653  1.1356
19099THY    HM261066   5.626   4.560   3.357 -0.4610 -0.3624 -0.1561
19099THY    HM361067   5.555   4.422   3.276  0.7438  0.8763 -0.7453
19099THY    CA661068   5.402   4.659   3.222  0.1147  0.4900 -0.7530
19099THY    HA661069   5.489   4.669   3.158  0.8634  1.4408 -1.1093
19100THY      O61070   5.675   2.719   8.103  0.5725 -0.3848  0.2758
19100THY     HO61071   5.640   2.634   8.136  0.2636  0.3174  0.6669
19100THY    CA161072   5.675   2.706   7.969 -0.0109 -1.0334 -0.7756
19100THY    CA261073   5.677   2.809   7.876 -0.0647 -0.0286  0.0259
19100THY    CP161074   5.658   2.954   7.925 -0.1419  0.2709 -0.8340
19100THY    HP161075   5.713   2.957   8.020  0.8074 -0.2786  1.2781
19100THY    CP261076   5.513   2.981   7.961  0.0208 -0.6108  0.2631
19100THY    HP261077   5.461   2.959   7.867  1.2768 -1.1290 -0.6142
19100THY    HP361078   5.495   3.084   7.992 -3.1055  1.0662 -0.6607
19100THY    HP461079   5.476   2.911   8.037  1.8155 -0.2641 -0.3608
19100THY    CP361080   5.713   3.058   7.829  0.0437 -0.2023  0.5141
19100THY    HP561081   5.818   3.030   7.811 -0.6972 -1.7552 -1.5198
19100THY    HP661082   5.710   3.159   7.871 -1.5442  0.5421  0.1822
19100THY    HP761083   5.653   3.070   7.738 -0.7603  0.6295  4.0116
19100THY    CA361084   5.693   2.773   7.736 -0.2494 -0.1594  0.0721
19100THY    HA361085   5.716   2.845   7.659 -2.8035 -0.0550  1.0979
19100THY    CA461086   5.700   2.632   7.703 -0.1782  0.1524 -0.1051
19100THY    HA461087   5.722   2.603   7.600  0.3225  0.3743 -0.5377
19100THY    CA561088   5.680   2.531   7.798  0.0888  0.1442 -0.5659
19100THY    CM161089   5.681   2.390   7.750 -0.1328 -0.2219  0.4516
19100THY    HM161090   5.698   2.317   7.830 -1.8757  0.0104  0.2577
19100THY    HM261091   5.776   2.376   7.698  1.1031  2.1245 -0.4330
19100THY    HM361092   5.592   2.367   7.689 -0.3691 -0.1355  1.1119
19100THY    CA661093   5.670   2.572   7.937 -0.0674 -0.4420  0.1485
19100THY    HA661094   5.676   2.489   8.006 -0.8342 -0.7233 -0.1543
19101THY      O61095   7.385   7.600   6.519  0.0324 -0.3740 -0.6478
19101THY     HO61096   7.397   7.573   6.426 -1.2770 -0.8520  0.3244
19101THY    CA161097   7.444   7.721   6.529 -0.4109 -0.2122  0.0672
19101THY    CA261098   7.405   7.824   6.620  0.3325 -0.7548 -0.1039
19101THY    CP161099   7.298   7.796   6.725 -0.1250  0.1622 -0.1532
19101THY    HP161100   7.237   7.712   6.689 -1.1372 -0.6686  0.9055
19101THY    CP261101   7.204   7.912   6.754  0.4117  0.5231  0.2716
19101THY    HP261102   7.134   7.897   6.837 -1.7756 -0.9053  1.9131
19101THY    HP361103   7.146   7.933   6.663  0.1710  0.2800 -1.3067
19101THY    HP461104   7.260   8.003   6.776 -2.6147 -2.0836  3.0162
19101THY    CP361105   7.363   7.748   6.853 -0.5958 -0.4302 -0.3984
19101THY    HP561106   7.472   7.758   6.850 -0.4877 -0.5078 -1.4440
19101THY    HP661107   7.337   7.643   6.873  0.4665  2.7547 -0.1746
19101THY    HP761108   7.339   7.806   6.943 -0.4897 -2.4433  3.0041
19101THY    CA361109   7.469   7.946   6.608 -0.3463  0.3576 -0.3204
19101THY    HA361110   7.443   8.031   6.670  0.9023 -1.5403  1.5293
19101THY    CA461111   7.566   7.967   6.506  0.2416 -0.1324 -0.3213
19101THY    HA461112   7.612   8.065   6.505 -0.6983  1.5930  0.1809
19101THY    CA561113   7.608   7.867   6.433 -0.2734  0.4624  0.8114
19101THY    CM161114   7.709   7.891   6.327 -0.7580  0.0116 -0.2088
19101THY    HM161115   7.675   7.852   6.230 -0.2221 -0.1470 -0.2863
19101THY    HM261116   7.807   7.847   6.349  1.7795  2.2752  5.6371
19101THY    HM361117   7.729   7.997   6.310  0.1942 -0.7254 -0.4850
19101THY    CA661118   7.542   7.746   6.439 -0.3226 -0.1509 -0.3568
19101THY    HA661119   7.568   7.673   6.363  2.4012  0.6220 -0.3259
19102THY      O61120   5.279   8.520   4.035  0.8349 -0.1907 -0.0124
19102THY     HO61121   5.223   8.549   3.961  0.1425  0.8867  1.5107
19102THY    CA161122   5.398   8.582   4.025 -0.5378  0.6158  0.0337
19102THY    CA261123   5.488   8.589   4.134  0.0904 -0.2373  0.0536
19102THY    CP161124   5.439   8.549   4.278  0.1443 -0.3543  0.1092
19102THY    HP161125   5.372   8.462   4.272 -1.3110 -1.2953  1.2513
19102THY    CP261126   5.349   8.658   4.351 -0.1482 -0.1249 -0.1935
19102THY    HP261127   5.255   8.662   4.295  0.2644 -0.8090  0.0864
19102THY    HP361128   5.411   8.749   4.358  1.3584  1.0974 -1.2519
19102THY    HP461129   5.329   8.635   4.457 -0.2336 -0.2212 -0.5570
19102THY    CP361130   5.548   8.515   4.376  0.6856 -0.0325 -1.0351
19102THY    HP561131   5.620   8.457   4.318 -0.0766 -1.6702 -0.4017
19102THY    HP661132   5.507   8.455   4.458 -1.4921  0.5750  1.0957
19102THY    HP761133   5.593   8.604   4.422 -0.0273 -2.2738  0.5809
19102THY    CA361134   5.619   8.639   4.119 -0.2911  0.4477  0.8074
19102THY    HA361135   5.686   8.651   4.204 -0.6403  0.7157  0.8664
19102THY    CA461136   5.658   8.682   3.994 -0.3197  0.7563 -0.1902
19102THY    HA461137   5.753   8.732   3.979 -0.0392  1.1595 -0.5935
19102THY    CA561138   5.574   8.685   3.882 -0.4745  0.6527 -0.2355
19102THY    CM161139   5.639   8.711   3.748  0.1501 -0.3042 -0.2737
19102THY    HM161140   5.746   8.724   3.763  0.1810  0.7490 -1.5648
19102THY    HM261141   5.600   8.791   3.683  1.1606 -0.0536  0.4372
19102THY    HM361142   5.619   8.616   3.698 -1.7658  2.3094 -1.3537
19102THY    CA661143   5.443   8.623   3.900  0.0579 -0.2256 -0.0185
19102THY    HA661144   5.384   8.616   3.809  0.3801 -0.3402 -1.7311
19103THY      O61145   5.260   5.936   3.008 -0.0620 -0.4370  0.6459
19103THY     HO61146   5.350   5.919   2.974 -0.0275 -1.2043  2.1976
19103THY    CA161147   5.167   5.890   2.918  0.2295 -0.3872 -0.6853
19103THY    CA261148   5.030   5.898   2.931  0.0344  0.2215  0.0100
19103THY    CP161149   4.962   5.948   3.058 -0.5579  0.2214 -0.1234
19103THY    HP161150   5.041   6.005   3.107 -0.4837 -0.7048  0.5835
19103THY    CP261151   4.899   5.844   3.152 -0.1740  0.2695 -0.6756
19103THY    HP261152   4.973   5.774   3.192 -0.5936  1.1327 -0.6337
19103THY    HP361153   4.820   5.788   3.100 -0.3933 -0.5921  0.3969
19103THY    HP461154   4.858   5.905   3.233 -0.0268 -0.8360  0.9626
19103THY    CP361155   4.865   6.060   3.024 -0.2411 -0.1535 -0.1086
19103THY    HP561156   4.775   6.022   2.974 -0.0841 -1.6567  1.3934
19103THY    HP661157   4.906   6.131   2.951 -0.3943  1.3778  1.6325
19103THY    HP761158   4.841   6.109   3.120 -0.1574  0.2683 -0.8760
19103THY    CA361159   4.947   5.855   2.826 -0.1231  0.0454  0.0526
19103THY    HA361160   4.839   5.855   2.838 -0.0721  0.5093  0.0304
19103THY    CA461161   5.004   5.807   2.713 -0.5127  0.5663 -0.9196
19103THY    HA461162   4.944   5.768   2.631 -2.8861 -0.0462  3.4268
19103THY    CA561163   5.142   5.805   2.699 -0.0328  0.0809 -0.6766
19103THY    CM161164   5.181   5.750   2.570  0.8215 -0.0964  0.6280
19103THY    HM161165   5.144   5.808   2.486 -2.5393  0.0019 -1.1587
19103THY    HM261166   5.149   5.645   2.567  3.4312  3.4111 -0.4865
19103THY    HM361167   5.291   5.743   2.576  0.9735  2.0853  3.2542
19103THY    CA661168   5.226   5.839   2.803 -0.2890 -0.0304 -0.4236
19103THY    HA661169   5.333   5.834   2.788 -0.6166 -2.7586 -0.4101
19104THY      O61170   4.969   8.396   5.749  0.2279 -0.5834 -0.4188
19104THY     HO61171   5.045   8.456   5.735  0.5199  2.7156  0.1894
19104THY    CA161172   4.867   8.451   5.676  0.8009  0.2619  0.0650
19104THY    CA261173   4.745   8.379   5.645 -0.2566  0.1102  0.0836
19104THY    CP161174   4.725   8.240   5.699  0.3228  0.2009  0.1300
19104THY    HP161175   4.802   8.227   5.777 -0.8907  1.6217  1.0747
19104THY    CP261176   4.750   8.124   5.592  0.3501 -0.2700 -0.0925
19104THY    HP261177   4.702   8.156   5.498  1.4097 -1.0015 -0.5813
19104THY    HP361178   4.719   8.024   5.625 -0.3887 -0.2398  0.1360
19104THY    HP461179   4.856   8.119   5.567  0.6250  1.0807 -1.7595
19104THY    CP361180   4.588   8.211   5.772 -0.4756  0.1748 -0.9292
19104THY    HP561181   4.553   8.299   5.828 -0.7826 -1.8383  0.3031
19104THY    HP661182   4.587   8.130   5.846 -1.2399  0.5694 -0.5700
19104THY    HP761183   4.510   8.202   5.696  1.3349 -1.8719 -0.2441
19104THY    CA361184   4.643   8.436   5.569 -0.2058 -0.1103 -0.3511
19104THY    HA361185   4.558   8.373   5.543  0.5437 -1.7590 -0.7421
19104THY    CA461186   4.673   8.560   5.518 -0.5322  0.0566 -0.0682
19104THY    HA461187   4.601   8.609   5.453  0.2562 -1.1070 -0.4122
19104THY    CA561188   4.790   8.630   5.541  0.4319 -0.6535  0.5615
19104THY    CM161189   4.815   8.771   5.493  0.1761  0.0751  0.3732
19104THY    HM161190   4.887   8.827   5.554  1.2098  0.8924 -1.7369
19104THY    HM261191   4.720   8.825   5.483 -1.0867  0.5255 -1.6953
19104THY    HM361192   4.864   8.763   5.395  2.3775  1.1132  0.3598
19104THY    CA661193   4.887   8.574   5.621  0.0997  0.1910  0.2114
19104THY    HA661194   4.976   8.634   5.642  0.6319 -0.8338 -0.1876
19105THY      O61195   3.517   5.352   7.761  0.3951  0.5326  0.6046
19105THY     HO61196   3.578   5.378   7.833  1.5700  0.1762 -1.0344
19105THY    CA161197   3.537   5.218   7.740  0.6062 -0.3506 -0.4881
19105THY    CA261198   3.531   5.169   7.610 -0.6928  0.5038 -0.0927
19105THY    CP161199   3.536   5.270   7.488 -0.0956 -0.0667 -0.2527
19105THY    HP161200   3.468   5.350   7.521  1.1664 -0.5424  1.0644
19105THY    CP261201   3.462   5.216   7.365  0.0310 -0.4824 -0.3775
19105THY    HP261202   3.377   5.149   7.384 -1.1526  1.1035  1.4563
19105THY    HP361203   3.533   5.167   7.298  0.4584  0.4486 -1.0680
19105THY    HP461204   3.416   5.301   7.313 -1.0885 -1.3679 -1.4856
19105THY    CP361205   3.672   5.337   7.450 -0.2322  0.1081  0.3005
19105THY    HP561206   3.727   5.275   7.378  1.5116  2.1150 -0.6216
19105THY    HP661207   3.738   5.352   7.536  0.7216 -0.9850  2.8567
19105THY    HP761208   3.658   5.430   7.394 -1.0123  0.1443  0.2109
19105THY    CA361209   3.551   5.028   7.584 -0.0357  0.2871 -0.7616
19105THY    HA361210   3.545   4.984   7.485  0.9718  0.6461 -1.7575
19105THY    CA461211   3.557   4.943   7.695 -0.3481  0.3156  0.0481
19105THY    HA461212   3.562   4.837   7.670 -1.2031 -0.0243  0.0803
19105THY    CA561213   3.556   4.996   7.827  0.1429  0.1998  0.2032
19105THY    CM161214   3.562   4.899   7.945  1.0179 -0.3460  0.0424
19105THY    HM161215   3.465   4.850   7.961 -0.3372 -0.0129  2.6111
19105THY    HM261216   3.576   4.951   8.040 -2.1391 -1.3875  3.2171
19105THY    HM361217   3.630   4.814   7.939  0.6594  1.4311 -0.4049
19105THY    CA661218   3.546   5.130   7.849 -0.4858  0.1338  0.1176
19105THY    HA661219   3.532   5.166   7.950 -0.8479  0.4503 -0.8781
19106THY      O61220   1.114   4.378   2.555 -0.0169  0.3023  0.5950
19106THY     HO61221   1.172   4.348   2.483 -1.2783 -0.1224 -0.9231
19106THY    CA161222   1.165   4.359   2.678 -0.2460  0.4402  0.1660
19106THY    CA261223   1.084   4.368   2.794 -0.5698 -0.8105  0.3362
19106THY    CP161224   0.936   4.388   2.782 -0.5697  0.3214  0.4372
19106THY    HP161225   0.896   4.317   2.708 -3.0233  0.4586  1.5812
19106THY    CP261226   0.906   4.526   2.738  0.4369  0.3613 -0.8516
19106THY    HP261227   0.908   4.592   2.825  0.6923 -0.3662  0.1196
19106THY    HP361228   0.805   4.507   2.698  0.9707 -0.9624 -1.0273
19106THY    HP461229   0.985   4.550   2.666  0.0262 -0.0810 -0.7966
19106THY    CP361230   0.861   4.358   2.909  0.4149  0.1620 -0.1892
19106THY    HP561231   0.876   4.417   3.000 -0.9083  1.1944 -1.3806
19106THY    HP661232   0.878   4.255   2.944  0.5816  5.4428  1.3153
19106THY    HP761233   0.754   4.362   2.887  0.4751  0.0610  1.3125
19106THY    CA361234   1.160   4.343   2.915 -0.0158  0.0579  0.3027
19106THY    HA361235   1.113   4.353   3.012  0.1800  0.1680  0.1348
19106THY    CA461236   1.301   4.310   2.917  0.5373 -0.5412  0.2044
19106THY    HA461237   1.353   4.300   3.011 -0.8607  0.0740 -1.9470
19106THY    CA561238   1.368   4.306   2.796  1.0049 -1.2041  0.8041
19106THY    CM161239   1.520   4.275   2.793 -0.5041  0.3551 -0.0537
19106THY    HM161240   1.582   4.319   2.872 -2.3338  2.3797 -0.9413
19106THY    HM261241   1.569   4.329   2.711  1.5680  0.5563 -1.5036
19106THY    HM361242   1.551   4.170   2.796  2.2721  3.7395  0.6735
19106THY    CA661243   1.299   4.324   2.676 -0.0458 -0.0457  0.3419
19106THY    HA661244   1.347   4.320   2.578 -0.4827 -0.3586  2.1741
19107THY      O61245   5.504   8.562   5.542  0.0052  0.7710  0.0321
19107THY     HO61246   5.487   8.476   5.583  0.0008  0.7218  0.0094
19107THY    CA161247   5.628   8.605   5.573  0.0549 -0.1998  0.1520
19107THY    CA261248   5.679   8.735   5.548  0.1410  0.1435 -0.9491
19107THY    CP161249   5.600   8.850   5.487  0.6654 -0.8063  0.4476
19107THY    HP161250   5.497   8.826   5.459 -0.3168  0.4901  2.8043
19107THY    CP261251   5.662   8.903   5.359  0.4579 -0.2534  0.5167
19107THY    HP261252   5.612   8.994   5.326 -0.7970  2.3817  0.8555
19107THY    HP361253   5.673   8.823   5.284 -0.0341 -0.3659  0.5510
19107THY    HP461254   5.769   8.927   5.362  1.2819 -0.6452 -2.6412
19107THY    CP361255   5.588   8.959   5.594 -0.3641 -0.4470  0.1054
19107THY    HP561256   5.525   9.043   5.561  0.7587 -0.0980  1.0996
19107THY    HP661257   5.686   9.004   5.609 -0.2630 -3.1265  0.9557
19107THY    HP761258   5.556   8.914   5.689  0.4300 -0.5296 -0.6557
19107THY    CA361259   5.808   8.765   5.589 -0.0549  0.6001  0.1103
19107THY    HA361260   5.853   8.860   5.562  1.9236  0.0718 -0.9130
19107THY    CA461261   5.891   8.664   5.646 -0.0485  0.3121 -0.0290
19107THY    HA461262   5.996   8.678   5.672 -0.4322  2.0214 -0.1401
19107THY    CA561263   5.842   8.532   5.659  0.4365 -0.4007 -0.2951
19107THY    CM161264   5.930   8.427   5.714  0.2503 -0.1162  0.2667
19107THY    HM161265   6.026   8.421   5.661 -1.0120 -2.6659  1.2592
19107THY    HM261266   5.881   8.329   5.708 -0.1245 -2.0457  0.5409
19107THY    HM361267   5.957   8.444   5.819 -0.1262  0.4565 -2.2794
19107THY    CA661268   5.713   8.502   5.623  0.2067  0.4002  0.0809
19107THY    HA661269   5.674   8.404   5.647  0.2651  1.4619  0.3031
19108THY      O61270   0.305   7.924   4.485 -0.0413  0.5129 -0.4804
19108THY     HO61271   0.320   8.013   4.521 -1.9169 -0.1664  0.1570
19108THY    CA161272   0.398   7.882   4.401 -0.6962  1.1127 -1.0570
19108THY    CA261273   0.375   7.784   4.304 -0.6026 -0.3323 -1.0268
19108THY    CP161274   0.229   7.743   4.265 -0.3691  0.6190  0.6143
19108THY    HP161275   0.168   7.742   4.356  0.4612  1.2904  3.1217
19108THY    CP261276   0.220   7.618   4.188 -0.4916  0.1021  1.0691
19108THY    HP261277   0.249   7.528   4.243 -0.2873 -0.3748  0.8385
19108THY    HP361278   0.280   7.618   4.096  0.1573  0.5116  1.6586
19108THY    HP461279   0.112   7.621   4.169 -0.6904  1.1688  0.8826
19108THY    CP361280   0.165   7.856   4.179 -0.0020 -0.0657 -0.0970
19108THY    HP561281   0.209   7.859   4.078  1.2844  0.4643 -0.1877
19108THY    HP661282   0.179   7.951   4.233  2.3555  0.5990 -0.7447
19108THY    HP761283   0.061   7.825   4.178  0.0060 -1.2404 -0.1071
19108THY    CA361284   0.490   7.740   4.232  0.0353 -0.3482 -0.2349
19108THY    HA361285   0.480   7.665   4.153  1.1524  2.0436 -3.0915
19108THY    CA461286   0.616   7.791   4.247 -0.4514  0.5738  0.3229
19108THY    HA461287   0.700   7.760   4.186 -0.1286  1.2346 -0.1104
19108THY    CA561288   0.634   7.886   4.347 -0.2660  0.3369  0.1475
19108THY    CM161289   0.775   7.930   4.376  0.5611  0.4467  0.4367
19108THY    HM161290   0.833   7.852   4.427  1.6526 -1.0938  0.2089
19108THY    HM261291   0.789   8.019   4.438  1.6289 -0.9773  1.3026
19108THY    HM361292   0.813   7.953   4.276 -0.3274 -0.5048 -1.8678
19108THY    CA661293   0.530   7.926   4.424  0.0129  0.0885 -0.0313
19108THY    HA661294   0.549   8.002   4.499  1.0363  1.4169 -1.5300
19109THY      O61295   2.159   8.085   5.716 -0.3718  0.3884  0.4028
19109THY     HO61296   2.222   8.011   5.720 -0.3802 -1.1319  0.2889
19109THY    CA161297   2.214   8.179   5.634 -0.3603 -0.2665 -0.0497
19109THY    CA261298   2.223   8.318   5.661 -0.4269  0.4097 -0.1911
19109THY    CP161299   2.177   8.353   5.798  0.4012  0.2319  0.0422
19109THY    HP161300   2.114   8.272   5.836  1.1318 -0.1403 -0.7062
19109THY    CP261301   2.082   8.474   5.803 -0.1879  0.5030 -0.3968
19109THY    HP261302   1.996   8.450   5.740 -1.0820  1.7278 -0.5191
19109THY    HP361303   2.117   8.570   5.764  0.9541  3.2556  0.3991
19109THY    HP461304   2.048   8.492   5.906  1.1920  1.0788 -0.9728
19109THY    CP361305   2.294   8.370   5.893 -0.5227  0.0280  0.0971
19109THY    HP561306   2.359   8.282   5.885  0.0037  3.1834  0.1062
19109THY    HP661307   2.264   8.359   5.998  2.8234  1.1582  0.7377
19109THY    HP761308   2.358   8.457   5.880  2.3892  3.3461 -1.3053
19109THY    CA361309   2.297   8.401   5.577 -0.3240 -0.0074 -0.4266
19109THY    HA361310   2.314   8.508   5.591 -0.0702 -0.3806 -0.4162
19109THY    CA461311   2.350   8.355   5.457  0.3206  0.5765 -0.3187
19109THY    HA461312   2.395   8.421   5.384  1.0594 -0.2804 -1.7101
19109THY    CA561313   2.331   8.220   5.425 -0.2821  0.7473  0.0090
19109THY    CM161314   2.377   8.173   5.277  0.0076 -0.2090 -1.0096
19109THY    HM161315   2.357   8.234   5.188 -0.3544  0.1918 -0.5294
19109THY    HM261316   2.345   8.069   5.264 -0.9777  3.1699 -1.2792
19109THY    HM361317   2.486   8.168   5.289  0.0362  0.6237  0.6382
19109THY    CA661318   2.274   8.133   5.520 -0.1472  0.0881  0.1666
19109THY    HA661319   2.247   8.031   5.492 -1.6203  0.6213  0.3895
19110THY      O61320   8.345   6.741   7.260  0.0523  0.1032  0.5207
19110THY     HO61321   8.409   6.812   7.281 -0.4710 -0.3861  1.1510
19110THY    CA161322   8.396   6.649   7.171 -1.0591  0.0082 -0.9638
19110THY    CA261323   8.310   6.564   7.097  0.1525 -0.5790 -0.3985
19110THY    CP161324   8.157   6.566   7.128 -0.4751  0.3341  0.2014
19110THY    HP161325   8.135   6.656   7.187  1.4136 -0.5320  1.2993
19110THY    CP261326   8.105   6.443   7.209 -0.1671  1.0149 -0.3805
19110THY    HP261327   8.145   6.354   7.160 -0.8990  0.0545 -0.1934
19110THY    HP361328   7.996   6.443   7.208 -0.2153 -1.6014  0.4265
19110THY    HP461329   8.123   6.444   7.317  0.6662  0.8843  0.3018
19110THY    CP361330   8.084   6.587   6.994  0.3476 -0.1691 -0.0673
19110THY    HP561331   7.978   6.559   7.004  0.3254 -0.9643 -0.2954
19110THY    HP661332   8.113   6.527   6.907 -0.1447 -1.1652  1.0861
19110THY    HP761333   8.067   6.693   6.968 -2.8845  1.9177  0.0912
19110THY    CA361334   8.368   6.475   7.015 -0.3574  0.5678  0.3141
19110THY    HA361335   8.309   6.411   6.950 -0.2230  1.0471 -0.3014
19110THY    CA461336   8.512   6.466   7.007  0.2197  0.1867 -0.4432
19110THY    HA461337   8.563   6.394   6.944 -1.8872 -0.2134 -1.6488
19110THY    CA561338   8.591   6.548   7.087 -0.6482 -0.1477  0.5251
19110THY    CM161339   8.747   6.545   7.066 -0.0658  0.8119 -0.3267
19110THY    HM161340   8.800   6.625   7.120  0.1506 -2.5479  2.0039
19110THY    HM261341   8.765   6.568   6.961 -0.6116  0.8963  0.5419
19110THY    HM361342   8.797   6.451   7.092  3.1145 -1.1508  0.6778
19110THY    CA661343   8.538   6.649   7.161  0.1734 -0.0323 -0.0021
19110THY    HA661344   8.607   6.712   7.216 -0.1254 -0.4640  0.7164
19111THY      O61345   4.640   3.216   5.601 -0.7247  0.1864 -0.4551
19111THY     HO61346   4.554   3.261   5.592 -0.7618 -1.1488 -0.7514
19111THY    CA161347   4.614   3.088   5.607  0.9927  0.0263  0.4268
19111THY    CA261348   4.714   2.988   5.613  0.7039  0.1178  0.1790
19111THY    CP161349   4.851   3.034   5.651 -0.2035 -0.5277  0.2003
19111THY    HP161350   4.864   3.136   5.615 -0.8813  0.3179  0.5996
19111THY    CP261351   4.967   2.942   5.603 -0.5674  1.0089  0.0232
19111THY    HP261352   4.983   2.974   5.499  1.8988  1.6039  0.9472
19111THY    HP361353   4.938   2.838   5.619 -0.1892 -1.7117 -0.5920
19111THY    HP461354   5.059   2.953   5.662 -1.2263  2.3282 -1.2708
19111THY    CP361355   4.856   3.050   5.804 -0.5071  0.1821  0.5347
19111THY    HP561356   4.767   3.105   5.835 -1.7178 -1.6230 -0.2853
19111THY    HP661357   4.944   3.097   5.850 -2.3593  0.8796  3.5967
19111THY    HP761358   4.868   2.950   5.847  3.4729 -1.5445  0.0477
19111THY    CA361359   4.673   2.852   5.598 -0.3591  0.3762  0.9221
19111THY    HA361360   4.743   2.770   5.611 -0.4060  3.2285  1.2602
19111THY    CA461361   4.535   2.830   5.570  0.1441  0.0514  0.1512
19111THY    HA461362   4.491   2.731   5.566 -1.0529  0.3379  0.6577
19111THY    CA561363   4.454   2.940   5.547 -0.2985 -0.5450 -0.4421
19111THY    CM161364   4.307   2.912   5.520 -0.4671  0.2876 -0.4556
19111THY    HM161365   4.253   3.002   5.490 -0.0092  0.1758 -0.2152
19111THY    HM261366   4.257   2.860   5.603  0.0548 -0.7835 -2.8314
19111THY    HM361367   4.306   2.848   5.431  1.4838 -0.2337  0.1851
19111THY    CA661368   4.487   3.064   5.574 -1.0717  0.3437 -0.7467
19111THY    HA661369   4.407   3.136   5.560 -1.5621  2.7632 -0.7231
19112THY      O61370   1.055   3.413   2.773 -0.3556 -0.3131 -0.1957
19112THY     HO61371   1.130   3.352   2.781  0.3215  0.4569  0.7006
19112THY    CA161372   0.940   3.346   2.749 -0.0198  0.4912  0.1294
19112THY    CA261373   0.836   3.389   2.658 -0.4096 -0.2264  0.0536
19112THY    CP161374   0.853   3.521   2.583 -0.5972 -0.6857  0.6356
19112THY    HP161375   0.959   3.548   2.592 -0.6709 -1.1761  1.1130
19112THY    CP261376   0.776   3.631   2.652  0.2115 -0.1133 -0.3221
19112THY    HP261377   0.670   3.603   2.654 -0.4684  2.9266  1.9226
19112THY    HP361378   0.791   3.727   2.603  0.1681  0.8943  0.2134
19112THY    HP461379   0.807   3.642   2.757  0.6304 -0.3245  0.5893
19112THY    CP361380   0.811   3.519   2.439  0.0936 -0.0323  0.4175
19112THY    HP561381   0.706   3.485   2.434  0.2718  0.6586 -0.2624
19112THY    HP661382   0.861   3.436   2.388  0.6484  2.6208 -0.9677
19112THY    HP761383   0.830   3.615   2.390  1.1818  0.9773  0.7387
19112THY    CA361384   0.718   3.313   2.652  0.3892 -0.2057  0.9716
19112THY    HA361385   0.628   3.333   2.595  1.0512 -1.2611  0.9958
19112THY    CA461386   0.717   3.196   2.727 -0.7985 -0.2523  0.1908
19112THY    HA461387   0.629   3.134   2.714 -0.0280  0.3163 -1.0428
19112THY    CA561388   0.812   3.156   2.820 -0.1709 -0.3298 -0.3641
19112THY    CM161389   0.791   3.028   2.905  0.1102  0.8249  0.0962
19112THY    HM161390   0.892   2.993   2.929  0.4265 -1.2022 -0.5271
19112THY    HM261391   0.737   2.950   2.850 -0.5733  2.2823 -0.4934
19112THY    HM361392   0.730   3.057   2.991 -1.9719 -0.3841 -0.4842
19112THY    CA661393   0.926   3.235   2.834  0.8684  0.5267  0.0898
19112THY    HA661394   1.007   3.204   2.898  1.2903 -0.7976 -1.7169
19113THY      O61395   7.270   8.536   2.867 -0.0772  0.3844 -0.2056
19113THY     HO61396   7.308   8.538   2.777 -1.9329 -0.4497 -0.0828
19113THY    CA161397   7.238   8.666   2.891  0.7361 -0.1327 -0.0022
19113THY    CA261398   7.154   8.742   2.804 -0.2332 -0.2953 -0.1779
19113THY    CP161399   7.087   8.676   2.675 -0.3798 -0.2543  0.3073
19113THY    HP161400   7.124   8.573   2.667  0.3941  0.8597  0.4854
19113THY    CP261401   7.116   8.745   2.548 -0.3751 -0.0131  0.0658
19113THY    HP261402   7.070   8.844   2.554 -0.0816  1.4185  0.1257
19113THY    HP361403   7.087   8.693   2.455 -0.9757  1.1956 -1.8771
19113THY    HP461404   7.221   8.775   2.539 -0.7760  0.3964  1.6389
19113THY    CP361405   6.935   8.673   2.698 -0.4669  0.0533  0.1040
19113THY    HP561406   6.906   8.590   2.633  2.5767 -1.1579 -0.1240
19113THY    HP661407   6.891   8.765   2.658 -1.2806 -0.5200 -0.5184
19113THY    HP761408   6.898   8.656   2.800 -0.7089 -0.1046 -0.3274
19113THY    CA361409   7.133   8.875   2.834 -0.7717 -0.2238 -0.3760
19113THY    HA361410   7.058   8.932   2.779 -0.7916  0.9367  0.7548
19113THY    CA461411   7.187   8.941   2.944  0.0363 -0.2811  0.8729
19113THY    HA461412   7.162   9.046   2.957  0.6294  0.4421  0.9283
19113THY    CA561413   7.274   8.863   3.024 -0.4728 -0.0859 -0.2220
19113THY    CM161414   7.341   8.929   3.136 -0.2392  0.7071  0.5630
19113THY    HM161415   7.417   8.859   3.172 -1.1251  1.3800 -0.0823
19113THY    HM261416   7.264   8.932   3.214 -0.0494  0.9199 -0.0071
19113THY    HM361417   7.372   9.031   3.110 -0.3603 -0.5166  0.3070
19113THY    CA661418   7.306   8.725   2.998  0.0070  0.1264  0.6103
19113THY    HA661419   7.384   8.671   3.050  1.4600  0.1288  2.6036
19114THY      O61420   8.625   2.279   2.786 -0.4705  0.4220  0.4084
19114THY     HO61421   8.548   2.320   2.827 -1.5652 -0.9935 -0.1655
19114THY    CA161422   8.694   2.378   2.723 -0.4350 -1.0398  0.0887
19114THY    CA261423   8.836   2.376   2.712  0.1681 -0.3507  0.2636
19114THY    CP161424   8.915   2.248   2.731  0.2964  0.2770  0.7759
19114THY    HP161425   8.845   2.170   2.764 -2.5460 -1.9529  2.1894
19114THY    CP261426   9.002   2.269   2.857  0.2222  0.3248  0.1646
19114THY    HP261427   9.034   2.172   2.896  1.4305 -3.7112 -1.2806
19114THY    HP361428   8.954   2.333   2.932 -0.5238  1.0525 -1.2160
19114THY    HP461429   9.088   2.327   2.822  1.2794  1.8933 -0.4162
19114THY    CP361430   8.991   2.202   2.605 -0.5023 -0.3791  0.4120
19114THY    HP561431   8.920   2.209   2.522 -0.8173 -0.0237  1.9642
19114THY    HP661432   9.018   2.100   2.635 -0.3015  1.8133  1.0494
19114THY    HP761433   9.079   2.266   2.591 -1.5679 -1.4077  1.7152
19114THY    CA361434   8.900   2.495   2.671 -0.1539 -0.4248 -0.1537
19114THY    HA361435   9.008   2.499   2.665 -0.1139  0.4532  0.1492
19114THY    CA461436   8.824   2.615   2.648  0.5682 -0.1795  0.1900
19114THY    HA461437   8.865   2.713   2.625 -0.8821 -0.9408  0.6547
19114THY    CA561438   8.681   2.600   2.651  0.3134 -1.0685 -0.3634
19114THY    CM161439   8.583   2.703   2.599 -0.4961 -0.4038 -0.2613
19114THY    HM161440   8.571   2.676   2.493 -1.7346 -0.0715 -1.0765
19114THY    HM261441   8.625   2.804   2.614 -0.5222  2.3880 -0.5825
19114THY    HM361442   8.487   2.708   2.651 -1.4230 -2.1782  1.4686
19114THY    CA661443   8.618   2.486   2.703 -0.1402  0.3744 -0.7583
19114THY    HA661444   8.511   2.471   2.704 -0.1204  1.7035 -0.8954
19115THY      O61445   5.759   4.438   4.076  0.3763  0.1870 -0.1160
19115THY     HO61446   5.844   4.444   4.030  0.1510 -0.5716 -2.0315
19115THY    CA161447   5.779   4.508   4.189  0.4095  0.5333  0.4947
19115THY    CA261448   5.679   4.511   4.292 -0.2760  0.0488 -1.0075
19115THY    CP161449   5.549   4.441   4.274 -0.7134 -0.6943  0.3614
19115THY    HP161450   5.552   4.372   4.189  1.4417 -1.0863  0.8901
19115THY    CP261451   5.430   4.530   4.245  0.9054  0.9100 -0.6822
19115THY    HP261452   5.340   4.486   4.201  0.0937  1.4632  0.3950
19115THY    HP361453   5.449   4.601   4.163  2.8974  1.1579 -0.8610
19115THY    HP461454   5.388   4.582   4.331  2.1488  0.4947  1.1226
19115THY    CP361455   5.518   4.349   4.392  0.0919 -0.4786 -0.1427
19115THY    HP561456   5.449   4.270   4.361  1.8519 -1.7980 -1.2463
19115THY    HP661457   5.481   4.409   4.475 -0.1555 -2.2803  2.3870
19115THY    HP761458   5.613   4.299   4.415  1.5266 -0.9412  2.2174
19115THY    CA361459   5.716   4.564   4.418 -0.9742 -0.2340  0.0785
19115THY    HA361460   5.648   4.561   4.503 -2.0492 -1.0339  0.9006
19115THY    CA461461   5.842   4.625   4.436  0.6698  0.3602  0.1307
19115THY    HA461462   5.869   4.663   4.534  1.1107  0.7077 -1.0423
19115THY    CA561463   5.932   4.621   4.334  0.4705 -0.1811  0.0101
19115THY    CM161464   6.071   4.674   4.370  0.7344  0.4417  1.0262
19115THY    HM161465   6.148   4.630   4.305  0.2864 -0.2759  1.2861
19115THY    HM261466   6.085   4.639   4.473 -2.7721  0.4887 -0.5669
19115THY    HM361467   6.080   4.783   4.371 -0.2092  4.0381  1.1918
19115THY    CA661468   5.905   4.559   4.213  0.0336 -0.4064 -0.2974
19115THY    HA661469   5.993   4.533   4.155 -0.4971 -0.8653 -1.1157
19116THY      O61470   4.254   4.909   6.225  0.5182 -0.0610  0.0721
19116THY     HO61471   4.255   4.824   6.272 -1.5812 -1.2268 -0.6548
19116THY    CA161472   4.367   4.907   6.158 -0.5723  0.3613  0.1987
19116THY    CA261473   4.434   5.026   6.110 -0.3017 -1.2230  0.3299
19116THY    CP161474   4.374   5.169   6.121 -0.0415 -0.3223 -0.6104
19116THY    HP161475   4.279   5.174   6.176 -0.1058 -0.5392  1.2370
19116THY    CP261476   4.345   5.232   5.984  0.1412 -0.7841 -0.6155
19116THY    HP261477   4.438   5.239   5.926  0.5362 -0.4044 -2.2190
19116THY    HP361478   4.304   5.332   6.001  0.0679  1.6706 -1.0052
19116THY    HP461479   4.268   5.181   5.925  0.4476 -0.8171 -1.0479
19116THY    CP361480   4.469   5.262   6.198  0.5998  0.1480  0.1194
19116THY    HP561481   4.556   5.286   6.136 -1.6804 -2.8830  1.1044
19116THY    HP661482   4.508   5.214   6.289  0.7515 -1.6982 -3.6703
19116THY    HP761483   4.412   5.355   6.209  0.2446 -2.5254  0.2749
19116THY    CA361484   4.561   5.004   6.043  0.1490 -0.0162  0.2654
19116THY    HA361485   4.614   5.088   6.001  0.7423 -1.0606 -0.6123
19116THY    CA461486   4.608   4.876   6.027 -0.2631 -0.4844 -0.0713
19116THY    HA461487   4.696   4.871   5.964  0.7796  0.8152  1.1890
19116THY    CA561488   4.537   4.760   6.079  0.2295 -0.4987 -0.6528
19116THY    CM161489   4.597   4.623   6.090  0.1983 -1.1052  0.5664
19116THY    HM161490   4.638   4.610   6.190  0.3749 -1.2713 -0.2202
19116THY    HM261491   4.689   4.609   6.032  0.7858  0.3407 -2.5289
19116THY    HM361492   4.526   4.541   6.070  1.3154  2.8098 -1.6330
19116THY    CA661493   4.422   4.783   6.152 -0.1265  0.3720  0.4732
19116THY    HA661494   4.375   4.694   6.192 -0.9192  1.3065  1.2981
19117THY      O61495   0.824   4.969   4.013 -0.0607 -0.2894 -0.6572
19117THY     HO61496   0.833   4.890   3.957  0.7686  2.0998 -2.3665
19117THY    CA161497   0.820   5.069   3.920 -0.5552  0.1539 -0.3219
19117THY    CA261498   0.756   5.191   3.947 -0.9922 -0.4053  0.5909
19117THY    CP161499   0.709   5.216   4.090 -0.0391  1.1632 -0.0110
19117THY    HP161500   0.720   5.125   4.150  2.6802  0.7276 -0.0504
19117THY    CP261501   0.566   5.279   4.097 -0.4841  1.1257 -0.5138
19117THY    HP261502   0.541   5.283   4.204 -1.7968  0.8284 -0.5712
19117THY    HP361503   0.492   5.226   4.037  1.6529 -1.5426 -0.7174
19117THY    HP461504   0.565   5.383   4.061  0.7273  0.2085 -0.7963
19117THY    CP361505   0.808   5.311   4.156  0.0608 -0.7770  0.0746
19117THY    HP561506   0.909   5.298   4.114  0.6367  1.2706 -3.4984
19117THY    HP661507   0.807   5.292   4.264 -1.6183 -0.6999  0.4974
19117THY    HP761508   0.776   5.415   4.147  1.1250 -2.0624  0.3123
19117THY    CA361509   0.737   5.281   3.841  0.7174  0.2001 -0.9099
19117THY    HA361510   0.686   5.377   3.852 -0.8277  0.1847 -1.7057
19117THY    CA461511   0.770   5.247   3.713 -0.1782  0.3970  0.0209
19117THY    HA461512   0.751   5.314   3.629  0.7327  1.3247  1.5052
19117THY    CA561513   0.845   5.134   3.692  0.3573 -0.3665  0.8710
19117THY    CM161514   0.887   5.104   3.557 -0.7214  0.3387 -0.5535
19117THY    HM161515   0.805   5.115   3.485 -0.7014  0.2535 -0.9815
19117THY    HM261516   0.915   4.999   3.560  1.9412  1.7616  0.1095
19117THY    HM361517   0.972   5.169   3.532 -0.9164  2.6013  0.6923
19117THY    CA661518   0.864   5.042   3.791 -0.6196  0.7058 -0.2877
19117THY    HA661519   0.902   4.945   3.762 -1.2992 -0.6064 -0.1927
19118THY      O61520   6.227   0.568   5.361 -0.1108 -0.3503  0.1874
19118THY     HO61521   6.231   0.637   5.292 -2.7626 -0.5936  0.2315
19118THY    CA161522   6.131   0.597   5.457 -0.2821  0.6023  0.6152
19118THY    CA261523   6.165   0.587   5.592 -0.2497 -0.2438 -0.2071
19118THY    CP161524   6.282   0.502   5.630  0.2631 -0.4256  0.2698
19118THY    HP161525   6.326   0.460   5.538  0.4682  0.3223 -1.2370
19118THY    CP261526   6.247   0.390   5.729 -0.1206 -0.0287  0.2350
19118THY    HP261527   6.153   0.339   5.707  0.5391 -1.5035 -0.3939
19118THY    HP361528   6.252   0.424   5.833 -0.9111  0.3297 -0.6890
19118THY    HP461529   6.327   0.315   5.724  0.2813  1.4819  0.5235
19118THY    CP361530   6.393   0.592   5.696 -0.8403  0.1497  0.1150
19118THY    HP561531   6.373   0.633   5.795  2.6531  1.1936 -0.3483
19118THY    HP661532   6.412   0.678   5.631  1.8646 -1.1272 -1.2881
19118THY    HP761533   6.486   0.535   5.685  0.4020  0.2139  2.0136
19118THY    CA361534   6.065   0.623   5.688 -0.6740  0.1264 -0.2955
19118THY    HA361535   6.077   0.615   5.795 -0.7969  0.1531 -0.1335
19118THY    CA461536   5.947   0.686   5.646  0.3314 -0.4173  0.1966
19118THY    HA461537   5.871   0.720   5.717  0.6760 -0.1265  0.3652
19118THY    CA561538   5.926   0.699   5.508  0.1011  0.1239 -0.9081
19118THY    CM161539   5.799   0.765   5.455 -0.1470  0.2999  0.8220
19118THY    HM161540   5.712   0.746   5.519 -0.7521 -0.2372  1.7070
19118THY    HM261541   5.786   0.709   5.362 -0.9373  0.8439  0.0777
19118THY    HM361542   5.803   0.875   5.448  0.9619 -2.1915  0.6661
19118THY    CA661543   6.018   0.649   5.411 -0.1597  0.2701 -0.5178
19118THY    HA661544   6.008   0.668   5.305  2.5110 -0.1131 -0.9488
19119THY      O61545   6.401   2.983   6.863 -0.1918 -0.0563 -0.0881
19119THY     HO61546   6.376   3.053   6.927 -1.8533  0.7068 -1.2956
19119THY    CA161547   6.293   2.902   6.862  0.0117 -0.2128  0.0930
19119THY    CA261548   6.261   2.825   6.750  0.1757  0.0786  0.3036
19119THY    CP161549   6.349   2.804   6.625  0.6613  0.7629 -0.2329
19119THY    HP161550   6.430   2.876   6.638  0.1868 -3.1531  1.2678
19119THY    CP261551   6.284   2.840   6.489  0.5182 -0.0613 -0.1505
19119THY    HP261552   6.175   2.848   6.491  0.2378  0.9016 -3.0346
19119THY    HP361553   6.297   2.762   6.413  2.4029  1.2005 -1.1486
19119THY    HP461554   6.331   2.928   6.444  1.7253  1.2358 -0.0953
19119THY    CP361555   6.416   2.669   6.609  0.4296  0.3116 -0.1846
19119THY    HP561556   6.354   2.606   6.544 -0.2846  1.6645 -0.9231
19119THY    HP661557   6.410   2.620   6.707  1.8821  0.5708  0.1112
19119THY    HP761558   6.516   2.676   6.566  0.9761  1.2827 -1.5396
19119THY    CA361559   6.151   2.733   6.753  0.8136 -0.5209  0.1929
19119THY    HA361560   6.132   2.656   6.679  0.5792 -0.4788  0.2083
19119THY    CA461561   6.079   2.729   6.876  1.1669 -0.1782  0.0403
19119THY    HA461562   5.999   2.657   6.892 -0.3820  2.0045  2.0672
19119THY    CA561563   6.098   2.826   6.980 -0.3117  0.8583 -0.5458
19119THY    CM161564   6.010   2.832   7.103  0.5023  0.0188 -0.0907
19119THY    HM161565   5.916   2.779   7.086  1.2265 -2.0118 -0.8224
19119THY    HM261566   5.991   2.939   7.122 -0.2819 -2.0187  0.1785
19119THY    HM361567   6.065   2.794   7.190  0.5296  0.5294  1.0754
19119THY    CA661568   6.216   2.904   6.972 -0.7091 -0.6280  0.4720
19119THY    HA661569   6.245   2.958   7.062 -0.3662  0.6148 -1.6844
19120THY      O61570   9.298   2.034   5.936  0.4432 -0.0037  0.3978
19120THY     HO61571   9.321   1.988   6.019  0.7376 -0.0913  0.3824
19120THY    CA161572   9.323   2.165   5.948 -0.2882  0.9264 -0.0988
19120THY    CA261573   9.338   2.251   5.833  0.4893  0.2603 -0.1007
19120THY    CP161574   9.338   2.195   5.688 -0.2587 -0.2082  0.7443
19120THY    HP161575   9.263   2.115   5.680  0.7877  1.1845 -0.4457
19120THY    CP261576   9.480   2.151   5.643 -0.4077  0.6356  0.8343
19120THY    HP261577   9.546   2.239   5.648  1.5580 -0.4115 -0.5005
19120THY    HP361578   9.472   2.109   5.542  0.8141  1.1518 -0.7603
19120THY    HP461579   9.510   2.071   5.711  0.2664 -0.7557 -0.1427
19120THY    CP361580   9.287   2.298   5.588  0.5112  0.3104  0.1003
19120THY    HP561581   9.261   2.246   5.496 -2.4861  0.9609  0.2468
19120THY    HP661582   9.359   2.377   5.562 -0.2863 -2.4990 -0.0223
19120THY    HP761583   9.201   2.351   5.630 -1.0001 -1.7185 -0.6397
19120THY    CA361584   9.343   2.388   5.855  1.1513  0.3463 -0.3300
19120THY    HA361585   9.339   2.457   5.771 -1.7873  0.1998 -0.5352
19120THY    CA461586   9.341   2.442   5.990  0.0884  0.9287  0.8885
19120THY    HA461587   9.349   2.548   6.012 -3.2109 -0.3757  1.5253
19120THY    CA561588   9.333   2.353   6.100 -0.4468  0.4015  0.9649
19120THY    CM161589   9.343   2.407   6.238 -0.1285  0.3652 -0.5865
19120THY    HM161590   9.429   2.368   6.295  0.1553 -0.4945 -1.2369
19120THY    HM261591   9.251   2.407   6.298 -0.2201  0.2251 -0.4257
19120THY    HM361592   9.377   2.511   6.223  0.7933 -1.3038 -1.0975
19120THY    CA661593   9.319   2.213   6.075 -0.1961  0.4479  0.8584
19120THY    HA661594   9.325   2.150   6.164  0.8772  0.7112  1.3153
19121THY      O61595   3.682   7.774   5.697  0.1052 -0.4119 -0.0444
19121THY     HO61596   3.594   7.735   5.685 -0.0820 -3.3364  1.0571
19121THY    CA161597   3.747   7.728   5.582 -0.4164 -0.1411 -0.1765
19121THY    CA261598   3.779   7.814   5.476 -0.6765 -0.0508 -1.5166
19121THY    CP161599   3.758   7.971   5.494 -0.1649  0.1626  0.1042
19121THY    HP161600   3.714   7.998   5.591  1.7603  1.2725 -0.5202
19121THY    CP261601   3.658   8.025   5.389 -0.0574  0.0739  0.3920
19121THY    HP261602   3.552   8.013   5.414  0.0198 -0.2588 -1.1302
19121THY    HP361603   3.674   7.961   5.302 -0.2014  0.1447  0.2574
19121THY    HP461604   3.691   8.121   5.348  0.2870 -1.1771 -0.2432
19121THY    CP361605   3.890   8.048   5.487  0.7430  0.8484 -0.6063
19121THY    HP561606   3.968   8.005   5.552  0.5028  1.0892 -0.6794
19121THY    HP661607   3.871   8.153   5.509 -0.7353 -1.2312 -0.3729
19121THY    HP761608   3.927   8.051   5.384  0.5313  0.8032  1.0127
19121THY    CA361609   3.858   7.756   5.371 -0.3220 -0.1189 -0.4025
19121THY    HA361610   3.906   7.815   5.294 -0.4393  0.1798  0.0903
19121THY    CA461611   3.886   7.620   5.376 -0.3111 -0.1434 -0.1596
19121THY    HA461612   3.947   7.581   5.295 -0.2312 -0.2088  0.0968
19121THY    CA561613   3.839   7.532   5.472 -0.1505 -0.3256  0.1750
19121THY    CM161614   3.875   7.395   5.481 -0.2963 -0.5637  0.5085
19121THY    HM161615   3.829   7.339   5.399 -0.7284 -1.5565  2.2560
19121THY    HM261616   3.838   7.348   5.572 -1.2592 -0.8748  0.6429
19121THY    HM361617   3.982   7.371   5.484 -0.8548 -1.1799 -2.3926
19121THY    CA661618   3.777   7.590   5.585 -0.1009  0.4777 -1.0509
19121THY    HA661619   3.753   7.533   5.674 -1.9914 -0.4855 -1.8478
19122THY      O61620   2.530   3.445   1.873 -0.1185 -0.4627  0.2791
19122THY     HO61621   2.487   3.361   1.898  0.7889 -1.1096 -0.4065
19122THY    CA161622   2.652   3.406   1.836 -0.4433  0.5394  0.5113
19122THY    CA261623   2.772   3.477   1.862 -0.0127  0.4862  0.7056
19122THY    CP161624   2.764   3.602   1.951 -0.7448  0.0613 -0.0650
19122THY    HP161625   2.662   3.626   1.982 -0.0109  2.4507  0.2776
19122THY    CP261626   2.815   3.732   1.882  0.6270  1.0003  0.3903
19122THY    HP261627   2.924   3.732   1.888  0.6199  1.1687  1.2103
19122THY    HP361628   2.774   3.817   1.937 -0.0591  0.0259  0.7104
19122THY    HP461629   2.785   3.740   1.777  1.5513  0.8454  2.3641
19122THY    CP361630   2.848   3.589   2.082  0.2425  0.6218 -0.0469
19122THY    HP561631   2.955   3.599   2.060  0.2032  0.3091 -0.3118
19122THY    HP661632   2.828   3.493   2.130 -3.4385 -1.1711 -0.3374
19122THY    HP761633   2.825   3.677   2.144 -0.5391  0.4054 -0.0924
19122THY    CA361634   2.897   3.426   1.813  0.0183  0.8373 -0.0612
19122THY    HA361635   2.989   3.483   1.830 -1.0959  2.1100  1.4329
19122THY    CA461636   2.900   3.306   1.738 -0.0622 -0.3021 -0.0876
19122THY    HA461637   2.994   3.272   1.696  0.6318  0.3410  0.9849
19122THY    CA561638   2.783   3.234   1.713 -0.5073 -0.1283 -0.4552
19122THY    CM161639   2.786   3.113   1.628  0.7903 -0.4161  1.0222
19122THY    HM161640   2.877   3.110   1.568  1.2308  0.2922  0.0249
19122THY    HM261641   2.698   3.090   1.567  1.3546 -0.8464 -0.0349
19122THY    HM361642   2.798   3.027   1.695  0.1875 -2.3137 -0.6200
19122THY    CA661643   2.665   3.280   1.768 -0.1121 -0.4335  0.7854
19122THY    HA661644   2.569   3.240   1.736 -1.1457  1.4139  1.6524
19123THY      O61645   7.847   4.678   2.758 -0.0378  0.3010 -0.1037
19123THY     HO61646   7.918   4.723   2.806  1.1882  0.2423 -1.9008
19123THY    CA161647   7.744   4.684   2.844  0.2634 -0.0817  0.0112
19123THY    CA261648   7.650   4.582   2.852  0.0351 -0.0995 -0.0876
19123THY    CP161649   7.670   4.449   2.777 -1.3851 -0.1406 -0.6587
19123THY    HP161650   7.757   4.454   2.711 -1.4586 -0.1802  0.1078
19123THY    CP261651   7.551   4.411   2.692 -0.4124  0.1004 -0.5500
19123THY    HP261652   7.562   4.305   2.666 -0.0014  0.4181 -0.5900
19123THY    HP361653   7.538   4.470   2.601  1.7700 -1.2976 -2.0975
19123THY    HP461654   7.460   4.419   2.752 -0.3024  0.6397 -2.7276
19123THY    CP361655   7.717   4.339   2.883  0.0004 -0.0506  0.1806
19123THY    HP561656   7.823   4.362   2.903  0.1596 -0.1016 -0.4713
19123THY    HP661657   7.717   4.240   2.835  0.9768 -0.3987  0.3335
19123THY    HP761658   7.649   4.342   2.969  1.4797  1.1365  1.4980
19123THY    CA361659   7.541   4.597   2.943  0.6446  0.5171  0.2513
19123THY    HA361660   7.482   4.515   2.983 -1.6768  0.1660  1.6532
19123THY    CA461661   7.543   4.704   3.036 -0.4545  0.2153 -1.1304
19123THY    HA461662   7.465   4.726   3.109 -0.1817 -0.2737  1.8945
19123THY    CA561663   7.624   4.808   3.019  0.3262  0.3715 -0.6915
19123THY    CM161664   7.599   4.929   3.114 -0.2346  0.0936  0.5269
19123THY    HM161665   7.523   4.995   3.070  1.5479  0.8225  3.2267
19123THY    HM261666   7.687   4.995   3.115 -0.3461 -0.6066  0.6935
19123THY    HM361667   7.577   4.892   3.215  1.2870  0.2999  0.1270
19123THY    CA661668   7.728   4.801   2.923  0.4221 -0.2236 -0.2511
19123THY    HA661669   7.794   4.888   2.917 -0.1418 -1.9724  0.1009
19124THY      O61670   7.076   3.891   5.726  0.6666  0.4617 -0.5845
19124THY     HO61671   7.153   3.911   5.782  1.0371  0.2634 -1.4201
19124THY    CA161672   6.962   3.854   5.795  0.8359 -0.2186 -0.4996
19124THY    CA261673   6.862   3.777   5.741  0.2141  0.4274  0.4441
19124THY    CP161674   6.886   3.733   5.596  0.4266  0.4341 -0.2550
19124THY    HP161675   6.993   3.731   5.574  0.5156  0.8477 -0.1179
19124THY    CP261676   6.818   3.818   5.493 -0.0182  0.0352  0.1195
19124THY    HP261677   6.890   3.836   5.412 -0.7026 -0.7551 -0.6327
19124THY    HP361678   6.812   3.921   5.529 -1.2629 -0.3446  0.1840
19124THY    HP461679   6.724   3.778   5.455 -0.2630  0.2764  0.4613
19124THY    CP361680   6.847   3.580   5.572 -0.3603  0.1396 -0.1601
19124THY    HP561681   6.927   3.530   5.627 -0.5977 -0.9569 -1.8376
19124THY    HP661682   6.852   3.558   5.465  0.0708 -0.0629  0.8635
19124THY    HP761683   6.746   3.554   5.608  0.1125  1.0743 -0.7582
19124THY    CA361684   6.759   3.728   5.820 -0.3552 -0.2918 -0.3005
19124THY    HA361685   6.679   3.665   5.782 -1.0103  2.8284 -1.5135
19124THY    CA461686   6.750   3.759   5.958  0.2045  0.3400 -0.8151
19124THY    HA461687   6.671   3.718   6.020  0.1611  1.2741  0.5967
19124THY    CA561688   6.854   3.837   6.012  0.6862 -0.3320  0.6767
19124THY    CM161689   6.844   3.875   6.156  0.6024  0.8088 -0.1223
19124THY    HM161690   6.777   3.826   6.228  0.7411  1.0776  0.0817
19124THY    HM261691   6.830   3.983   6.160  0.6808 -1.0973 -0.0002
19124THY    HM361692   6.941   3.845   6.198 -0.5785  2.6509 -1.6063
19124THY    CA661693   6.950   3.885   5.929  0.3387 -0.4357  0.4305
19124THY    HA661694   7.026   3.938   5.985  0.3121 -1.0447  1.1352
19125THY      O61695   4.258   1.212   3.628 -0.7268 -0.6024  0.0361
19125THY     HO61696   4.318   1.154   3.679  2.2817 -1.5588  2.0948
19125THY    CA161697   4.241   1.323   3.699  0.5669 -0.3668 -0.7961
19125THY    CA261698   4.119   1.354   3.765 -0.2900  0.3305  0.2373
19125THY    CP161699   4.015   1.239   3.782 -0.7013  0.1938 -0.1067
19125THY    HP161700   4.041   1.149   3.726 -0.2711  1.4809 -0.8111
19125THY    CP261701   3.870   1.290   3.743 -0.1241 -0.2406 -0.0230
19125THY    HP261702   3.838   1.387   3.784  0.5399 -0.7472  0.4195
19125THY    HP361703   3.800   1.223   3.793  0.5492  1.0188  0.1720
19125THY    HP461704   3.864   1.281   3.634 -0.8753 -0.0965 -1.4282
19125THY    CP361705   4.026   1.191   3.929 -0.3486 -0.8947  0.1187
19125THY    HP561706   3.935   1.134   3.953  0.7763  0.6735 -1.1151
19125THY    HP661707   4.036   1.281   3.990  1.4512 -0.0204 -0.6206
19125THY    HP761708   4.118   1.132   3.940  0.8007 -2.7589  1.4549
19125THY    CA361709   4.097   1.478   3.831 -0.3007  0.5417 -0.2515
19125THY    HA361710   4.008   1.497   3.890 -0.5304  0.5322 -1.2413
19125THY    CA461711   4.197   1.576   3.818 -0.1249  1.0433  0.2617
19125THY    HA461712   4.184   1.676   3.859  0.0366  3.3301 -0.6063
19125THY    CA561713   4.320   1.546   3.756  0.1280  0.3961  0.1285
19125THY    CM161714   4.436   1.649   3.752 -0.3638  0.8969 -0.5222
19125THY    HM161715   4.447   1.709   3.843  0.2028 -0.0363  0.8443
19125THY    HM261716   4.416   1.724   3.675 -0.6630  0.5895 -0.9100
19125THY    HM361717   4.535   1.607   3.729 -0.1049  0.6368  0.2140
19125THY    CA661718   4.336   1.422   3.695  0.5432  0.1881  0.1652
19125THY    HA661719   4.430   1.386   3.653 -0.0768 -1.3410  0.2256
19126THY      O61720   2.910   0.075   6.869  0.0229  0.1391  0.3508
19126THY     HO61721   2.907   0.012   6.795  1.2681  1.0265 -0.8177
19126THY    CA161722   2.909   0.199   6.817  0.1218 -0.0074  0.1322
19126THY    CA261723   2.956   0.309   6.888  0.0505 -0.6108  0.2786
19126THY    CP161724   3.009   0.294   7.036 -0.2798 -0.4668 -0.0909
19126THY    HP161725   3.033   0.191   7.064 -1.7703  2.1689  0.1911
19126THY    CP261726   2.908   0.357   7.131 -0.5289 -0.4120 -0.7775
19126THY    HP261727   2.891   0.464   7.118  1.2050  4.8843  0.4278
19126THY    HP361728   2.941   0.343   7.235  1.3274 -0.6261  1.4264
19126THY    HP461729   2.810   0.311   7.112 -1.8396  0.7772  1.3476
19126THY    CP361730   3.149   0.356   7.054  0.5667 -0.0727 -0.2314
19126THY    HP561731   3.209   0.311   6.973  0.1636 -1.3656  1.4541
19126THY    HP661732   3.211   0.324   7.139  2.4490 -1.3500 -0.1515
19126THY    HP761733   3.162   0.465   7.053  2.8657 -0.1399 -0.4556
19126THY    CA361734   2.946   0.442   6.840 -0.3922 -0.0497  0.6419
19126THY    HA361735   2.988   0.529   6.890 -0.7602 -0.4983  1.0795
19126THY    CA461736   2.910   0.460   6.707  0.3850 -0.1383  0.0849
19126THY    HA461737   2.916   0.560   6.665 -0.8066  1.7798  1.0114
19126THY    CA561738   2.871   0.352   6.627 -0.1815  0.7914  0.0279
19126THY    CM161739   2.846   0.368   6.479  0.5035  0.0445 -0.0817
19126THY    HM161740   2.777   0.289   6.450 -0.2682  0.2885  0.4885
19126THY    HM261741   2.934   0.347   6.416  2.4347  2.5509  0.0016
19126THY    HM361742   2.812   0.470   6.457 -0.4528  1.5784 -0.0427
19126THY    CA661743   2.861   0.221   6.684  0.3444 -1.2366 -0.2505
19126THY    HA661744   2.818   0.138   6.629  1.2631  0.3961 -1.8703
19127THY      O61745   0.317   4.597   5.035  0.0834 -0.9029  0.0668
19127THY     HO61746   0.357   4.562   4.953  0.3431 -1.0687  0.7376
19127THY    CA161747   0.419   4.661   5.098 -0.2174  0.0074  0.2741
19127THY    CA261748   0.417   4.692   5.235 -0.9399  0.8752  0.2295
19127THY    CP161749   0.300   4.660   5.320  0.9503 -0.7303  0.6043
19127THY    HP161750   0.213   4.641   5.257  0.6380  0.0222 -0.6080
19127THY    CP261751   0.270   4.775   5.426  0.6902  0.5824 -0.2429
19127THY    HP261752   0.161   4.779   5.432  0.5888 -0.4173 -1.2167
19127THY    HP361753   0.318   4.863   5.381  0.0608 -0.2519 -0.3171
19127THY    HP461754   0.312   4.760   5.527  1.7742  0.0584 -0.8229
19127THY    CP361755   0.318   4.526   5.405  0.0304  0.3379 -0.1429
19127THY    HP561756   0.420   4.520   5.445  1.6010 -3.2404  0.4899
19127THY    HP661757   0.311   4.439   5.339 -0.5460  0.4033 -0.1536
19127THY    HP761758   0.239   4.512   5.480 -0.7081 -0.6526 -1.5310
19127THY    CA361759   0.532   4.743   5.288  0.1281  0.0007 -0.2288
19127THY    HA361760   0.525   4.769   5.393 -2.0062 -0.3294  0.7212
19127THY    CA461761   0.650   4.775   5.212 -0.3917 -0.3847 -0.5076
19127THY    HA461762   0.735   4.823   5.261 -0.5809 -1.5643  1.1285
19127THY    CA561763   0.641   4.747   5.080  0.2764  0.6245  0.5835
19127THY    CM161764   0.753   4.780   4.992 -0.1190  0.2906 -0.2445
19127THY    HM161765   0.820   4.695   4.977  0.3512  0.0015  0.1755
19127THY    HM261766   0.814   4.862   5.032 -1.7783 -0.4618  1.4359
19127THY    HM361767   0.717   4.823   4.898 -1.0441  0.3697 -0.8050
19127THY    CA661768   0.528   4.690   5.017 -0.0120 -0.3971 -0.5273
19127THY    HA661769   0.533   4.666   4.911 -1.2996 -0.8555  1.0559
19128THY      O61770   1.273   3.249   2.720  0.0824 -0.1462  0.1285
19128THY     HO61771   1.286   3.242   2.624 -1.4510 -0.5695  2.2222
19128THY    CA161772   1.397   3.230   2.762 -0.2229 -0.3026  0.3053
19128THY    CA261773   1.447   3.196   2.888 -0.1092 -0.0422  0.9131
19128THY    CP161774   1.343   3.188   3.003  0.0456 -0.3235  0.1018
19128THY    HP161775   1.247   3.235   2.976  0.9823  0.0296  2.3796
19128THY    CP261776   1.403   3.235   3.133 -0.1751  0.2642  0.7362
19128THY    HP261777   1.332   3.242   3.216  1.7088  2.0048  0.1188
19128THY    HP361778   1.447   3.336   3.130 -0.5914 -1.9489  0.8957
19128THY    HP461779   1.474   3.162   3.173  0.6351 -0.1758  1.2699
19128THY    CP361780   1.289   3.039   3.014 -0.1726 -0.5395  0.1204
19128THY    HP561781   1.368   2.966   2.989 -0.2589  0.0516 -0.1807
19128THY    HP661782   1.205   3.025   2.945 -1.7408  1.2925  0.1323
19128THY    HP761783   1.262   3.009   3.116 -0.7326 -0.3566  1.2103
19128THY    CA361784   1.579   3.151   2.905  0.1090  0.1852  0.3388
19128THY    HA361785   1.624   3.125   3.001  0.2131 -0.1357 -0.7328
19128THY    CA461786   1.655   3.148   2.792 -0.5895  0.3669  0.0049
19128THY    HA461787   1.750   3.096   2.800 -1.0784 -0.3938 -1.0402
19128THY    CA561788   1.617   3.188   2.664 -0.3961 -0.2547  0.1339
19128THY    CM161789   1.706   3.169   2.546  0.6805 -0.6203  0.4509
19128THY    HM161790   1.812   3.164   2.576 -0.0472  1.9536 -1.6084
19128THY    HM261791   1.696   3.246   2.469  2.1191 -1.3619 -0.0674
19128THY    HM361792   1.675   3.080   2.490 -2.0039  1.9174 -0.3476
19128THY    CA661793   1.490   3.244   2.654  0.1441  0.2804 -0.3274
19128THY    HA661794   1.461   3.266   2.551  1.5952 -0.0283  0.2274
19129THY      O61795   3.612   4.515   4.317  0.1297  0.5967  0.4752
19129THY     HO61796   3.567   4.506   4.231 -2.5618  1.9396  0.2547
19129THY    CA161797   3.622   4.648   4.352 -0.8974 -0.3022 -0.5459
19129THY    CA261798   3.661   4.699   4.473 -0.2687 -0.5385  0.2861
19129THY    CP161799   3.699   4.603   4.583 -0.6396 -0.6712 -0.7056
19129THY    HP161800   3.759   4.518   4.547  1.4944  0.8350  0.0604
19129THY    CP261801   3.578   4.533   4.645 -0.4942 -0.4966  0.5242
19129THY    HP261802   3.497   4.517   4.573 -0.1780 -0.6239 -0.6200
19129THY    HP361803   3.547   4.599   4.727 -0.0956  0.0776  0.0130
19129THY    HP461804   3.612   4.439   4.691  0.5311  1.7100  1.9077
19129THY    CP361805   3.793   4.670   4.695 -0.5105  0.2241  0.2496
19129THY    HP561806   3.877   4.730   4.659  0.0046 -0.7568 -1.0447
19129THY    HP661807   3.829   4.586   4.755  1.5551 -1.5483 -0.2167
19129THY    HP761808   3.717   4.724   4.754 -1.0528 -1.5209  1.5134
19129THY    CA361809   3.667   4.836   4.495 -0.4242  0.0307  0.0765
19129THY    HA361810   3.710   4.886   4.582 -1.8781  0.3263  0.8743
19129THY    CA461811   3.646   4.923   4.392  0.4325  0.4067  0.4621
19129THY    HA461812   3.672   5.028   4.403  0.6008  1.3719  0.3283
19129THY    CA561813   3.592   4.875   4.274 -0.3386 -0.6402 -0.2882
19129THY    CM161814   3.560   4.970   4.155 -0.8808  0.0042 -0.2483
19129THY    HM161815   3.543   4.904   4.070 -1.4280 -1.5773  1.8158
19129THY    HM261816   3.648   5.033   4.136 -2.0141 -0.1291  1.3749
19129THY    HM361817   3.471   5.032   4.173  0.7529  0.0410  2.2117
19129THY    CA661818   3.587   4.740   4.256 -0.1754 -0.0242  0.3506
19129THY    HA661819   3.548   4.701   4.162 -3.1798  1.1709  0.1602
19130THY      O61820   0.808   3.785   7.419  0.0184 -0.4155  0.2116
19130THY     HO61821   0.867   3.721   7.375 -1.9125  0.7576 -2.6007
19130THY    CA161822   0.744   3.836   7.316  0.0093  0.1739  0.9511
19130THY    CA261823   0.663   3.956   7.331  0.4672 -0.4351 -0.1723
19130THY    CP161824   0.648   4.032   7.466  0.0999  0.0967  0.0812
19130THY    HP161825   0.705   3.974   7.539 -1.7200  1.6825  0.1940
19130THY    CP261826   0.515   4.027   7.530 -0.3154  1.2663  0.1273
19130THY    HP261827   0.487   3.921   7.524 -0.5277 -3.9037  0.2312
19130THY    HP361828   0.451   4.102   7.483  1.4609  0.3087  1.1063
19130THY    HP461829   0.525   4.059   7.635 -2.6921  2.1264 -1.5933
19130THY    CP361830   0.704   4.180   7.462 -0.0845 -0.1018 -0.1398
19130THY    HP561831   0.804   4.189   7.420  0.6941  1.9555  1.8945
19130THY    HP661832   0.718   4.229   7.559 -2.3796  0.0880  0.2560
19130THY    HP761833   0.647   4.243   7.393  0.4400 -1.2204 -0.8649
19130THY    CA361834   0.594   4.012   7.216 -0.0761 -0.2064  0.1957
19130THY    HA361835   0.531   4.099   7.233  1.4016 -0.0641  1.2855
19130THY    CA461836   0.596   3.945   7.097  0.3008  0.3335  0.1654
19130THY    HA461837   0.533   3.985   7.018  1.2123  0.2088  1.4286
19130THY    CA561838   0.675   3.833   7.082  0.1813  1.0581  0.4821
19130THY    CM161839   0.683   3.768   6.942 -0.4255  0.0563  0.1931
19130THY    HM161840   0.663   3.832   6.855  0.3275  0.3870  0.8875
19130THY    HM261841   0.603   3.692   6.944  0.5813  1.5825 -0.8678
19130THY    HM361842   0.770   3.704   6.926 -1.2124  0.9970 -1.1792
19130THY    CA661843   0.744   3.779   7.192  0.0663  1.1146  0.2741
19130THY    HA661844   0.800   3.688   7.173 -1.8656 -2.6920 -0.3586
19131THY      O61845   6.364   2.888   5.456 -0.0565  0.0472  0.3913
19131THY     HO61846   6.414   2.929   5.384  3.0025  0.0674 -2.7862
19131THY    CA161847   6.232   2.924   5.449  0.2759  0.1723 -0.1654
19131THY    CA261848   6.138   2.866   5.535  0.1697  0.4691 -0.1609
19131THY    CP161849   6.192   2.767   5.636  0.0354 -0.4293  0.5959
19131THY    HP161850   6.301   2.774   5.646  0.0958 -0.5700 -0.0355
19131THY    CP261851   6.162   2.625   5.574 -0.1651 -0.0651  0.0433
19131THY    HP261852   6.209   2.622   5.475 -1.8748 -0.9912  1.5507
19131THY    HP361853   6.057   2.595   5.562  1.0689 -2.0146 -4.2133
19131THY    HP461854   6.227   2.556   5.629  1.3424 -1.1545  0.5500
19131THY    CP361855   6.129   2.788   5.770  0.2059 -0.3415 -0.5230
19131THY    HP561856   6.181   2.724   5.842  0.4669 -0.5884 -0.5938
19131THY    HP661857   6.024   2.759   5.768  0.0534 -1.0991  0.0386
19131THY    HP761858   6.153   2.892   5.795 -1.8977  0.0249 -0.0950
19131THY    CA361859   6.001   2.885   5.519  0.2433  0.0340 -0.4289
19131THY    HA361860   5.925   2.827   5.571 -1.5991 -0.9658  0.9954
19131THY    CA461861   5.959   2.977   5.409 -0.6980 -0.5875  0.1947
19131THY    HA461862   5.854   3.004   5.402 -1.0829  1.0460 -0.7674
19131THY    CA561863   6.056   3.035   5.327 -0.5420 -0.1715 -0.1857
19131THY    CM161864   6.022   3.120   5.200  0.2140 -0.6731 -0.3395
19131THY    HM161865   6.022   3.227   5.223 -1.9290 -0.9900 -0.2282
19131THY    HM261866   5.921   3.108   5.159  0.4918 -1.3603 -0.3856
19131THY    HM361867   6.102   3.107   5.126  1.1442 -0.0195  1.4467
19131THY    CA661868   6.195   3.017   5.356  1.1668 -0.1710 -0.5547
19131THY    HA661869   6.269   3.044   5.282  1.3472 -1.2145 -3.4949
19132THY      O61870   8.009   5.994   6.205  0.5430  0.4414  0.5949
19132THY     HO61871   8.044   5.969   6.118 -0.3006 -0.5378  2.6305
19132THY    CA161872   8.081   5.924   6.289  0.6420 -0.1235 -0.4832
19132THY    CA261873   8.046   5.897   6.417  0.8216  0.0022 -0.6183
19132THY    CP161874   7.916   5.947   6.482 -0.4335 -0.2667 -0.0721
19132THY    HP161875   7.849   6.005   6.417 -0.7581 -0.0076 -0.1557
19132THY    CP261876   7.945   6.026   6.606  0.7266  0.3327  0.0604
19132THY    HP261877   7.845   6.042   6.648 -0.3137 -1.6638 -0.7709
19132THY    HP361878   7.997   6.118   6.578  1.6437 -0.0181 -0.5492
19132THY    HP461879   8.005   5.965   6.674  0.6067 -0.2750 -0.7602
19132THY    CP361880   7.823   5.829   6.509 -0.0906  0.3525  0.2863
19132THY    HP561881   7.727   5.875   6.532 -0.0395 -0.3153  0.7338
19132THY    HP661882   7.864   5.779   6.598  1.0385  0.4163  1.2811
19132THY    HP761883   7.812   5.760   6.424  0.5664  1.2729 -0.9998
19132THY    CA361884   8.127   5.815   6.496 -0.7204 -0.8658  0.9333
19132THY    HA361885   8.105   5.783   6.598  3.1558 -0.4286 -0.9110
19132THY    CA461886   8.244   5.754   6.443  0.3531  0.3268 -0.9315
19132THY    HA461887   8.299   5.686   6.507 -0.7344  1.6215 -0.6423
19132THY    CA561888   8.281   5.783   6.310  0.2792 -0.6607 -0.0471
19132THY    CM161889   8.399   5.719   6.248 -1.0364 -0.5328  0.0003
19132THY    HM161890   8.384   5.690   6.144 -0.2443 -1.1254  1.5929
19132THY    HM261891   8.438   5.631   6.300 -2.1956  0.1760 -0.1164
19132THY    HM361892   8.475   5.798   6.252  0.4784  2.4491 -1.4324
19132THY    CA661893   8.197   5.870   6.238 -0.1221  0.3064  0.3782
19132THY    HA661894   8.231   5.897   6.138  1.7676  1.0988  1.0666
19133THY      O61895   7.591   8.687   2.746 -0.0234  0.1812 -0.3895
19133THY     HO61896   7.620   8.599   2.774 -2.3492 -1.2333 -1.7267
19133THY    CA161897   7.614   8.773   2.842  0.1551  0.1549 -0.1735
19133THY    CA261898   7.595   8.912   2.816 -0.4308  0.4234 -0.3582
19133THY    CP161899   7.562   8.965   2.679 -0.4449 -0.5850 -0.2575
19133THY    HP161900   7.498   8.889   2.634  2.8461  0.8132 -4.1857
19133THY    CP261901   7.693   9.003   2.594  1.1584  0.9597  0.9013
19133THY    HP261902   7.757   9.081   2.637  0.8278 -0.0295  1.7405
19133THY    HP361903   7.644   9.047   2.507 -1.0124  0.7583 -1.6134
19133THY    HP461904   7.751   8.915   2.564 -0.9612  0.3452 -0.3670
19133THY    CP361905   7.478   9.099   2.698  0.6195 -0.5587 -0.1312
19133THY    HP561906   7.418   9.132   2.612 -4.6895  3.0296  0.8521
19133THY    HP661907   7.543   9.183   2.724  0.5970 -1.2107  0.0950
19133THY    HP761908   7.402   9.087   2.776  2.6812  1.4878 -0.5899
19133THY    CA361909   7.626   8.995   2.925  0.1749  0.5213  0.5144
19133THY    HA361910   7.609   9.102   2.915 -0.5509 -1.9542  0.2209
19133THY    CA461911   7.667   8.938   3.049  0.9206 -0.1448 -0.4204
19133THY    HA461912   7.673   9.000   3.137  1.4543 -1.5033  1.5686
19133THY    CA561913   7.684   8.798   3.065 -0.1808 -0.4707  0.7721
19133THY    CM161914   7.708   8.736   3.201  0.1899 -0.2879  0.1406
19133THY    HM161915   7.760   8.640   3.190 -0.6876 -3.2917 -0.1002
19133THY    HM261916   7.612   8.718   3.250 -0.3805 -1.5163 -0.3244
19133THY    HM361917   7.754   8.807   3.271 -0.7336  2.0993 -1.4786
19133THY    CA661918   7.662   8.717   2.958  0.9218  0.0651 -0.0453
19133THY    HA661919   7.671   8.610   2.973  0.2410 -0.4024 -0.1718
19134THY      O61920   6.335   7.869   3.647  0.0677 -0.1086  0.3442
19134THY     HO61921   6.260   7.915   3.604  0.7260 -0.0363  1.5332
19134THY    CA161922   6.290   7.765   3.711  0.6092  0.2231  0.0823
19134THY    CA261923   6.219   7.777   3.834 -0.4153 -0.1988 -0.0739
19134THY    CP161924   6.201   7.915   3.904  0.0190  0.2530  0.3892
19134THY    HP161925   6.175   7.988   3.827 -2.2367 -0.5600 -1.1537
19134THY    CP261926   6.327   7.961   3.982 -0.8768 -0.0536  0.3422
19134THY    HP261927   6.319   7.946   4.090 -0.2841 -0.1768 -1.0586
19134THY    HP361928   6.341   8.068   3.960 -0.8223 -4.8567 -0.4281
19134THY    HP461929   6.421   7.922   3.941 -1.1780  1.1491 -1.8039
19134THY    CP361930   6.076   7.929   3.993  0.0239 -0.7302 -0.3946
19134THY    HP561931   6.099   7.873   4.085 -1.5861  0.2155  0.4317
19134THY    HP661932   5.987   7.898   3.938  0.8473 -1.9574 -0.6714
19134THY    HP761933   6.053   8.030   4.028 -1.3473 -0.9382 -0.6189
19134THY    CA361934   6.161   7.659   3.887  0.1626 -0.0120 -0.0749
19134THY    HA361935   6.105   7.659   3.980  1.4392  0.7827 -0.2139
19134THY    CA461936   6.165   7.539   3.816  0.2651  0.4648  0.1219
19134THY    HA461937   6.109   7.450   3.844  0.2620 -0.4556 -0.1822
19134THY    CA561938   6.233   7.528   3.696  0.8013 -0.6143  0.1708
19134THY    CM161939   6.253   7.394   3.623 -1.0368 -0.0549  0.0236
19134THY    HM161940   6.294   7.321   3.694 -1.8802 -0.5357 -0.9474
19134THY    HM261941   6.334   7.416   3.553 -2.1872 -1.4080  0.0855
19134THY    HM361942   6.173   7.345   3.567  0.8572 -0.6669 -2.5853
19134THY    CA661943   6.291   7.638   3.641 -0.5741  0.1757 -0.8167
19134THY    HA661944   6.340   7.640   3.544  0.3699  0.6295 -1.2304
19135THY      O61945   3.065   5.434   4.690  0.8661  0.2279  0.1587
19135THY     HO61946   3.086   5.528   4.702  2.2839 -1.4554  0.1216
19135THY    CA161947   2.967   5.405   4.781 -0.2004  1.3474  0.1635
19135THY    CA261948   2.922   5.276   4.788  0.0194 -0.3938  0.1463
19135THY    CP161949   2.979   5.164   4.709  0.3529  0.4617  0.5544
19135THY    HP161950   3.022   5.193   4.612 -0.2509 -0.7849 -2.3024
19135THY    CP261951   2.872   5.067   4.651 -0.7057 -0.2471  0.1359
19135THY    HP261952   2.812   5.018   4.728 -0.7717  0.4551  1.2663
19135THY    HP361953   2.916   4.983   4.597 -0.8118  1.8519 -1.3615
19135THY    HP461954   2.799   5.115   4.586 -0.0346 -1.8265 -0.9210
19135THY    CP361955   3.078   5.085   4.794 -0.3553 -0.8057 -0.9966
19135THY    HP561956   3.141   5.009   4.747 -0.7030 -1.0426 -1.1415
19135THY    HP661957   3.027   5.044   4.882  0.9011 -1.4937 -4.3003
19135THY    HP761958   3.143   5.160   4.841  1.6495  0.6978 -3.4879
19135THY    CA361959   2.818   5.254   4.875 -0.3062  0.2517  0.3195
19135THY    HA361960   2.799   5.151   4.903 -1.2355 -0.7507  0.1971
19135THY    CA461961   2.757   5.358   4.946 -0.1183  0.1463 -0.5685
19135THY    HA461962   2.679   5.320   5.011  0.6740  1.1350 -0.5419
19135THY    CA561963   2.794   5.491   4.914  0.4470  0.1633 -0.0277
19135THY    CM161964   2.715   5.610   4.961  0.6820  0.5836 -0.2248
19135THY    HM161965   2.608   5.586   4.963  0.3202 -4.9972 -0.4656
19135THY    HM261966   2.737   5.695   4.895  1.6217  3.3197  1.7888
19135THY    HM361967   2.746   5.645   5.060  0.4663  0.4056  0.4984
19135THY    CA661968   2.884   5.511   4.814 -0.5851  0.1051  0.4200
19135THY    HA661969   2.896   5.613   4.780  3.6358  0.8369  0.3591
19136THY      O61970   2.020   8.533   5.460  0.0177  0.2660  0.3683
19136THY     HO61971   2.089   8.464   5.471 -0.1332 -1.4087 -0.0794
19136THY    CA161972   1.922   8.455   5.416 -0.0105 -0.0512 -0.4061
19136THY    CA261973   1.793   8.511   5.382  0.5143  0.2923 -0.4091
19136THY    CP161974   1.767   8.663   5.370  0.3516  0.9531  0.1973
19136THY    HP161975   1.858   8.722   5.389 -0.4033  2.0644  1.0538
19136THY    CP261976   1.668   8.715   5.471 -0.5581 -0.3116  0.9485
19136THY    HP261977   1.697   8.668   5.565  0.5195 -0.7258  0.7452
19136THY    HP361978   1.570   8.671   5.452 -0.2410 -0.7062  0.4098
19136THY    HP461979   1.662   8.824   5.483  1.5114  1.7026  0.9319
19136THY    CP361980   1.728   8.715   5.232 -1.1419 -0.1107 -0.0304
19136THY    HP561981   1.694   8.818   5.248  2.1389  1.2451  0.9890
19136THY    HP661982   1.641   8.664   5.191 -0.7372  1.2308 -1.9365
19136THY    HP761983   1.807   8.709   5.156 -1.6739 -0.6759  0.1026
19136THY    CA361984   1.686   8.424   5.365  0.3857 -0.5044 -0.4340
19136THY    HA361985   1.586   8.457   5.340 -0.0104  0.3530 -0.9710
19136THY    CA461986   1.703   8.286   5.379 -0.0045  0.2594 -0.5001
19136THY    HA461987   1.617   8.219   5.377 -1.0875  1.6715  0.7658
19136THY    CA561988   1.828   8.230   5.407  0.1307 -0.4517 -0.6747
19136THY    CM161989   1.835   8.086   5.416 -0.6622  0.1201 -0.8011
19136THY    HM161990   1.932   8.036   5.420 -0.7473 -0.1169 -0.9895
19136THY    HM261991   1.793   8.044   5.323 -0.0146  0.9270 -3.3909
19136THY    HM361992   1.776   8.038   5.494 -0.8536 -0.7790 -2.0711
19136THY    CA661993   1.941   8.312   5.419 -0.4830 -0.3183  0.3882
19136THY    HA661994   2.032   8.261   5.451 -2.1240  0.7336 -2.0449
19137THY      O61995   4.902   0.798   2.280  0.4000 -0.7685  0.1733
19137THY     HO61996   4.834   0.815   2.213 -2.8972  1.1896 -3.7301
19137THY    CA161997   5.003   0.876   2.262 -0.5148 -0.6928 -0.3542
19137THY    CA261998   5.139   0.839   2.305 -0.0527 -0.3803 -0.0952
19137THY    CP161999   5.164   0.697   2.368 -0.3262 -0.2864 -0.2803
19137THY    HP162000   5.064   0.660   2.396 -0.4646 -0.0841  0.2347
19137THY    CP262001   5.263   0.707   2.484  0.2847 -0.1668  0.1362
19137THY    HP262002   5.248   0.798   2.542  2.1871  0.9646 -0.2277
19137THY    HP362003   5.361   0.703   2.435  0.1100 -0.7332  1.8196
19137THY    HP462004   5.242   0.620   2.547 -0.2395 -0.7134 -0.1392
19137THY    CP362005   5.218   0.605   2.267  0.5142  0.8380 -0.1788
19137THY    HP562006   5.319   0.638   2.241  0.6354  0.9518 -0.4606
19137THY    HP662007   5.158   0.601   2.175  0.8526  0.5453  0.9716
19137THY    HP762008   5.221   0.505   2.311  1.8220  1.3970  0.0901
19137THY    CA362009   5.235   0.942   2.316  0.6723  0.1618  0.8778
19137THY    HA362010   5.333   0.925   2.360 -0.6990  2.9592 -0.3599
19137THY    CA462011   5.195   1.076   2.273 -0.4006  0.4197  0.3743
19137THY    HA462012   5.255   1.161   2.303 -2.5649  1.2065  1.7068
19137THY    CA562013   5.072   1.105   2.217  0.4126 -0.0415  0.0636
19137THY    CM162014   5.038   1.255   2.190 -0.4423  0.5912  0.4042
19137THY    HM162015   4.949   1.255   2.127  2.3952 -3.9172 -1.9676
19137THY    HM262016   5.119   1.310   2.139 -2.7556  0.7255  4.3674
19137THY    HM362017   5.014   1.298   2.288  1.2559  1.2619 -0.0804
19137THY    CA662018   4.971   1.009   2.219 -0.2050 -0.6528 -0.4280
19137THY    HA662019   4.866   1.036   2.220  0.1296 -1.7594  1.0527
19138THY      O62020   5.959   8.175   5.166 -0.7800  0.0897 -0.7060
19138THY     HO62021   5.898   8.219   5.228  2.0694  1.8739  1.0627
19138THY    CA162022   6.018   8.076   5.241  0.0838 -0.1643  0.2164
19138THY    CA262023   6.140   8.028   5.201 -0.3404 -0.2419 -0.8250
19138THY    CP162024   6.208   8.081   5.065 -0.2014 -0.3889  0.6054
19138THY    HP162025   6.184   8.187   5.050 -0.3096 -2.3760  0.3355
19138THY    CP262026   6.168   7.986   4.951  0.2069  0.2611  0.1278
19138THY    HP262027   6.216   8.023   4.860  0.1149 -0.3021 -1.1068
19138THY    HP362028   6.059   7.979   4.945  0.1393  0.4850  0.8356
19138THY    HP462029   6.198   7.882   4.967  1.1562 -1.2703  0.1339
19138THY    CP362030   6.358   8.104   5.083  0.2675  0.1786  0.9139
19138THY    HP562031   6.403   8.154   4.996 -1.0256 -1.2663 -0.3373
19138THY    HP662032   6.396   8.001   5.087 -0.9796 -0.7731  0.3931
19138THY    HP762033   6.386   8.158   5.173 -0.5072 -0.2322  2.0289
19138THY    CA362034   6.200   7.929   5.281 -0.6731  0.4826  0.4478
19138THY    HA362035   6.298   7.890   5.256 -0.5714 -0.2974  1.1799
19138THY    CA462036   6.140   7.888   5.398  0.8997  0.0233  0.1608
19138THY    HA462037   6.195   7.813   5.454  1.4358 -1.1099 -0.3209
19138THY    CA562038   6.010   7.936   5.440 -0.6764 -0.0721  0.0789
19138THY    CM162039   5.946   7.883   5.570  0.0994 -0.3265  0.5429
19138THY    HM162040   6.000   7.924   5.656 -0.7717  0.2323  0.5352
19138THY    HM262041   5.948   7.774   5.584 -0.3714  1.4994  0.7455
19138THY    HM362042   5.841   7.914   5.562 -0.8480  0.5212 -2.1970
19138THY    CA662043   5.951   8.031   5.359 -1.3259  0.1304 -0.5343
19138THY    HA662044   5.855   8.075   5.384 -2.0150  0.9170 -2.3807
19139THY      O62045   1.138   6.212   6.539 -0.4904 -0.5127  0.4413
19139THY     HO62046   1.086   6.293   6.549 -1.0879  0.1110  0.0018
19139THY    CA162047   1.055   6.102   6.549  0.5588  0.3986  0.2257
19139THY    CA262048   1.079   5.975   6.494  0.3643 -0.2232  0.7445
19139THY    CP162049   1.208   5.952   6.427 -0.5098 -0.0144  0.0992
19139THY    HP162050   1.260   6.048   6.415 -1.6827 -1.3979  0.5916
19139THY    CP262051   1.190   5.912   6.280 -0.3490 -0.5301  0.2518
19139THY    HP262052   1.125   5.823   6.277 -2.6830  0.0083  1.8375
19139THY    HP362053   1.281   5.869   6.239 -0.9574 -0.3421 -1.3073
19139THY    HP462054   1.139   5.993   6.228 -1.7707  0.3264 -0.0415
19139THY    CP362055   1.296   5.863   6.510 -0.1257  0.6753  0.7442
19139THY    HP562056   1.339   5.913   6.597 -0.4008  0.2790  1.6895
19139THY    HP662057   1.378   5.824   6.449  0.4848  0.5963  2.1159
19139THY    HP762058   1.244   5.774   6.550  0.7564  1.3566  0.5260
19139THY    CA362059   0.986   5.869   6.502 -0.9129 -0.3472 -0.0973
19139THY    HA362060   1.006   5.777   6.448  1.4917 -1.2335  0.8822
19139THY    CA462061   0.865   5.884   6.580  0.0220  0.8335 -0.1308
19139THY    HA462062   0.795   5.801   6.595 -1.6586 -2.8818  0.4282
19139THY    CA562063   0.842   6.010   6.640  0.6856  0.6185  0.1521
19139THY    CM162064   0.725   6.028   6.729  0.6246  0.2600 -0.3741
19139THY    HM162065   0.756   6.013   6.833  2.0567 -0.1470 -0.3795
19139THY    HM262066   0.647   5.954   6.710  1.0993  1.5166 -1.2355
19139THY    HM362067   0.674   6.125   6.723 -0.2870 -0.5171 -0.8913
19139THY    CA662068   0.935   6.117   6.625 -0.2061  0.3550  0.2340
19139THY    HA662069   0.922   6.206   6.685 -0.6640 -1.4925  1.4841
19140THY      O62070   0.710   1.625   4.394  0.0412 -0.6241 -0.3123
19140THY     HO62071   0.701   1.627   4.491 -2.8954 -0.8151 -0.2507
19140THY    CA162072   0.815   1.556   4.351  0.4885  0.4049  0.3849
19140THY    CA262073   0.844   1.430   4.407  0.7652 -0.6477  0.2046
19140THY    CP162074   0.755   1.378   4.524 -0.1453 -0.0966  0.6696
19140THY    HP162075   0.722   1.457   4.593  0.1421  0.1531  0.5776
19140THY    CP262076   0.835   1.270   4.613 -0.0099  0.4934  0.4503
19140THY    HP262077   0.790   1.242   4.709  1.5807  0.3768 -3.1584
19140THY    HP362078   0.922   1.332   4.637  0.7666 -0.2891 -0.2891
19140THY    HP462079   0.865   1.179   4.559 -0.6463  1.6593 -0.4755
19140THY    CP362080   0.617   1.317   4.479 -0.6033  0.4016  0.4697
19140THY    HP562081   0.555   1.287   4.565 -0.2775  1.1643  1.8990
19140THY    HP662082   0.635   1.237   4.407  1.0401 -1.2936  2.2495
19140THY    HP762083   0.564   1.400   4.430 -1.3837  1.6330  0.7388
19140THY    CA362084   0.953   1.348   4.360  0.4858 -0.2184 -0.1774
19140THY    HA362085   0.983   1.252   4.401  1.3427  0.7481  0.4891
19140THY    CA462086   1.039   1.398   4.258  0.0103 -1.0908 -0.8257
19140THY    HA462087   1.121   1.337   4.221  0.4342 -0.6270 -0.5473
19140THY    CA562088   1.013   1.531   4.204  0.3127 -0.0427  0.0393
19140THY    CM162089   1.093   1.587   4.084  0.4385 -1.0583  1.0072
19140THY    HM162090   1.069   1.522   3.999 -0.3851  0.1150 -0.2530
19140THY    HM262091   1.201   1.588   4.102  0.1678  0.8990 -0.7128
19140THY    HM362092   1.063   1.691   4.067  1.3949 -1.3499  1.2522
19140THY    CA662093   0.900   1.599   4.247  0.7004  0.4587  0.0646
19140THY    HA662094   0.868   1.687   4.192 -1.4402  0.2075 -0.8050
19141THY      O62095   4.458   7.077   4.598  0.2706 -0.1141 -0.1369
19141THY     HO62096   4.498   7.013   4.536 -1.9668  0.4143 -2.1564
19141THY    CA162097   4.321   7.076   4.586 -0.0932  0.1089  0.0195
19141THY    CA262098   4.240   7.155   4.670 -0.0176 -0.4200  0.1232
19141THY    CP162099   4.307   7.260   4.760  0.6658 -0.0438 -0.9636
19141THY    HP162100   4.413   7.240   4.778  0.8706 -0.7837 -0.5775
19141THY    CP262101   4.233   7.280   4.897 -0.4411 -1.0156 -0.0129
19141THY    HP262102   4.291   7.352   4.955 -0.7375  1.3481 -1.5717
19141THY    HP362103   4.214   7.191   4.959 -1.3031 -0.3057  0.6513
19141THY    HP462104   4.141   7.338   4.885 -0.6755  1.9298  0.3445
19141THY    CP362105   4.305   7.399   4.688 -0.2513 -0.2206 -0.0481
19141THY    HP562106   4.202   7.434   4.675 -1.9707  1.6336 -3.7448
19141THY    HP662107   4.361   7.394   4.594  1.1650  0.6437 -3.0255
19141THY    HP762108   4.361   7.475   4.742  0.6007 -2.1342  0.7505
19141THY    CA362109   4.104   7.125   4.682 -0.4001 -0.4017  0.5318
19141THY    HA362110   4.046   7.184   4.751 -2.6008 -2.4609  0.8980
19141THY    CA462111   4.046   7.025   4.607  0.5190 -0.5639  0.3774
19141THY    HA462112   3.939   7.007   4.615  0.5900  1.3041  0.5634
19141THY    CA562113   4.121   6.951   4.517 -0.0200 -0.3785  0.0436
19141THY    CM162114   4.061   6.835   4.447 -0.0255 -0.1944 -0.0683
19141THY    HM162115   3.994   6.868   4.366 -1.8537  0.1495 -2.6201
19141THY    HM262116   4.001   6.788   4.525  0.5132  0.3216  0.0996
19141THY    HM362117   4.141   6.774   4.403  1.8909  1.7172  0.9416
19141THY    CA662118   4.259   6.972   4.517 -0.1927 -0.6835 -0.1883
19141THY    HA662119   4.322   6.907   4.458 -0.7531 -2.1946  0.6035
19142THY      O62120   4.608   8.897   3.383  0.4293  0.7446 -0.2072
19142THY     HO62121   4.535   8.833   3.389 -0.3327  2.8953  0.7466
19142THY    CA162122   4.565   9.004   3.315 -0.1735 -0.2124  0.0769
19142THY    CA262123   4.638   9.127   3.318 -0.2452  0.3366  0.1220
19142THY    CP162124   4.761   9.153   3.409  0.7004 -0.5835  0.1531
19142THY    HP162125   4.774   9.066   3.474  0.4147  1.1227  1.3292
19142THY    CP262126   4.764   9.268   3.507 -0.9585  0.1286 -0.0811
19142THY    HP262127   4.664   9.272   3.552 -2.2489 -2.4430 -0.8682
19142THY    HP362128   4.800   9.359   3.457  2.6243  0.3215 -1.2360
19142THY    HP462129   4.832   9.243   3.589 -0.5064 -0.5185 -1.0138
19142THY    CP362130   4.888   9.156   3.321  0.1060 -0.4611 -0.1318
19142THY    HP562131   4.967   9.110   3.380  2.0097 -0.9373  2.3255
19142THY    HP662132   4.903   9.259   3.286 -0.1203 -1.6698 -0.4834
19142THY    HP762133   4.878   9.087   3.236  1.0289 -3.0975  2.7853
19142THY    CA362134   4.587   9.234   3.243 -0.4158  0.3731  0.0336
19142THY    HA362135   4.647   9.324   3.248  0.7809  2.6877 -0.8191
19142THY    CA462136   4.478   9.210   3.159 -0.3604  0.3514 -0.0928
19142THY    HA462137   4.451   9.288   3.088  1.3765  0.1754  0.4103
19142THY    CA562138   4.413   9.096   3.158  0.3213 -0.0006 -0.7533
19142THY    CM162139   4.292   9.084   3.076  0.7863 -0.3703  0.4520
19142THY    HM162140   4.303   9.133   2.979  1.0458 -0.1927  0.7518
19142THY    HM262141   4.195   9.109   3.122 -0.3011 -1.0947 -2.0559
19142THY    HM362142   4.276   8.979   3.050 -0.9013 -1.1322  0.8601
19142THY    CA662143   4.453   8.989   3.240  0.1511  0.6613 -0.5073
19142THY    HA662144   4.393   8.901   3.259 -2.6633  0.3514  1.2399
19143THY      O62145   3.260   7.872   5.259 -0.0144  0.1263  0.4140
19143THY     HO62146   3.263   7.809   5.184 -0.3141  1.3779 -1.1644
19143THY    CA162147   3.179   7.816   5.354  0.3175  0.3524 -0.2755
19143THY    CA262148   3.127   7.904   5.448  0.1714 -0.2119 -0.2267
19143THY    CP162149   3.156   8.057   5.460  0.8140  0.3763 -0.5735
19143THY    HP162150   3.254   8.084   5.417  0.9411  0.0484 -1.5198
19143THY    CP262151   3.171   8.092   5.605 -0.1432  0.6665 -0.3584
19143THY    HP262152   3.084   8.085   5.671 -1.3977 -0.7662  0.9904
19143THY    HP362153   3.208   8.194   5.622  1.1075 -0.5358 -0.5887
19143THY    HP462154   3.247   8.023   5.644  0.1219 -0.3270 -0.6434
19143THY    CP362155   3.037   8.129   5.394 -0.7509  0.4748  0.0162
19143THY    HP562156   2.940   8.092   5.430  0.2648  3.2017 -0.2433
19143THY    HP662157   3.056   8.120   5.287  1.2227  0.7010  1.0628
19143THY    HP762158   3.043   8.235   5.421  3.1321  0.1527 -0.0044
19143THY    CA362159   3.048   7.840   5.549  0.6530 -0.4737 -0.5682
19143THY    HA362160   3.000   7.892   5.631 -0.6267 -0.6525 -1.4346
19143THY    CA462161   3.029   7.700   5.553 -0.1427 -0.1231 -0.0182
19143THY    HA462162   2.961   7.647   5.617 -1.3158 -0.3317  1.1715
19143THY    CA562163   3.082   7.628   5.449 -0.0937 -0.2507  0.7525
19143THY    CM162164   3.071   7.481   5.434  0.4277  0.1175  0.4260
19143THY    HM162165   3.164   7.431   5.406 -0.3188 -0.1896 -0.8444
19143THY    HM262166   2.985   7.448   5.375 -0.9072  2.7272 -1.1588
19143THY    HM362167   3.040   7.435   5.529  1.3604  0.4664  0.4924
19143THY    CA662168   3.164   7.684   5.356  0.0047 -0.2943 -0.3026
19143THY    HA662169   3.205   7.628   5.273  1.0735  0.0957 -0.1416
19144THY      O62170   5.586   6.742   6.028 -0.0677  0.3124  0.4100
19144THY     HO62171   5.616   6.667   6.083  2.4352  0.0988  1.1434
19144THY    CA162172   5.700   6.798   5.975 -0.0985 -0.0010  0.3299
19144THY    CA262173   5.684   6.881   5.859 -0.6257  0.3713  0.2877
19144THY    CP162174   5.550   6.921   5.799  0.2643 -0.0794  0.1592
19144THY    HP162175   5.456   6.885   5.843 -0.5616  0.0099  2.3136
19144THY    CP262176   5.531   6.865   5.659 -0.0129  0.6923  0.3847
19144THY    HP262177   5.601   6.898   5.582  0.2094  0.4853 -0.5590
19144THY    HP362178   5.430   6.872   5.614  0.3732 -0.1398  0.8562
19144THY    HP462179   5.544   6.757   5.666 -1.2585  1.4432  0.2582
19144THY    CP362180   5.530   7.079   5.804  0.4758  0.0703  0.0985
19144THY    HP562181   5.584   7.137   5.728  0.6346 -0.8108 -1.1592
19144THY    HP662182   5.558   7.115   5.904  2.5886  0.1224 -1.4741
19144THY    HP762183   5.423   7.103   5.809  0.4973 -0.6695  0.3704
19144THY    CA362184   5.802   6.943   5.803  0.0968  0.7209  0.3729
19144THY    HA362185   5.788   6.998   5.711 -0.6590 -0.0706 -1.0882
19144THY    CA462186   5.929   6.920   5.862 -0.7904 -0.7797 -0.8743
19144THY    HA462187   6.015   6.970   5.818 -1.2076 -0.3583  0.2457
19144THY    CA562188   5.943   6.833   5.979  0.4484  0.5522 -0.1688
19144THY    CM162189   6.075   6.814   6.055 -0.1376  0.9556  0.5343
19144THY    HM162190   6.077   6.887   6.137 -0.9594  1.1021  0.4017
19144THY    HM262191   6.153   6.827   5.979 -0.3017  0.6783 -0.0720
19144THY    HM362192   6.078   6.712   6.093 -0.1142  0.9942  0.5496
19144THY    CA662193   5.823   6.771   6.032 -0.2271  0.4913 -0.0879
19144THY    HA662194   5.829   6.705   6.119 -0.5266 -0.0166 -0.7975
19145THY      O62195   3.598   0.584   6.720  0.9871 -0.1070 -0.2123
19145THY     HO62196   3.692   0.569   6.740  0.5717  2.3581  0.0513
19145THY    CA162197   3.582   0.601   6.583  0.0351 -0.5066  0.2545
19145THY    CA262198   3.468   0.657   6.529 -0.4583  0.0532 -0.0116
19145THY    CP162199   3.368   0.730   6.620  0.4067  0.0967  0.3356
19145THY    HP162200   3.390   0.705   6.724  0.4663 -0.2909 -1.3444
19145THY    CP262201   3.222   0.695   6.602  0.2824  1.0350 -0.2437
19145THY    HP262202   3.185   0.748   6.513 -3.5724  1.9565 -1.0849
19145THY    HP362203   3.155   0.720   6.685 -3.0004 -1.3955 -0.1817
19145THY    HP462204   3.211   0.591   6.568  1.7371 -0.9945  0.2066
19145THY    CP362205   3.377   0.884   6.602  0.0084  0.0100  0.4786
19145THY    HP562206   3.350   0.913   6.500  0.9461 -0.0572  1.1478
19145THY    HP662207   3.478   0.912   6.633 -0.3547  0.0252  1.8058
19145THY    HP762208   3.310   0.934   6.673 -3.4057 -1.5469 -1.4772
19145THY    CA362209   3.443   0.659   6.390  0.6207  0.1596 -0.7707
19145THY    HA362210   3.348   0.686   6.345  0.4427 -1.3809 -3.5742
19145THY    CA462211   3.539   0.596   6.309  0.0699 -0.3149 -0.8290
19145THY    HA462212   3.518   0.586   6.203  0.6707 -0.5792  0.5195
19145THY    CA562213   3.654   0.537   6.368 -0.0034 -0.2817 -0.1347
19145THY    CM162214   3.754   0.463   6.282  0.4196 -0.5018 -0.1396
19145THY    HM162215   3.850   0.516   6.281  0.1101  1.1441  0.5131
19145THY    HM262216   3.713   0.464   6.181  0.6890 -0.6159  1.2824
19145THY    HM362217   3.754   0.360   6.318 -1.5415 -0.0789 -0.0268
19145THY    CA662218   3.682   0.542   6.509  0.9314  0.2990 -0.5965
19145THY    HA662219   3.769   0.503   6.560  0.0026  1.2781 -1.4314
19146THY      O62220   9.243   0.735   5.390  0.4550 -0.1458  0.2930
19146THY     HO62221   9.337   0.711   5.396  0.5766 -1.6802  0.2379
19146THY    CA162222   9.209   0.692   5.265  0.1740 -0.6651 -0.0382
19146THY    CA262223   9.095   0.615   5.238  0.0247  0.3855  0.7972
19146THY    CP162224   8.993   0.581   5.349  0.8248  0.4381  0.4436
19146THY    HP162225   9.053   0.573   5.440  0.6503  0.5145 -0.0371
19146THY    CP262226   8.908   0.452   5.345 -0.9464  0.3117 -0.9635
19146THY    HP262227   8.836   0.461   5.262  0.6715 -1.0830 -0.3913
19146THY    HP362228   8.858   0.430   5.440 -1.1801 -0.2307 -2.9574
19146THY    HP462229   8.981   0.371   5.333 -0.8962 -1.6536 -0.6841
19146THY    CP362230   8.900   0.699   5.373  0.1247  0.2099 -0.6342
19146THY    HP562231   8.821   0.677   5.446  0.4957  0.9002  0.2754
19146THY    HP662232   8.849   0.724   5.279  1.4737 -1.3013 -3.1745
19146THY    HP762233   8.961   0.784   5.403 -2.3479 -1.5655  1.9461
19146THY    CA362234   9.083   0.557   5.107  0.4073 -0.4027 -0.9306
19146THY    HA362235   8.996   0.495   5.087 -1.5093  0.7711  1.1934
19146THY    CA462236   9.185   0.582   5.013  0.2127 -0.0793  0.3333
19146THY    HA462237   9.186   0.545   4.911  2.5413 -0.5049  1.4377
19146THY    CA562238   9.298   0.660   5.049 -0.3778  0.4050  0.6181
19146THY    CM162239   9.414   0.675   4.960 -0.1755 -0.4586 -0.0168
19146THY    HM162240   9.446   0.780   4.958 -1.5589 -1.5241  0.4156
19146THY    HM262241   9.392   0.645   4.857 -2.0964  0.4734 -2.0266
19146THY    HM362242   9.500   0.614   4.990 -0.5244 -2.8509 -1.8573
19146THY    CA662243   9.308   0.710   5.176  0.1359  0.5370 -0.2475
19146THY    HA662244   9.404   0.755   5.202  0.2256 -0.7276  0.3320
19147THY      O62245   4.112   2.588   7.166  0.2534  0.0691 -0.6170
19147THY     HO62246   4.064   2.575   7.083 -1.2119  0.6715  0.6748
19147THY    CA162247   4.180   2.471   7.196 -0.5985 -0.1147  0.5404
19147THY    CA262248   4.281   2.471   7.295  0.3829  0.6917  0.3845
19147THY    CP162249   4.330   2.601   7.358  0.4407 -0.1489  0.0258
19147THY    HP162250   4.252   2.675   7.333  0.8482 -1.0831  0.1526
19147THY    CP262251   4.463   2.653   7.277 -0.0463  0.5515 -0.5957
19147THY    HP262252   4.540   2.575   7.282  0.6530  0.2345  0.0656
19147THY    HP362253   4.505   2.741   7.327 -2.9795 -0.3010  1.4184
19147THY    HP462254   4.442   2.668   7.171 -1.3500  0.9105  0.2022
19147THY    CP362255   4.355   2.599   7.513 -0.0565  0.6915  0.4049
19147THY    HP562256   4.390   2.698   7.545  1.2989 -0.1314  0.2136
19147THY    HP662257   4.419   2.517   7.548 -0.3840  0.7025  0.1491
19147THY    HP762258   4.257   2.589   7.562  0.2777  1.3778  0.4851
19147THY    CA362259   4.336   2.342   7.322 -0.4113  0.4033 -0.5154
19147THY    HA362260   4.426   2.335   7.383 -0.8907  0.9104 -2.8095
19147THY    CA462261   4.296   2.230   7.252 -0.6057 -0.6528 -0.5917
19147THY    HA462262   4.356   2.142   7.273  0.3359  1.9622  0.5703
19147THY    CA562263   4.210   2.236   7.143 -0.7932 -0.5590  0.0118
19147THY    CM162264   4.179   2.111   7.065  0.5380  0.3990  0.0583
19147THY    HM162265   4.105   2.051   7.118  0.7068  0.0683 -0.4454
19147THY    HM262266   4.264   2.046   7.038  0.7085 -2.1435  1.2302
19147THY    HM362267   4.135   2.132   6.967  1.0896 -0.6591 -3.2027
19147THY    CA662268   4.137   2.357   7.124 -0.4017 -0.4651  0.8649
19147THY    HA662269   4.053   2.367   7.056 -1.8050  1.2471  1.0855
19148THY      O62270   8.818   2.603   1.738 -0.1940  0.6315  0.4394
19148THY     HO62271   8.721   2.605   1.740 -0.2432 -1.2354  1.8948
19148THY    CA162272   8.859   2.492   1.812 -0.4271 -0.5784 -0.7879
19148THY    CA262273   9.000   2.459   1.836 -0.5440 -0.0070  0.2483
19148THY    CP162274   9.113   2.536   1.767  0.2478  0.2040 -0.3738
19148THY    HP162275   9.082   2.641   1.763  2.0049  1.1240  0.2301
19148THY    CP262276   9.132   2.490   1.626  0.6665 -0.8661 -0.0853
19148THY    HP262277   9.060   2.541   1.561 -0.9994  1.2431  0.4022
19148THY    HP362278   9.122   2.381   1.626  1.8548  2.3305 -0.3084
19148THY    HP462279   9.232   2.512   1.588  0.7872 -0.3561  0.2459
19148THY    CP362280   9.240   2.541   1.850 -0.5421 -0.0181 -1.0337
19148THY    HP562281   9.308   2.606   1.793 -0.1573  0.3652 -1.1001
19148THY    HP662282   9.274   2.440   1.872 -0.5315 -0.8934 -1.2314
19148THY    HP762283   9.226   2.592   1.946 -1.3512  0.3284 -1.8763
19148THY    CA362284   9.023   2.348   1.918 -0.4528  0.5317 -0.0950
19148THY    HA362285   9.126   2.318   1.936 -0.0341  0.9317  1.4889
19148THY    CA462286   8.918   2.277   1.972  0.0139  0.7877  0.7132
19148THY    HA462287   8.945   2.196   2.039 -4.5623 -0.2812 -2.0453
19148THY    CA562288   8.791   2.308   1.946  0.0750  0.0509 -0.2148
19148THY    CM162289   8.682   2.229   2.013 -0.5267  0.0662  0.6524
19148THY    HM162290   8.686   2.228   2.123 -1.0771  0.0966  1.1934
19148THY    HM262291   8.698   2.125   1.983 -0.3942 -2.6225  1.3831
19148THY    HM362292   8.583   2.261   1.978 -0.0649 -2.9290 -0.8730
19148THY    CA662293   8.762   2.417   1.872 -0.6916 -0.8820 -0.2926
19148THY    HA662294   8.657   2.439   1.858 -2.0963  2.3561 -3.7448
19149THY      O62295   8.121   3.355   2.689 -0.3042  0.2726 -0.1840
19149THY     HO62296   8.113   3.288   2.618 -3.7562  1.0934 -0.8319
19149THY    CA162297   8.251   3.355   2.739  0.3900 -0.6893 -0.1362
19149THY    CA262298   8.297   3.434   2.848 -0.0737 -0.5139  0.4816
19149THY    CP162299   8.197   3.533   2.910 -0.7595 -0.6191  0.6346
19149THY    HP162300   8.099   3.533   2.860 -1.5930  0.8970 -0.7348
19149THY    CP262301   8.256   3.678   2.910  0.2454 -0.5205  0.4017
19149THY    HP262302   8.345   3.687   2.973  0.2497 -0.7123  1.9199
19149THY    HP362303   8.178   3.748   2.943 -1.4386 -1.7124 -0.8320
19149THY    HP462304   8.286   3.703   2.807  2.5653  0.1159  0.4920
19149THY    CP362305   8.178   3.494   3.056  0.7039  0.3832 -0.2335
19149THY    HP562306   8.142   3.391   3.069 -0.4629  0.0251  0.1119
19149THY    HP662307   8.101   3.553   3.107  0.0104  1.3939 -1.9318
19149THY    HP762308   8.265   3.514   3.120  0.2581  1.0524 -0.3846
19149THY    CA362309   8.420   3.415   2.899 -0.2842  0.1510 -0.0773
19149THY    HA362310   8.454   3.473   2.985  1.1731  0.6578 -1.6292
19149THY    CA462311   8.501   3.315   2.846 -0.5930  0.2842  0.1623
19149THY    HA462312   8.596   3.294   2.894 -0.3343  0.8296  2.3225
19149THY    CA562313   8.460   3.234   2.739  0.6812 -0.2245 -0.1320
19149THY    CM162314   8.550   3.118   2.715  0.1303 -0.0481 -0.4703
19149THY    HM162315   8.500   3.039   2.658  3.7508  0.5390 -3.4589
19149THY    HM262316   8.601   3.083   2.805  0.7571 -0.0419  0.4080
19149THY    HM362317   8.637   3.147   2.655  1.5289  1.5322 -1.2241
19149THY    CA662318   8.333   3.254   2.687  0.8352 -0.5288  0.0419
19149THY    HA662319   8.295   3.192   2.607 -1.2397  0.7027 -0.3700
19150THY      O62320   5.561   8.100   4.630  0.3274 -0.1511  0.2126
19150THY     HO62321   5.516   8.039   4.569  0.2646 -2.4350  2.3805
19150THY    CA162322   5.693   8.097   4.610  0.1704  0.3491  1.4951
19150THY    CA262323   5.782   8.127   4.711 -0.1484 -0.2482  0.2210
19150THY    CP162324   5.727   8.191   4.835 -0.0846  0.4198 -0.0766
19150THY    HP162325   5.621   8.218   4.829  0.1375 -3.4370  0.4680
19150THY    CP262326   5.797   8.323   4.877 -0.9211 -0.6548 -0.0304
19150THY    HP262327   5.750   8.408   4.826 -2.5270  2.2038  0.9601
19150THY    HP362328   5.906   8.327   4.876 -0.8301  2.5910  1.1251
19150THY    HP462329   5.773   8.349   4.981 -1.7612 -1.6021  3.5235
19150THY    CP362330   5.732   8.086   4.945  0.5661 -0.2323  0.2867
19150THY    HP562331   5.688   8.129   5.036 -0.4681 -1.3669  1.7223
19150THY    HP662332   5.836   8.061   4.970  1.0148  0.0627  2.2687
19150THY    HP762333   5.675   7.997   4.915  0.5471  1.8757 -0.4673
19150THY    CA362334   5.925   8.106   4.691  0.2635 -0.1184  0.3298
19150THY    HA362335   5.994   8.140   4.768 -1.6718  1.1565  1.5837
19150THY    CA462336   5.964   8.046   4.568 -0.2176 -1.2910 -0.0442
19150THY    HA462337   6.071   8.040   4.548 -0.1183 -0.9071  0.3673
19150THY    CA562338   5.873   8.029   4.466 -0.8991  0.2305  0.7455
19150THY    CM162339   5.929   7.981   4.333  0.6075 -0.0178  0.9362
19150THY    HM162340   5.854   7.929   4.273 -1.4121  1.5050  1.9455
19150THY    HM262341   6.007   7.910   4.364 -0.0871 -0.4767 -0.0439
19150THY    HM362342   5.978   8.065   4.283 -1.3075 -2.0060  0.9508
19150THY    CA662343   5.736   8.034   4.492  0.2787  0.2388  0.0442
19150THY    HA662344   5.665   8.009   4.414  0.4959  0.6276 -1.9086
19151THY      O62345   3.113   6.399   7.413  0.3247  0.3027 -0.4470
19151THY     HO62346   3.169   6.474   7.440  1.1542 -0.0401 -0.9234
19151THY    CA162347   3.120   6.297   7.498  0.3415  0.1633  0.3457
19151THY    CA262348   3.031   6.187   7.488 -0.1944 -0.3943 -0.3972
19151THY    CP162349   2.922   6.183   7.376 -0.4063  0.2793 -0.5775
19151THY    HP162350   2.953   6.235   7.285 -1.3367 -0.1525 -0.7615
19151THY    CP262351   2.808   6.263   7.428 -0.1886  0.1275 -0.1658
19151THY    HP262352   2.851   6.354   7.471  0.9508 -0.4684 -0.4025
19151THY    HP362353   2.749   6.211   7.503 -0.0744 -1.3708 -2.5951
19151THY    HP462354   2.737   6.283   7.347 -0.7247  0.8007  0.6977
19151THY    CP362355   2.885   6.047   7.314  0.2546 -0.0624 -0.2962
19151THY    HP562356   2.794   6.051   7.253 -0.1609  0.5890  0.4810
19151THY    HP662357   2.863   5.966   7.384 -1.1935  1.3582  1.2362
19151THY    HP762358   2.970   6.011   7.256 -0.2572 -1.0374  0.0300
19151THY    CA362359   3.050   6.084   7.578 -0.0320 -0.2753  0.2190
19151THY    HA362360   2.972   6.008   7.582 -0.1249 -0.8871  0.2729
19151THY    CA462361   3.158   6.082   7.664 -0.5865 -0.8915 -0.2639
19151THY    HA462362   3.178   6.003   7.737  1.5357 -1.9899 -0.8284
19151THY    CA562363   3.248   6.191   7.670  0.7676 -0.4727  0.1867
19151THY    CM162364   3.359   6.199   7.766 -0.1052  0.0740  0.3252
19151THY    HM162365   3.453   6.205   7.710 -0.8410 -1.1405  1.0084
19151THY    HM262366   3.380   6.114   7.831  5.5838 -2.0892 -0.3839
19151THY    HM362367   3.349   6.291   7.825 -3.4702  1.4397 -0.7479
19151THY    CA662368   3.226   6.299   7.584 -0.4247 -0.5806 -0.6961
19151THY    HA662369   3.295   6.383   7.580  0.2150 -0.2141 -1.1912
19152THY      O62370   8.791   7.127   3.199  0.2037 -0.3821  0.5574
19152THY     HO62371   8.870   7.145   3.252  0.2098 -1.0941  2.9663
19152THY    CA162372   8.687   7.148   3.283  0.4910 -0.6879 -0.3250
19152THY    CA262373   8.564   7.192   3.239  0.5836  0.3950 -0.1419
19152THY    CP162374   8.538   7.223   3.086  0.5628 -0.6482 -0.1405
19152THY    HP162375   8.601   7.160   3.023 -0.1196 -0.0168 -1.4841
19152THY    CP262376   8.578   7.371   3.069 -0.1674  0.4743  0.2946
19152THY    HP262377   8.548   7.441   3.147  1.5365  0.0968  1.5177
19152THY    HP362378   8.540   7.406   2.973 -1.0180 -0.9607 -3.9449
19152THY    HP462379   8.687   7.370   3.058 -0.1158  0.7796  1.5906
19152THY    CP362380   8.391   7.200   3.048  1.0337 -0.5436 -0.5830
19152THY    HP562381   8.332   7.277   3.098  2.0097 -0.3669  0.0625
19152THY    HP662382   8.353   7.104   3.085 -1.7028  2.1070  1.3668
19152THY    HP762383   8.380   7.210   2.939 -0.0870 -0.5558 -1.6646
19152THY    CA362384   8.465   7.226   3.335 -0.8103  0.3113  0.1606
19152THY    HA362385   8.362   7.246   3.305 -0.7011 -1.2019 -1.2682
19152THY    CA462386   8.492   7.208   3.472 -0.0913  0.3233  0.1049
19152THY    HA462387   8.405   7.224   3.535 -0.8593 -0.7968  0.4989
19152THY    CA562388   8.613   7.157   3.516  0.4815 -0.4412  0.0125
19152THY    CM162389   8.639   7.129   3.660 -0.5354 -0.5972  0.6974
19152THY    HM162390   8.711   7.201   3.701 -0.7181 -0.8632  1.0388
19152THY    HM262391   8.679   7.028   3.661 -1.8878 -1.2542  0.1293
19152THY    HM362392   8.551   7.133   3.726 -0.7577 -0.6871 -1.6875
19152THY    CA662393   8.709   7.130   3.423 -0.4322  0.6262  0.1663
19152THY    HA662394   8.808   7.098   3.453  0.5573  1.2247  3.3619
19153THY      O62395   7.421   4.440   3.357  0.8331  1.1347 -0.7875
19153THY     HO62396   7.369   4.412   3.280  1.7268  0.4215 -0.5477
19153THY    CA162397   7.343   4.504   3.443  0.4998 -0.2977 -0.6975
19153THY    CA262398   7.379   4.582   3.559  0.5733  0.7683  1.0488
19153THY    CP162399   7.531   4.586   3.584 -0.0738  0.6855  0.4557
19153THY    HP162400   7.585   4.495   3.554 -1.5787 -0.0212 -0.2289
19153THY    CP262401   7.552   4.610   3.735 -0.6260  0.0303 -0.4435
19153THY    HP262402   7.525   4.715   3.749 -1.7966 -1.3295 -0.5386
19153THY    HP362403   7.653   4.591   3.772  0.0748  0.1232  2.8809
19153THY    HP462404   7.490   4.541   3.794 -0.1391  1.1677  0.0688
19153THY    CP362405   7.607   4.696   3.511  0.2844  0.2653  0.3765
19153THY    HP562406   7.579   4.703   3.405 -1.6249  0.7344  0.5006
19153THY    HP662407   7.715   4.676   3.511 -0.0753  0.3589 -1.8037
19153THY    HP762408   7.588   4.792   3.559  0.2984  1.2445 -0.0981
19153THY    CA362409   7.280   4.659   3.623  0.7719 -0.1828  0.8731
19153THY    HA362410   7.304   4.732   3.700 -0.6719 -0.4408  1.6591
19153THY    CA462411   7.147   4.634   3.583  0.7263  0.0214 -0.2146
19153THY    HA462412   7.071   4.697   3.629  0.7834 -1.0638  0.6771
19153THY    CA562413   7.110   4.554   3.476 -0.4430 -0.5587 -0.5975
19153THY    CM162414   6.965   4.537   3.434  0.0532 -0.5456 -0.9773
19153THY    HM162415   6.936   4.620   3.368  0.1480  0.0291 -0.4796
19153THY    HM262416   6.897   4.568   3.514  0.0892 -1.2674  1.1954
19153THY    HM362417   6.941   4.441   3.388  2.1706  1.2200 -2.4625
19153THY    CA662418   7.210   4.494   3.405 -0.3685  1.0160  0.1937
19153THY    HA662419   7.178   4.424   3.328  0.5530 -0.2816  1.1589
19154THY      O62420   4.446   7.525   6.737 -0.0867  0.0319 -0.3742
19154THY     HO62421   4.445   7.467   6.659  0.4325 -2.0439  2.1809
19154THY    CA162422   4.337   7.495   6.807 -0.0786 -0.1301  0.0258
19154THY    CA262423   4.329   7.510   6.952 -0.2075 -0.3925  0.6573
19154THY    CP162424   4.440   7.585   7.013  0.2005 -0.9048  0.8541
19154THY    HP162425   4.537   7.557   6.972  0.5081  1.5669 -2.2875
19154THY    CP262426   4.455   7.538   7.165  0.0034 -0.3521  0.4281
19154THY    HP262427   4.552   7.542   7.215  1.4326 -2.9139 -0.3784
19154THY    HP362428   4.433   7.430   7.164  0.8177  2.4906  0.1364
19154THY    HP462429   4.391   7.592   7.236  1.1355  2.0015 -1.1280
19154THY    CP362430   4.413   7.736   7.004 -0.2155  0.4263 -0.6181
19154THY    HP562431   4.443   7.774   6.906  0.3752  0.6265 -0.5619
19154THY    HP662432   4.484   7.794   7.065  0.0337  0.7557 -1.2527
19154THY    HP762433   4.308   7.761   7.026 -0.6157 -0.6591 -1.3032
19154THY    CA362434   4.207   7.462   7.019 -0.4973 -0.0895 -0.6364
19154THY    HA362435   4.192   7.475   7.125  0.1071  0.2898 -2.6226
19154THY    CA462436   4.112   7.395   6.944  0.3126  0.1736  0.2944
19154THY    HA462437   4.021   7.362   6.994  0.7760  0.2846 -0.8862
19154THY    CA562438   4.121   7.385   6.809  0.3733 -0.7948  0.2114
19154THY    CM162439   4.018   7.306   6.737  0.1398 -0.2014  0.3426
19154THY    HM162440   3.947   7.263   6.809 -0.6538  0.7457  3.0675
19154THY    HM262441   4.065   7.229   6.674 -1.4191 -0.3553 -0.5281
19154THY    HM362442   3.957   7.375   6.678 -0.4716  0.5098  0.4298
19154THY    CA662443   4.229   7.437   6.737 -0.2147 -0.2568 -0.1310
19154THY    HA662444   4.237   7.421   6.630  0.7691 -0.1613 -0.3664
19155THY      O62445   4.582   6.917   4.400 -0.9156  0.5689 -0.1220
19155THY     HO62446   4.644   6.858   4.445 -1.3495  1.6682  0.2290
19155THY    CA162447   4.636   6.942   4.276 -0.5372  0.3672 -0.0739
19155THY    CA262448   4.567   6.993   4.174 -0.2619 -0.3229  0.4090
19155THY    CP162449   4.426   7.045   4.192 -0.3484  0.3685 -0.6485
19155THY    HP162450   4.398   7.051   4.298  0.3431  0.4740  3.0374
19155THY    CP262451   4.324   6.960   4.109 -0.0460 -0.7883  0.4354
19155THY    HP262452   4.345   6.982   4.004 -1.7201 -1.3150 -0.3641
19155THY    HP362453   4.217   6.982   4.114 -0.3821 -3.5392 -0.2597
19155THY    HP462454   4.342   6.853   4.128 -0.1867 -0.9168  0.3887
19155THY    CP362455   4.432   7.195   4.148 -0.2973 -0.3310 -0.5229
19155THY    HP562456   4.327   7.227   4.156  0.1034  3.3108  0.3327
19155THY    HP662457   4.463   7.203   4.043 -1.9454 -0.7384  1.4069
19155THY    HP762458   4.498   7.257   4.209 -0.7967  0.1400 -0.4448
19155THY    CA362459   4.629   6.989   4.045 -0.8889 -0.1506  0.7006
19155THY    HA362460   4.575   7.016   3.955 -1.1873 -0.8979 -2.0348
19155THY    CA462461   4.759   6.928   4.032  0.3905  0.0751  0.3528
19155THY    HA462462   4.805   6.915   3.935  1.1344  0.4945 -0.1815
19155THY    CA562463   4.827   6.879   4.141  0.0856 -0.4087  0.0830
19155THY    CM162464   4.971   6.838   4.134 -0.5927  0.4216 -0.2564
19155THY    HM162465   4.995   6.752   4.197  0.1821 -0.2060 -0.5068
19155THY    HM262466   5.031   6.925   4.164 -0.1125  2.0160 -1.1060
19155THY    HM362467   4.999   6.807   4.033 -1.3546  0.7944 -2.3242
19155THY    CA662468   4.766   6.891   4.269 -0.2106 -0.5469 -0.6531
19155THY    HA662469   4.820   6.869   4.361  1.0259 -0.7365  1.3342
19156THY      O62470   2.166   4.409   7.065  0.1630  0.4436  0.0136
19156THY     HO62471   2.259   4.387   7.084  0.5082  0.7457  1.6334
19156THY    CA162472   2.128   4.342   6.958 -0.5754 -0.2196  0.3958
19156THY    CA262473   1.993   4.308   6.939  0.8890 -0.0113 -0.4290
19156THY    CP162474   1.882   4.358   7.030 -0.0603 -0.1566  0.2973
19156THY    HP162475   1.932   4.417   7.108  0.6346 -0.0538 -0.4188
19156THY    CP262476   1.810   4.239   7.097 -0.6286 -0.1285  0.7263
19156THY    HP262477   1.895   4.173   7.122  1.7316 -2.0310  2.8121
19156THY    HP362478   1.754   4.176   7.027 -0.7455 -0.5784  1.3240
19156THY    HP462479   1.745   4.264   7.181  2.1755  2.6079 -0.5436
19156THY    CP362480   1.770   4.442   6.958 -0.3124  0.7100  1.0111
19156THY    HP562481   1.707   4.458   7.046 -2.1546  0.5121 -3.5857
19156THY    HP662482   1.701   4.389   6.892  2.7808 -1.1144 -1.0573
19156THY    HP762483   1.797   4.535   6.907 -1.7322 -3.9725 -0.8594
19156THY    CA362484   1.957   4.228   6.823 -0.5411 -0.2492  0.1601
19156THY    HA362485   1.854   4.200   6.803 -1.1571  2.9446 -0.1755
19156THY    CA462486   2.062   4.188   6.732  0.2013 -0.0846 -0.2487
19156THY    HA462487   2.039   4.122   6.649  1.4467  0.6856 -1.7330
19156THY    CA562488   2.195   4.223   6.755 -0.3339  0.0933 -0.6155
19156THY    CM162489   2.302   4.189   6.662 -0.3209 -0.1369  0.3481
19156THY    HM162490   2.363   4.110   6.707  0.1692 -0.1824  0.6942
19156THY    HM262491   2.356   4.283   6.645  1.1079  3.9410  0.4392
19156THY    HM362492   2.263   4.139   6.572  3.3205 -0.5604 -2.1061
19156THY    CA662493   2.228   4.291   6.877 -0.3971 -0.2168 -0.4391
19156THY    HA662494   2.330   4.318   6.900 -1.1183  0.0496  2.3819
19157THY      O62495   7.529   6.733   3.840 -0.2181  0.8134 -0.0855
19157THY     HO62496   7.475   6.811   3.863 -0.3746  0.4977 -0.0962
19157THY    CA162497   7.658   6.768   3.862 -0.1981  0.0228 -0.2021
19157THY    CA262498   7.771   6.686   3.825 -0.0547 -0.4936 -0.2220
19157THY    CP162499   7.754   6.555   3.755 -0.0246  0.1492 -0.3714
19157THY    HP162500   7.649   6.538   3.731  0.1152 -1.9481  1.3037
19157THY    CP262501   7.820   6.439   3.826 -0.1723  0.4448 -0.1216
19157THY    HP262502   7.815   6.443   3.936 -0.9100  0.4358 -0.5151
19157THY    HP362503   7.926   6.443   3.802 -0.1801  0.3097 -0.6662
19157THY    HP462504   7.768   6.349   3.792 -0.5121  1.1147 -0.1918
19157THY    CP362505   7.830   6.567   3.618 -0.7894  0.0826  0.4299
19157THY    HP562506   7.787   6.630   3.540 -0.3572 -2.5844 -2.3295
19157THY    HP662507   7.834   6.469   3.568 -0.5130  0.1330  0.4159
19157THY    HP762508   7.936   6.586   3.637 -0.5031  1.3705 -1.9694
19157THY    CA362509   7.894   6.723   3.883 -0.0386 -0.6956  0.5483
19157THY    HA362510   7.976   6.652   3.886 -0.5014  0.1609  0.0375
19157THY    CA462511   7.900   6.839   3.962  0.0237 -0.5340 -0.0173
19157THY    HA462512   7.998   6.859   4.004  0.4328 -1.9222  1.0372
19157THY    CA562513   7.790   6.923   3.991 -0.5824  0.0360  0.0128
19157THY    CM162514   7.801   7.042   4.086  0.2351 -0.2163  0.4043
19157THY    HM162515   7.739   7.126   4.053 -0.4733 -0.1143 -0.0758
19157THY    HM262516   7.905   7.075   4.101 -0.1651 -0.6701  1.9514
19157THY    HM362517   7.765   7.008   4.183  1.3740 -0.4960 -1.7688
19157THY    CA662518   7.667   6.885   3.932 -0.0184 -0.2766 -0.3945
19157THY    HA662519   7.578   6.943   3.956 -0.5825 -0.4909 -1.1414
19158THY      O62520   1.097   2.161   2.330 -0.2619  0.2112  0.5557
19158THY     HO62521   1.193   2.169   2.338  0.0397 -2.9230  1.1487
19158THY    CA162522   1.066   2.027   2.296  0.4748  0.4755 -0.3384
19158THY    CA262523   0.946   1.987   2.225 -0.5169  0.2776  0.0891
19158THY    CP162524   0.847   2.087   2.163 -0.3264 -0.4324 -0.3301
19158THY    HP162525   0.893   2.185   2.181  0.4969 -0.2422 -0.7463
19158THY    CP262526   0.714   2.094   2.240 -0.1439  0.0277 -0.0150
19158THY    HP262527   0.666   1.996   2.232 -1.1400  2.1214  0.2429
19158THY    HP362528   0.641   2.166   2.201  2.2029  0.7257  2.9482
19158THY    HP462529   0.715   2.127   2.344 -2.1426  0.3086 -0.6633
19158THY    CP362530   0.832   2.069   2.007 -0.1698  0.2433 -0.1388
19158THY    HP562531   0.772   1.979   1.987 -0.0403  0.0691 -0.1873
19158THY    HP662532   0.930   2.065   1.957 -0.0126  0.5116  0.2634
19158THY    HP762533   0.792   2.161   1.964  2.1820  2.2261  1.9856
19158THY    CA362534   0.926   1.846   2.207 -0.7211 -0.3954  0.2414
19158THY    HA362535   0.831   1.805   2.173 -0.8062  0.6278 -0.4386
19158THY    CA462536   1.014   1.752   2.267  0.6495 -0.2897 -0.0826
19158THY    HA462537   1.001   1.645   2.268  2.0193  0.3361 -0.2605
19158THY    CA562538   1.118   1.789   2.342  0.0946 -0.3482 -0.0446
19158THY    CM162539   1.204   1.683   2.410 -1.0774  0.0930 -0.0776
19158THY    HM162540   1.140   1.599   2.438  0.8488  0.4566 -1.4954
19158THY    HM262541   1.263   1.715   2.497  0.1947 -0.5331 -0.6521
19158THY    HM362542   1.281   1.651   2.339 -0.7482 -0.1579  1.2109
19158THY    CA662543   1.141   1.929   2.359  0.3667 -0.6934  0.0161
19158THY    HA662544   1.212   1.946   2.439 -1.7277  1.5565 -1.1675
19159THY      O62545   4.547   2.960   3.209 -0.2468  0.0135 -0.5974
19159THY     HO62546   4.549   2.967   3.306 -2.5416  0.0029  2.7464
19159THY    CA162547   4.423   2.918   3.174  0.3250  0.1510  0.0188
19159THY    CA262548   4.378   2.919   3.044 -0.0570 -0.0095  0.0192
19159THY    CP162549   4.460   2.967   2.924  0.1902 -0.0572 -0.1941
19159THY    HP162550   4.558   2.994   2.965  0.5253 -1.3490  0.6682
19159THY    CP262551   4.400   3.099   2.869  0.0818  0.1210  0.6519
19159THY    HP262552   4.452   3.136   2.779 -0.2813 -0.3029  0.1460
19159THY    HP362553   4.402   3.173   2.949 -0.3395  1.0061 -0.2749
19159THY    HP462554   4.298   3.071   2.841  0.4911 -0.5916 -0.1758
19159THY    CP362555   4.477   2.868   2.812  0.1340 -0.5500 -0.2436
19159THY    HP562556   4.560   2.911   2.755 -0.7192 -1.2251  0.5348
19159THY    HP662557   4.387   2.868   2.749 -1.3348  1.3862  2.0490
19159THY    HP762558   4.483   2.762   2.839 -1.4027 -1.5934 -0.6316
19159THY    CA362559   4.248   2.869   3.021  0.7254  1.0207  0.3264
19159THY    HA362560   4.204   2.868   2.922 -0.4470  1.5202 -0.7264
19159THY    CA462561   4.167   2.817   3.126 -0.4638 -0.5917  0.1896
19159THY    HA462562   4.066   2.784   3.105  0.2081 -3.6114 -0.2708
19159THY    CA562563   4.215   2.827   3.252 -0.2339 -0.6736 -0.9210
19159THY    CM162564   4.130   2.809   3.372  0.0783 -0.4673 -0.8435
19159THY    HM162565   4.029   2.780   3.339  0.2149 -2.1032  0.4364
19159THY    HM262566   4.134   2.894   3.441 -0.1000 -1.8876  0.3513
19159THY    HM362567   4.176   2.728   3.430 -0.6101  0.5760 -0.5143
19159THY    CA662568   4.346   2.879   3.276 -0.0403  1.1955  0.1968
19159THY    HA662569   4.381   2.868   3.378  0.5573  0.8534 -1.3572
19160THY      O62570   9.013   2.480   7.505  0.1146  0.0217  0.3218
19160THY     HO62571   9.048   2.526   7.582 -1.5148  1.8913 -1.3476
19160THY    CA162572   8.952   2.367   7.554 -0.4798 -0.1841  0.1496
19160THY    CA262573   8.918   2.259   7.462  0.4735 -0.0152 -0.5275
19160THY    CP162574   8.931   2.278   7.313 -0.5714  0.4004  0.0890
19160THY    HP162575   8.946   2.384   7.291  2.1174  0.8882 -0.1147
19160THY    CP262576   8.815   2.231   7.237  0.0573  0.5959  0.0488
19160THY    HP262577   8.733   2.285   7.286 -0.2906 -0.1064  0.1674
19160THY    HP362578   8.803   2.123   7.223  1.9285  0.9616 -0.2389
19160THY    HP462579   8.817   2.272   7.136  0.7494  0.5111 -0.1777
19160THY    CP362580   9.056   2.202   7.257  0.2611 -0.2828  0.5258
19160THY    HP562581   9.082   2.244   7.159 -0.5102 -0.7489 -0.0491
19160THY    HP662582   9.016   2.103   7.233 -3.3180  0.4971  1.6443
19160THY    HP762583   9.151   2.202   7.312  0.7146 -1.0311 -0.4169
19160THY    CA362584   8.854   2.148   7.516  0.3830  0.5966  0.7549
19160THY    HA362585   8.814   2.069   7.453  0.6912  0.6087  0.5895
19160THY    CA462586   8.827   2.142   7.654  0.0345 -0.0494 -0.0324
19160THY    HA462587   8.763   2.061   7.688 -2.8491 -0.4997  1.9252
19160THY    CA562588   8.860   2.249   7.745  0.3514  0.5706  0.0946
19160THY    CM162589   8.793   2.254   7.876  0.3886 -0.0059  0.4146
19160THY    HM162590   8.696   2.304   7.864 -0.2609 -1.0149 -1.0288
19160THY    HM262591   8.858   2.297   7.953  0.2180  1.2274 -1.4267
19160THY    HM362592   8.779   2.154   7.917 -3.3812  0.8831  1.1609
19160THY    CA662593   8.926   2.365   7.693  0.0433 -0.3648 -0.1645
19160THY    HA662594   8.954   2.454   7.748 -1.0715  0.5223 -0.3342
19161THY      O62595   8.434   3.142   5.189 -0.5028 -0.3840 -0.0135
19161THY     HO62596   8.357   3.115   5.137  1.1347 -1.2686 -3.5433
19161THY    CA162597   8.438   3.050   5.291  0.2433 -0.5044  0.5711
19161THY    CA262598   8.545   3.042   5.375 -0.4074 -0.6421 -0.6234
19161THY    CP162599   8.658   3.145   5.358  0.2052  0.3527 -0.1886
19161THY    HP162600   8.670   3.180   5.255  1.8699  0.0740 -1.4641
19161THY    CP262601   8.785   3.085   5.408 -0.0443 -0.3255 -0.0407
19161THY    HP262602   8.863   3.154   5.375  0.2917  0.4095 -0.0601
19161THY    HP362603   8.807   2.986   5.365 -0.6018  0.2729 -0.4313
19161THY    HP462604   8.799   3.081   5.517  0.8907 -0.3780  1.1107
19161THY    CP362605   8.644   3.272   5.442  0.2318  0.4694  0.4917
19161THY    HP562606   8.711   3.353   5.412  0.0357 -2.1671 -0.2422
19161THY    HP662607   8.659   3.253   5.549  1.9108  0.2191  0.2150
19161THY    HP762608   8.542   3.310   5.435  0.4440  3.0585  1.7440
19161THY    CA362609   8.543   2.952   5.488 -0.7786 -0.1719 -0.2198
19161THY    HA362610   8.630   2.956   5.554  0.1176 -1.3814  2.7272
19161THY    CA462611   8.440   2.859   5.500  0.2319  0.3075  0.1379
19161THY    HA462612   8.446   2.784   5.577  2.2119 -1.1690 -1.3274
19161THY    CA562613   8.333   2.866   5.413  0.0653  0.9095 -0.6229
19161THY    CM162614   8.208   2.784   5.426 -0.3096 -0.4346  0.2330
19161THY    HM162615   8.117   2.836   5.392 -0.2269 -1.4575 -0.2748
19161THY    HM262616   8.196   2.748   5.529 -0.0676 -0.7156 -0.6768
19161THY    HM362617   8.219   2.707   5.349  2.4330 -0.1584  0.2687
19161THY    CA662618   8.334   2.962   5.310  0.2395  0.7141  0.1368
19161THY    HA662619   8.250   2.971   5.242  1.7351 -0.8789  3.3316
19162THY      O62620   1.407   4.907   5.204 -0.1444 -0.2507  0.3903
19162THY     HO62621   1.486   4.943   5.160  1.7004  1.2885 -1.5674
19162THY    CA162622   1.299   4.976   5.174 -0.5508 -0.2009  0.6469
19162THY    CA262623   1.174   4.925   5.216 -0.2278  0.5082 -0.0542
19162THY    CP162624   1.166   4.793   5.289  0.0262  0.4826  0.1344
19162THY    HP162625   1.236   4.716   5.253 -1.0111  0.7629 -0.9704
19162THY    CP262626   1.029   4.717   5.273 -0.1047 -0.2302  0.1846
19162THY    HP262627   0.951   4.746   5.344 -0.9478 -0.9704 -0.2332
19162THY    HP362628   1.046   4.612   5.298  0.7287  0.7637  0.5399
19162THY    HP462629   0.999   4.724   5.168 -2.2475  0.2238 -1.2756
19162THY    CP362630   1.200   4.800   5.439  0.3290  0.9022  0.0826
19162THY    HP562631   1.198   4.698   5.479  2.0099  2.2861  0.5544
19162THY    HP662632   1.131   4.873   5.482  1.2223  0.9794  0.9072
19162THY    HP762633   1.303   4.827   5.464  1.4029 -2.5105 -0.3498
19162THY    CA362634   1.060   4.997   5.187 -0.6698 -0.5486 -0.8994
19162THY    HA362635   0.961   4.964   5.217 -0.9191  1.5510  1.5259
19162THY    CA462636   1.068   5.122   5.127 -0.2819 -0.1972 -0.1677
19162THY    HA462637   0.979   5.184   5.117 -0.4753  1.6540 -0.1045
19162THY    CA562638   1.190   5.165   5.075  0.3442 -0.3478 -0.4797
19162THY    CM162639   1.199   5.296   4.995  0.6610 -0.3401 -0.0779
19162THY    HM162640   1.143   5.379   5.040 -0.5893 -0.8900 -0.6083
19162THY    HM262641   1.161   5.284   4.893 -2.4780  0.3986  2.3550
19162THY    HM362642   1.305   5.324   4.990  0.9995 -0.9906 -1.3861
19162THY    CA662643   1.310   5.089   5.103  0.5703  0.0016  0.1891
19162THY    HA662644   1.410   5.124   5.076 -0.2752 -0.1983  2.6298
19163THY      O62645   6.475   6.072   2.018 -0.2080 -0.3191 -0.3527
19163THY     HO62646   6.472   6.012   2.095  0.2059 -0.8261 -1.0512
19163THY    CA162647   6.382   6.045   1.928  0.7806  0.0676 -0.6859
19163THY    CA262648   6.369   6.114   1.809 -0.5147  0.0471 -0.1156
19163THY    CP162649   6.459   6.231   1.778 -0.3791 -0.7082 -0.2826
19163THY    HP162650   6.528   6.240   1.863  0.4129 -1.3043 -0.7152
19163THY    CP262651   6.387   6.371   1.763 -0.6824 -0.4185 -0.5057
19163THY    HP262652   6.463   6.448   1.746  0.0966  1.6576 -0.7510
19163THY    HP362653   6.327   6.380   1.854  0.8063  0.4158  1.8351
19163THY    HP462654   6.328   6.363   1.670 -1.1173 -0.0242 -2.6048
19163THY    CP362655   6.544   6.216   1.651 -0.7511  0.2543  1.1068
19163THY    HP562656   6.591   6.117   1.644  1.0438  0.3120  1.9095
19163THY    HP662657   6.620   6.296   1.649 -2.5712 -0.8671  2.9106
19163THY    HP762658   6.482   6.226   1.561  0.2460 -0.2670  3.1242
19163THY    CA362659   6.272   6.075   1.712 -0.8323  0.3390  0.1286
19163THY    HA362660   6.269   6.127   1.617 -1.2882 -0.2621 -0.9750
19163THY    CA462661   6.184   5.969   1.748 -0.0589  0.0747  0.1733
19163THY    HA462662   6.100   5.947   1.683 -0.7291  0.8559  0.4198
19163THY    CA562663   6.200   5.895   1.865 -0.5092 -0.0504 -0.0142
19163THY    CM162664   6.104   5.786   1.894  0.0685  0.8200 -0.2235
19163THY    HM162665   6.034   5.831   1.965  1.2843  0.9657  1.5218
19163THY    HM262666   6.157   5.701   1.939  1.5441  3.0375  1.7281
19163THY    HM362667   6.061   5.757   1.798 -0.1724  1.5402 -2.4282
19163THY    CA662668   6.302   5.931   1.948 -0.0883  0.2944 -0.4873
19163THY    HA662669   6.324   5.870   2.035 -1.6656 -1.1923 -3.4467
19164THY      O62670   8.786   4.916   5.748 -0.0223  0.2833  0.0927
19164THY     HO62671   8.880   4.935   5.767 -0.1753 -0.0600  1.2756
19164THY    CA162672   8.762   4.935   5.620 -0.0478  0.5833 -0.7843
19164THY    CA262673   8.629   4.944   5.574  0.5572  0.7049 -0.4985
19164THY    CP162674   8.514   4.949   5.682  0.2627  0.6056  0.8425
19164THY    HP162675   8.531   4.905   5.781 -1.8787  0.5928 -0.1491
19164THY    CP262676   8.385   4.878   5.634 -0.6565  0.3604  0.3270
19164THY    HP262677   8.339   4.933   5.551 -0.1787  0.2590  0.5802
19164THY    HP362678   8.316   4.885   5.719 -1.5318 -0.1397 -1.5518
19164THY    HP462679   8.393   4.769   5.625 -1.7544  0.1762  0.2468
19164THY    CP362680   8.481   5.093   5.723 -0.2922 -0.1051 -0.5413
19164THY    HP562681   8.552   5.146   5.788 -2.2837  0.2966  1.7976
19164THY    HP662682   8.392   5.092   5.785  0.6137  1.2953  0.9282
19164THY    HP762683   8.463   5.158   5.636 -3.8703  0.1327 -1.0260
19164THY    CA362684   8.607   4.951   5.434  0.6630 -0.1395 -0.2752
19164THY    HA362685   8.508   4.968   5.393  0.7845  0.0900  1.1403
19164THY    CA462686   8.711   4.958   5.346  0.2442 -0.1263  0.0126
19164THY    HA462687   8.693   4.969   5.239 -1.8591  0.3373  1.8286
19164THY    CA562688   8.842   4.946   5.395 -0.3435  0.3744  0.3614
19164THY    CM162689   8.957   4.945   5.292 -0.2781  0.1388  0.5406
19164THY    HM162690   8.917   4.915   5.195  1.2499 -0.1352 -0.8126
19164THY    HM262691   9.032   4.867   5.314 -1.0082 -1.2208 -0.5825
19164THY    HM362692   9.010   5.041   5.289  0.7531  2.2209  0.1008
19164THY    CA662693   8.872   4.930   5.532  0.6015 -0.5464 -0.5523
19164THY    HA662694   8.971   4.897   5.562  0.1991 -1.0736 -2.3318
19165THY      O62695   2.093   6.110   7.369 -0.0527  0.5995 -0.0546
19165THY     HO62696   2.001   6.142   7.377  0.0860 -2.3324  1.4715
19165THY    CA162697   2.105   6.079   7.236 -0.2282  0.1128 -0.0143
19165THY    CA262698   2.227   6.067   7.173  0.2853 -0.3359  0.8945
19165THY    CP162699   2.358   6.101   7.252 -0.2104 -0.2913 -0.4782
19165THY    HP162700   2.341   6.133   7.356 -0.1286 -0.8063  1.3483
19165THY    CP262701   2.427   6.224   7.185  0.9280  0.4342  0.2075
19165THY    HP262702   2.524   6.240   7.233  0.4873  0.9442  1.5678
19165THY    HP362703   2.355   6.305   7.201  0.7049  1.4027 -0.1695
19165THY    HP462704   2.441   6.209   7.078  1.0874  0.5358 -0.4121
19165THY    CP362705   2.457   5.978   7.253  0.3517 -0.2844 -0.1924
19165THY    HP562706   2.537   5.985   7.328 -0.3662  0.7341 -2.1385
19165THY    HP662707   2.508   5.948   7.161 -1.2574 -0.5729 -2.2446
19165THY    HP762708   2.389   5.898   7.286 -0.2866 -2.0765 -0.4363
19165THY    CA362709   2.224   6.025   7.036 -0.0474 -0.1546 -0.1141
19165THY    HA362710   2.319   6.023   6.984 -1.7385 -3.6166  0.5089
19165THY    CA462711   2.109   5.982   6.965  0.4003 -0.3895 -0.7021
19165THY    HA462712   2.110   5.941   6.864 -3.1020 -0.9127  0.1640
19165THY    CA562713   1.983   6.001   7.033  0.0005  0.2861 -0.0508
19165THY    CM162714   1.862   5.940   6.971 -0.4412  0.4717 -0.5470
19165THY    HM162715   1.769   5.980   7.012 -0.8419 -2.4330  1.8429
19165THY    HM262716   1.874   5.833   6.991 -2.1716 -0.9119 -1.0445
19165THY    HM362717   1.865   5.956   6.862  0.5424  0.5356 -0.2422
19165THY    CA662718   1.988   6.054   7.165  1.0090 -0.3792 -0.1572
19165THY    HA662719   1.891   6.060   7.213  0.7724 -0.5232 -2.1783
19166THY      O62720   8.876   5.396   5.857  0.5229  0.3942  0.0343
19166THY     HO62721   8.930   5.330   5.903  1.4633  1.0438  1.2055
19166THY    CA162722   8.839   5.481   5.951 -0.2141 -0.2468  0.0836
19166THY    CA262723   8.762   5.596   5.934 -0.6192  0.1294 -0.6596
19166THY    CP162724   8.714   5.628   5.785 -0.2183  0.1494 -0.1138
19166THY    HP162725   8.786   5.584   5.715 -0.0557  0.2431  0.0052
19166THY    CP262726   8.712   5.782   5.773  0.3734  0.6291  0.2138
19166THY    HP262727   8.813   5.808   5.807  1.5770 -1.9748 -0.7320
19166THY    HP362728   8.631   5.828   5.832 -1.5457 -0.8628 -1.0762
19166THY    HP462729   8.709   5.820   5.670  1.9286  0.5966  0.2967
19166THY    CP362730   8.580   5.565   5.745 -0.1684 -0.4765  0.0073
19166THY    HP562731   8.508   5.617   5.809  1.0149 -0.6990  2.0575
19166THY    HP662732   8.578   5.456   5.743  1.9699 -0.8368 -0.0744
19166THY    HP762733   8.561   5.593   5.640  0.7839 -0.9563 -1.0893
19166THY    CA362734   8.738   5.684   6.047  0.3249  0.3239  0.1660
19166THY    HA362735   8.688   5.779   6.033  1.3482  0.6038  0.7662
19166THY    CA462736   8.773   5.639   6.171 -0.8072 -0.5761 -0.2602
19166THY    HA462737   8.748   5.697   6.259 -2.3030  0.3321 -2.1577
19166THY    CA562738   8.855   5.527   6.189 -0.1638  0.4738 -0.6091
19166THY    CM162739   8.907   5.498   6.331 -0.0789 -0.1132 -0.9221
19166THY    HM162740   8.994   5.563   6.344 -1.4466 -2.7807  1.7029
19166THY    HM262741   8.938   5.394   6.347  0.5001  1.5422 -0.5166
19166THY    HM362742   8.829   5.498   6.408  0.5608  0.5986 -2.8269
19166THY    CA662743   8.886   5.450   6.081  0.3386  0.4033 -0.1905
19166THY    HA662744   8.951   5.363   6.082  0.2487  0.6111 -0.2573
19167THY      O62745   4.389   6.190   5.042  0.4380 -0.2139 -0.5887
19167THY     HO62746   4.480   6.223   5.053 -0.0168 -0.2443  0.7234
19167THY    CA162747   4.374   6.066   5.099 -0.5716 -0.1106 -0.1403
19167THY    CA262748   4.263   5.982   5.072  0.0782 -0.3111 -0.2331
19167THY    CP162749   4.153   6.031   4.981 -0.9109 -0.5869 -0.3373
19167THY    HP162750   4.136   6.139   4.986  3.4831 -1.7782  0.6006
19167THY    CP262751   4.012   5.969   5.012 -0.1824  0.3064  0.3504
19167THY    HP262752   3.931   6.018   4.958  1.9187 -3.2947  0.1616
19167THY    HP362753   3.991   5.957   5.119 -1.5158  0.3163  2.3060
19167THY    HP462754   4.013   5.867   4.973  0.5735 -3.0181  1.5088
19167THY    CP362755   4.192   5.994   4.843  0.1561 -0.1313  0.4522
19167THY    HP562756   4.109   6.018   4.775 -0.1902  0.0468 -0.2383
19167THY    HP662757   4.215   5.888   4.825  0.7048 -0.7206  0.6629
19167THY    HP762758   4.284   6.041   4.806 -0.3431 -0.5690  1.1077
19167THY    CA362759   4.251   5.859   5.139  0.4079  0.0964  0.2451
19167THY    HA362760   4.173   5.788   5.115 -0.7410 -0.2525  1.5767
19167THY    CA462761   4.344   5.829   5.238 -0.1943  0.2303  0.0830
19167THY    HA462762   4.322   5.743   5.302  0.0592  1.6249  1.0228
19167THY    CA562763   4.457   5.913   5.260  0.1003  0.1278  1.2723
19167THY    CM162764   4.553   5.874   5.368 -0.7343  0.0303 -0.2342
19167THY    HM162765   4.517   5.785   5.421 -0.0337  2.2218  0.7129
19167THY    HM262766   4.563   5.951   5.445  2.5196 -1.1523  0.7317
19167THY    HM362767   4.654   5.874   5.324 -1.4728 -1.7295 -0.6621
19167THY    CA662768   4.474   6.024   5.185  0.1543 -0.2046  0.1778
19167THY    HA662769   4.561   6.085   5.209  0.2170  1.0317 -0.3792
19168THY      O62770   8.096   4.735   2.867  0.5282 -0.4447 -0.5689
19168THY     HO62771   8.139   4.692   2.792  2.6823  1.2025 -1.4568
19168THY    CA162772   8.098   4.863   2.833 -0.7312 -0.6716 -0.7388
19168THY    CA262773   8.108   4.962   2.930  0.6245  0.2681  0.1973
19168THY    CP162774   8.113   4.927   3.080  0.0373  0.0942  0.8451
19168THY    HP162775   8.076   4.824   3.092  1.1394  1.1842  0.5521
19168THY    CP262776   8.032   5.014   3.175 -0.2376 -0.3104 -0.3150
19168THY    HP262777   8.026   4.973   3.277 -3.4993 -0.6738 -1.0986
19168THY    HP362778   7.925   5.021   3.148 -0.6497  1.4057  0.5336
19168THY    HP462779   8.082   5.111   3.181 -1.7658 -0.5858  0.5279
19168THY    CP362780   8.261   4.928   3.121  0.1668 -0.5072  0.6458
19168THY    HP562781   8.311   4.854   3.058 -0.5151 -0.0817 -0.1936
19168THY    HP662782   8.269   4.908   3.229 -1.8841 -0.4497 -0.0601
19168THY    HP762783   8.303   5.027   3.098  0.5775  0.4225  0.7073
19168THY    CA362784   8.116   5.097   2.880 -0.0711  0.7355  0.0824
19168THY    HA362785   8.134   5.170   2.958 -0.5640 -0.8212  1.9696
19168THY    CA462786   8.105   5.128   2.744  0.5572  0.0714 -0.1106
19168THY    HA462787   8.104   5.229   2.706 -0.5486 -3.0275 -1.1613
19168THY    CA562788   8.091   5.028   2.646  0.0581 -0.4171 -0.6538
19168THY    CM162789   8.086   5.052   2.506 -0.2028  0.6962 -0.2778
19168THY    HM162790   8.052   4.969   2.443  0.1974  1.7686 -1.2787
19168THY    HM262791   8.189   5.077   2.480  0.0048  0.1783 -1.5819
19168THY    HM362792   8.019   5.137   2.485 -0.6984 -1.6262 -1.1707
19168THY    CA662793   8.086   4.894   2.696 -0.1827  0.3630 -0.4646
19168THY    HA662794   8.069   4.810   2.629  0.0354  1.2534 -1.2310
19169THY      O62795   5.070   1.605   5.860 -0.2624 -0.6338 -0.3016
19169THY     HO62796   5.009   1.679   5.875  0.4273  2.1612 -0.1792
19169THY    CA162797   5.027   1.504   5.939 -0.5752  0.8088  0.2920
19169THY    CA262798   5.096   1.377   5.941 -0.1566 -0.4421 -0.1545
19169THY    CP162799   5.206   1.345   5.833  0.3642  0.0129 -0.1817
19169THY    HP162800   5.240   1.440   5.788  0.7683  1.4275  0.3786
19169THY    CP262801   5.140   1.252   5.725 -0.4622  0.0172 -0.8616
19169THY    HP262802   5.212   1.221   5.647  2.9838  3.2427 -1.7311
19169THY    HP362803   5.047   1.295   5.688 -0.7143  2.0101  0.4162
19169THY    HP462804   5.116   1.160   5.780 -0.6213 -0.3812 -1.0596
19169THY    CP362805   5.324   1.276   5.885 -0.2388  0.8714  0.3449
19169THY    HP562806   5.388   1.257   5.798 -1.0940  0.3524 -0.2052
19169THY    HP662807   5.298   1.179   5.928 -1.0954  0.4280  0.3758
19169THY    HP762808   5.392   1.329   5.953  0.7480  0.7245 -0.6806
19169THY    CA362809   5.038   1.275   6.021 -0.0144  0.6445  0.0091
19169THY    HA362810   5.073   1.173   6.008  2.5429  0.6314  0.8002
19169THY    CA462811   4.932   1.306   6.112  0.3742  0.1316 -0.3912
19169THY    HA462812   4.885   1.222   6.162 -1.9465 -3.1563 -1.2696
19169THY    CA562813   4.889   1.438   6.125 -0.1315 -0.0269  0.2509
19169THY    CM162814   4.772   1.473   6.212 -0.3445 -0.2848 -0.8419
19169THY    HM162815   4.725   1.570   6.191  0.1498  0.9617 -0.3055
19169THY    HM262816   4.793   1.474   6.320 -1.2836 -0.0925 -0.9056
19169THY    HM362817   4.677   1.424   6.191 -0.3058 -0.4502 -0.8488
19169THY    CA662818   4.931   1.530   6.031  1.2403 -0.5993  0.3341
19169THY    HA662819   4.885   1.628   6.038 -2.8872  0.1996 -1.4468
19170THY      O62820   8.640   7.835   4.268 -0.1074  0.7846 -0.4646
19170THY     HO62821   8.658   7.808   4.360  0.8544  0.1733 -2.0729
19170THY    CA162822   8.752   7.824   4.191 -0.3159  0.9633  0.1684
19170THY    CA262823   8.787   7.922   4.097  0.0720  0.5309 -0.1534
19170THY    CP162824   8.699   8.038   4.060 -0.2100 -0.2286 -0.0370
19170THY    HP162825   8.604   8.039   4.115  0.7116  1.4912 -1.4044
19170THY    CP262826   8.671   8.038   3.908  0.6342  0.0973  0.0925
19170THY    HP262827   8.610   7.948   3.894  1.5865 -0.0364 -0.5397
19170THY    HP362828   8.750   8.030   3.833  0.5600 -0.3835  2.9282
19170THY    HP462829   8.605   8.117   3.868 -1.4195 -0.8667 -1.9945
19170THY    CP362830   8.762   8.167   4.099  0.5022  0.5837  0.1555
19170THY    HP562831   8.769   8.179   4.208  2.4538  0.6564 -1.1633
19170THY    HP662832   8.696   8.246   4.061  1.8337 -1.3641  0.4067
19170THY    HP762833   8.856   8.188   4.046 -0.3520 -1.5568 -1.1197
19170THY    CA362834   8.903   7.909   4.022 -0.4848  0.3954 -0.2893
19170THY    HA362835   8.929   7.992   3.957  1.0731  1.9400  0.4979
19170THY    CA462836   8.980   7.790   4.047 -0.1799  0.2529  0.3350
19170THY    HA462837   9.075   7.775   3.998 -0.1144  0.5105 -0.1128
19170THY    CA562838   8.942   7.695   4.136  0.1549  0.4421  0.0086
19170THY    CM162839   9.035   7.581   4.162  0.6839  0.1655 -0.2308
19170THY    HM162840   9.139   7.589   4.127  0.3851 -0.4913  1.1338
19170THY    HM262841   8.997   7.495   4.105 -1.0390  1.7581 -0.5846
19170THY    HM362842   9.009   7.542   4.260 -2.5278 -0.4016  0.1940
19170THY    CA662843   8.827   7.708   4.208 -0.0052  0.0768 -0.6256
19170THY    HA662844   8.785   7.631   4.271 -0.4005  0.9198  0.2522
19171THY      O62845   6.928   9.098   2.317 -0.0558 -0.1302 -0.6817
19171THY     HO62846   6.852   9.157   2.332 -0.2605  0.0533 -0.9862
19171THY    CA162847   6.997   9.155   2.217 -0.2567 -0.1657 -0.2918
19171THY    CA262848   7.114   9.087   2.171  0.4339  0.3720  0.1328
19171THY    CP162849   7.173   8.964   2.238  0.0111  0.5517 -0.0301
19171THY    HP162850   7.105   8.914   2.307  0.4410  0.7995 -0.2771
19171THY    CP262851   7.297   8.999   2.319 -0.1104  0.2150  0.4412
19171THY    HP262852   7.322   8.909   2.376 -0.0339  1.0514  0.9791
19171THY    HP362853   7.271   9.082   2.386  0.6690  0.1380  0.7542
19171THY    HP462854   7.378   9.042   2.259  0.4171  0.3301 -0.3626
19171THY    CP362855   7.208   8.849   2.137 -0.0027  0.1683 -0.2559
19171THY    HP562856   7.122   8.841   2.069  0.4194 -0.4720  0.5320
19171THY    HP662857   7.234   8.751   2.181  0.1962 -0.4403 -0.4785
19171THY    HP762858   7.299   8.881   2.086  0.3080  0.8935  0.0556
19171THY    CA362859   7.186   9.138   2.063 -0.1890 -0.4654 -0.6022
19171THY    HA362860   7.289   9.108   2.043  0.3856  0.0791  0.9345
19171THY    CA462861   7.131   9.242   1.991  0.2039  0.3282  0.2232
19171THY    HA462862   7.175   9.271   1.896 -1.1207 -0.4886 -0.3616
19171THY    CA562863   7.013   9.301   2.032  0.3679 -0.3145 -1.3240
19171THY    CM162864   6.944   9.401   1.937  0.8561  0.3562  0.5335
19171THY    HM162865   6.939   9.358   1.836  0.6817  0.7565 -0.4290
19171THY    HM262866   6.998   9.495   1.924  1.1137 -0.8292  0.2451
19171THY    HM362867   6.844   9.434   1.967  1.3858  0.9085  1.6911
19171THY    CA662868   6.947   9.265   2.146 -0.1417 -0.3495  0.4810
19171THY    HA662869   6.849   9.302   2.176 -1.2528  0.4340 -2.7622
19172THY      O62870   6.352   5.108   3.674  0.1525 -0.1436  0.1416
19172THY     HO62871   6.274   5.061   3.707 -0.4494 -0.3421  0.9722
19172THY    CA162872   6.328   5.160   3.553 -0.0695  0.2426 -0.1229
19172THY    CA262873   6.427   5.213   3.478 -0.3051  0.5418 -0.0041
19172THY    CP162874   6.575   5.240   3.540  0.2537  0.0335  0.3056
19172THY    HP162875   6.581   5.211   3.645  0.0276 -0.0089  0.0998
19172THY    CP262876   6.607   5.385   3.555  0.2643  0.2766  0.4842
19172THY    HP262877   6.540   5.429   3.629 -2.8171 -1.8517 -0.3454
19172THY    HP362878   6.580   5.442   3.465  0.9864  0.8577  1.7996
19172THY    HP462879   6.713   5.396   3.581  0.7927 -0.7385 -1.6546
19172THY    CP362880   6.677   5.165   3.455  0.1389 -0.5521 -0.2786
19172THY    HP562881   6.623   5.074   3.424 -2.0675  0.4265  0.6228
19172THY    HP662882   6.764   5.134   3.512 -0.4480 -0.0752 -1.0971
19172THY    HP762883   6.710   5.211   3.361  1.7443 -0.6243 -1.5101
19172THY    CA362884   6.400   5.252   3.346  0.2764  0.3671  0.0875
19172THY    HA362885   6.478   5.288   3.280  0.3091  0.0373 -0.5743
19172THY    CA462886   6.266   5.243   3.297 -0.3738  1.1985  0.0875
19172THY    HA462887   6.236   5.279   3.199 -2.2514  1.5927 -0.3178
19172THY    CA562888   6.165   5.195   3.374  0.3377  0.7623  0.9531
19172THY    CM162889   6.025   5.185   3.312  0.0973  0.0567  0.4318
19172THY    HM162890   5.955   5.155   3.390  0.0603 -1.1488 -3.0323
19172THY    HM262891   6.018   5.107   3.235 -1.3688  1.5048 -0.9237
19172THY    HM362892   5.985   5.278   3.269 -2.5377 -0.8977 -1.0336
19172THY    CA662893   6.197   5.156   3.506  0.2638  0.1101 -0.1112
19172THY    HA662894   6.119   5.115   3.570  2.0841  3.5675  1.3652
19173THY      O62895   2.924   3.139   3.452  0.4969 -0.2958  0.5618
19173THY     HO62896   2.915   3.064   3.514  4.7893  0.9125  0.7820
19173THY    CA162897   2.914   3.250   3.526 -0.6307 -0.4439 -0.6187
19173THY    CA262898   2.938   3.374   3.458  0.0772 -0.0665 -0.6626
19173THY    CP162899   2.975   3.391   3.309  0.0162  0.5533  0.2613
19173THY    HP162900   2.990   3.292   3.264 -2.1325 -0.6878  0.4241
19173THY    CP262901   3.092   3.486   3.291  0.6077  0.2544  0.4446
19173THY    HP262902   3.141   3.461   3.196  1.5201  0.4585  1.4106
19173THY    HP362903   3.160   3.476   3.376  0.5333  0.1583 -1.3325
19173THY    HP462904   3.070   3.593   3.292 -0.8902  0.7954  0.1649
19173THY    CP362905   2.852   3.452   3.231  0.3360 -0.3531  0.0699
19173THY    HP562906   2.865   3.481   3.127  1.9691 -0.3640 -0.6187
19173THY    HP662907   2.817   3.539   3.288  2.0380 -0.3021  0.7573
19173THY    HP762908   2.766   3.383   3.226 -0.2015 -0.7835  0.7553
19173THY    CA362909   2.921   3.484   3.541 -0.7109  0.9405  0.2233
19173THY    HA362910   2.934   3.583   3.497 -0.0573  1.1243  0.2226
19173THY    CA462911   2.884   3.478   3.676  0.5631 -0.4119 -0.4005
19173THY    HA462912   2.879   3.567   3.739 -1.2534 -1.2627  0.1676
19173THY    CA562913   2.858   3.355   3.733  0.9078 -0.6890 -0.4471
19173THY    CM162914   2.822   3.346   3.878 -0.6821  0.4278 -0.0561
19173THY    HM162915   2.893   3.419   3.920 -1.5022 -2.0190  2.3186
19173THY    HM262916   2.832   3.245   3.920  1.0485  1.9850  0.6982
19173THY    HM362917   2.718   3.380   3.884 -1.1654 -1.3716 -1.1000
19173THY    CA662918   2.880   3.243   3.657  0.6719  0.0739  0.2858
19173THY    HA662919   2.865   3.149   3.710 -1.2478  3.3923  2.2399
19174THY      O62920   5.786   0.803   3.987  0.0266  0.8360  0.0146
19174THY     HO62921   5.741   0.889   3.993  1.5033  1.5327  0.7719
19174THY    CA162922   5.720   0.735   3.899 -0.2695  0.3185 -0.5249
19174THY    CA262923   5.783   0.622   3.837  0.0413  0.3218  0.0579
19174THY    CP162924   5.914   0.569   3.890 -0.0893 -1.1327  0.0709
19174THY    HP162925   5.927   0.590   3.997  3.4134 -1.0969 -1.4518
19174THY    CP262926   6.037   0.632   3.828  0.0271 -1.1913 -0.5701
19174THY    HP262927   6.044   0.619   3.720 -0.5276 -1.4374  0.9839
19174THY    HP362928   6.124   0.594   3.883  0.5298 -0.0201  2.0808
19174THY    HP462929   6.035   0.737   3.858 -1.4044  1.5745 -1.2917
19174THY    CP362930   5.924   0.416   3.897  0.5173  1.1782  0.2341
19174THY    HP562931   6.018   0.378   3.940 -0.0397  1.2701 -1.1119
19174THY    HP662932   5.929   0.386   3.791  2.8148  0.5618  2.4651
19174THY    HP762933   5.834   0.366   3.935  1.4963 -0.2236 -2.8719
19174THY    CA362934   5.700   0.546   3.754  0.0071  0.6579 -0.1087
19174THY    HA362935   5.741   0.455   3.712 -0.2777 -1.3849  0.6540
19174THY    CA462936   5.566   0.584   3.727  0.3248 -0.0058  0.7960
19174THY    HA462937   5.496   0.515   3.681  2.2407 -0.2685 -1.0747
19174THY    CA562938   5.514   0.704   3.774 -0.3062 -0.0710 -0.5879
19174THY    CM162939   5.369   0.735   3.757  1.3086 -0.1957  0.1222
19174THY    HM162940   5.319   0.646   3.717 -1.2605  1.8889  0.5132
19174THY    HM262941   5.345   0.818   3.690 -1.3429 -2.3365 -2.1792
19174THY    HM362942   5.324   0.733   3.856  3.3871  0.8141  0.0910
19174THY    CA662943   5.587   0.775   3.864  0.1904 -0.0531 -0.1292
19174THY    HA662944   5.545   0.858   3.920  1.1508 -2.9031  2.4507
19175THY      O62945   8.418   3.737   1.725  0.0830  0.9938  0.2746
19175THY     HO62946   8.337   3.775   1.685  1.5533 -1.1656  1.3540
19175THY    CA162947   8.446   3.792   1.841  0.1446  0.8768  0.5479
19175THY    CA262948   8.537   3.742   1.935  0.0693 -0.7981  0.2205
19175THY    CP162949   8.596   3.607   1.907 -0.0444 -0.5874  0.2035
19175THY    HP162950   8.629   3.596   1.803  1.6745  0.0024 -0.5567
19175THY    CP262951   8.498   3.491   1.923  0.3742 -0.4402 -0.4731
19175THY    HP262952   8.431   3.491   1.836  1.4610 -1.3103  0.9941
19175THY    HP362953   8.440   3.502   2.015  0.3441 -0.2867 -1.7285
19175THY    HP462954   8.556   3.399   1.935  1.8493  2.6326  0.7285
19175THY    CP362955   8.731   3.586   1.987 -0.4572  0.1304  0.7339
19175THY    HP562956   8.768   3.486   1.964  0.1930  0.0496  0.9845
19175THY    HP662957   8.708   3.589   2.094  0.2401  0.3260 -0.5549
19175THY    HP762958   8.806   3.661   1.958  0.0976 -0.2360  0.0481
19175THY    CA362959   8.555   3.816   2.050  0.0041 -0.4137  0.2329
19175THY    HA362960   8.617   3.777   2.130 -2.1987  0.5631 -1.4667
19175THY    CA462961   8.488   3.938   2.068  0.6154  0.8417  0.4773
19175THY    HA462962   8.494   3.988   2.164  0.6420  0.1036  1.9182
19175THY    CA562963   8.402   3.989   1.973  0.0977 -0.3290  0.6968
19175THY    CM162964   8.338   4.119   2.004  0.1893  0.1303  0.5048
19175THY    HM162965   8.231   4.120   1.980  0.2410 -0.1118  1.1677
19175THY    HM262966   8.389   4.196   1.945  1.2253  2.1134  1.4329
19175THY    HM362967   8.359   4.150   2.107  0.4021 -0.2957  1.8339
19175THY    CA662968   8.388   3.916   1.856  0.4065 -0.1825 -1.0402
19175THY    HA662969   8.325   3.965   1.783  0.8078 -1.4434 -2.3031
19176THY      O62970   6.864   1.667   5.472  0.5160  0.3007  0.1436
19176THY     HO62971   6.902   1.755   5.458  0.9098  1.0719  0.1037
19176THY    CA162972   6.792   1.670   5.594  0.5980  0.3254 -0.4666
19176THY    CA262973   6.757   1.554   5.657 -0.1246  0.0523 -0.2206
19176THY    CP162974   6.815   1.422   5.609 -0.0277 -0.3115  0.3137
19176THY    HP162975   6.898   1.449   5.543  0.9655  0.2085 -1.3486
19176THY    CP262976   6.715   1.344   5.532  0.0268  0.4924  0.1523
19176THY    HP262977   6.748   1.240   5.525 -1.7051 -0.7412 -0.3558
19176THY    HP362978   6.706   1.387   5.431 -2.0714  0.1365 -1.0043
19176THY    HP462979   6.618   1.358   5.579 -0.3787  0.0038 -0.9415
19176THY    CP362980   6.874   1.342   5.737  0.0882  0.2944 -0.0918
19176THY    HP562981   6.794   1.311   5.804 -0.3815 -0.3303 -0.2500
19176THY    HP662982   6.947   1.401   5.794  0.1573 -0.5470  0.6723
19176THY    HP762983   6.922   1.252   5.696  0.4147  1.7729 -0.6168
19176THY    CA362984   6.684   1.567   5.774  0.1403 -0.5154  0.4731
19176THY    HA362985   6.653   1.480   5.831 -1.5866 -0.5364  1.0376
19176THY    CA462986   6.641   1.695   5.825 -0.0127  0.1011 -0.1102
19176THY    HA462987   6.578   1.694   5.913 -0.1000  0.0368 -0.8825
19176THY    CA562988   6.684   1.811   5.752  0.3506 -0.0413  0.5422
19176THY    CM162989   6.638   1.948   5.792 -0.0681  0.5682  0.3038
19176THY    HM162990   6.685   2.022   5.727 -0.4799 -0.9652 -0.7283
19176THY    HM262991   6.682   1.966   5.890  0.3741  0.2353  1.0575
19176THY    HM362992   6.531   1.964   5.773 -0.5374  0.0945 -2.6603
19176THY    CA662993   6.760   1.794   5.638 -0.0603 -0.2869  0.3022
19176THY    HA662994   6.787   1.875   5.571  0.7658  0.1232  0.3813
19177THY      O62995   3.314   2.160   6.541  0.3816 -0.4365 -0.7121
19177THY     HO62996   3.254   2.096   6.583  1.9756  1.3861 -1.0913
19177THY    CA162997   3.356   2.231   6.645 -0.4717  0.1200  0.5604
19177THY    CA262998   3.464   2.329   6.626 -0.6537  0.4074  0.1311
19177THY    CP162999   3.518   2.356   6.482  0.6756  0.1370  0.6758
19177THY    HP163000   3.483   2.277   6.413  2.3500  2.0166 -1.8713
19177THY    CP263001   3.670   2.346   6.471 -0.4439 -0.4057 -0.5254
19177THY    HP263002   3.711   2.385   6.377 -1.0987 -1.7275 -2.8617
19177THY    HP363003   3.699   2.240   6.480  2.4055 -1.0627  0.1101
19177THY    HP463004   3.710   2.410   6.551 -0.0545 -0.8186 -0.2541
19177THY    CP363005   3.475   2.493   6.438  0.6887  0.0540  0.3010
19177THY    HP563006   3.471   2.501   6.329  2.1260  0.1152  3.1740
19177THY    HP663007   3.533   2.574   6.484 -1.2074  1.0054  1.1869
19177THY    HP763008   3.371   2.499   6.471  0.3037 -1.1165  0.1612
19177THY    CA363009   3.519   2.406   6.735  0.1900 -0.4152 -0.1304
19177THY    HA363010   3.605   2.473   6.735  1.0281 -0.1675 -1.1808
19177THY    CA463011   3.458   2.378   6.860  0.2993  0.3723 -0.0508
19177THY    HA463012   3.498   2.412   6.956 -1.6408  1.7232 -1.4026
19177THY    CA563013   3.353   2.283   6.875 -0.3162 -0.2235 -0.0540
19177THY    CM163014   3.293   2.268   7.015  0.4991 -0.2086  0.4103
19177THY    HM163015   3.297   2.355   7.083 -2.3541  1.3826 -0.5673
19177THY    HM263016   3.326   2.188   7.082 -0.3227  1.5020  1.4266
19177THY    HM363017   3.185   2.256   7.005  0.2619  0.6342  1.5910
19177THY    CA663018   3.293   2.218   6.770 -0.6986  0.8716 -0.1907
19177THY    HA663019   3.215   2.144   6.784 -0.2721  0.8841 -0.6436
19178THY      O63020   5.097   0.972   6.230  0.2381  0.1559  0.3418
19178THY     HO63021   5.098   1.008   6.320  1.2998 -0.3190  1.5814
19178THY    CA163022   5.001   0.882   6.227 -0.0754 -0.0296  0.5632
19178THY    CA263023   4.985   0.803   6.106  0.3231 -0.3229  0.1326
19178THY    CP163024   5.067   0.831   5.978 -0.0459  0.8115 -0.0466
19178THY    HP163025   5.149   0.904   5.987  0.2057 -1.0738 -0.0293
19178THY    CP263026   4.977   0.896   5.870  0.0397  0.2728  0.1451
19178THY    HP263027   4.940   0.993   5.905 -0.6931 -2.1293  0.8046
19178THY    HP363028   4.892   0.831   5.847  0.0169 -1.1053  0.6398
19178THY    HP463029   5.024   0.912   5.773 -3.2849 -1.5602 -0.3389
19178THY    CP363030   5.132   0.710   5.916  0.1129  0.7527  0.1647
19178THY    HP563031   5.183   0.739   5.824 -1.8124 -2.1541 -4.5442
19178THY    HP663032   5.065   0.632   5.881  1.1255  0.8119 -0.7499
19178THY    HP763033   5.210   0.681   5.988  1.1091  0.1859  1.3284
19178THY    CA363034   4.877   0.704   6.114 -0.4330 -0.0263 -0.0009
19178THY    HA363035   4.840   0.641   6.033 -0.0646 -0.0075 -0.2395
19178THY    CA463036   4.798   0.697   6.232  0.1317  0.8157 -0.6641
19178THY    HA463037   4.712   0.631   6.239 -0.4577  1.1238  0.1061
19178THY    CA563038   4.817   0.792   6.333 -0.0014 -0.0115  0.7157
19178THY    CM163039   4.732   0.785   6.455  0.3777 -0.4436 -0.1202
19178THY    HM163040   4.790   0.829   6.537 -0.9841  1.3342 -1.4668
19178THY    HM263041   4.714   0.679   6.473 -0.1492 -0.4798 -0.0360
19178THY    HM363042   4.639   0.842   6.445 -0.5358  0.3494 -1.4382
19178THY    CA663043   4.918   0.883   6.333  0.6196 -0.1264  0.3406
19178THY    HA663044   4.914   0.976   6.389 -1.1219  0.7507 -0.2297
19179THY      O63045   4.388   1.340   2.146  0.1612  0.0439 -0.2515
19179THY     HO63046   4.393   1.436   2.157 -0.3630 -0.0737 -0.2102
19179THY    CA163047   4.484   1.302   2.072  0.4285 -0.2867 -0.0273
19179THY    CA263048   4.488   1.170   2.022  0.1784  0.2874 -0.3921
19179THY    CP163049   4.371   1.071   2.012 -0.0747 -0.2290  0.1854
19179THY    HP163050   4.285   1.105   2.072 -1.2539 -2.6718  1.8385
19179THY    CP263051   4.417   0.940   2.074 -0.2434  0.1271  0.3703
19179THY    HP263052   4.342   0.861   2.065  2.4294  2.1974 -2.6449
19179THY    HP363053   4.434   0.948   2.182  3.3656  0.0159 -2.7026
19179THY    HP463054   4.502   0.888   2.029  0.1216  0.4073  0.7187
19179THY    CP363055   4.312   1.048   1.870  0.0953  0.2001  0.0451
19179THY    HP563056   4.390   1.031   1.795  0.3280 -0.4694  3.3089
19179THY    HP663057   4.283   1.147   1.832 -0.5110 -0.1750 -0.2710
19179THY    HP763058   4.219   0.991   1.861  0.3127 -0.3633 -0.2232
19179THY    CA363059   4.604   1.135   1.946  0.1873 -0.2421  0.3132
19179THY    HA363060   4.603   1.041   1.893 -0.7895  0.3122 -0.0014
19179THY    CA463061   4.703   1.228   1.919 -0.1704  0.6381 -0.1203
19179THY    HA463062   4.787   1.201   1.855  1.4544  2.1697  1.0552
19179THY    CA563063   4.700   1.355   1.968 -0.3391 -0.0652 -0.3611
19179THY    CM163064   4.800   1.460   1.944  0.0429  0.1457  0.4511
19179THY    HM163065   4.893   1.420   1.900 -0.6479 -0.0760 -0.9690
19179THY    HM263066   4.819   1.520   2.034 -0.1037 -0.0017  0.7252
19179THY    HM363067   4.751   1.531   1.875 -0.9036 -0.1764 -0.4890
19179THY    CA663068   4.590   1.394   2.047  0.7003 -0.2128 -0.2845
19179THY    HA663069   4.583   1.492   2.093  1.9828 -0.6249  0.0087
19180THY      O63070   2.046   2.752   5.035  0.6459  0.2814 -0.1707
19180THY     HO63071   2.051   2.769   4.940  0.6367  0.6511  2.1826
19180THY    CA163072   2.103   2.866   5.092 -0.1250 -0.0457  0.0874
19180THY    CA263073   2.082   2.900   5.230 -0.0643 -0.7373 -0.6014
19180THY    CP163074   2.004   2.800   5.319 -0.6454 -0.3893 -0.0816
19180THY    HP163075   2.006   2.703   5.269 -0.3305 -0.5038 -0.0180
19180THY    CP263076   1.867   2.864   5.350  0.4878  0.1209 -0.1915
19180THY    HP263077   1.886   2.961   5.398  0.9490 -0.3131 -0.0664
19180THY    HP363078   1.808   2.803   5.420 -0.6457  0.0523  0.7828
19180THY    HP463079   1.805   2.878   5.261 -0.6260  0.5019 -2.2022
19180THY    CP363080   2.076   2.776   5.453  0.0299  0.3838  0.3295
19180THY    HP563081   2.174   2.733   5.429 -1.0938 -0.3657 -1.9819
19180THY    HP663082   2.023   2.702   5.515 -1.4916  0.1893  1.2051
19180THY    HP763083   2.099   2.863   5.515  1.0743  0.2182  0.1844
19180THY    CA363084   2.141   3.022   5.271 -0.2099 -0.7011 -0.1633
19180THY    HA363085   2.118   3.060   5.370 -1.0742  0.2013 -2.8195
19180THY    CA463086   2.223   3.098   5.191 -1.5727  0.8515 -0.1151
19180THY    HA463087   2.278   3.185   5.226 -0.5292 -1.8766  0.4137
19180THY    CA563088   2.241   3.055   5.056 -0.3676  0.1230 -0.8583
19180THY    CM163089   2.322   3.148   4.968  0.4563 -0.5539 -0.7071
19180THY    HM163090   2.401   3.184   5.035  0.5800  0.3134 -2.4680
19180THY    HM263091   2.263   3.237   4.945  0.2315 -0.7917 -0.9183
19180THY    HM363092   2.358   3.118   4.869 -2.1331 -2.3131  1.5169
19180THY    CA663093   2.180   2.944   5.007 -0.4853  0.1003  0.6089
19180THY    HA663094   2.205   2.903   4.909  0.2282  0.9945 -1.1945
19181THY      O63095   7.000   4.032   3.524  0.3212 -0.1851  0.1560
19181THY     HO63096   7.041   4.038   3.612 -3.6886  1.8211  2.5463
19181THY    CA163097   6.907   4.130   3.538  0.2068 -0.6339 -0.4677
19181THY    CA263098   6.812   4.162   3.433 -0.6083 -0.1598 -0.0250
19181THY    CP163099   6.822   4.091   3.295  0.3338  0.9521  0.0774
19181THY    HP163100   6.930   4.101   3.278  0.3395  1.7188  1.5167
19181THY    CP263101   6.753   4.169   3.176  0.3574 -0.0873  0.4890
19181THY    HP263102   6.774   4.117   3.081  1.2851 -1.0679  2.5394
19181THY    HP363103   6.794   4.270   3.180 -0.7655  1.3104  0.9219
19181THY    HP463104   6.643   4.160   3.176  0.4801 -0.4341 -1.9292
19181THY    CP363105   6.781   3.947   3.296  0.1405  0.6191 -0.2121
19181THY    HP563106   6.763   3.897   3.199 -0.9107  0.3414  0.6541
19181THY    HP663107   6.691   3.948   3.359  1.0700  2.1067 -2.6483
19181THY    HP763108   6.850   3.882   3.351  0.1041 -1.0235 -1.7568
19181THY    CA363109   6.713   4.261   3.464  0.0334 -0.2007 -0.1157
19181THY    HA363110   6.627   4.276   3.400  0.2392 -0.4919 -0.1654
19181THY    CA463111   6.713   4.318   3.589 -0.6378 -0.4731  0.1598
19181THY    HA463112   6.639   4.395   3.611 -2.0901 -0.9901 -1.0446
19181THY    CA563113   6.807   4.283   3.684  0.4753  0.3443  0.0709
19181THY    CM163114   6.798   4.352   3.815  0.1550 -0.6751 -0.5522
19181THY    HM163115   6.884   4.329   3.880 -1.0213  1.2420  0.2287
19181THY    HM263116   6.702   4.336   3.866 -0.6345 -0.8680  2.8890
19181THY    HM363117   6.807   4.460   3.803  1.2639 -2.5256 -0.8086
19181THY    CA663118   6.907   4.193   3.659  0.2609  0.1159 -0.1885
19181THY    HA663119   6.971   4.171   3.743 -0.7968  0.7647 -0.8738
19182THY      O63120   2.239   3.490   2.017 -0.1721  0.0413  0.1820
19182THY     HO63121   2.298   3.535   1.955  0.8574  1.3621  0.7250
19182THY    CA163122   2.250   3.559   2.135 -0.1113  0.0914  0.2351
19182THY    CA263123   2.153   3.557   2.234 -0.3533  0.6861  0.0243
19182THY    CP163124   2.021   3.477   2.208  0.5663 -0.4814  0.1520
19182THY    HP163125   2.044   3.369   2.208  1.0872  3.1913  0.1706
19182THY    CP263126   1.935   3.524   2.091 -0.3306  0.7195 -0.2109
19182THY    HP263127   1.901   3.628   2.105  0.9499 -0.2901  0.3711
19182THY    HP363128   1.847   3.462   2.074  0.2356 -1.6851 -0.4370
19182THY    HP463129   1.983   3.529   1.993 -3.0666 -0.6709  0.7553
19182THY    CP363130   1.931   3.474   2.337 -0.4773  0.1443 -0.6149
19182THY    HP563131   1.906   3.579   2.353  2.4763 -1.7851  0.5021
19182THY    HP663132   2.005   3.445   2.414  2.1256 -1.1615  2.0516
19182THY    HP763133   1.858   3.393   2.321 -1.6364  0.5274  0.3317
19182THY    CA363134   2.178   3.632   2.347 -1.1035 -0.8778  1.1128
19182THY    HA363135   2.105   3.637   2.427 -0.5234 -0.3406  1.0681
19182THY    CA463136   2.301   3.698   2.360 -0.1304 -1.0264  0.5434
19182THY    HA463137   2.325   3.734   2.460 -0.9483 -0.0897 -1.3689
19182THY    CA563138   2.397   3.694   2.258  0.9897 -1.0490  0.3058
19182THY    CM163139   2.530   3.765   2.272  0.0977 -0.3253 -0.6236
19182THY    HM163140   2.619   3.712   2.236  1.0750  1.0615  0.0066
19182THY    HM263141   2.550   3.804   2.372  0.6966 -0.5184 -0.4268
19182THY    HM363142   2.528   3.848   2.201  0.2391 -1.1177 -1.2839
19182THY    CA663143   2.371   3.625   2.144  0.0648  0.3677 -0.0949
19182THY    HA663144   2.445   3.617   2.065  1.6241  1.4875  2.2005
19183THY      O63145   9.429   6.130   4.554  0.4985  0.3968  0.0738
19183THY     HO63146   9.498   6.130   4.623 -0.8995  1.9185 -1.7765
19183THY    CA163147   9.322   6.180   4.614 -0.4422 -0.2054 -0.4993
19183THY    CA263148   9.200   6.118   4.597 -0.2905 -0.4258  0.1193
19183THY    CP163149   9.189   5.983   4.513  0.5474  0.2650  0.2108
19183THY    HP163150   9.259   5.968   4.430  1.3221  1.2495 -2.0293
19183THY    CP263151   9.053   5.969   4.451 -0.4868 -0.0900  0.1206
19183THY    HP263152   9.030   6.047   4.377 -0.5912 -0.3523 -0.1567
19183THY    HP363153   8.964   5.978   4.514 -0.5008 -0.1532  0.4166
19183THY    HP463154   9.063   5.870   4.404  0.9657 -1.0145  0.6712
19183THY    CP363155   9.223   5.871   4.605  0.7269  0.7780  0.5175
19183THY    HP563156   9.155   5.883   4.691  1.7335  1.7336 -0.2938
19183THY    HP663157   9.324   5.876   4.648  0.5316  1.2638  0.3692
19183THY    HP763158   9.211   5.774   4.554 -1.9997 -2.3250  2.2794
19183THY    CA363159   9.083   6.186   4.655  0.3199  0.0988 -0.1373
19183THY    HA363160   8.980   6.153   4.646 -0.3886  3.5370  0.7483
19183THY    CA463161   9.104   6.295   4.739 -0.2070  0.3610 -0.0048
19183THY    HA463162   9.017   6.330   4.793 -0.6297 -0.1264 -0.2958
19183THY    CA563163   9.235   6.350   4.760  0.2516  0.1662  0.6946
19183THY    CM163164   9.257   6.470   4.845 -0.5448  0.1207 -0.3758
19183THY    HM163165   9.192   6.460   4.933 -0.4491  0.1894 -0.3933
19183THY    HM263166   9.233   6.565   4.796  1.4191  1.4852  0.9179
19183THY    HM363167   9.360   6.475   4.884 -0.7761  1.0032 -1.9515
19183THY    CA663168   9.337   6.295   4.685  0.8622 -0.7041 -0.2461
19183THY    HA663169   9.435   6.342   4.678  0.7219 -3.1789 -0.1822
19184THY      O63170   5.358   8.958   2.159  0.1541  0.1947  0.1206
19184THY     HO63171   5.435   9.007   2.126  0.1589  2.6218  1.9899
19184THY    CA163172   5.392   8.917   2.282  0.1138  0.0114 -0.1090
19184THY    CA263173   5.312   8.830   2.356 -0.6063  0.5909 -0.4029
19184THY    CP163174   5.189   8.775   2.289 -0.3764  0.8512 -0.2438
19184THY    HP163175   5.137   8.852   2.231  0.7017 -0.2061 -0.2869
19184THY    CP263176   5.091   8.720   2.393 -0.2699  0.3663 -0.4998
19184THY    HP263177   5.126   8.623   2.430 -2.6653 -1.6432 -2.2461
19184THY    HP363178   4.992   8.706   2.350 -0.0718 -0.1814 -0.2220
19184THY    HP463179   5.073   8.791   2.475 -1.2882 -0.2647 -0.0090
19184THY    CP363180   5.222   8.662   2.191  0.3699 -0.7164 -0.8808
19184THY    HP563181   5.244   8.569   2.244  1.8707  0.1638 -0.0598
19184THY    HP663182   5.312   8.680   2.130 -1.7000 -3.5809  0.7392
19184THY    HP763183   5.136   8.647   2.124 -0.4217  0.2394 -0.7346
19184THY    CA363184   5.353   8.791   2.485  0.2286 -0.5355  0.2910
19184THY    HA363185   5.307   8.710   2.542  0.3870  0.0957  0.6429
19184THY    CA463186   5.470   8.845   2.543 -0.6943 -0.0769 -0.2973
19184THY    HA463187   5.492   8.816   2.645 -0.7529  0.4344  1.3377
19184THY    CA563188   5.547   8.931   2.461 -0.1852 -0.0630  0.4875
19184THY    CM163189   5.678   8.976   2.520 -0.4305 -1.4056 -0.8603
19184THY    HM163190   5.671   9.066   2.582 -0.5034  0.6617 -2.2167
19184THY    HM263191   5.765   8.980   2.453  1.3075  0.7580  2.7978
19184THY    HM363192   5.712   8.899   2.590 -1.2359 -1.3106 -1.1363
19184THY    CA663193   5.510   8.977   2.337  0.3088  0.0311 -0.6083
19184THY    HA663194   5.552   9.061   2.281 -1.8878 -2.6088 -1.1557
19185THY      O63195   2.770   8.994   6.959  0.2849 -0.1423 -0.0214
19185THY     HO63196   2.707   9.028   7.024  1.5829  0.5260  1.2023
19185THY    CA163197   2.797   9.092   6.881 -0.2124  0.5838  0.1382
19185THY    CA263198   2.904   9.096   6.786 -0.6063  0.2303 -0.3734
19185THY    CP163199   3.003   8.977   6.769 -0.1114  0.2357  0.0339
19185THY    HP163200   2.986   8.901   6.847  1.4754  0.3415 -0.2357
19185THY    CP263201   3.149   9.012   6.785  0.1660  0.3855  0.2643
19185THY    HP263202   3.168   9.048   6.887  2.9367 -0.4966  1.5736
19185THY    HP363203   3.185   9.093   6.720 -3.2930  2.4776  3.7969
19185THY    HP463204   3.217   8.931   6.757  0.9709 -1.6624  1.5448
19185THY    CP363205   2.974   8.904   6.633  0.6079 -0.6083 -0.0553
19185THY    HP563206   2.871   8.913   6.596  0.1745  0.5789 -0.0252
19185THY    HP663207   3.009   8.801   6.639 -0.4978  0.2091 -0.4039
19185THY    HP763208   3.036   8.955   6.558 -1.0133 -1.8474  0.2022
19185THY    CA363209   2.919   9.207   6.706 -0.4110 -0.8791 -0.3661
19185THY    HA363210   3.011   9.221   6.650  0.1231 -0.7860 -3.1187
19185THY    CA463211   2.834   9.313   6.726  0.2071  0.2073 -0.0011
19185THY    HA463212   2.860   9.403   6.671  1.4975  0.9313  0.0962
19185THY    CA563213   2.724   9.312   6.814 -0.0827  0.0173  0.1697
19185THY    CM163214   2.640   9.436   6.822 -0.4087 -0.5002  0.4601
19185THY    HM163215   2.672   9.521   6.760  1.2777 -0.3832 -0.0437
19185THY    HM263216   2.645   9.470   6.926  0.9957 -0.6667  0.8066
19185THY    HM363217   2.532   9.417   6.818 -0.8821  3.1556  1.6516
19185THY    CA663218   2.703   9.197   6.889  0.4077  0.0318  0.1414
19185THY    HA663219   2.628   9.190   6.967  1.0202  0.4807 -2.5769
19186THY      O63220   4.109   4.206   7.034  0.6497  0.1016 -0.2524
19186THY     HO63221   4.030   4.163   6.997  0.7013  0.8145 -0.9775
19186THY    CA163222   4.162   4.270   6.931  0.6873 -0.4589  0.1084
19186THY    CA263223   4.298   4.290   6.907  0.8661  0.4406 -0.3367
19186THY    CP163224   4.397   4.261   7.018 -0.1067  0.1537  0.4725
19186THY    HP163225   4.351   4.230   7.113 -0.1663  1.2041  3.4717
19186THY    CP263226   4.455   4.392   7.065  0.4050 -0.8611  0.1311
19186THY    HP263227   4.519   4.437   6.989 -0.8331 -2.1903 -0.2641
19186THY    HP363228   4.514   4.385   7.158 -2.6816  1.4874  2.3091
19186THY    HP463229   4.379   4.465   7.096  0.4163 -0.4219 -0.0401
19186THY    CP363230   4.504   4.161   6.983  0.1217  0.6096  0.1309
19186THY    HP563231   4.478   4.061   7.020 -0.4669 -1.9983 -0.7745
19186THY    HP663232   4.597   4.199   7.027 -1.0255  1.4694  2.0696
19186THY    HP763233   4.510   4.164   6.873 -2.1652  0.4219 -0.4572
19186THY    CA363234   4.337   4.349   6.789 -0.1287 -0.2635  0.2047
19186THY    HA363235   4.443   4.369   6.777  0.2600  0.9969 -0.9384
19186THY    CA463236   4.239   4.379   6.693 -0.0613  0.5789 -0.1640
19186THY    HA463237   4.263   4.417   6.594 -0.7517  0.2490 -0.5698
19186THY    CA563238   4.112   4.372   6.723  0.3546  0.2392  0.2953
19186THY    CM163239   4.013   4.401   6.612 -0.3625  0.3905 -0.2003
19186THY    HM163240   4.049   4.482   6.548 -2.4284 -0.0984  0.4061
19186THY    HM263241   3.916   4.422   6.659 -0.4812 -0.4668  1.3062
19186THY    HM363242   4.002   4.313   6.548  0.9022 -1.3778  0.8728
19186THY    CA663243   4.069   4.316   6.842  0.5009  0.0450  0.5355
19186THY    HA663244   3.961   4.303   6.849  0.3063 -1.3252  1.2455
19187THY      O63245   2.893   4.830   6.421 -0.3486 -0.0801  0.3831
19187THY     HO63246   2.887   4.887   6.342  2.1131  0.4930  1.5744
19187THY    CA163247   2.809   4.880   6.511 -0.5152  0.2067 -0.4108
19187THY    CA263248   2.828   4.844   6.645  0.2040 -0.1032  0.3674
19187THY    CP163249   2.924   4.729   6.682 -0.2427  0.6308 -1.0861
19187THY    HP163250   3.008   4.720   6.613 -0.6780 -0.0629 -0.0160
19187THY    CP263251   2.857   4.592   6.698 -0.4027 -0.0502 -0.2113
19187THY    HP263252   2.777   4.585   6.623 -0.1703 -0.2557 -0.7616
19187THY    HP363253   2.822   4.569   6.799 -1.5199 -0.2422  0.6001
19187THY    HP463254   2.933   4.519   6.669 -0.5992 -0.0286 -0.4263
19187THY    CP363255   3.001   4.760   6.810  0.1494 -0.2054 -0.7874
19187THY    HP563256   3.086   4.694   6.829  1.4390 -1.9368  0.3173
19187THY    HP663257   2.937   4.767   6.899  0.2690  0.0732 -2.5665
19187THY    HP763258   3.050   4.857   6.797 -0.5490  0.5927 -0.3037
19187THY    CA363259   2.744   4.898   6.747 -0.3453  0.0703 -0.7569
19187THY    HA363260   2.734   4.871   6.852 -1.2844  0.2400  0.1612
19187THY    CA463261   2.652   4.991   6.697 -0.4239  0.0975  0.3502
19187THY    HA463262   2.583   5.045   6.761 -1.6349 -1.4172  0.6370
19187THY    CA563263   2.641   5.028   6.560 -0.8017 -0.4023 -0.6163
19187THY    CM163264   2.531   5.124   6.514  0.2366  0.3253  0.0333
19187THY    HM163265   2.563   5.228   6.522  1.9303 -0.5646 -0.3791
19187THY    HM263266   2.444   5.101   6.577  0.1437 -0.4032 -1.7818
19187THY    HM363267   2.509   5.105   6.408  0.4786  0.1859  0.5269
19187THY    CA663268   2.726   4.979   6.473  0.5947  0.7298  0.3713
19187THY    HA663269   2.718   5.000   6.367 -0.9613  0.6829 -0.3380
19188THY      O63270   2.442   3.372   7.287  0.1802 -0.0985 -0.3929
19188THY     HO63271   2.534   3.376   7.256 -0.4255 -1.9286  1.7762
19188THY    CA163272   2.379   3.336   7.168  0.7278 -0.7992 -0.5013
19188THY    CA263273   2.245   3.370   7.137 -0.1676 -0.4595  0.3531
19188THY    CP163274   2.162   3.454   7.237 -1.3275  0.5286  0.1564
19188THY    HP163275   2.194   3.424   7.337 -0.7536  0.4443  0.4727
19188THY    CP263276   2.016   3.417   7.229 -0.1100  0.1728 -0.6493
19188THY    HP263277   1.961   3.478   7.301  1.8230 -0.1883  1.6642
19188THY    HP363278   1.992   3.315   7.259 -2.2446  0.7597 -0.0236
19188THY    HP463279   1.974   3.411   7.128  0.8318 -0.2112 -0.9714
19188THY    CP363280   2.180   3.610   7.208 -0.4234  0.5630 -0.3055
19188THY    HP563281   2.280   3.643   7.239 -0.4740 -0.6804  1.1160
19188THY    HP663282   2.106   3.677   7.252 -1.7609 -1.7644 -0.1684
19188THY    HP763283   2.185   3.631   7.101 -1.3462  0.7259  0.8192
19188THY    CA363284   2.195   3.340   7.005  0.8914 -0.1025 -0.3899
19188THY    HA363285   2.093   3.361   6.976  0.7313  0.4491 -0.3909
19188THY    CA463286   2.284   3.282   6.911 -0.8791 -0.6816 -0.1730
19188THY    HA463287   2.265   3.273   6.805  2.8247 -1.4929  0.1137
19188THY    CA563288   2.410   3.240   6.951 -0.1225 -0.2065  0.1973
19188THY    CM163289   2.490   3.164   6.846 -0.0972 -0.1160  0.3356
19188THY    HM163290   2.482   3.220   6.752  0.7337 -0.6831 -0.4762
19188THY    HM263291   2.462   3.060   6.827  1.6395 -1.1008 -0.0020
19188THY    HM363292   2.593   3.175   6.883 -1.4353  4.0125  0.7092
19188THY    CA663293   2.455   3.263   7.080  0.2155 -0.1894  0.5667
19188THY    HA663294   2.546   3.219   7.120 -1.7295  0.9151 -2.8439
19189THY      O63295   0.485   1.385   7.055 -0.0422 -0.2650  0.4636
19189THY     HO63296   0.396   1.352   7.033 -1.9354  2.7068  3.0477
19189THY    CA163297   0.499   1.516   7.014  0.4990  0.5383  0.5543
19189THY    CA263298   0.621   1.584   6.996  0.1234  0.0905 -0.3362
19189THY    CP163299   0.749   1.516   7.045  0.8100 -0.0186 -0.8098
19189THY    HP163300   0.721   1.426   7.101  0.4419 -2.2649 -2.1707
19189THY    CP263301   0.818   1.605   7.151 -0.7886  0.3218  0.7563
19189THY    HP263302   0.745   1.628   7.229 -1.1531  1.1796 -2.8445
19189THY    HP363303   0.850   1.697   7.100 -0.9854 -0.4038  0.4294
19189THY    HP463304   0.902   1.559   7.203  0.1900 -2.1892 -0.5035
19189THY    CP363305   0.839   1.484   6.924  0.2737 -0.1403  0.7294
19189THY    HP563306   0.872   1.572   6.868  1.2530 -0.5960  0.0973
19189THY    HP663307   0.784   1.422   6.853 -1.0999  0.6989  0.9550
19189THY    HP763308   0.933   1.435   6.955  1.2409  0.7401  2.9972
19189THY    CA363309   0.620   1.711   6.933 -0.3993  0.3151  0.0045
19189THY    HA363310   0.714   1.765   6.926 -0.1608  1.0975 -0.2901
19189THY    CA463311   0.496   1.750   6.873  0.2344  0.2572 -0.2835
19189THY    HA463312   0.491   1.846   6.824  1.2836 -0.7840 -0.7412
19189THY    CA563313   0.377   1.683   6.897  0.0529  0.1806 -0.5567
19189THY    CM163314   0.248   1.731   6.845 -0.4164  0.4169 -0.4142
19189THY    HM163315   0.232   1.697   6.742 -0.2774  0.2976 -0.1219
19189THY    HM263316   0.248   1.841   6.852 -0.4656  3.0223 -0.5291
19189THY    HM363317   0.161   1.688   6.897 -2.4770 -1.3073  1.3780
19189THY    CA663318   0.376   1.571   6.976  0.6731 -0.2129 -0.3979
19189THY    HA663319   0.286   1.511   6.985 -0.6163  1.8227  1.6705
19190THY      O63320   6.916   0.773   5.334 -0.3888 -0.8157  0.1643
19190THY     HO63321   6.885   0.721   5.410 -0.7704  0.0230  1.5767
19190THY    CA163322   6.958   0.876   5.397  0.3479 -0.1949 -0.6892
19190THY    CA263323   6.953   1.008   5.347  0.2669 -0.1984  0.1116
19190THY    CP163324   6.902   1.027   5.209  0.1826  0.2939  0.0552
19190THY    HP163325   6.914   0.937   5.148 -0.4148 -0.3518  0.4098
19190THY    CP263326   6.971   1.138   5.134  0.6323 -0.1234 -0.0843
19190THY    HP263327   6.952   1.119   5.028 -1.8111  0.2947 -0.2685
19190THY    HP363328   7.079   1.142   5.154  0.6308 -0.2835  1.9830
19190THY    HP463329   6.935   1.240   5.156 -0.7589 -0.6421 -0.4469
19190THY    CP363330   6.749   1.039   5.214  0.3192 -0.4610 -0.5393
19190THY    HP563331   6.704   0.945   5.247 -0.9688 -3.3431 -1.0430
19190THY    HP663332   6.703   1.066   5.118 -1.2907  0.8389  1.6725
19190THY    HP763333   6.721   1.123   5.279  3.0398 -1.1369  1.0148
19190THY    CA363334   7.008   1.116   5.420 -0.2883 -0.5626 -0.2336
19190THY    HA363335   7.006   1.220   5.387 -1.6843 -0.4514 -0.1995
19190THY    CA463336   7.070   1.093   5.546 -0.3101  0.0045  0.7468
19190THY    HA463337   7.110   1.176   5.603  0.2897  0.1889  0.3370
19190THY    CA563338   7.087   0.956   5.594  0.2633  0.5575 -0.4897
19190THY    CM163339   7.174   0.920   5.704 -0.3384 -0.4336 -0.3891
19190THY    HM163340   7.127   0.837   5.757 -2.0877 -2.1945 -0.5865
19190THY    HM263341   7.200   1.000   5.775  0.9725 -0.4830 -0.7435
19190THY    HM363342   7.267   0.879   5.664 -0.5568 -0.8931 -0.4365
19190THY    CA663343   7.027   0.855   5.517  0.5531 -0.1799  0.5094
19190THY    HA663344   7.035   0.754   5.556 -1.1935 -1.6853 -0.2669
19191THY      O63345   1.686   5.140   7.703 -0.8399 -0.3796  0.1164
19191THY     HO63346   1.691   5.061   7.646 -1.1346 -0.4519  0.1496
19191THY    CA163347   1.578   5.106   7.773  0.5705 -0.4717 -0.1256
19191THY    CA263348   1.505   5.192   7.865 -0.2385 -0.4333  0.3583
19191THY    CP163349   1.541   5.344   7.860  0.6936  0.3759  0.0307
19191THY    HP163350   1.619   5.353   7.784  0.7157  0.3337 -0.5075
19191THY    CP263351   1.582   5.394   7.998 -0.2003 -0.1447 -0.3217
19191THY    HP263352   1.651   5.479   7.992 -0.7570 -0.8756  0.0859
19191THY    HP363353   1.636   5.314   8.050 -0.2586  1.1972  0.4803
19191THY    HP463354   1.494   5.421   8.058 -0.5048  0.5930 -2.7284
19191THY    CP363355   1.433   5.427   7.804 -0.3608 -0.6205  0.2094
19191THY    HP563356   1.341   5.406   7.860 -0.3126 -0.0893  1.3329
19191THY    HP663357   1.412   5.406   7.698 -2.0139  0.1336 -2.3905
19191THY    HP763358   1.454   5.534   7.816 -1.1472  0.5835  0.2477
19191THY    CA363359   1.411   5.138   7.957  1.1879  0.1712 -0.7156
19191THY    HA363360   1.369   5.204   8.033  0.2635 -0.7810 -0.1747
19191THY    CA463361   1.372   5.007   7.931  0.0022 -0.6012 -0.3718
19191THY    HA463362   1.293   4.964   7.991  0.5879 -0.6619 -1.5564
19191THY    CA563363   1.440   4.922   7.846  0.1127 -0.4966 -0.9538
19191THY    CM163364   1.389   4.784   7.825  0.6429  0.4812  1.1990
19191THY    HM163365   1.422   4.739   7.731  0.7381  1.0380  0.0799
19191THY    HM263366   1.280   4.771   7.824  0.8332  0.1740 -0.7032
19191THY    HM363367   1.431   4.726   7.908 -1.1235  0.9991  0.5801
19191THY    CA663368   1.550   4.972   7.774  0.7192  0.4964  0.3011
19191THY    HA663369   1.600   4.901   7.708 -0.4183 -0.1636  0.0890
19192THY      O63370   3.262   5.691   6.652  0.3564 -0.0429  0.1199
19192THY     HO63371   3.211   5.619   6.611  0.8772 -1.1987  0.3901
19192THY    CA163372   3.393   5.676   6.617  1.0265  0.4236 -0.0448
19192THY    CA263373   3.484   5.785   6.635  0.7376  0.5781 -0.6353
19192THY    CP163374   3.429   5.928   6.667  0.2953  0.3050  0.2399
19192THY    HP163375   3.327   5.928   6.707 -1.9338 -4.6123  1.3166
19192THY    CP263376   3.422   5.997   6.533 -0.9020 -0.1681  0.5583
19192THY    HP263377   3.414   6.107   6.537  0.1645 -1.5651  0.7207
19192THY    HP363378   3.342   5.946   6.477  0.3338 -0.8157 -0.7257
19192THY    HP463379   3.517   5.979   6.482 -1.0485  0.1422 -1.2941
19192THY    CP363380   3.522   6.012   6.765 -0.2993 -0.1465 -0.0147
19192THY    HP563381   3.489   6.116   6.771 -0.6623 -3.7611  0.2238
19192THY    HP663382   3.627   6.009   6.734 -0.1389  0.0729  1.9415
19192THY    HP763383   3.521   5.961   6.862 -0.5943  0.7600  1.6491
19192THY    CA363384   3.618   5.758   6.608 -0.8347 -0.3790  0.2610
19192THY    HA363385   3.689   5.839   6.620 -1.4336  0.6270  0.6561
19192THY    CA463386   3.657   5.628   6.567 -0.1148  0.5324 -0.7908
19192THY    HA463387   3.760   5.606   6.541 -0.1833 -1.4303  0.8897
19192THY    CA563388   3.570   5.519   6.556 -0.0234 -0.6038 -0.8277
19192THY    CM163389   3.620   5.382   6.524  0.1686 -0.1941 -0.5808
19192THY    HM163390   3.727   5.374   6.502  0.6163  2.0008 -1.2246
19192THY    HM263391   3.576   5.342   6.432  0.9380  0.3345 -2.7719
19192THY    HM363392   3.606   5.318   6.611  1.4177 -0.5051 -1.2967
19192THY    CA663393   3.438   5.545   6.580 -0.7648  0.2055  0.0871
19192THY    HA663394   3.367   5.463   6.576 -0.3000  1.3514 -0.4038
19193THY      O63395   4.147   1.516   2.324 -0.3915  0.5470 -0.1349
19193THY     HO63396   4.108   1.469   2.248  2.1868 -2.6598  2.4276
19193THY    CA163397   4.038   1.589   2.360  0.2044  0.5016  0.4846
19193THY    CA263398   4.008   1.636   2.491  0.2612  0.4161  0.7272
19193THY    CP163399   4.101   1.629   2.609  0.8610  0.2282  0.6221
19193THY    HP163400   4.197   1.599   2.566  0.0162 -0.0526 -1.9733
19193THY    CP263401   4.056   1.522   2.720 -0.2046 -0.2920  0.0205
19193THY    HP263402   3.995   1.440   2.680 -1.1552  0.2580  0.4395
19193THY    HP363403   3.992   1.576   2.792  0.8052  0.3147  0.4404
19193THY    HP463404   4.141   1.472   2.766 -0.5298 -0.5168 -0.7472
19193THY    CP363405   4.130   1.760   2.686 -0.5126  0.2799  0.3226
19193THY    HP563406   4.176   1.831   2.616  1.9570  1.3544 -0.0872
19193THY    HP663407   4.200   1.738   2.768 -0.9978  0.2493 -1.5408
19193THY    HP763408   4.043   1.806   2.733 -1.8898  0.8377 -2.6112
19193THY    CA363409   3.883   1.690   2.505 -0.0058 -0.6298 -0.0117
19193THY    HA363410   3.866   1.730   2.604  1.3247 -0.6455  0.6783
19193THY    CA463411   3.794   1.703   2.400  0.0199  0.6489  0.1411
19193THY    HA463412   3.700   1.754   2.421  0.3503 -0.2311  1.1692
19193THY    CA563413   3.832   1.664   2.269 -0.3489 -0.3198 -0.5039
19193THY    CM163414   3.732   1.692   2.156 -0.6991  0.2478 -0.6070
19193THY    HM163415   3.673   1.601   2.140 -1.1804 -0.6816 -0.1407
19193THY    HM263416   3.783   1.708   2.060 -0.3602  0.2443 -1.6069
19193THY    HM363417   3.670   1.779   2.177  1.9684  1.2654  1.1771
19193THY    CA663418   3.954   1.601   2.253  0.5204  0.2386  0.0633
19193THY    HA663419   3.985   1.573   2.152  2.1955 -0.1102  2.8008
19194THY      O63420   3.688   8.807   7.178 -0.1203 -0.5288 -0.3189
19194THY     HO63421   3.705   8.845   7.266 -1.0351 -0.8018  0.7933
19194THY    CA163422   3.619   8.908   7.124 -0.3305 -0.3346  0.4284
19194THY    CA263423   3.568   8.901   6.993  0.1804 -0.2525  0.0156
19194THY    CP163424   3.604   8.776   6.899  0.3066  0.1410  0.1239
19194THY    HP163425   3.702   8.736   6.929  0.8771 -2.2177 -0.4411
19194THY    CP263426   3.610   8.819   6.744  0.2279  0.1085  0.1831
19194THY    HP263427   3.673   8.907   6.728 -1.0054 -3.0271  0.6221
19194THY    HP363428   3.508   8.833   6.706 -0.4657  1.2734 -1.3295
19194THY    HP463429   3.654   8.738   6.685  0.4848  1.5353 -0.7455
19194THY    CP363430   3.494   8.659   6.909  0.0212 -0.0183 -0.5554
19194THY    HP563431   3.538   8.565   6.873  1.1896 -2.6616  0.8985
19194THY    HP663432   3.399   8.682   6.860 -0.6792  2.3433  2.1688
19194THY    HP763433   3.471   8.643   7.015 -2.0269 -0.1358  1.2370
19194THY    CA363434   3.496   9.012   6.941  0.3780  0.3683  0.5877
19194THY    HA363435   3.445   9.013   6.845  0.8204  0.1363  1.1606
19194THY    CA463436   3.468   9.118   7.025  0.3376  0.8529  0.3231
19194THY    HA463437   3.404   9.201   6.994 -1.4223  1.8065 -0.6059
19194THY    CA563438   3.522   9.130   7.152 -0.6454 -0.3172 -0.1340
19194THY    CM163439   3.491   9.251   7.244  0.1240 -0.0117  0.3217
19194THY    HM163440   3.442   9.324   7.178  0.1235  1.5719  1.8146
19194THY    HM263441   3.582   9.288   7.290  1.1597 -3.0270  1.8696
19194THY    HM363442   3.416   9.210   7.312  0.8272  0.3732 -0.3520
19194THY    CA663443   3.599   9.023   7.201 -0.1453  0.5310 -0.0260
19194THY    HA663444   3.641   9.029   7.301  1.5188 -0.0785 -0.9299
19195THY      O63445   2.354   3.250   1.969  0.2160  0.3594 -0.0081
19195THY     HO63446   2.287   3.320   1.978  1.0989 -1.0959  1.1164
19195THY    CA163447   2.284   3.138   1.945 -0.2947  0.4548  1.1280
19195THY    CA263448   2.343   3.011   1.946 -0.4403  0.0365 -0.3673
19195THY    CP163449   2.503   2.997   1.960 -0.0460  0.3647  0.0157
19195THY    HP163450   2.547   3.097   1.969  1.5400  0.3382 -0.6416
19195THY    CP263451   2.562   2.924   1.835 -0.3337 -0.0752  0.6039
19195THY    HP263452   2.671   2.933   1.835 -0.2872 -0.0145  0.0612
19195THY    HP363453   2.519   2.965   1.743 -0.0202 -0.0163  1.0857
19195THY    HP463454   2.535   2.819   1.845  0.5716  2.2145  0.5127
19195THY    CP363455   2.538   2.931   2.086  0.5644  0.0298 -0.3668
19195THY    HP563456   2.506   2.983   2.178  2.1309  0.4650 -0.1294
19195THY    HP663457   2.647   2.924   2.092  0.7745 -1.9919  0.5848
19195THY    HP763458   2.493   2.831   2.085  0.6558 -1.9557 -0.4224
19195THY    CA363459   2.256   2.903   1.922 -0.5825  0.0336  0.1290
19195THY    HA363460   2.288   2.799   1.929 -1.8834  1.8293 -0.2111
19195THY    CA463461   2.118   2.923   1.910  0.0317 -0.2929  0.0171
19195THY    HA463462   2.052   2.837   1.912  0.5049  0.5310 -0.3420
19195THY    CA563463   2.066   3.051   1.907  0.3497 -0.2729 -0.6208
19195THY    CM163464   1.919   3.069   1.915  0.4750  0.4001 -0.6879
19195THY    HM163465   1.882   3.165   1.954 -0.9515 -1.4356 -0.4388
19195THY    HM263466   1.863   2.991   1.969 -2.8830 -0.6626  0.7908
19195THY    HM363467   1.876   3.058   1.815  0.7494  0.3160 -1.0165
19195THY    CA663468   2.148   3.162   1.926 -0.1027  0.2791  0.1923
19195THY    HA663469   2.110   3.263   1.935 -1.8621  0.4428 -0.4444
19196THY      O63470   7.768   5.213   3.967  0.2722  0.3332 -0.1233
19196THY     HO63471   7.716   5.131   3.968 -2.7542 -3.0036  1.4849
19196THY    CA163472   7.773   5.242   3.838 -0.0983 -0.0025  0.3800
19196THY    CA263473   7.795   5.376   3.791  0.3795 -0.1483 -0.7291
19196THY    CP163474   7.819   5.493   3.889  0.2705  0.1839  0.2417
19196THY    HP163475   7.835   5.459   3.992 -1.6260  0.0337 -1.2368
19196THY    CP263476   7.702   5.599   3.891  0.2324  0.4352  0.4458
19196THY    HP263477   7.732   5.682   3.956  0.8908  0.5124  0.1543
19196THY    HP363478   7.604   5.562   3.923  0.0708  0.3049  0.7623
19196THY    HP463479   7.687   5.641   3.791 -1.6025  1.1156  1.5354
19196THY    CP363480   7.953   5.564   3.862  0.4849 -0.0218  0.0624
19196THY    HP563481   8.025   5.481   3.867 -1.5701  0.7859 -1.7574
19196THY    HP663482   7.982   5.648   3.926  1.6451 -0.9409  0.3883
19196THY    HP763483   7.950   5.601   3.759 -3.4947  0.5108  1.6554
19196THY    CA363484   7.795   5.399   3.655 -0.6253 -0.6196  0.2736
19196THY    HA363485   7.805   5.503   3.625  0.4195 -3.6982 -0.6118
19196THY    CA463486   7.783   5.287   3.564 -0.2089  0.1436 -0.0413
19196THY    HA463487   7.773   5.312   3.458 -2.2257  0.3793  0.3196
19196THY    CA563488   7.769   5.159   3.613  0.2896 -0.1795  0.1026
19196THY    CM163489   7.772   5.054   3.505 -0.0039  0.7570 -0.4094
19196THY    HM163490   7.877   5.053   3.471 -0.5798 -1.0957 -0.3014
19196THY    HM263491   7.708   5.076   3.420  0.2279 -0.2944 -3.3139
19196THY    HM363492   7.755   4.951   3.538  0.8442  1.7855 -0.2493
19196THY    CA663493   7.769   5.134   3.750 -0.1416 -0.4452 -0.3052
19196THY    HA663494   7.772   5.031   3.784  0.5480 -0.4848 -0.3029
19197THY      O63495   8.500   1.022   1.558  0.1063 -0.1579 -0.2245
19197THY     HO63496   8.457   0.936   1.571 -2.1477 -3.4787  0.1741
19197THY    CA163497   8.423   1.122   1.622  0.7429  0.9396  0.3722
19197THY    CA263498   8.480   1.244   1.653  0.4882 -0.9551  0.0144
19197THY    CP163499   8.618   1.285   1.598  0.0482 -0.2209 -0.6381
19197THY    HP163500   8.630   1.237   1.500  3.1851  0.0763 -0.6811
19197THY    CP263501   8.725   1.237   1.694  0.1939 -0.0118 -0.4597
19197THY    HP263502   8.824   1.279   1.673 -0.0622 -0.1206  0.1012
19197THY    HP363503   8.742   1.129   1.682  0.0630 -2.1516 -0.2909
19197THY    HP463504   8.701   1.262   1.798  1.1757  1.0523 -3.4728
19197THY    CP363505   8.629   1.434   1.573 -0.4161  0.0390 -0.1012
19197THY    HP563506   8.636   1.497   1.663  0.0659 -1.5849  2.3221
19197THY    HP663507   8.541   1.468   1.518 -0.5362 -0.3582 -1.0307
19197THY    HP763508   8.722   1.454   1.517  0.2133  1.3321  0.7442
19197THY    CA363509   8.415   1.330   1.748  0.2109 -0.0634 -0.1693
19197THY    HA363510   8.464   1.420   1.784  1.2493 -0.7348 -0.4454
19197THY    CA463511   8.287   1.304   1.793  0.5114 -0.0929  1.5689
19197THY    HA463512   8.240   1.378   1.856 -0.7064  0.4348  0.4007
19197THY    CA563513   8.229   1.181   1.759  0.0362 -0.0873 -0.1881
19197THY    CM163514   8.093   1.148   1.808  0.1816 -0.2515 -0.9331
19197THY    HM163515   8.088   1.143   1.917 -1.0988 -0.2247  0.3160
19197THY    HM263516   8.064   1.048   1.775 -0.9889 -1.3069 -0.2731
19197THY    HM363517   8.012   1.212   1.770  0.3696  0.6180 -0.1522
19197THY    CA663518   8.296   1.082   1.676  0.2002  1.2185 -0.0951
19197THY    HA663519   8.249   0.985   1.659  1.2009  1.7389 -0.6841
19198THY      O63520   3.126   5.475   6.491 -0.4141  0.0386 -0.5319
19198THY     HO63521   3.124   5.468   6.394 -3.2877 -0.1475  1.1229
19198THY    CA163522   3.118   5.346   6.531  0.0706 -0.1948 -0.2006
19198THY    CA263523   3.027   5.293   6.627 -0.7801 -0.2186  0.8868
19198THY    CP163524   2.929   5.383   6.703  0.4951 -0.3096  0.7050
19198THY    HP163525   2.912   5.469   6.637  0.2396  0.4262  1.2266
19198THY    CP263526   2.986   5.438   6.830 -1.2957 -0.0939  0.0788
19198THY    HP263527   3.071   5.505   6.811 -1.7192 -1.6286  0.2273
19198THY    HP363528   3.029   5.352   6.883 -1.5080 -1.2584 -0.7617
19198THY    HP463529   2.914   5.491   6.893  1.0125  1.5551  1.4416
19198THY    CP363530   2.797   5.315   6.728 -0.7955  0.3042 -0.2546
19198THY    HP563531   2.729   5.400   6.745  0.6290 -3.2772  1.8611
19198THY    HP663532   2.793   5.242   6.809 -0.4216  1.7785  1.2914
19198THY    HP763533   2.765   5.266   6.636 -2.7966  0.1960  1.1096
19198THY    CA363534   3.028   5.153   6.647  0.3119  0.6099  0.5630
19198THY    HA363535   2.953   5.104   6.709  0.1335 -1.8809 -2.6601
19198THY    CA463536   3.123   5.075   6.581 -0.3456 -0.1514  0.8062
19198THY    HA463537   3.136   4.969   6.602 -0.0122  0.6137  0.9839
19198THY    CA563538   3.209   5.122   6.490 -0.5647 -0.1114 -0.1249
19198THY    CM163539   3.310   5.039   6.420 -0.0251 -0.1910 -0.4246
19198THY    HM163540   3.358   4.975   6.494  1.2456 -0.4737  0.1678
19198THY    HM263541   3.377   5.096   6.355  1.8199  2.2159  0.2982
19198THY    HM363542   3.262   4.980   6.340 -0.5451 -0.0783 -0.1591
19198THY    CA663543   3.194   5.262   6.456  0.2268 -0.4006  0.5419
19198THY    HA663544   3.261   5.308   6.383  1.6934  1.2440  1.1451
19199THY      O63545   3.954   4.835   6.127  0.2997 -0.7350 -0.8785
19199THY     HO63546   4.045   4.862   6.108  0.8520  2.2811 -0.3074
19199THY    CA163547   3.864   4.922   6.055 -0.0935 -0.5173  1.0903
19199THY    CA263548   3.725   4.905   6.053 -0.3026 -0.8412  0.0564
19199THY    CP163549   3.653   4.795   6.137 -0.4759 -0.2424 -0.1913
19199THY    HP163550   3.724   4.711   6.132  0.4982 -0.1693  0.6184
19199THY    CP263551   3.524   4.743   6.076  0.3801  0.4690  0.4181
19199THY    HP263552   3.476   4.661   6.132 -0.6739 -0.5253  0.3394
19199THY    HP363553   3.535   4.708   5.973 -1.3963 -0.0003  1.1568
19199THY    HP463554   3.445   4.819   6.075  0.3352  0.5391  0.3724
19199THY    CP363555   3.629   4.849   6.282 -0.3349  0.7277  0.1325
19199THY    HP563556   3.725   4.867   6.333 -0.3403  0.4785  0.8744
19199THY    HP663557   3.571   4.770   6.331  3.7245  1.7406 -2.5635
19199THY    HP763558   3.568   4.940   6.278 -0.2289  0.9008  0.2118
19199THY    CA363559   3.642   4.981   5.970  0.3877 -0.9114 -0.6092
19199THY    HA363560   3.534   4.973   5.963  0.2632  0.1531  0.0059
19199THY    CA463561   3.715   5.075   5.897 -0.3129 -0.0898  0.3472
19199THY    HA463562   3.657   5.136   5.828  0.4031 -1.9717 -1.0100
19199THY    CA563563   3.854   5.090   5.900  0.2020  0.3480 -0.1783
19199THY    CM163564   3.920   5.209   5.830 -0.1815 -0.5262  0.5784
19199THY    HM163565   3.845   5.285   5.805  0.0001 -4.3121 -0.3041
19199THY    HM263566   3.973   5.174   5.740 -1.1022 -1.1543  0.7729
19199THY    HM363567   4.000   5.253   5.892 -1.3268  2.2978 -1.0904
19199THY    CA663568   3.933   5.015   5.979 -0.2466 -0.1763  0.9727
19199THY    HA663569   4.041   5.022   5.979 -0.1888 -0.7223  0.1942
19200THY      O63570   6.637   4.740   6.053  0.1668  0.3327 -0.4786
19200THY     HO63571   6.551   4.757   6.094  0.6317  1.6898 -1.2239
19200THY    CA163572   6.640   4.751   5.912  0.5141 -1.0163 -0.2252
19200THY    CA263573   6.762   4.752   5.838  0.2786 -0.1521 -0.4633
19200THY    CP163574   6.902   4.751   5.906 -0.3339 -0.0739 -0.6055
19200THY    HP163575   6.866   4.746   6.010 -0.0979 -0.0202 -1.3150
19200THY    CP263576   6.964   4.885   5.860  0.5598  0.1198 -0.1750
19200THY    HP263577   6.987   4.884   5.753  0.0848  0.0190 -1.3666
19200THY    HP363578   7.050   4.898   5.927 -0.0019  1.1530 -1.4865
19200THY    HP463579   6.897   4.968   5.885  1.4669  0.6983  0.4105
19200THY    CP363580   6.982   4.633   5.853  0.1419  0.3143  0.5862
19200THY    HP563581   7.072   4.617   5.915 -1.1227  2.1475  0.2210
19200THY    HP663582   7.013   4.648   5.749 -2.9461 -1.0835 -1.7046
19200THY    HP763583   6.928   4.538   5.841 -0.6283 -1.6540  1.2352
19200THY    CA363584   6.753   4.759   5.694 -0.0792 -0.2174 -0.2475
19200THY    HA363585   6.839   4.754   5.629 -0.4336 -0.7912  0.7401
19200THY    CA463586   6.621   4.768   5.634 -0.1126  0.7364  0.6699
19200THY    HA463587   6.608   4.776   5.527 -0.7503  0.5845 -1.5762
19200THY    CA563588   6.504   4.783   5.713  0.3609  0.3573  0.2489
19200THY    CM163589   6.370   4.794   5.650  0.0324 -0.6932  0.1229
19200THY    HM163590   6.371   4.866   5.567  0.6585  0.1499  1.1128
19200THY    HM263591   6.291   4.811   5.725  1.1659  1.3979 -2.9890
19200THY    HM363592   6.362   4.692   5.610  0.3395 -0.7420  0.1184
19200THY    CA663593   6.519   4.771   5.849  0.2458 -0.3742  0.0758
19200THY    HA663594   6.428   4.765   5.909 -1.0974 -2.3391 -0.2355
19201THY      O63595   5.665   6.217   5.958 -0.1723  0.7939  0.0229
19201THY     HO63596   5.616   6.148   6.005  0.7978  1.5222 -0.1971
19201THY    CA163597   5.644   6.211   5.820 -0.3038 -0.1649 -0.3281
19201THY    CA263598   5.703   6.303   5.733 -0.0843 -0.3753 -0.0148
19201THY    CP163599   5.782   6.420   5.794  0.5124 -0.0610  0.5378
19201THY    HP163600   5.751   6.449   5.896  1.9627  0.3219  0.7936
19201THY    CP263601   5.767   6.558   5.719 -0.0354 -0.1768  0.3040
19201THY    HP263602   5.660   6.576   5.703 -0.3471  0.4875 -0.8611
19201THY    HP363603   5.816   6.538   5.623  0.6184  0.4810 -1.4720
19201THY    HP463604   5.807   6.644   5.773  1.8494 -0.4956 -0.3351
19201THY    CP363605   5.930   6.380   5.813  0.5300 -0.1308 -0.6509
19201THY    HP563606   5.947   6.288   5.871 -0.6168 -1.6022 -1.8335
19201THY    HP663607   5.979   6.466   5.860  2.2027 -1.2041 -0.9820
19201THY    HP763608   5.981   6.355   5.720  1.0260 -0.2326  0.6570
19201THY    CA363609   5.670   6.291   5.594 -0.1113 -0.7398 -0.1839
19201THY    HA363610   5.703   6.366   5.523 -0.6444 -1.0497 -0.2378
19201THY    CA463611   5.596   6.191   5.543  0.0275 -0.5186  0.1055
19201THY    HA463612   5.583   6.181   5.436  0.4956 -0.6133  0.5000
19201THY    CA563613   5.532   6.107   5.635 -0.1225 -0.8648  0.3890
19201THY    CM163614   5.428   6.007   5.586 -0.0056  0.1498  0.7124
19201THY    HM163615   5.369   5.969   5.670 -1.4199 -1.6486 -1.3959
19201THY    HM263616   5.479   5.920   5.543 -0.1043 -0.1100  0.7786
19201THY    HM363617   5.349   6.042   5.518 -1.2105  0.5785 -1.0074
19201THY    CA663618   5.542   6.129   5.774  0.0414 -0.2255  0.2090
19201THY    HA663619   5.474   6.083   5.844 -0.1151  1.1394  2.3651
19202THY      O63620   3.383   7.537   5.532 -0.5333 -0.2677  0.7749
19202THY     HO63621   3.361   7.626   5.501 -0.6200  0.7986  1.1389
19202THY    CA163622   3.449   7.476   5.430 -0.1736 -0.2344 -0.2031
19202THY    CA263623   3.480   7.339   5.432 -0.1525  0.2999 -0.4461
19202THY    CP163624   3.430   7.246   5.544 -0.4088  0.2253 -0.0929
19202THY    HP163625   3.372   7.311   5.611 -1.5402  0.9171 -1.7395
19202THY    CP263626   3.538   7.177   5.613 -1.2957  0.5535 -0.6325
19202THY    HP263627   3.616   7.251   5.635  0.5038 -0.9666 -1.9695
19202THY    HP363628   3.580   7.109   5.537  0.8575 -0.4294  1.6617
19202THY    HP463629   3.504   7.117   5.699 -1.3791  1.0953  0.1780
19202THY    CP363630   3.328   7.144   5.491 -0.3513  0.3970 -0.4331
19202THY    HP563631   3.297   7.075   5.570 -0.3299  0.3139 -0.5382
19202THY    HP663632   3.372   7.085   5.410 -0.3351  1.1020 -1.4176
19202THY    HP763633   3.245   7.202   5.449  1.3831 -3.2089 -0.2909
19202THY    CA363634   3.549   7.285   5.319 -0.6294 -0.2952  0.2028
19202THY    HA363635   3.582   7.181   5.316  1.8251  1.5420  0.8274
19202THY    CA463636   3.591   7.373   5.216 -0.6290  0.1335 -0.4117
19202THY    HA463637   3.655   7.338   5.135  0.7913 -0.0990  2.4451
19202THY    CA563638   3.565   7.509   5.219  0.1302  0.6999 -0.0655
19202THY    CM163639   3.610   7.600   5.114 -0.7731  0.3247  0.1815
19202THY    HM163640   3.529   7.669   5.089 -1.6551  2.7589  0.1460
19202THY    HM263641   3.667   7.557   5.031 -0.0234  0.9151  0.0090
19202THY    HM363642   3.689   7.661   5.160  0.1055 -0.0804 -0.6266
19202THY    CA663643   3.491   7.556   5.330 -0.2148 -0.4681  0.6848
19202THY    HA663644   3.457   7.659   5.336 -2.5189  1.3797 -0.0955
19203THY      O63645   4.483   8.174   2.289  0.1856 -0.6290 -0.2274
19203THY     HO63646   4.508   8.135   2.374 -0.1533  1.4574  3.5673
19203THY    CA163647   4.550   8.290   2.285  0.0456 -0.1638 -0.2947
19203THY    CA263648   4.515   8.396   2.199  0.1154  0.4936  0.3511
19203THY    CP163649   4.391   8.371   2.115  0.0041  0.1778 -0.5278
19203THY    HP163650   4.309   8.332   2.177  0.0958  0.7032  0.1028
19203THY    CP263651   4.411   8.265   2.005 -0.0273  0.3613  0.5085
19203THY    HP263652   4.483   8.300   1.931  0.2283 -0.0586 -0.8568
19203THY    HP363653   4.321   8.248   1.945  0.3477 -0.8849  2.5792
19203THY    HP463654   4.445   8.169   2.046 -0.8532 -1.1678 -0.4665
19203THY    CP363655   4.324   8.504   2.068  0.3319  0.0500  0.0824
19203THY    HP563656   4.380   8.573   2.004 -1.2365 -0.3312  1.0589
19203THY    HP663657   4.286   8.572   2.145  0.6443  1.6874 -1.5217
19203THY    HP763658   4.235   8.469   2.015  0.7834 -0.5955 -0.1181
19203THY    CA363659   4.601   8.508   2.184  0.4616  0.1356 -0.6714
19203THY    HA363660   4.591   8.582   2.106  1.2147  0.7246  0.0782
19203THY    CA463661   4.721   8.511   2.268  0.6508 -0.3970 -0.5245
19203THY    HA463662   4.785   8.599   2.267 -0.4166  0.6615  0.2807
19203THY    CA563663   4.755   8.405   2.349 -0.7245 -0.3046  0.5747
19203THY    CM163664   4.893   8.406   2.412  1.1931  0.2902 -0.4690
19203THY    HM163665   4.912   8.326   2.485 -0.7264  1.6335  0.2277
19203THY    HM263666   4.917   8.501   2.460 -0.4620 -1.6853  1.0270
19203THY    HM363667   4.969   8.402   2.333  0.8313 -0.0250 -1.5748
19203THY    CA663668   4.679   8.288   2.345 -0.8916  0.2143  0.0262
19203THY    HA663669   4.693   8.201   2.408 -3.0628 -0.8815 -1.2085
19204THY      O63670   0.479   2.897   6.612  0.3745  0.1318 -0.0369
19204THY     HO63671   0.537   2.920   6.687  0.8846 -0.6945  1.5328
19204THY    CA163672   0.508   2.769   6.589  0.6068  0.8106  0.1945
19204THY    CA263673   0.524   2.702   6.469 -0.0141  1.3532  0.0125
19204THY    CP163674   0.499   2.775   6.339 -0.6549  0.3282 -0.8338
19204THY    HP163675   0.408   2.833   6.356 -1.0446  1.7284 -1.7962
19204THY    CP263676   0.460   2.687   6.217  0.5222 -0.6017  0.4144
19204THY    HP263677   0.366   2.632   6.236  1.0091  1.1711  0.1339
19204THY    HP363678   0.537   2.612   6.199 -0.3387  1.3090 -1.0145
19204THY    HP463679   0.444   2.751   6.129  1.6268  0.1992  1.8354
19204THY    CP363680   0.611   2.874   6.306  0.0207 -0.0728 -0.1790
19204THY    HP563681   0.593   2.940   6.221 -2.4583  0.7533  0.3203
19204THY    HP663682   0.707   2.822   6.291  1.4033 -0.9040  2.4333
19204THY    HP763683   0.623   2.939   6.393  0.8995  1.2938 -2.0603
19204THY    CA363684   0.564   2.569   6.475 -0.5393 -0.2133  0.2560
19204THY    HA363685   0.588   2.509   6.387  0.3559  0.4605 -0.4096
19204THY    CA463686   0.594   2.513   6.601 -0.4307 -0.0462 -0.3012
19204THY    HA463687   0.628   2.409   6.605 -0.0781  1.1784 -0.1569
19204THY    CA563688   0.565   2.577   6.719 -0.1697 -0.2103 -0.3398
19204THY    CM163689   0.568   2.493   6.843 -0.3015 -0.4748 -0.0055
19204THY    HM163690   0.490   2.526   6.913 -0.0025 -1.0930  2.1430
19204THY    HM263691   0.669   2.486   6.887 -0.3077 -0.2536  1.1300
19204THY    HM363692   0.538   2.389   6.826 -0.9339  0.3447  0.0287
19204THY    CA663693   0.513   2.706   6.709 -0.5412  0.2588  0.1691
19204THY    HA663694   0.482   2.756   6.800  2.3173  1.3164  0.2260
19205THY      O63695   4.308   5.505   3.338  0.5276 -0.2549  0.7294
19205THY     HO63696   4.395   5.461   3.339  1.3414 -0.6017  2.2573
19205THY    CA163697   4.221   5.399   3.333  0.2795  0.6328  0.1518
19205THY    CA263698   4.078   5.425   3.336 -0.1969 -0.2153  0.1851
19205THY    CP163699   4.024   5.566   3.343 -0.3256 -0.1918 -0.6296
19205THY    HP163700   4.093   5.639   3.387 -0.8055 -0.2201 -0.1518
19205THY    CP263701   3.905   5.590   3.421  0.3158  0.5698 -0.2505
19205THY    HP263702   3.935   5.611   3.525  0.7154  0.5917 -0.9031
19205THY    HP363703   3.827   5.513   3.432 -1.9826 -0.0425  1.8499
19205THY    HP463704   3.852   5.681   3.390 -1.7295  1.4701 -1.0835
19205THY    CP363705   3.997   5.608   3.198  0.3438  0.2835  0.3464
19205THY    HP563706   3.925   5.545   3.144 -1.2839 -0.0671  2.3959
19205THY    HP663707   4.087   5.606   3.137 -0.6833 -1.3183 -2.2814
19205THY    HP763708   3.971   5.714   3.190 -0.4408 -1.8054  0.0472
19205THY    CA363709   3.990   5.317   3.333  0.6003  0.1851 -0.0006
19205THY    HA363710   3.883   5.332   3.342  0.6762  0.0113  0.6670
19205THY    CA463711   4.048   5.187   3.320 -0.5471 -1.0974 -0.0779
19205THY    HA463712   3.988   5.097   3.327 -0.7736  1.4327  0.1910
19205THY    CA563713   4.184   5.162   3.321  1.0439  0.4834  0.2225
19205THY    CM163714   4.231   5.027   3.306 -0.1646 -0.4720  0.4799
19205THY    HM163715   4.340   5.023   3.314 -0.2605  1.0793  0.2191
19205THY    HM263716   4.197   4.980   3.213 -1.9254 -0.0914  0.9104
19205THY    HM363717   4.195   4.954   3.380  0.1354 -2.0651 -1.3615
19205THY    CA663718   4.276   5.268   3.328 -0.6235 -0.1126  0.4543
19205THY    HA663719   4.384   5.255   3.334 -0.4625  0.8268  1.9582
19206THY      O63720   5.955   4.019   1.959 -0.1753 -0.4155 -0.4347
19206THY     HO63721   5.884   4.029   1.894  1.0881 -1.8173 -0.3034
19206THY    CA163722   6.034   4.129   1.955 -0.5508  0.2232 -0.3310
19206THY    CA263723   6.149   4.135   2.033  1.0890 -0.5717 -0.4375
19206THY    CP163724   6.174   4.020   2.132 -0.3052  0.4928  0.3205
19206THY    HP163725   6.118   3.932   2.099  0.2346  0.8726 -0.1794
19206THY    CP263726   6.133   4.071   2.272 -0.0100 -0.3834 -0.3690
19206THY    HP263727   6.213   4.135   2.307 -0.6400 -0.3757  0.4254
19206THY    HP363728   6.110   3.989   2.341 -0.2824  1.4353  1.1817
19206THY    HP463729   6.043   4.131   2.251 -2.2447 -1.6139 -3.7868
19206THY    CP363730   6.322   3.986   2.154 -0.0394 -0.5190  0.0030
19206THY    HP563731   6.380   4.074   2.185 -2.3477  1.5098  0.8900
19206THY    HP663732   6.357   3.957   2.054  3.0506  0.0584  1.2216
19206THY    HP763733   6.328   3.907   2.229 -1.4711  0.3070  0.6511
19206THY    CA363734   6.225   4.250   2.021 -0.0741  0.3574 -0.1345
19206THY    HA363735   6.317   4.264   2.077  0.9445 -1.5042  0.9945
19206THY    CA463736   6.196   4.349   1.929 -0.6465  0.8995 -0.2270
19206THY    HA463737   6.270   4.426   1.912  0.1325  1.0154 -0.9379
19206THY    CA563738   6.084   4.335   1.847 -0.1526 -0.0591  0.3680
19206THY    CM163739   6.063   4.434   1.741 -0.1394 -0.3519 -0.2010
19206THY    HM163740   6.129   4.521   1.749  0.2133 -2.0776 -0.2775
19206THY    HM263741   5.959   4.468   1.734 -0.7762 -1.6407 -2.2802
19206THY    HM363742   6.107   4.391   1.650  1.3466 -0.5634  1.5944
19206THY    CA663743   5.999   4.222   1.863 -0.2023 -0.0203 -0.0385
19206THY    HA663744   5.912   4.203   1.800 -0.9943  1.7666 -3.0310
19207THY      O63745   0.860   6.033   4.491 -1.1033  0.0069  0.2093
19207THY     HO63746   0.764   6.016   4.485 -0.9465  0.5623 -0.9735
19207THY    CA163747   0.895   6.115   4.387 -0.3586 -0.0469 -0.7898
19207THY    CA263748   1.030   6.148   4.356  0.7380 -0.2364  0.6689
19207THY    CP163749   1.139   6.083   4.451 -0.0032 -0.2595 -0.6372
19207THY    HP163750   1.108   5.984   4.484  0.2188 -0.1655 -0.6750
19207THY    CP263751   1.171   6.177   4.565 -0.2857 -1.4410 -0.5469
19207THY    HP263752   1.269   6.165   4.610 -0.0018 -1.9030 -0.0436
19207THY    HP363753   1.110   6.163   4.654  0.9992 -0.3472  0.5098
19207THY    HP463754   1.175   6.283   4.535  1.2723 -1.3944 -0.5698
19207THY    CP363755   1.267   6.069   4.373 -0.0658  0.5622  0.3903
19207THY    HP563756   1.306   6.169   4.347  1.2724 -1.3399 -0.5637
19207THY    HP663757   1.250   6.016   4.278 -1.9085  0.6390  0.7722
19207THY    HP763758   1.349   6.014   4.419  1.3338 -1.5247  0.6022
19207THY    CA363759   1.063   6.231   4.251 -0.0914 -0.0839  0.6553
19207THY    HA363760   1.165   6.246   4.219 -0.8684 -1.7702  2.7824
19207THY    CA463761   0.957   6.280   4.166  0.2152 -0.1564  0.1059
19207THY    HA463762   0.978   6.340   4.078  3.2603 -0.0562 -0.6490
19207THY    CA563763   0.818   6.260   4.203  0.0537  0.1058  1.3659
19207THY    CM163764   0.703   6.310   4.121  0.6435  0.0476  0.0406
19207THY    HM163765   0.619   6.240   4.112 -0.2715  0.0473  1.0988
19207THY    HM263766   0.738   6.333   4.020  1.2036 -0.0481 -1.1787
19207THY    HM363767   0.664   6.400   4.170  5.3758 -0.8955  2.9269
19207THY    CA663768   0.791   6.182   4.314 -0.4608 -0.3499  0.2172
19207THY    HA663769   0.686   6.165   4.336 -1.3688 -2.2962  2.7207
19208THY      O63770   0.588   4.013   2.289 -0.7865 -0.2961 -0.2367
19208THY     HO63771   0.566   3.944   2.225 -0.3574 -1.5319  0.7509
19208THY    CA163772   0.698   4.071   2.230  0.0717 -0.2442 -0.6658
19208THY    CA263773   0.744   4.200   2.274 -0.4058  0.1184  0.3862
19208THY    CP163774   0.667   4.279   2.382 -0.0201 -0.4572 -0.5058
19208THY    HP163775   0.561   4.259   2.361 -0.5159  1.9939 -0.6546
19208THY    CP263776   0.690   4.433   2.385 -0.4194  0.2876 -0.3709
19208THY    HP263777   0.672   4.484   2.290 -0.9366  0.1432 -0.8084
19208THY    HP363778   0.795   4.460   2.400 -0.2160  0.6480 -1.3201
19208THY    HP463779   0.632   4.485   2.463 -4.0004 -1.9883 -0.5325
19208THY    CP363780   0.689   4.220   2.521 -0.4484 -0.4846  0.8868
19208THY    HP563781   0.639   4.283   2.595 -1.7141 -1.1234  0.6685
19208THY    HP663782   0.798   4.218   2.530 -0.0416 -3.9462 -1.7432
19208THY    HP763783   0.649   4.118   2.534  3.0810 -0.8737 -0.6785
19208THY    CA363784   0.858   4.249   2.212 -0.3033 -0.2237 -0.7402
19208THY    HA363785   0.898   4.348   2.232  1.6391  2.8702 -1.9927
19208THY    CA463786   0.921   4.180   2.108 -0.1922  0.4755 -0.3159
19208THY    HA463787   1.011   4.222   2.062 -0.9044 -0.3030  0.4024
19208THY    CA563788   0.870   4.051   2.063 -1.0444  0.3067  0.1426
19208THY    CM163789   0.941   3.984   1.954  0.3630  0.1234  1.3569
19208THY    HM163790   0.975   4.060   1.883 -1.7639 -0.9541  1.3963
19208THY    HM263791   0.872   3.922   1.895 -0.4760  3.8701 -1.6354
19208THY    HM363792   1.029   3.927   1.982 -1.2714  2.5153 -0.1808
19208THY    CA663793   0.760   3.998   2.127  1.0205 -0.7501 -0.2840
19208THY    HA663794   0.734   3.897   2.095 -1.2864  0.7437 -0.2195
19209THY      O63795   3.906   4.356   1.808  0.1857  0.3679 -0.3810
19209THY     HO63796   3.879   4.448   1.824 -0.1123  2.8790 -0.8494
19209THY    CA163797   3.965   4.340   1.928  1.1120  0.2371  0.5124
19209THY    CA263798   4.066   4.249   1.950 -0.1381 -0.1232 -1.1336
19209THY    CP163799   4.130   4.178   1.829 -0.5580 -0.3448 -0.5373
19209THY    HP163800   4.123   4.233   1.735  1.6376 -0.1050  0.2640
19209THY    CP263801   4.066   4.040   1.817 -0.2655 -0.1733 -0.7132
19209THY    HP263802   4.074   4.004   1.714  1.6142 -1.2918  2.4533
19209THY    HP363803   3.958   4.048   1.833 -0.4254 -0.5715 -1.8088
19209THY    HP463804   4.107   3.962   1.883  2.1826 -0.1422  0.4876
19209THY    CP363805   4.287   4.153   1.836  0.7805  0.0795 -0.3891
19209THY    HP563806   4.338   4.241   1.876  1.8351 -0.9963 -0.4871
19209THY    HP663807   4.327   4.135   1.735  2.4171  1.0489 -2.6918
19209THY    HP763808   4.304   4.071   1.907 -1.9051 -0.4581 -1.5221
19209THY    CA363809   4.116   4.234   2.076 -0.2600  0.0653 -0.1765
19209THY    HA363810   4.193   4.161   2.101  0.2580  0.1663  0.3906
19209THY    CA463811   4.071   4.314   2.181  0.2786 -0.3067  0.1022
19209THY    HA463812   4.113   4.307   2.280 -1.0098  0.2531  0.0142
19209THY    CA563813   3.975   4.416   2.161 -0.2717  0.3190  0.6934
19209THY    CM163814   3.922   4.508   2.258  0.4963 -0.7234 -0.4123
19209THY    HM163815   3.815   4.528   2.256  0.3706  0.4745 -0.8689
19209THY    HM263816   3.976   4.603   2.257 -1.0617  0.2066  0.5285
19209THY    HM363817   3.936   4.463   2.357 -0.2874 -0.5981 -0.3903
19209THY    CA663818   3.919   4.423   2.029  1.2185  0.0833 -0.1064
19209THY    HA663819   3.846   4.498   1.999  1.3640 -2.1508 -0.8016
19210THY      O63820   6.983   2.794   3.655  0.2848 -0.6268  0.4523
19210THY     HO63821   6.894   2.772   3.622 -0.2626  1.6725 -1.1421
19210THY    CA163822   7.070   2.710   3.586  0.6508 -0.0922  0.2477
19210THY    CA263823   7.188   2.763   3.525  0.2326  0.1341 -0.2892
19210THY    CP163824   7.233   2.911   3.541  0.3804  0.4008  0.4377
19210THY    HP163825   7.148   2.973   3.572 -0.1177  0.6013 -0.3378
19210THY    CP263826   7.299   2.968   3.420  1.0188 -0.2180  0.2858
19210THY    HP263827   7.241   2.966   3.327 -0.4164  0.6131 -2.1071
19210THY    HP363828   7.393   2.920   3.392  1.5100  0.1921  1.0025
19210THY    HP463829   7.328   3.070   3.448  2.1312 -0.0780 -0.0631
19210THY    CP363830   7.327   2.924   3.663 -0.6630  0.4663  0.0213
19210THY    HP563831   7.423   2.882   3.630 -1.3107 -1.1442 -0.2847
19210THY    HP663832   7.287   2.872   3.750 -4.2450 -0.8196  0.3512
19210THY    HP763833   7.360   3.027   3.681  0.2776  1.5827 -0.4559
19210THY    CA363834   7.265   2.672   3.450  0.0239  0.3148  0.4233
19210THY    HA363835   7.358   2.712   3.412 -0.4088 -0.8547  0.3574
19210THY    CA463836   7.229   2.538   3.427 -0.0956  0.0783 -0.3736
19210THY    HA463837   7.291   2.473   3.366 -1.8560  0.1902 -2.2779
19210THY    CA563838   7.108   2.491   3.488 -0.3583  0.3169  0.3669
19210THY    CM163839   7.080   2.345   3.461 -0.3822 -0.0136  0.0636
19210THY    HM163840   7.045   2.321   3.360 -1.4139 -0.3154  2.4994
19210THY    HM263841   7.003   2.313   3.533  2.9237  2.6941 -2.6779
19210THY    HM363842   7.164   2.281   3.490 -0.6714 -1.0170 -0.8013
19210THY    CA663843   7.028   2.572   3.565  0.2074  0.1014  0.4832
19210THY    HA663844   6.942   2.528   3.615  0.6715 -0.5867 -1.2961
19211THY      O63845   7.945   0.179   2.517  0.1313  0.2309  0.9647
19211THY     HO63846   7.863   0.206   2.473  1.4079 -0.8337  3.4909
19211THY    CA163847   8.023   0.287   2.528  0.5107 -0.0684 -0.0330
19211THY    CA263848   8.161   0.282   2.555  0.3838 -0.4178  0.1315
19211THY    CP163849   8.234   0.151   2.571 -0.6617 -0.4626  0.4417
19211THY    HP163850   8.177   0.061   2.545 -1.9488  1.9472  0.4931
19211THY    CP263851   8.272   0.125   2.725 -0.3252 -0.3566  0.0291
19211THY    HP263852   8.343   0.198   2.764  0.1706 -1.6284  0.2524
19211THY    HP363853   8.312   0.024   2.739 -0.8960 -0.2073 -0.1856
19211THY    HP463854   8.179   0.140   2.781 -0.6487 -0.3379 -1.8036
19211THY    CP363855   8.358   0.138   2.481 -0.1299 -0.1603  0.0223
19211THY    HP563856   8.335   0.162   2.376  0.0467 -0.2354 -0.1323
19211THY    HP663857   8.402   0.038   2.489 -0.5004  2.5020  0.0139
19211THY    HP763858   8.435   0.203   2.526  0.8780  0.2474 -1.4048
19211THY    CA363859   8.235   0.401   2.560 -0.5003  0.4282  0.7445
19211THY    HA363860   8.342   0.397   2.580 -0.7679  1.7738 -1.4828
19211THY    CA463861   8.172   0.526   2.532 -0.1804 -0.9512  0.0496
19211THY    HA463862   8.227   0.619   2.520 -2.6856 -1.9699  1.4797
19211THY    CA563863   8.033   0.534   2.514  0.0886  0.5416 -0.1443
19211THY    CM163864   7.964   0.654   2.478  0.2810  0.2521 -0.2052
19211THY    HM163865   7.938   0.661   2.372  0.2106  0.1601 -1.5828
19211THY    HM263866   8.007   0.747   2.516  1.1970 -1.3900  0.0871
19211THY    HM363867   7.861   0.647   2.515 -0.1376 -1.0821 -1.9062
19211THY    CA663868   7.961   0.416   2.504 -1.1878  0.8587  0.0405
19211THY    HA663869   7.856   0.419   2.476 -1.5680  1.7856 -2.1850
19212THY      O63870   5.231   4.544   6.019  0.0844  0.0771  0.6393
19212THY     HO63871   5.269   4.547   6.108  1.9252 -0.6537  0.2231
19212THY    CA163872   5.173   4.663   5.986 -0.2406 -0.4646  0.0030
19212THY    CA263873   5.072   4.673   5.890 -0.0601 -0.9661  1.2504
19212THY    CP163874   5.026   4.550   5.805 -0.8097 -0.1620 -1.0164
19212THY    HP163875   5.075   4.456   5.831  1.0588  0.3622  0.0437
19212THY    CP263876   5.067   4.575   5.657  0.2933  0.4355  0.8079
19212THY    HP263877   4.996   4.647   5.614 -1.3049  0.7446 -0.5152
19212THY    HP363878   5.054   4.484   5.598  0.9439 -1.3833  1.8457
19212THY    HP463879   5.171   4.610   5.657  1.1739 -2.2517 -1.4145
19212THY    CP363880   4.876   4.540   5.831  0.0826  0.1555  0.6515
19212THY    HP563881   4.845   4.471   5.751  2.7301 -0.4262  0.0260
19212THY    HP663882   4.809   4.625   5.813 -3.9957  0.0917 -2.2605
19212THY    HP763883   4.850   4.495   5.927 -1.1081 -0.1669  0.6132
19212THY    CA363884   5.020   4.802   5.865 -0.4603 -0.2576 -0.1027
19212THY    HA363885   4.956   4.816   5.778  0.2470 -0.5405  1.6687
19212THY    CA463886   5.073   4.915   5.929  0.4827  0.0975  0.3169
19212THY    HA463887   5.034   5.015   5.910 -1.2010 -1.5479 -0.5756
19212THY    CA563888   5.177   4.903   6.025  0.4770 -0.3064  0.8427
19212THY    CM163889   5.228   5.027   6.097 -0.0893  0.4812 -0.3622
19212THY    HM163890   5.140   5.084   6.128 -0.0108 -0.1144  0.0997
19212THY    HM263891   5.281   5.089   6.024 -2.0592 -0.0827  0.7422
19212THY    HM363892   5.293   5.001   6.181  0.8574 -0.0875  0.1227
19212THY    CA663893   5.229   4.771   6.052 -0.5702 -0.2605  0.1066
19212THY    HA663894   5.312   4.756   6.121 -1.2881  0.5802 -0.0751
19213THY      O63895   6.084   3.144   2.026 -0.9353 -0.1018 -0.6288
19213THY     HO63896   6.157   3.130   1.963  0.0539  1.2635 -2.0104
19213THY    CA163897   6.135   3.220   2.124 -0.2667 -0.0956 -0.2263
19213THY    CA263898   6.096   3.208   2.262 -1.2610 -0.0531 -0.4034
19213THY    CP163899   5.991   3.111   2.309  1.2359  0.1191  0.1387
19213THY    HP163900   5.934   3.078   2.222  0.9699  0.6982 -0.9572
19213THY    CP263901   5.884   3.181   2.407 -0.2025 -0.2949  0.0843
19213THY    HP263902   5.932   3.205   2.503 -2.0952  0.2503  1.8652
19213THY    HP363903   5.798   3.117   2.430  0.1437 -0.3449 -0.4126
19213THY    HP463904   5.841   3.268   2.358 -2.2757 -0.0482 -0.7538
19213THY    CP363905   6.039   2.981   2.381 -0.0941  0.3994  0.1118
19213THY    HP563906   6.100   2.916   2.317  0.2643  0.7642  0.0890
19213THY    HP663907   5.948   2.929   2.413 -1.4438 -0.2936  1.8969
19213THY    HP763908   6.090   3.008   2.474 -0.2691  0.5381 -0.0359
19213THY    CA363909   6.164   3.289   2.350 -0.4852 -0.2918  0.7493
19213THY    HA363910   6.140   3.292   2.455 -0.5807 -0.3202  1.0537
19213THY    CA463911   6.266   3.372   2.316  0.4440 -0.5270  0.4286
19213THY    HA463912   6.311   3.450   2.378 -2.2732  0.5379  1.2762
19213THY    CA563913   6.298   3.390   2.181 -0.8099  0.4906 -0.3017
19213THY    CM163914   6.395   3.495   2.145 -0.7423  0.6397  0.0037
19213THY    HM163915   6.396   3.511   2.037 -0.5950  0.7259  0.6098
19213THY    HM263916   6.496   3.458   2.163 -0.7728  1.6236  0.3643
19213THY    HM363917   6.362   3.589   2.192 -2.5427 -2.2871  0.9688
19213THY    CA663918   6.239   3.312   2.081  0.1306  0.0700  0.8114
19213THY    HA663919   6.258   3.333   1.976 -2.3915 -0.6729 -0.2221
19214THY      O63920   2.750   1.602   7.060  0.5612  0.0747 -0.1053
19214THY     HO63921   2.664   1.573   7.026  0.8553  0.4816 -1.4969
19214THY    CA163922   2.780   1.527   7.171  0.5450  0.2213  0.4156
19214THY    CA263923   2.893   1.559   7.246 -0.1826  0.4176 -0.0009
19214THY    CP163924   2.985   1.665   7.198  0.7270  0.0179 -0.5042
19214THY    HP163925   2.971   1.692   7.092  2.7059 -0.0568  0.4259
19214THY    CP263926   3.137   1.626   7.211  0.5355 -0.6931  0.3167
19214THY    HP263927   3.161   1.549   7.137  0.5253  0.3456 -0.7264
19214THY    HP363928   3.181   1.594   7.306  2.2313 -1.6353 -0.2832
19214THY    HP463929   3.201   1.713   7.190  0.6307 -0.1311  0.3858
19214THY    CP363930   2.955   1.784   7.297 -0.5714 -0.6133 -0.0974
19214THY    HP563931   2.859   1.832   7.272  0.8440 -1.4852  2.4318
19214THY    HP663932   3.019   1.866   7.264  0.3951  1.5539  0.0727
19214THY    HP763933   2.962   1.771   7.406 -1.9276 -0.5588 -0.5439
19214THY    CA363934   2.915   1.497   7.368  0.5844 -0.9349 -0.0712
19214THY    HA363935   3.010   1.512   7.418  0.9227 -1.0069 -1.7681
19214THY    CA463936   2.823   1.396   7.409 -0.2328  0.0012 -0.1215
19214THY    HA463937   2.845   1.341   7.500 -0.7805 -0.8035 -1.7228
19214THY    CA563938   2.718   1.350   7.324  1.1968 -0.4151 -0.0168
19214THY    CM163939   2.635   1.223   7.356 -0.0415 -0.3175  0.9639
19214THY    HM163940   2.579   1.235   7.450 -0.1387 -0.1929 -0.2689
19214THY    HM263941   2.693   1.130   7.362 -4.0610 -1.9505 -1.9751
19214THY    HM363942   2.553   1.213   7.283 -0.7157  0.1620  2.6473
19214THY    CA663943   2.697   1.421   7.203  0.0092 -0.9056  0.1572
19214THY    HA663944   2.614   1.392   7.139 -1.3921  0.4049  1.1164
19215THY      O63945   6.289   2.403   4.873  0.3934  0.2891  0.5697
19215THY     HO63946   6.213   2.353   4.909  0.0934 -2.3405 -1.0529
19215THY    CA163947   6.257   2.466   4.751  0.2884 -0.1192  0.1865
19215THY    CA263948   6.346   2.516   4.651 -0.6300 -0.3839 -0.7397
19215THY    CP163949   6.494   2.514   4.688  1.1088 -0.3729 -0.1136
19215THY    HP163950   6.507   2.479   4.791 -0.0173  1.1273  3.4336
19215THY    CP263951   6.568   2.648   4.657  0.1666 -0.4123 -0.0420
19215THY    HP263952   6.669   2.637   4.697 -0.1736  1.0999  1.8031
19215THY    HP363953   6.532   2.741   4.703 -0.0086 -2.2250  0.8460
19215THY    HP463954   6.597   2.672   4.554  0.2579 -0.5942 -0.9038
19215THY    CP363955   6.571   2.410   4.605 -0.2164  0.2954  0.6736
19215THY    HP563956   6.679   2.410   4.619 -0.0118 -0.3061 -2.7894
19215THY    HP663957   6.549   2.437   4.501  0.9522  0.4606  2.3757
19215THY    HP763958   6.535   2.309   4.629  0.4638  0.7988  0.5491
19215THY    CA363959   6.300   2.577   4.535 -0.1433  0.1517 -0.6061
19215THY    HA363960   6.363   2.612   4.453 -0.4071 -0.9821 -2.6557
19215THY    CA463961   6.164   2.575   4.513  0.3032 -0.4526 -0.9891
19215THY    HA463962   6.121   2.615   4.422 -2.6989  1.1042 -0.3264
19215THY    CA563963   6.071   2.528   4.612  0.6233  0.2035  0.3281
19215THY    CM163964   5.927   2.569   4.590  0.2570  0.5129  0.0814
19215THY    HM163965   5.924   2.679   4.582  1.0517  2.5298  0.2913
19215THY    HM263966   5.861   2.545   4.674 -3.3334 -2.5138 -1.6473
19215THY    HM363967   5.878   2.512   4.511 -2.3829  1.4241  0.9224
19215THY    CA663968   6.119   2.481   4.737 -0.0575 -0.0651  1.4444
19215THY    HA663969   6.048   2.446   4.812 -0.2214 -0.8824 -0.0524
19216THY      O63970   1.271   3.100   5.121  0.8016 -0.1237  0.3991
19216THY     HO63971   1.224   3.112   5.205 -1.6212 -1.0534 -1.5858
19216THY    CA163972   1.162   3.096   5.039  0.0975 -0.1232 -0.5961
19216THY    CA263973   1.166   3.162   4.907  0.4979  0.3718  0.6541
19216THY    CP163974   1.304   3.207   4.854 -0.1621 -0.5583  0.1740
19216THY    HP163975   1.353   3.273   4.926  0.8308 -2.7755  2.0406
19216THY    CP263976   1.309   3.299   4.732  0.3194 -0.1869 -0.8227
19216THY    HP263977   1.417   3.314   4.714  0.1439 -1.6180 -1.0643
19216THY    HP363978   1.262   3.394   4.757 -0.2061 -2.5332 -0.3940
19216THY    HP463979   1.259   3.246   4.650 -1.2792  0.7063 -0.7376
19216THY    CP363980   1.393   3.088   4.823  0.1753  0.1192 -0.5036
19216THY    HP563981   1.472   3.120   4.754 -1.0911 -0.2409  2.1457
19216THY    HP663982   1.338   3.011   4.768  2.3973  0.1287 -2.2205
19216THY    HP763983   1.440   3.039   4.909  0.7984  0.7574  1.1582
19216THY    CA363984   1.046   3.178   4.840  0.4704  0.1397 -0.7923
19216THY    HA363985   1.042   3.236   4.748 -0.8255  0.7914  0.1705
19216THY    CA463986   0.924   3.131   4.893 -0.8153  0.2293 -0.1661
19216THY    HA463987   0.829   3.143   4.842 -0.3369 -0.8040 -0.6224
19216THY    CA563988   0.922   3.069   5.017 -0.4258  0.0442  0.3841
19216THY    CM163989   0.787   3.028   5.071 -0.2704  0.3053  0.2566
19216THY    HM163990   0.699   3.049   5.009 -1.3935  1.2181 -1.4381
19216THY    HM263991   0.782   3.065   5.175 -0.5498 -0.6259  3.1314
19216THY    HM363992   0.785   2.919   5.076  1.8360 -2.1604  0.0238
19216THY    CA663993   1.039   3.044   5.090  0.0487  0.9301  0.1433
19216THY    HA663994   1.020   2.999   5.187 -1.7733 -0.1914 -1.6228
19217THY      O63995   4.284   5.441   2.260 -0.1561 -0.0537  0.0295
19217THY     HO63996   4.359   5.476   2.209  0.1865 -0.5338 -1.3601
19217THY    CA163997   4.330   5.339   2.336  0.2486 -0.3277 -0.3165
19217THY    CA263998   4.263   5.287   2.451  1.2400 -0.6593  0.1178
19217THY    CP163999   4.124   5.347   2.496 -0.5120 -0.6664 -0.2663
19217THY    HP164000   4.101   5.414   2.412 -1.7066 -2.3929 -2.7000
19217THY    CP264001   4.122   5.426   2.619  0.0796 -0.5848 -0.6528
19217THY    HP264002   4.035   5.492   2.615  0.9432  0.2243  0.5721
19217THY    HP364003   4.216   5.481   2.627 -0.4038  1.1130 -0.0461
19217THY    HP464004   4.130   5.355   2.702  1.0667  0.6681  0.8578
19217THY    CP364005   4.013   5.237   2.496 -0.4768  0.0599 -0.5405
19217THY    HP564006   3.915   5.285   2.489  0.4489 -0.0915  1.4536
19217THY    HP664007   4.018   5.162   2.576 -0.0539  0.3633 -0.1996
19217THY    HP764008   4.027   5.191   2.398 -1.2073  0.4859 -1.6984
19217THY    CA364009   4.315   5.189   2.534 -0.7535  0.4664  0.4242
19217THY    HA364010   4.268   5.146   2.622 -0.0234  1.2475  1.1610
19217THY    CA464011   4.443   5.147   2.497  0.4790  1.1017 -0.4065
19217THY    HA464012   4.491   5.064   2.548  0.0016 -0.2831 -1.5739
19217THY    CA564013   4.521   5.203   2.392  0.8589  0.0499  0.2195
19217THY    CM164014   4.659   5.153   2.362  0.1417  0.0798 -0.1683
19217THY    HM164015   4.700   5.226   2.291 -1.5119  1.0618  1.8406
19217THY    HM264016   4.664   5.048   2.333 -2.5850 -0.7652 -0.1634
19217THY    HM364017   4.718   5.169   2.453  1.1514 -0.5110 -0.4370
19217THY    CA664018   4.454   5.286   2.301 -0.0576 -0.1280  1.1818
19217THY    HA664019   4.507   5.334   2.219  3.3317  1.9218  1.2653
19218THY      O64020   1.356   0.922   7.631 -0.2552  0.5184 -0.1722
19218THY     HO64021   1.432   0.955   7.579 -0.0793  0.7420 -0.2247
19218THY    CA164022   1.246   0.973   7.576 -0.3543  0.6069 -0.2084
19218THY    CA264023   1.141   1.009   7.660  0.0888 -0.4289 -0.2794
19218THY    CP164024   1.155   0.996   7.812  0.0563 -0.0618  0.3762
19218THY    HP164025   1.227   0.917   7.837 -0.8078 -0.5271 -0.5906
19218THY    CP264026   1.014   0.957   7.870  0.4871 -0.1864  0.3308
19218THY    HP264027   0.969   1.050   7.905 -0.1096 -1.1838  0.4376
19218THY    HP364028   1.043   0.895   7.956 -2.2286  0.4649 -0.1868
19218THY    HP464029   0.952   0.895   7.804 -0.9339  1.1765  0.2577
19218THY    CP364030   1.208   1.124   7.876  0.0504 -0.8003 -0.2281
19218THY    HP564031   1.124   1.190   7.902 -0.2299 -0.0391 -0.8627
19218THY    HP664032   1.294   1.169   7.825  0.2635 -0.4951 -0.2797
19218THY    HP764033   1.249   1.102   7.976 -0.7107 -0.3965  0.1324
19218THY    CA364034   1.028   1.062   7.603 -0.1871 -0.3389 -0.0210
19218THY    HA364035   0.938   1.084   7.660 -1.8129 -2.5431 -0.5774
19218THY    CA464036   1.020   1.083   7.462 -0.0896  0.1635 -0.5614
19218THY    HA464037   0.931   1.121   7.412  0.3777  1.5595  2.7076
19218THY    CA564038   1.129   1.060   7.381  0.3234  0.0952  0.3237
19218THY    CM164039   1.134   1.081   7.233  0.1327 -0.4894 -0.9366
19218THY    HM164040   1.219   1.032   7.183 -0.5498 -2.1733 -0.4913
19218THY    HM264041   1.129   1.188   7.213 -1.1026 -0.1489 -0.9100
19218THY    HM364042   1.047   1.042   7.177  0.3884 -0.2966 -1.8214
19218THY    CA664043   1.244   0.993   7.439  0.2180 -0.9533  0.2887
19218THY    HA664044   1.328   0.962   7.377 -0.2347 -1.4761  0.0840
19219THY      O64045   2.834   5.182   3.740 -0.2334  0.7568  0.6684
19219THY     HO64046   2.839   5.208   3.834  1.0447  0.6611  0.8429
19219THY    CA164047   2.749   5.260   3.663 -0.5215 -0.1826 -0.4310
19219THY    CA264048   2.741   5.247   3.519 -0.0074 -0.5193 -0.4084
19219THY    CP164049   2.844   5.149   3.449  0.1846 -0.3866 -0.3665
19219THY    HP164050   2.934   5.145   3.511  0.1418 -0.1708  1.3385
19219THY    CP264051   2.895   5.194   3.310  0.3454  0.1771  0.2144
19219THY    HP264052   2.991   5.147   3.286  0.6421  1.6215  0.0456
19219THY    HP364053   2.912   5.302   3.308 -0.2069 -0.6095  0.2959
19219THY    HP464054   2.822   5.161   3.235  0.3289  0.4453 -0.3712
19219THY    CP364055   2.793   5.002   3.442 -0.3383 -0.3175 -0.0769
19219THY    HP564056   2.873   4.929   3.426  1.1686  2.0350  0.9037
19219THY    HP664057   2.709   4.986   3.375  0.1483 -0.4545 -2.2680
19219THY    HP764058   2.755   4.971   3.540  0.3240 -0.4106 -1.2634
19219THY    CA364059   2.654   5.326   3.453  0.0577  0.2401 -0.4306
19219THY    HA364060   2.648   5.326   3.344  3.2615 -0.0679  1.5141
19219THY    CA464061   2.569   5.414   3.524  0.1892  0.2745 -0.4239
19219THY    HA464062   2.498   5.482   3.478 -0.0831  2.8539  1.1624
19219THY    CA564063   2.575   5.430   3.660  0.4242  0.3678  0.3995
19219THY    CM164064   2.490   5.535   3.729  0.2984 -0.1337  0.4797
19219THY    HM164065   2.460   5.505   3.830 -0.1849  0.2815  2.2543
19219THY    HM264066   2.399   5.550   3.670 -1.0708  1.5790 -0.7618
19219THY    HM364067   2.547   5.628   3.743 -0.3190  0.4421  0.7707
19219THY    CA664068   2.666   5.349   3.726  0.5647 -0.9370  0.0432
19219THY    HA664069   2.657   5.349   3.834  1.9957 -0.7355 -2.6160
19220THY      O64070   2.944   5.856   6.687 -0.0332 -0.5887  0.8224
19220THY     HO64071   3.002   5.796   6.638 -0.3296  1.0943 -0.9374
19220THY    CA164072   2.816   5.813   6.662 -0.5798 -0.9354 -0.2194
19220THY    CA264073   2.712   5.826   6.757  0.0443 -0.5011 -0.3043
19220THY    CP164074   2.720   5.926   6.873 -0.0001  0.3455 -0.3854
19220THY    HP164075   2.814   5.982   6.860  0.2528  0.9820 -0.6517
19220THY    CP264076   2.709   5.859   7.008  0.4425 -0.2204 -0.3787
19220THY    HP264077   2.615   5.803   7.006 -1.1227 -2.3263  2.0846
19220THY    HP364078   2.725   5.941   7.078 -1.0740  0.7469 -0.8629
19220THY    HP464079   2.788   5.784   7.014 -0.8962  1.6604 -1.7198
19220THY    CP364080   2.609   6.037   6.861  0.2961 -0.0760  0.6667
19220THY    HP564081   2.516   5.982   6.879  1.2798 -1.6104 -1.6431
19220THY    HP664082   2.608   6.073   6.758  1.5306  0.6417  2.9470
19220THY    HP764083   2.632   6.110   6.939  0.6253  0.1362  0.3450
19220THY    CA364084   2.591   5.753   6.742  0.0878  1.7461 -0.5757
19220THY    HA364085   2.503   5.767   6.805 -1.5953 -0.7466  0.9156
19220THY    CA464086   2.582   5.667   6.629  0.1701 -0.0119  0.2226
19220THY    HA464087   2.491   5.611   6.608 -2.6733  3.1111  3.1792
19220THY    CA564088   2.677   5.663   6.531 -0.2215  0.0631  0.1128
19220THY    CM164089   2.659   5.576   6.414 -0.7125  0.0354  0.7036
19220THY    HM164090   2.583   5.613   6.343 -0.2126 -1.6401 -1.3162
19220THY    HM264091   2.635   5.477   6.455 -1.1694  2.9596  1.9276
19220THY    HM364092   2.753   5.561   6.359 -0.8308  0.6330 -3.0185
19220THY    CA664093   2.796   5.736   6.548 -0.4663  0.1426 -0.4943
19220THY    HA664094   2.884   5.721   6.486  1.4567  2.6671 -0.2697
19221THY      O64095   8.573   3.955   7.534  0.5527  0.1143 -0.6833
19221THY     HO64096   8.543   4.030   7.588 -1.0928 -0.9951 -0.5034
19221THY    CA164097   8.489   3.860   7.566 -0.2231  0.2734  0.4267
19221THY    CA264098   8.493   3.739   7.490 -0.4001  0.3156  0.1364
19221THY    CP164099   8.596   3.714   7.384 -0.5944 -0.5313 -0.0921
19221THY    HP164100   8.662   3.799   7.364 -0.0402  0.9861 -0.1357
19221THY    CP264101   8.532   3.696   7.243  0.1699  0.9983 -0.6713
19221THY    HP264102   8.456   3.770   7.216 -0.3391  0.8344 -1.2433
19221THY    HP364103   8.469   3.607   7.230  0.3752 -0.7067 -0.5985
19221THY    HP464104   8.607   3.700   7.163  1.7167  2.0634 -4.1657
19221THY    CP364105   8.689   3.593   7.412 -0.3953  0.5744  0.9262
19221THY    HP564106   8.640   3.501   7.379  0.2670 -1.1974  1.1809
19221THY    HP664107   8.715   3.585   7.518 -0.9770  0.9233  3.0225
19221THY    HP764108   8.786   3.608   7.363  0.1953  0.7070 -1.9541
19221THY    CA364109   8.406   3.633   7.520  0.8076 -0.2970  0.5997
19221THY    HA364110   8.402   3.542   7.461 -1.1851  0.7043 -0.0275
19221THY    CA464111   8.316   3.651   7.623  0.6078  0.1200  0.3457
19221THY    HA464112   8.246   3.570   7.642 -0.0874 -1.5931  0.4962
19221THY    CA564113   8.314   3.767   7.698 -0.4206 -0.5747 -0.5296
19221THY    CM164114   8.222   3.786   7.817  0.1525 -0.3051  0.7439
19221THY    HM164115   8.195   3.696   7.873 -0.6178  0.4466  1.4232
19221THY    HM264116   8.133   3.837   7.778  0.1227 -1.8192 -0.3852
19221THY    HM364117   8.270   3.852   7.890  0.4628  0.5857 -0.4264
19221THY    CA664118   8.399   3.877   7.667 -0.4805 -0.5275 -0.0764
19221THY    HA664119   8.403   3.966   7.728  0.8756  0.2395 -0.6392
19222THY      O64120   0.180   9.079   4.810  0.6299 -0.2037 -0.5966
19222THY     HO64121   0.104   9.137   4.823  1.0181  0.0124 -0.1264
19222THY    CA164122   0.280   9.159   4.765 -0.5335 -0.5795 -0.0662
19222THY    CA264123   0.391   9.093   4.709  0.2033  0.4738 -0.5656
19222THY    CP164124   0.412   8.941   4.705  0.4273  0.4438  0.4580
19222THY    HP164125   0.313   8.895   4.695  0.7825 -1.1254 -0.0097
19222THY    CP264126   0.481   8.896   4.836  0.3705  0.2102  0.5408
19222THY    HP264127   0.423   8.925   4.924 -1.5178 -1.2019  1.2270
19222THY    HP364128   0.580   8.941   4.848 -0.6316  2.7957  2.2943
19222THY    HP464129   0.503   8.788   4.841  1.7164 -0.4182  0.7697
19222THY    CP364130   0.486   8.889   4.575  1.1022  0.3242  0.6298
19222THY    HP564131   0.466   8.783   4.555 -0.7683 -1.6957  1.2750
19222THY    HP664132   0.595   8.900   4.573  1.8150 -2.8929 -3.9236
19222THY    HP764133   0.432   8.949   4.500  1.3408  0.8865  1.5697
19222THY    CA364134   0.497   9.178   4.663 -0.2266 -0.1081 -0.5523
19222THY    HA364135   0.585   9.144   4.609 -1.1452 -0.7728 -1.9672
19222THY    CA464136   0.465   9.320   4.658 -1.0560 -0.3698 -0.3836
19222THY    HA464137   0.531   9.383   4.599  0.4757 -0.7235 -2.2370
19222THY    CA564138   0.350   9.377   4.709  0.8385 -0.5070 -0.7829
19222THY    CM164139   0.323   9.527   4.671 -1.0424 -0.5281  0.4965
19222THY    HM164140   0.418   9.578   4.690 -0.9398 -2.1872  0.9643
19222THY    HM264141   0.234   9.560   4.727 -2.8830 -0.4665 -3.8635
19222THY    HM364142   0.292   9.533   4.566  0.9171 -1.0603  2.8303
19222THY    CA664143   0.250   9.296   4.765 -0.6860  0.1775  0.2394
19222THY    HA664144   0.152   9.336   4.788 -0.7434  0.3709 -0.0150
19223THY      O64145   2.811   2.456   4.865 -0.1121  0.2324 -0.6656
19223THY     HO64146   2.743   2.483   4.929 -1.0873 -1.5145  1.4243
19223THY    CA164147   2.866   2.571   4.824  0.3818 -1.0139 -0.5511
19223THY    CA264148   2.876   2.595   4.685 -0.9845 -0.1280 -0.0919
19223THY    CP164149   2.820   2.493   4.586 -0.2743 -0.7510  0.4388
19223THY    HP164150   2.844   2.394   4.627 -0.9498 -1.1524  0.0987
19223THY    CP264151   2.898   2.492   4.449  0.1647 -0.5107  0.6257
19223THY    HP264152   2.833   2.428   4.388 -1.7623  2.4798 -0.4944
19223THY    HP364153   2.996   2.452   4.476 -0.6210  2.0957  0.2637
19223THY    HP464154   2.902   2.594   4.409 -1.7229 -2.0425  0.1730
19223THY    CP364155   2.666   2.517   4.569  0.3180  0.1627 -0.3199
19223THY    HP564156   2.618   2.435   4.513  1.6188 -1.2387 -0.1713
19223THY    HP664157   2.651   2.610   4.513 -0.9445  0.6179 -0.2239
19223THY    HP764158   2.616   2.527   4.666 -1.2004 -0.6119 -0.0051
19223THY    CA364159   2.943   2.718   4.650 -0.2717  0.0109 -0.4063
19223THY    HA364160   2.955   2.749   4.546 -0.3060  0.4623  1.1873
19223THY    CA464161   2.978   2.813   4.753  0.0184  0.7621 -0.0753
19223THY    HA464162   3.024   2.908   4.727  1.1180  3.5355  0.2534
19223THY    CA564163   2.961   2.783   4.886 -0.1831 -0.3777 -0.6303
19223THY    CM164164   2.995   2.889   4.993  0.2083  0.0680 -0.5521
19223THY    HM164165   3.051   2.832   5.068  1.0637 -1.3087 -1.5692
19223THY    HM264166   2.902   2.936   5.027 -0.4743 -1.1604 -0.9724
19223THY    HM364167   3.059   2.969   4.953  0.5688 -0.9645 -1.3381
19223THY    CA664168   2.901   2.670   4.927 -0.0532 -0.1960  0.5195
19223THY    HA664169   2.892   2.646   5.032  1.1160 -0.3850 -0.9055
19224THY      O64170   7.836   2.671   3.093 -0.0996 -0.7224 -0.0753
19224THY     HO64171   7.807   2.609   3.024  1.8617 -1.8265  0.1516
19224THY    CA164172   7.935   2.606   3.170  0.2014 -0.4998 -0.2441
19224THY    CA264173   8.040   2.684   3.231  0.1790  0.0557  0.0837
19224THY    CP164174   8.033   2.842   3.223  0.7270  0.1229 -0.4926
19224THY    HP164175   7.943   2.868   3.166  0.0705  0.5764 -1.6993
19224THY    CP264176   8.157   2.890   3.148  0.2521  0.0187  0.3883
19224THY    HP264177   8.150   2.991   3.106 -1.1934 -0.3877  0.1424
19224THY    HP364178   8.173   2.822   3.063 -0.5330  0.4567 -0.3720
19224THY    HP464179   8.250   2.891   3.206 -0.0563  0.5908 -1.1654
19224THY    CP364180   8.034   2.896   3.365 -0.1302  0.7800 -0.3501
19224THY    HP564181   8.043   3.005   3.355 -1.3266  0.0226 -0.3057
19224THY    HP664182   8.124   2.865   3.421  1.9257 -1.5634  1.0374
19224THY    HP764183   7.938   2.870   3.410 -1.0030 -0.2732  0.9577
19224THY    CA364184   8.144   2.617   3.300  0.1066 -0.1875 -0.1668
19224THY    HA364185   8.224   2.676   3.343 -2.3875  1.3167  2.3537
19224THY    CA464186   8.145   2.479   3.302  0.0774 -0.2141 -0.0279
19224THY    HA464187   8.223   2.428   3.359 -1.7048  0.0620 -2.6505
19224THY    CA564188   8.043   2.406   3.239  0.3532 -0.0466 -0.2106
19224THY    CM164189   8.039   2.250   3.247 -0.0522 -0.1486 -0.3254
19224THY    HM164190   8.036   2.218   3.352 -2.7832  0.8459  2.6092
19224THY    HM264191   8.103   2.188   3.184  0.3827 -0.6787  0.6410
19224THY    HM364192   7.947   2.209   3.204 -0.2964  0.8856 -0.9049
19224THY    CA664193   7.944   2.467   3.170 -0.1056  0.4359  0.0653
19224THY    HA664194   7.871   2.411   3.112 -0.9134 -0.3205  1.7942
19225THY      O64195   2.793   3.147   6.175  0.2453 -0.3422 -0.0439
19225THY     HO64196   2.745   3.151   6.090  0.9273 -0.7979 -1.2699
19225THY    CA164197   2.744   3.031   6.230  0.0078  1.0255 -0.2319
19225THY    CA264198   2.802   2.985   6.353  0.6196  0.3888 -0.5422
19225THY    CP164199   2.921   3.056   6.413  0.3082 -0.4639  0.1106
19225THY    HP164200   2.919   3.163   6.388  0.9311  2.3852  0.8822
19225THY    CP264201   3.053   3.000   6.358  0.2439 -0.1649  0.7601
19225THY    HP264202   3.049   2.948   6.262  1.2185  1.0770 -1.7918
19225THY    HP364203   3.090   2.919   6.422 -0.1824  1.9004  2.0901
19225THY    HP464204   3.133   3.074   6.346  0.6690  1.6563  0.6511
19225THY    CP364205   2.943   3.058   6.568  0.2696 -0.7012  0.3931
19225THY    HP564206   2.970   2.962   6.612  0.2783 -0.1621  0.6409
19225THY    HP664207   2.856   3.085   6.630  1.2630  0.7032  0.4120
19225THY    HP764208   3.022   3.132   6.585  0.4636 -2.5056  0.6578
19225THY    CA364209   2.745   2.875   6.423 -0.4686 -0.2929 -1.2843
19225THY    HA364210   2.790   2.849   6.518 -3.3853  2.0337  1.3042
19225THY    CA464211   2.623   2.822   6.381 -0.7951  1.3462  0.1108
19225THY    HA464212   2.580   2.741   6.440  1.8945 -0.9792 -3.2372
19225THY    CA564213   2.572   2.865   6.254 -0.2943 -1.0764 -0.0668
19225THY    CM164214   2.443   2.790   6.207 -0.4460  0.6368 -0.3263
19225THY    HM164215   2.359   2.854   6.236  0.3405 -0.3810  1.2391
19225THY    HM264216   2.421   2.710   6.278 -0.6243  0.6861 -0.2347
19225THY    HM364217   2.434   2.753   6.104  2.5367  0.3412 -0.4488
19225THY    CA664218   2.629   2.972   6.180 -0.1661  0.0341 -0.5979
19225THY    HA664219   2.575   3.014   6.096 -0.0150 -0.5419 -1.5125
19226THY      O64220   4.364   2.957   5.103  0.1050  0.2680 -0.1201
19226THY     HO64221   4.372   2.867   5.139  0.4924 -0.8495 -0.5507
19226THY    CA164222   4.490   2.991   5.071  0.5692 -0.2441 -0.6201
19226THY    CA264223   4.529   3.054   4.951  0.5917  0.6061 -0.2844
19226THY    CP164224   4.422   3.081   4.840  0.3993 -0.2495 -0.1164
19226THY    HP164225   4.336   3.013   4.848 -1.2745  0.1331  1.9317
19226THY    CP264226   4.482   3.070   4.699  0.3299  0.6068 -0.3703
19226THY    HP264227   4.547   3.157   4.683  1.6277 -0.5946 -1.5149
19226THY    HP364228   4.409   3.076   4.617  1.9326 -0.8641 -0.2953
19226THY    HP464229   4.533   2.974   4.688 -0.2683  0.1140 -0.6357
19226THY    CP364230   4.351   3.216   4.863  0.2231 -0.0917 -0.2714
19226THY    HP564231   4.260   3.214   4.803  0.2755 -0.1760 -0.1285
19226THY    HP664232   4.424   3.294   4.839  0.1075 -1.5057 -0.5839
19226THY    HP764233   4.320   3.205   4.968  1.1567  0.0415 -1.9202
19226THY    CA364234   4.653   3.114   4.943 -0.7722 -0.2401 -0.5943
19226THY    HA364235   4.680   3.177   4.859 -1.5259 -0.8523 -1.0731
19226THY    CA464236   4.742   3.101   5.050  0.1020  0.0381 -0.7887
19226THY    HA464237   4.835   3.157   5.058  0.3946 -2.1373 -0.8859
19226THY    CA564238   4.706   3.023   5.162  0.4546  0.2313 -0.3980
19226THY    CM164239   4.807   2.998   5.273 -0.4257 -0.4483 -0.3878
19226THY    HM164240   4.779   2.928   5.353  0.3104 -0.4331 -0.6765
19226THY    HM264241   4.817   3.086   5.337  0.1511  1.3271 -1.6796
19226THY    HM364242   4.910   2.981   5.239 -0.7136 -1.0926 -0.8810
19226THY    CA664243   4.580   2.980   5.182 -0.1948  0.1829  0.0503
19226THY    HA664244   4.557   2.930   5.276 -0.2167 -0.7022 -1.6606
19227THY      O64245   7.576   3.482   2.459  0.4685  0.0926  0.1097
19227THY     HO64246   7.635   3.442   2.525  0.0057  0.6302  0.2968
19227THY    CA164247   7.473   3.533   2.531 -0.6750  0.5381  0.1230
19227THY    CA264248   7.419   3.660   2.501 -0.2550  0.6187  0.0266
19227THY    CP164249   7.466   3.746   2.386  0.1419 -0.5915 -0.1393
19227THY    HP164250   7.517   3.678   2.316 -1.5709 -0.3298 -1.7737
19227THY    CP264251   7.565   3.851   2.433 -0.9037 -0.6116 -0.1934
19227THY    HP264252   7.601   3.919   2.355 -1.3485 -1.0309 -0.4385
19227THY    HP364253   7.659   3.807   2.468 -0.9308  3.3670  2.3786
19227THY    HP464254   7.525   3.901   2.522  0.1776 -0.7548  0.9869
19227THY    CP364255   7.358   3.820   2.303  0.1353  0.3700 -0.3750
19227THY    HP564256   7.398   3.900   2.240  1.9293  0.3642 -1.2338
19227THY    HP664257   7.285   3.861   2.374 -1.0043 -0.9944  0.0315
19227THY    HP764258   7.299   3.757   2.236 -2.7611  3.0661 -0.7907
19227THY    CA364259   7.316   3.704   2.589  0.4425 -0.0283  0.7487
19227THY    HA364260   7.260   3.797   2.580 -1.2766 -1.7978 -0.3745
19227THY    CA464261   7.283   3.632   2.707  0.5923  0.5794  0.5339
19227THY    HA464262   7.201   3.670   2.768  0.4621  0.9394 -0.3027
19227THY    CA564263   7.343   3.507   2.731 -0.3922  0.3030  0.1815
19227THY    CM164264   7.303   3.427   2.850 -0.1056  0.4568 -0.3814
19227THY    HM164265   7.212   3.465   2.897 -1.1374 -0.3911 -1.6828
19227THY    HM264266   7.379   3.427   2.930 -1.9091  2.2663  0.5691
19227THY    HM364267   7.285   3.321   2.826  1.5419  0.9334 -0.8119
19227THY    CA664268   7.435   3.456   2.642 -0.3582  0.2587  0.0031
19227THY    HA664269   7.482   3.360   2.662  0.9817 -2.6974 -0.0640
19228THY      O64270   4.430   4.071   5.821  0.0455  0.5596 -0.3181
19228THY     HO64271   4.446   4.107   5.732  2.0189  1.0876  0.2348
19228THY    CA164272   4.431   3.934   5.804  0.1091  0.1954  0.2109
19228THY    CA264273   4.413   3.849   5.914  0.2329  0.1768  0.3049
19228THY    CP164274   4.373   3.906   6.050 -0.1309  0.0551  0.2670
19228THY    HP164275   4.381   4.015   6.054  1.7192  0.3193  0.1632
19228THY    CP264276   4.471   3.853   6.149 -0.6042 -0.0438  0.2135
19228THY    HP264277   4.437   3.879   6.250  0.8356  0.5009  0.0629
19228THY    HP364278   4.572   3.893   6.136  0.1874 -0.1866 -1.7180
19228THY    HP464279   4.478   3.744   6.142 -1.9110  0.6759  0.0607
19228THY    CP364280   4.229   3.876   6.093  0.3742  0.4538  0.3083
19228THY    HP564281   4.160   3.924   6.023  0.9604 -0.8393 -0.6615
19228THY    HP664282   4.200   3.895   6.197  3.3745  1.4430  0.0255
19228THY    HP764283   4.217   3.768   6.078  2.8247  4.0750 -0.6599
19228THY    CA364284   4.422   3.706   5.892  0.9050  1.1924 -0.4486
19228THY    HA364285   4.409   3.635   5.973 -1.1431  1.4014  0.0870
19228THY    CA464286   4.428   3.651   5.762 -0.3654  0.2303 -0.7756
19228THY    HA464287   4.436   3.544   5.743  2.5762 -1.5149 -0.3384
19228THY    CA564288   4.453   3.739   5.652 -1.0484 -0.4599  0.7549
19228THY    CM164289   4.484   3.684   5.519  0.3093  0.6647 -0.0009
19228THY    HM164290   4.391   3.662   5.465  0.6158 -0.9058  2.2614
19228THY    HM264291   4.540   3.590   5.516 -0.3727 -1.6817 -0.3784
19228THY    HM364292   4.539   3.763   5.468 -1.1057 -0.6597  0.1560
19228THY    CA664293   4.448   3.881   5.670 -0.1079 -0.4851  0.1440
19228THY    HA664294   4.464   3.947   5.585  1.3439  0.5028  1.1117
19229THY      O64295   0.364   7.923   3.674 -0.3866 -0.1336 -1.1197
19229THY     HO64296   0.272   7.945   3.698 -0.0174 -0.8960  1.6626
19229THY    CA164297   0.447   7.964   3.779 -0.3468  0.4156 -0.3003
19229THY    CA264298   0.577   7.924   3.784 -0.7078 -0.1473 -0.4721
19229THY    CP164299   0.640   7.835   3.676 -1.0607 -0.5124  0.5380
19229THY    HP164300   0.568   7.826   3.594 -0.0147 -1.8252  3.1573
19229THY    CP264301   0.688   7.697   3.725 -0.2925  0.3192 -0.6425
19229THY    HP264302   0.742   7.706   3.820 -3.1022  1.8577  1.7572
19229THY    HP364303   0.758   7.649   3.656  0.4060  1.2278 -0.9620
19229THY    HP464304   0.606   7.626   3.739  0.1341  1.3104 -0.9567
19229THY    CP364305   0.761   7.913   3.618 -0.0283 -0.4870  0.1282
19229THY    HP564306   0.734   7.994   3.550  0.0589 -1.6057 -0.7536
19229THY    HP664307   0.832   7.847   3.566 -0.3419 -0.4863 -0.2152
19229THY    HP764308   0.835   7.937   3.696  0.5213 -0.6091 -1.0982
19229THY    CA364309   0.659   7.953   3.900  0.2991 -0.1491  0.1426
19229THY    HA364310   0.760   7.916   3.911 -0.7112 -2.7880 -3.9993
19229THY    CA464311   0.607   8.041   3.998 -0.4913 -0.0297  0.8320
19229THY    HA464312   0.679   8.061   4.077  3.4505 -2.8052 -1.2448
19229THY    CA564313   0.462   8.067   3.997  0.4366  0.6789  0.2819
19229THY    CM164314   0.397   8.149   4.106  0.5481  0.4262 -0.1565
19229THY    HM164315   0.321   8.221   4.074  1.9566 -1.9207  0.3860
19229THY    HM264316   0.469   8.199   4.172 -0.5028 -0.1612  2.3054
19229THY    HM364317   0.338   8.082   4.170 -0.1366 -0.1223 -0.0861
19229THY    CA664318   0.383   8.035   3.884 -0.6116  0.1411  0.3552
19229THY    HA664319   0.280   8.070   3.882  0.3076  1.4051  3.4424
19230THY      O64320   4.689   3.053   6.204  0.4258  0.2771  0.1431
19230THY     HO64321   4.599   3.032   6.235  0.2268 -0.5036 -0.1969
19230THY    CA164322   4.774   3.069   6.310 -0.6465 -0.1533  0.1241
19230THY    CA264323   4.914   3.092   6.297 -0.1943 -0.1168  0.1088
19230THY    CP164324   4.991   3.082   6.165  0.4789  0.0123 -0.7332
19230THY    HP164325   4.924   3.071   6.079  1.6979 -0.7410 -2.8762
19230THY    CP264326   5.075   2.961   6.169  0.7076  0.8033 -0.6590
19230THY    HP264327   5.014   2.874   6.191  0.0915 -0.0977 -0.4736
19230THY    HP364328   5.154   2.966   6.244  0.8068  0.6818 -0.3367
19230THY    HP464329   5.119   2.955   6.068 -0.8234 -0.3406  3.5912
19230THY    CP364330   5.066   3.215   6.135 -0.0901  0.7900  0.6703
19230THY    HP564331   5.010   3.306   6.159  2.2068 -1.0931  2.7268
19230THY    HP664332   5.101   3.220   6.031 -0.4878  0.6918  1.7216
19230THY    HP764333   5.147   3.219   6.209  1.0272 -0.4328  1.9100
19230THY    CA364334   4.985   3.119   6.418  0.1546  0.0747  0.1259
19230THY    HA364335   5.092   3.129   6.424  0.1482  2.4790 -0.6778
19230THY    CA464336   4.914   3.147   6.538 -0.6724 -0.1999  0.2641
19230THY    HA464337   4.982   3.188   6.612  0.1486  0.1043 -1.5454
19230THY    CA564338   4.780   3.132   6.548 -0.3092 -0.2477 -0.3628
19230THY    CM164339   4.693   3.183   6.665  0.1273 -0.1412  0.0478
19230THY    HM164340   4.645   3.093   6.704  0.6846  3.6585  1.2275
19230THY    HM264341   4.608   3.245   6.634 -1.0550  1.6887 -0.5921
19230THY    HM364342   4.764   3.215   6.742 -0.2798  0.9792 -1.6651
19230THY    CA664343   4.714   3.087   6.430  0.2773 -0.0428 -0.2286
19230THY    HA664344   4.606   3.070   6.431  0.3620  2.5760 -1.1214
19231THY      O64345   2.410   1.519   5.032 -0.2816 -0.5898  0.0655
19231THY     HO64346   2.447   1.479   5.112  3.2238 -2.4629 -0.8517
19231THY    CA164347   2.474   1.639   5.010 -0.4221  0.1587 -0.0968
19231THY    CA264348   2.427   1.729   4.915  0.1064 -0.1288  0.3606
19231THY    CP164349   2.303   1.683   4.830 -0.2672 -0.3439 -0.4049
19231THY    HP164350   2.249   1.597   4.872  0.0664 -0.7890 -0.8410
19231THY    CP264351   2.339   1.634   4.683  0.4889  0.0223  0.6113
19231THY    HP264352   2.419   1.558   4.682  0.3670 -0.5440  0.4869
19231THY    HP364353   2.384   1.719   4.631  0.0200  0.0464  0.8745
19231THY    HP464354   2.253   1.588   4.633  0.6642  1.0907 -0.9753
19231THY    CP364355   2.197   1.790   4.809 -0.5103 -0.3694  0.6513
19231THY    HP564356   2.249   1.875   4.763 -1.1599 -2.2048  0.1007
19231THY    HP664357   2.158   1.827   4.905  0.7425  0.3918  0.0911
19231THY    HP764358   2.122   1.747   4.742 -0.8662  0.7765 -0.5776
19231THY    CA364359   2.489   1.858   4.908  0.3928  0.2502 -0.1820
19231THY    HA364360   2.455   1.939   4.845 -0.3273  1.0151  0.1259
19231THY    CA464361   2.613   1.885   4.972  0.2041  0.3911 -0.2814
19231THY    HA464362   2.677   1.972   4.960  0.9709  0.1557 -0.8690
19231THY    CA564363   2.657   1.788   5.064  0.2357  0.1728 -0.2475
19231THY    CM164364   2.786   1.813   5.137 -0.7993  0.0660 -0.5502
19231THY    HM164365   2.857   1.729   5.131 -0.6358 -1.9892 -0.2953
19231THY    HM264366   2.766   1.837   5.242  0.1933 -0.0919  1.1598
19231THY    HM364367   2.848   1.892   5.095  1.5730  1.8036 -1.3610
19231THY    CA664368   2.587   1.668   5.089  0.2309 -0.8711 -0.7233
19231THY    HA664369   2.628   1.598   5.162  1.5163 -2.0226 -1.2290
19232THY      O64370   2.420   7.178   6.835  0.1213  0.3015 -0.3159
19232THY     HO64371   2.475   7.134   6.902 -0.6766  0.1751 -1.5643
19232THY    CA164372   2.499   7.270   6.778 -0.0521 -0.3155  0.1075
19232THY    CA264373   2.471   7.335   6.656  0.9135  0.0265  0.1641
19232THY    CP164374   2.353   7.291   6.563  0.8021  0.1729 -0.6043
19232THY    HP164375   2.310   7.193   6.587  1.1503 -1.4329 -1.1731
19232THY    CP264376   2.411   7.279   6.422  0.5549  0.4507 -0.1550
19232THY    HP264377   2.328   7.259   6.353  0.5881  0.1930  0.5611
19232THY    HP364378   2.478   7.192   6.420 -0.4359  1.1126 -0.9565
19232THY    HP464379   2.464   7.365   6.379  0.6299 -1.4814 -1.1057
19232THY    CP364380   2.236   7.401   6.574  0.6476  0.3977 -0.4109
19232THY    HP564381   2.174   7.378   6.661 -0.7958 -0.4058  0.3482
19232THY    HP664382   2.178   7.404   6.481  1.3218 -0.0198 -0.0218
19232THY    HP764383   2.283   7.500   6.574 -2.6818  1.9893  1.3345
19232THY    CA364384   2.551   7.452   6.622 -0.1792  0.4301  0.9026
19232THY    HA364385   2.542   7.508   6.530  2.7540 -1.0325 -0.7757
19232THY    CA464386   2.657   7.489   6.697 -0.2227 -0.5936 -0.4985
19232THY    HA464387   2.709   7.583   6.685 -0.2076  2.8722  0.0442
19232THY    CA564388   2.680   7.420   6.820  0.1491  0.9573  0.3409
19232THY    CM164389   2.794   7.448   6.911  0.8310  0.5619 -0.2324
19232THY    HM164390   2.751   7.489   7.003  0.2123 -0.2136  0.9221
19232THY    HM264391   2.871   7.512   6.868  0.7411 -1.2977 -1.2774
19232THY    HM364392   2.842   7.353   6.938  0.6808  0.9530 -0.1992
19232THY    CA664393   2.603   7.311   6.856  0.7950  0.1004  0.5266
19232THY    HA664394   2.624   7.272   6.955 -0.0089  0.2674  0.4994
19233THY      O64395   6.942   7.634   3.193 -1.0004  0.1018 -0.1307
19233THY     HO64396   6.909   7.722   3.217 -2.1220 -0.2129 -0.4406
19233THY    CA164397   6.989   7.573   3.307  0.2716 -0.1940  0.4105
19233THY    CA264398   6.998   7.439   3.311 -0.3759 -0.4442  0.4036
19233THY    CP164399   6.976   7.356   3.184  0.3225 -0.3579  0.0618
19233THY    HP164400   6.994   7.422   3.098  1.4351 -0.8498 -0.8273
19233THY    CP264401   6.844   7.287   3.176 -0.0057  0.1342 -0.4755
19233THY    HP264402   6.834   7.235   3.272  1.5662  0.2326 -0.6475
19233THY    HP364403   6.844   7.226   3.084  0.0551 -0.8333  0.9532
19233THY    HP464404   6.761   7.357   3.166  0.2728  2.4667  0.2830
19233THY    CP364405   7.091   7.251   3.176  0.4847  0.3517 -0.0688
19233THY    HP564406   7.082   7.182   3.261 -2.0727  1.0910  1.0535
19233THY    HP664407   7.188   7.302   3.176  0.3181  1.0854  0.2728
19233THY    HP764408   7.093   7.199   3.080 -1.4489  0.8849 -1.2472
19233THY    CA364409   7.008   7.377   3.442  1.2489 -0.6308  0.3572
19233THY    HA364410   6.997   7.269   3.450 -0.9871  3.3755  0.7138
19233THY    CA464411   7.024   7.454   3.556 -0.5576 -0.0584  1.0506
19233THY    HA464412   7.035   7.393   3.645 -3.0429  0.2622  0.9913
19233THY    CA564413   7.028   7.589   3.553  0.0002  0.0537 -0.2439
19233THY    CM164414   7.046   7.665   3.684  0.8349  0.1556  0.1841
19233THY    HM164415   7.147   7.636   3.715  0.8177 -1.7736 -2.2514
19233THY    HM264416   6.987   7.637   3.772  1.5423  0.2414 -1.1423
19233THY    HM364417   7.052   7.774   3.671 -1.5207 -0.3672  0.3068
19233THY    CA664418   7.000   7.652   3.430 -0.0009  0.4163  0.4266
19233THY    HA664419   6.987   7.760   3.430  0.0648 -1.6684  0.4756
19234THY      O64420   0.853   6.692   3.776  0.5839  0.1282  0.1596
19234THY     HO64421   0.765   6.711   3.812  0.1858  0.1105 -1.5676
19234THY    CA164422   0.852   6.565   3.736 -0.7219  0.6384  0.2512
19234THY    CA264423   0.972   6.487   3.725 -0.1270  0.6364  0.1952
19234THY    CP164424   1.107   6.551   3.765  0.3133 -0.5608 -0.5048
19234THY    HP164425   1.111   6.657   3.736 -1.4607  1.0643  0.0757
19234THY    CP264426   1.228   6.487   3.706  0.1428 -0.3961  0.0243
19234THY    HP264427   1.225   6.475   3.597  1.3733 -0.3516 -0.9346
19234THY    HP364428   1.255   6.393   3.755 -1.4768  0.2775 -0.1264
19234THY    HP464429   1.317   6.549   3.724 -0.3222 -2.0093  1.2435
19234THY    CP364430   1.120   6.553   3.916  0.2474 -0.1594 -0.4372
19234THY    HP564431   1.026   6.593   3.955 -0.3721 -2.0421  0.0839
19234THY    HP664432   1.194   6.621   3.959 -0.7895 -0.6465  1.0642
19234THY    HP764433   1.136   6.451   3.952 -0.1825  0.1868 -0.3853
19234THY    CA364434   0.963   6.353   3.676 -0.3196  0.1249  0.6945
19234THY    HA364435   1.039   6.275   3.679 -1.7962 -1.1466 -0.8933
19234THY    CA464436   0.836   6.301   3.647 -0.2317 -0.7766  0.0403
19234THY    HA464437   0.814   6.195   3.632 -1.7459 -1.5467  0.4370
19234THY    CA564438   0.723   6.383   3.652  0.2300 -0.4493 -0.2792
19234THY    CM164439   0.583   6.330   3.616 -0.4161 -0.2131 -0.5573
19234THY    HM164440   0.594   6.309   3.508  1.5047 -0.8256  2.8965
19234THY    HM264441   0.510   6.410   3.630  1.5358  0.3389  1.2146
19234THY    HM364442   0.549   6.235   3.657  1.7866  1.3138 -0.7496
19234THY    CA664443   0.727   6.513   3.700 -0.1147 -0.5631  0.2044
19234THY    HA664444   0.636   6.568   3.721  0.8126 -0.7134  1.8677
19235THY      O64445   4.618   6.724   7.604 -0.1436  0.2271  0.0226
19235THY     HO64446   4.610   6.803   7.548  1.4200  0.0998  0.1067
19235THY    CA164447   4.584   6.618   7.521 -0.2765 -0.0828 -0.9779
19235THY    CA264448   4.573   6.485   7.565 -0.2799  0.2220 -0.2879
19235THY    CP164449   4.580   6.450   7.710  0.7434  0.3698 -0.5412
19235THY    HP164450   4.638   6.522   7.769 -0.9379  0.1939  1.0173
19235THY    CP264451   4.647   6.314   7.730 -0.0875 -0.1830  0.4144
19235THY    HP264452   4.747   6.308   7.686 -0.4017 -0.9793  0.8380
19235THY    HP364453   4.592   6.227   7.689 -0.8417  1.7213 -0.0517
19235THY    HP464454   4.656   6.297   7.838  1.2526 -0.3764 -0.2445
19235THY    CP364455   4.437   6.434   7.763 -0.3763 -0.0659  0.5263
19235THY    HP564456   4.372   6.371   7.701 -0.6647  2.0973 -1.4588
19235THY    HP664457   4.397   6.534   7.778  0.0313  1.1184  0.5313
19235THY    HP764458   4.438   6.392   7.864  0.9417 -1.0132 -1.9360
19235THY    CA364459   4.531   6.390   7.468 -1.2710  0.1988 -0.3315
19235THY    HA364460   4.511   6.286   7.494  0.6611 -1.9906 -1.3464
19235THY    CA464461   4.521   6.429   7.330  0.1022 -0.3855 -0.2123
19235THY    HA464462   4.490   6.353   7.259  2.3652 -0.6349 -0.9483
19235THY    CA564463   4.557   6.557   7.290 -0.0833 -0.0309 -0.0425
19235THY    CM164464   4.531   6.599   7.156 -0.3283  0.3532 -0.7924
19235THY    HM164465   4.608   6.673   7.128 -1.8790 -0.4026  0.6032
19235THY    HM264466   4.437   6.654   7.142  0.3661 -0.5750  0.1896
19235THY    HM364467   4.537   6.516   7.085 -0.4898 -0.0536 -0.4642
19235THY    CA664468   4.580   6.655   7.388  0.6685 -0.8786  0.4655
19235THY    HA664469   4.581   6.759   7.355 -0.7346 -0.2452  0.6943
19236THY      O64470   3.744   6.779   3.015  0.9032  0.0038  0.8030
19236THY     HO64471   3.837   6.753   3.018  0.2901  0.7052 -1.5638
19236THY    CA164472   3.729   6.823   2.894  0.2963  0.7034 -0.1117
19236THY    CA264473   3.612   6.841   2.821  0.4362 -1.0631 -0.3194
19236THY    CP164474   3.482   6.795   2.897  0.1207 -0.3292  0.1632
19236THY    HP164475   3.493   6.801   3.006 -0.3673 -0.0012 -2.9981
19236THY    CP264476   3.450   6.649   2.887  0.5342 -0.0255 -0.0820
19236THY    HP264477   3.471   6.620   2.783  2.2351  0.2115  0.1520
19236THY    HP364478   3.344   6.644   2.911  0.0314 -1.2472  2.8709
19236THY    HP464479   3.517   6.605   2.962 -0.9572  2.6028  1.8505
19236THY    CP364480   3.358   6.875   2.851  0.2795 -0.3812  0.2945
19236THY    HP564481   3.331   6.850   2.748  1.3350 -0.4524 -0.6556
19236THY    HP664482   3.382   6.982   2.858 -0.6548 -0.3273  0.5031
19236THY    HP764483   3.269   6.865   2.914 -0.7846 -1.7802  0.7628
19236THY    CA364484   3.617   6.892   2.687  1.0435  0.5594  0.4017
19236THY    HA364485   3.528   6.906   2.628  3.0813 -2.5697  1.0605
19236THY    CA464486   3.738   6.930   2.633  0.1690 -0.1588  1.0854
19236THY    HA464487   3.753   6.966   2.532 -0.5161 -0.6486  0.0344
19236THY    CA564488   3.857   6.901   2.703 -0.4531 -0.7574 -0.4610
19236THY    CM164489   3.990   6.940   2.637 -0.1558  0.2996  0.0362
19236THY    HM164490   4.036   6.868   2.569 -0.2128 -0.0225  0.2994
19236THY    HM264491   4.071   6.950   2.711  0.5965 -0.1371 -2.2972
19236THY    HM364492   3.986   7.034   2.580  1.1675  0.9992  0.5468
19236THY    CA664493   3.850   6.850   2.833  0.1345  0.5690 -0.0449
19236THY    HA664494   3.945   6.816   2.873  0.5345 -0.7798 -0.5510
19237THY      O64495   1.503   5.797   3.812 -0.4933  0.3780  1.1591
19237THY     HO64496   1.589   5.817   3.852  0.3642  0.6223 -2.3808
19237THY    CA164497   1.479   5.913   3.751 -0.1288  0.3380  0.3129
19237THY    CA264498   1.344   5.967   3.734 -0.0869 -0.1575 -0.9097
19237THY    CP164499   1.215   5.899   3.783  0.2471 -0.3140  0.2462
19237THY    HP164500   1.246   5.794   3.796  1.8548 -0.6628  0.6530
19237THY    CP264501   1.096   5.900   3.689 -0.3169  1.1917  0.2372
19237THY    HP264502   1.023   5.979   3.709 -0.1405 -1.2028  1.0809
19237THY    HP364503   1.046   5.802   3.687  1.7535 -1.9102 -0.8944
19237THY    HP464504   1.128   5.905   3.585 -0.0849  1.1954 -0.9071
19237THY    CP364505   1.179   5.952   3.924  0.0005 -0.0002  0.0399
19237THY    HP564506   1.265   5.938   3.990  0.0224 -0.0355  0.0096
19237THY    HP664507   1.086   5.904   3.957 -0.1235  2.6579  1.8731
19237THY    HP764508   1.157   6.060   3.917  0.7115 -1.9387  0.0959
19237THY    CA364509   1.326   6.094   3.676  0.1132  0.9439 -0.3122
19237THY    HA364510   1.224   6.123   3.653 -0.6031  2.1991 -1.7480
19237THY    CA464511   1.439   6.171   3.639  0.4996  0.7220  0.0620
19237THY    HA464512   1.423   6.262   3.582 -0.6081  0.1868 -0.4429
19237THY    CA564513   1.569   6.125   3.668  0.0195 -0.2081  0.6096
19237THY    CM164514   1.680   6.201   3.617 -0.2888 -0.4243  0.0972
19237THY    HM164515   1.763   6.179   3.684 -1.5502  1.9407  2.0450
19237THY    HM264516   1.668   6.309   3.632  0.5247  1.7983 -0.0879
19237THY    HM364517   1.698   6.185   3.510 -2.9785 -0.6584 -2.2073
19237THY    CA664518   1.590   5.998   3.719  1.0523 -0.4824  0.8858
19237THY    HA664519   1.691   5.960   3.732  1.5129 -2.5014  1.2712
19238THY      O64520   2.334   8.813   4.378 -0.0626  0.3174 -0.5548
19238THY     HO64521   2.259   8.808   4.440 -0.4172 -0.0019  0.4987
19238THY    CA164522   2.431   8.870   4.452 -0.4249 -0.6912 -0.5183
19238THY    CA264523   2.567   8.882   4.410 -1.0618 -0.5038 -0.1879
19238THY    CP164524   2.614   8.830   4.272 -0.2084  0.6685  0.3617
19238THY    HP164525   2.528   8.831   4.204 -0.9934  1.5905 -0.9782
19238THY    CP264526   2.659   8.683   4.287  0.1639  0.9236  0.6498
19238THY    HP264527   2.719   8.674   4.379  0.4633  0.8827  1.9937
19238THY    HP364528   2.702   8.637   4.197  1.1372  1.6651  0.0586
19238THY    HP464529   2.567   8.630   4.313 -1.8414 -0.7533  3.0904
19238THY    CP364530   2.722   8.918   4.217 -0.1053  0.0629  0.4149
19238THY    HP564531   2.731   8.912   4.108  0.1079  0.0488  0.9749
19238THY    HP664532   2.816   8.899   4.270 -0.1648 -0.3219 -1.0682
19238THY    HP764533   2.709   9.025   4.234 -0.9698 -1.2836  0.5443
19238THY    CA364534   2.653   8.956   4.491  0.0225 -0.4803 -0.3585
19238THY    HA364535   2.750   8.997   4.466 -0.7517  0.0661  1.9376
19238THY    CA464536   2.606   8.998   4.619  0.7191 -0.5185  1.1548
19238THY    HA464537   2.670   9.050   4.689 -1.1885  1.6297  0.7334
19238THY    CA564538   2.472   8.989   4.660  0.1829  0.1871  0.4470
19238THY    CM164539   2.430   9.055   4.789 -0.4494 -0.3129  0.1182
19238THY    HM164540   2.434   8.993   4.879  1.0386  0.7581  1.6578
19238THY    HM264541   2.336   9.110   4.777  0.7123 -0.8971  2.0961
19238THY    HM364542   2.508   9.128   4.812  2.0624  0.0543 -2.5047
19238THY    CA664543   2.385   8.915   4.580  0.1875 -0.2609  0.8079
19238THY    HA664544   2.285   8.900   4.618  0.2387 -0.9156 -1.5919
19239THY      O64545   1.686   7.813   7.223  0.2027  0.5766 -0.5948
19239THY     HO64546   1.702   7.906   7.246  4.5528 -0.4070 -0.8624
19239THY    CA164547   1.558   7.790   7.187 -0.0464  0.6055  0.5366
19239THY    CA264548   1.513   7.661   7.142  0.4279  0.1149 -0.2008
19239THY    CP164549   1.604   7.539   7.150 -0.0733  0.3003  0.0163
19239THY    HP164550   1.690   7.551   7.216  0.7025 -0.3000 -1.9051
19239THY    CP264551   1.654   7.498   7.008 -0.5303  0.0420  0.1927
19239THY    HP264552   1.577   7.449   6.948  0.2397 -0.6131 -0.2374
19239THY    HP364553   1.735   7.425   7.006 -1.9979  1.3597 -1.5685
19239THY    HP464554   1.695   7.580   6.948 -0.1628  0.2042  0.1271
19239THY    CP364555   1.553   7.414   7.218 -0.3548  0.2520  0.5036
19239THY    HP564556   1.627   7.334   7.218  0.3109  2.0469  1.0803
19239THY    HP664557   1.466   7.382   7.160  0.2510 -0.9818  1.0104
19239THY    HP764558   1.516   7.444   7.317  0.6014  0.4605  1.0254
19239THY    CA364559   1.378   7.648   7.090 -0.6871 -0.3158  0.1073
19239THY    HA364560   1.349   7.547   7.062  2.2029  0.6463 -1.0739
19239THY    CA464561   1.286   7.758   7.102  0.9218  0.0263 -0.0675
19239THY    HA464562   1.183   7.731   7.080  0.7031 -1.4180  1.7790
19239THY    CA564563   1.333   7.876   7.152  0.3404 -0.1079 -0.0859
19239THY    CM164564   1.231   7.991   7.151 -0.1299  0.1963  0.3333
19239THY    HM164565   1.166   7.987   7.239 -0.5551 -0.1819 -1.9930
19239THY    HM264566   1.170   7.990   7.059 -1.7111  1.2210 -0.0654
19239THY    HM364567   1.287   8.085   7.152  0.7060  0.1261 -0.1593
19239THY    CA664568   1.469   7.900   7.183 -0.5648 -0.4034  1.2109
19239THY    HA664569   1.501   8.000   7.211 -0.8348 -0.1053  1.2149
19240THY      O64570   8.131   7.409   6.702 -0.1902 -0.4697  0.3247
19240THY     HO64571   8.179   7.324   6.703  0.4942  1.0541  0.6846
19240THY    CA164572   8.020   7.406   6.770  0.7730 -0.2330 -0.1355
19240THY    CA264573   7.905   7.488   6.742 -0.6100  0.0584  0.5548
19240THY    CP164574   7.909   7.587   6.622 -0.2503  0.1342 -0.2410
19240THY    HP164575   7.997   7.581   6.558 -0.9220 -0.7775 -0.5011
19240THY    CP264576   7.894   7.732   6.662  0.8409  0.0840 -0.2232
19240THY    HP264577   7.971   7.759   6.735  1.5126 -0.4214 -0.7392
19240THY    HP364578   7.792   7.746   6.699  0.6492 -0.4778 -0.1051
19240THY    HP464579   7.896   7.791   6.569  0.0167 -0.7568 -1.4543
19240THY    CP364580   7.802   7.552   6.513 -0.1101 -0.7223 -0.0453
19240THY    HP564581   7.707   7.534   6.564  0.6875  0.3709 -1.3927
19240THY    HP664582   7.829   7.449   6.488  1.4942 -0.2529  0.2367
19240THY    HP764583   7.795   7.609   6.419  0.1292 -0.6156  0.1636
19240THY    CA364584   7.790   7.475   6.821 -0.1666  0.4210 -0.0470
19240THY    HA364585   7.702   7.538   6.811  0.5605  0.2574  0.9709
19240THY    CA464586   7.796   7.389   6.933 -0.2086  0.9793 -0.5290
19240THY    HA464587   7.705   7.374   6.990 -2.2152 -2.1633 -1.4275
19240THY    CA564588   7.913   7.313   6.959  0.1330 -0.5185 -0.6308
19240THY    CM164589   7.916   7.218   7.073 -0.2575  0.0287  0.1749
19240THY    HM164590   7.823   7.226   7.130  0.3172  0.8367  1.2698
19240THY    HM264591   8.000   7.253   7.133  0.4931 -1.4739  1.0474
19240THY    HM364592   7.935   7.116   7.037  0.5713 -1.7705  0.9079
19240THY    CA664593   8.021   7.322   6.876  0.0435  0.0339 -0.0532
19240THY    HA664594   8.109   7.260   6.892 -0.9458  1.9806 -1.0484
19241THY      O64595   4.452   3.315   5.863  0.0582 -0.7418 -0.0431
19241THY     HO64596   4.542   3.298   5.896  0.3535 -1.8814 -0.7562
19241THY    CA164597   4.398   3.192   5.868 -0.6358  0.0654  0.5893
19241THY    CA264598   4.263   3.164   5.848 -0.5982  0.6291 -0.8460
19241THY    CP164599   4.172   3.282   5.817 -0.2425  0.1091 -0.1336
19241THY    HP164600   4.231   3.355   5.760 -2.3856 -1.1886  0.6872
19241THY    CP264601   4.126   3.355   5.940  0.6982 -0.6425  0.2214
19241THY    HP264602   4.212   3.414   5.973  0.1127 -1.2712  1.4649
19241THY    HP364603   4.091   3.275   6.006  0.1002 -2.3718 -1.0178
19241THY    HP464604   4.049   3.431   5.922  0.7135  0.6592  0.5664
19241THY    CP364605   4.044   3.241   5.736 -0.5807  0.3712  0.5476
19241THY    HP564606   3.967   3.198   5.802  1.0184  0.6889 -2.0268
19241THY    HP664607   4.078   3.182   5.650  0.0919  0.3665  0.9271
19241THY    HP764608   3.991   3.329   5.700  0.0944  0.3565  0.9570
19241THY    CA364609   4.205   3.038   5.874 -0.4748  0.1668  0.8092
19241THY    HA364610   4.099   3.016   5.868 -0.3053  0.2915 -0.0739
19241THY    CA464611   4.292   2.938   5.924 -0.4532  0.1074  0.1706
19241THY    HA464612   4.262   2.834   5.938  0.7241 -1.3971 -0.4206
19241THY    CA564613   4.432   2.959   5.930 -0.2942 -0.0802  0.0662
19241THY    CM164614   4.526   2.841   5.950 -0.2791  0.5009 -0.1927
19241THY    HM164615   4.486   2.759   6.010 -2.6591 -2.0593 -1.0704
19241THY    HM264616   4.626   2.870   5.985 -0.0753 -0.3337  0.1730
19241THY    HM364617   4.531   2.791   5.852  0.2340 -0.2670  1.2835
19241THY    CA664618   4.475   3.084   5.910 -1.1923  0.0348 -0.5384
19241THY    HA664619   4.583   3.100   5.914 -1.3057 -0.1264  0.3147
19242THY      O64620   0.858   4.707   3.885 -0.1640 -0.6921 -0.3031
19242THY     HO64621   0.764   4.682   3.882 -0.0579  0.5393 -0.9111
19242THY    CA164622   0.928   4.606   3.841 -0.7676  0.3471  0.4571
19242THY    CA264623   1.065   4.606   3.820  0.4106  0.2285 -0.2585
19242THY    CP164624   1.151   4.714   3.883 -0.3916 -0.0946 -0.6133
19242THY    HP164625   1.093   4.790   3.937 -1.4717 -2.5338  0.4432
19242THY    CP264626   1.224   4.805   3.777  0.3662  0.1392 -0.2203
19242THY    HP264627   1.175   4.903   3.778 -0.0315  0.2775 -0.4156
19242THY    HP364628   1.209   4.764   3.677 -0.4553  0.0129  0.3591
19242THY    HP464629   1.330   4.818   3.803  1.3353 -1.7362 -3.3294
19242THY    CP364630   1.249   4.652   3.982  0.0860 -0.3955  0.1710
19242THY    HP564631   1.328   4.725   4.002  2.6425 -1.0131 -2.2697
19242THY    HP664632   1.292   4.553   3.962  1.5492  0.4062  0.6166
19242THY    HP764633   1.195   4.643   4.077 -0.7149 -1.0152 -2.3048
19242THY    CA364634   1.127   4.500   3.746  0.3207  1.3023  0.3968
19242THY    HA364635   1.235   4.500   3.731  0.1516 -0.0656  0.5071
19242THY    CA464636   1.047   4.394   3.687 -0.2898  0.2050 -0.8887
19242THY    HA464637   1.079   4.316   3.618 -1.8066  0.6467 -1.9686
19242THY    CA564638   0.911   4.395   3.715  0.1464 -0.2951  0.5721
19242THY    CM164639   0.817   4.291   3.653  0.3265  0.4873  0.6530
19242THY    HM164640   0.823   4.202   3.716  2.4355 -0.9884 -0.3263
19242THY    HM264641   0.865   4.252   3.562  0.6336 -0.2678  2.6719
19242THY    HM364642   0.716   4.320   3.622  0.8178  0.4554  2.5044
19242THY    CA664643   0.853   4.498   3.790 -0.5929  0.3003  0.2196
19242THY    HA664644   0.747   4.498   3.815 -0.5009  0.7810 -1.3369
19243THY      O64645   4.154   0.905   3.482 -0.0437 -0.2141 -0.0801
19243THY     HO64646   4.136   0.999   3.465  1.3365  3.0078  0.9114
19243THY    CA164647   4.249   0.861   3.396 -0.2179  0.2642 -0.0186
19243THY    CA264648   4.310   0.732   3.410  0.0300  0.2391  0.9332
19243THY    CP164649   4.274   0.635   3.520  0.0420  0.6109  0.0595
19243THY    HP164650   4.178   0.662   3.566 -0.5867 -0.4072 -0.4025
19243THY    CP264651   4.369   0.635   3.634  0.4991 -0.2174 -0.7573
19243THY    HP264652   4.385   0.734   3.678 -0.6265  1.5701 -1.3186
19243THY    HP364653   4.462   0.583   3.607  1.7811 -0.0110  1.3154
19243THY    HP464654   4.318   0.580   3.714  0.0128  1.9284  2.5298
19243THY    CP364655   4.243   0.490   3.476  0.9921 -0.4095  0.2025
19243THY    HP564656   4.155   0.482   3.410  0.0217  1.0384 -1.9830
19243THY    HP664657   4.220   0.435   3.568 -0.0419  0.1776  1.5596
19243THY    HP764658   4.323   0.443   3.418 -0.1270 -3.3579  1.6131
19243THY    CA364659   4.405   0.692   3.311  0.3216 -1.0463  0.0722
19243THY    HA364660   4.454   0.595   3.311  1.6433  1.9345  0.6304
19243THY    CA464661   4.421   0.771   3.199  0.0973 -0.0941 -0.9456
19243THY    HA464662   4.483   0.749   3.113  1.5489  0.2044  1.6082
19243THY    CA564663   4.372   0.902   3.192  0.8230 -0.3002 -0.2723
19243THY    CM164664   4.413   0.989   3.070  0.1717  0.4356  0.0149
19243THY    HM164665   4.385   0.929   2.982 -2.2765  0.0012  1.6357
19243THY    HM264666   4.518   1.019   3.078 -0.2496 -0.5756  1.9202
19243THY    HM364667   4.341   1.071   3.063 -0.0695 -1.5535 -0.3229
19243THY    CA664668   4.286   0.944   3.294  0.6096 -0.2097 -0.8794
19243THY    HA664669   4.250   1.046   3.290 -0.4067  0.3029 -1.2083
19244THY      O64670   6.379   0.536   4.938  0.0315 -0.3458  0.1330
19244THY     HO64671   6.361   0.585   4.856 -1.5994 -0.1706 -0.1224
19244THY    CA164672   6.350   0.633   5.028  0.2488  0.1417 -0.6528
19244THY    CA264673   6.428   0.671   5.132 -0.7089  0.0749 -0.5085
19244THY    CP164674   6.544   0.582   5.174 -0.4428 -0.0433  0.5845
19244THY    HP164675   6.522   0.475   5.164 -0.9460  0.6382  0.6190
19244THY    CP264676   6.567   0.594   5.327 -1.1198  0.4595 -0.3160
19244THY    HP264677   6.484   0.555   5.386  0.7744  1.1525 -3.7257
19244THY    HP364678   6.600   0.697   5.344 -0.4860  0.8159 -0.5726
19244THY    HP464679   6.656   0.540   5.363 -2.2448  3.2004 -0.4892
19244THY    CP364680   6.668   0.620   5.092  0.2474  0.3442 -0.1415
19244THY    HP564681   6.689   0.718   5.135 -3.6547  2.8372 -0.1823
19244THY    HP664682   6.647   0.619   4.985 -1.1205  0.5896 -1.0614
19244THY    HP764683   6.749   0.549   5.114 -0.3710 -0.6066 -1.1699
19244THY    CA364684   6.393   0.787   5.201  0.4872  0.6894  0.2730
19244THY    HA364685   6.459   0.826   5.278  1.0962  0.8493 -1.0361
19244THY    CA464686   6.278   0.854   5.166  0.2472  0.3890 -0.3404
19244THY    HA464687   6.244   0.933   5.232  0.2464  2.5406 -2.0569
19244THY    CA564688   6.195   0.815   5.058 -0.3540  0.2806  0.7746
19244THY    CM164689   6.080   0.894   5.013  0.3258  0.4720  0.1432
19244THY    HM164690   6.096   0.918   4.907 -1.6428  0.1435  0.1533
19244THY    HM264691   6.075   0.987   5.071  0.2959  1.7749 -0.6514
19244THY    HM364692   5.987   0.840   5.033  0.2309  3.9842  1.3915
19244THY    CA664693   6.241   0.712   4.987 -0.0836  0.0769  0.7256
19244THY    HA664694   6.184   0.679   4.900  2.5692 -0.8194 -1.8896
19245THY      O64695   1.511   1.485   6.814  0.1514  0.7211  0.1564
19245THY     HO64696   1.444   1.425   6.851  1.3555 -0.1364 -1.8018
19245THY    CA164697   1.603   1.508   6.917 -0.1432  0.6829  0.1901
19245THY    CA264698   1.705   1.418   6.947  0.6174 -0.2453 -0.0260
19245THY    CP164699   1.719   1.290   6.862  0.0612 -0.3470  0.8233
19245THY    HP164700   1.627   1.285   6.803  0.9668 -1.9870  2.3346
19245THY    CP264701   1.738   1.158   6.942 -0.4416 -0.1930  0.4701
19245THY    HP264702   1.823   1.179   7.008 -1.0339 -0.0281  2.6439
19245THY    HP364703   1.753   1.080   6.868  0.7328  1.3426 -0.8307
19245THY    HP464704   1.645   1.144   6.999  0.6730  1.7452  0.5238
19245THY    CP364705   1.839   1.309   6.766  0.0065  0.4841  0.4262
19245THY    HP564706   1.861   1.216   6.713  1.2867  0.7780  0.5341
19245THY    HP664707   1.929   1.338   6.822  0.0041  0.7485 -0.0580
19245THY    HP764708   1.801   1.392   6.706  2.9998 -0.0423  1.5332
19245THY    CA364709   1.796   1.456   7.049  0.7761  0.0820  0.4207
19245THY    HA364710   1.884   1.395   7.070 -0.5985 -2.0758 -2.6236
19245THY    CA464711   1.788   1.583   7.105  0.8953 -0.3652 -0.0344
19245THY    HA464712   1.865   1.623   7.170 -0.6332  1.3949  0.1651
19245THY    CA564713   1.678   1.666   7.073  0.0528 -1.1745  0.2667
19245THY    CM164714   1.667   1.797   7.147 -0.2182 -0.0859  0.2372
19245THY    HM164715   1.572   1.805   7.200 -0.4625 -0.6089  0.8603
19245THY    HM264716   1.666   1.880   7.074  0.4862 -1.7321 -1.1402
19245THY    HM364717   1.751   1.801   7.217 -0.9404  0.7929  0.2130
19245THY    CA664718   1.585   1.628   6.984  1.2264 -0.0165  0.6290
19245THY    HA664719   1.510   1.701   6.955  0.2198  0.6405 -0.1110
19246THY      O64720   5.913   7.265   5.821 -0.0321  0.1200  0.7274
19246THY     HO64721   5.834   7.210   5.812  0.4551 -0.9010  0.1567
19246THY    CA164722   5.940   7.298   5.946 -0.3358  0.1391 -0.7439
19246THY    CA264723   6.008   7.419   5.975  0.6597 -0.2528  0.4686
19246THY    CP164724   6.048   7.519   5.868  0.3048  0.8189  0.2599
19246THY    HP164725   5.999   7.499   5.772  2.7130  0.0438 -2.5655
19246THY    CP264726   6.194   7.492   5.825 -0.2451  0.0470 -0.1813
19246THY    HP264727   6.198   7.393   5.778  0.2439  1.1221 -0.6879
19246THY    HP364728   6.252   7.467   5.914 -3.1401  2.2620  0.4834
19246THY    HP464729   6.238   7.568   5.759 -1.1940 -2.0171 -1.3382
19246THY    CP364730   6.024   7.660   5.908  0.1142 -0.0666 -0.0021
19246THY    HP564731   6.028   7.722   5.818  1.2588 -0.2486 -0.3185
19246THY    HP664732   6.106   7.692   5.974  0.4517 -0.0926 -0.7893
19246THY    HP764733   5.929   7.672   5.962  0.6188  0.5855  1.2996
19246THY    CA364734   6.043   7.449   6.109  0.0765 -0.6313  0.2660
19246THY    HA364735   6.101   7.537   6.136  1.2228 -3.1410  0.3631
19246THY    CA464736   6.011   7.362   6.212 -0.7535 -0.2073  0.0754
19246THY    HA464737   6.045   7.387   6.312  2.6300 -1.0874 -0.5322
19246THY    CA564738   5.931   7.247   6.181  0.0364 -0.4251 -0.4373
19246THY    CM164739   5.891   7.152   6.297  0.0245  0.3601 -0.2622
19246THY    HM164740   5.846   7.212   6.377 -1.7415  1.1768 -2.5445
19246THY    HM264741   5.981   7.103   6.338 -0.0867 -0.3154 -1.0440
19246THY    HM364742   5.813   7.079   6.275 -1.7339  2.2764  0.9183
19246THY    CA664743   5.897   7.214   6.053  0.3834  0.4560 -0.2634
19246THY    HA664744   5.835   7.129   6.028 -2.1924 -2.4445  2.2351
19247THY      O64745   3.408   7.744   5.767  0.4241  0.0649  0.5921
19247THY     HO64746   3.361   7.665   5.735  2.5809  1.1094 -1.2502
19247THY    CA164747   3.314   7.806   5.841  0.6691 -0.2890 -0.1712
19247THY    CA264748   3.338   7.933   5.906 -0.6313  0.3419 -0.8744
19247THY    CP164749   3.471   8.001   5.903 -0.2825 -0.1192 -0.4725
19247THY    HP164750   3.555   7.932   5.893  1.0437 -0.4373  1.1334
19247THY    CP264751   3.503   8.082   6.029  0.2868  0.5443 -0.2628
19247THY    HP264752   3.472   8.024   6.116 -1.5651 -1.1948 -2.0422
19247THY    HP364753   3.444   8.174   6.030  0.8134 -1.2239  0.1508
19247THY    HP464754   3.609   8.110   6.035  1.4580  0.5668 -4.1457
19247THY    CP364755   3.494   8.098   5.789  0.1677 -0.2136 -0.3963
19247THY    HP564756   3.592   8.144   5.771 -1.2338 -1.4666  2.3359
19247THY    HP664757   3.416   8.172   5.768 -0.6793 -0.5150 -1.3597
19247THY    HP764758   3.489   8.036   5.698 -2.5055 -1.7084  1.7626
19247THY    CA364759   3.231   7.994   5.976  0.2794  0.6033 -0.6488
19247THY    HA364760   3.243   8.092   6.020 -0.0170  0.3723 -0.5040
19247THY    CA464761   3.111   7.921   5.983 -1.1798 -0.1045  0.2903
19247THY    HA464762   3.030   7.954   6.048 -1.7197  0.1368 -1.3982
19247THY    CA564763   3.088   7.802   5.918  0.5293  0.1634 -0.5864
19247THY    CM164764   2.952   7.740   5.924  0.5161  0.5291 -0.3259
19247THY    HM164765   2.912   7.749   6.026 -0.7140  0.0485 -0.1459
19247THY    HM264766   2.933   7.636   5.895 -2.7692  0.2429  0.2370
19247THY    HM364767   2.885   7.793   5.855 -1.5968  0.0144 -3.4323
19247THY    CA664768   3.187   7.744   5.851 -0.4571  0.0419 -0.4131
19247THY    HA664769   3.168   7.656   5.790  0.2278 -2.8896  1.3363
19248THY      O64770   8.247   0.958   2.189  0.1298 -0.1196  0.1413
19248THY     HO64771   8.229   0.863   2.179  0.7955 -1.4814  0.1294
19248THY    CA164772   8.274   1.010   2.311 -0.0808  0.2871  0.1002
19248THY    CA264773   8.328   1.141   2.329 -0.3507  0.3898 -0.7900
19248THY    CP164774   8.355   1.234   2.206 -0.7735  0.2853  0.5108
19248THY    HP164775   8.293   1.202   2.122 -1.6355  0.6319  1.2355
19248THY    CP264776   8.501   1.221   2.156 -0.6932 -0.6318  0.1232
19248THY    HP264777   8.573   1.238   2.237  0.6499 -1.5691 -0.8564
19248THY    HP364778   8.523   1.291   2.075  2.3148 -0.6139 -0.6584
19248THY    HP464779   8.520   1.122   2.112 -1.0855 -1.7623  0.5414
19248THY    CP364780   8.329   1.386   2.219  0.9052 -0.4574 -0.1274
19248THY    HP564781   8.229   1.401   2.263 -0.4211 -2.8219 -1.4391
19248THY    HP664782   8.314   1.438   2.124 -1.3078  0.5586  1.2772
19248THY    HP764783   8.406   1.434   2.280 -1.2321  1.9723  0.4565
19248THY    CA364784   8.350   1.183   2.458  0.4442  0.4099  0.1461
19248THY    HA364785   8.375   1.289   2.470  2.4369 -2.4987  0.1237
19248THY    CA464786   8.322   1.100   2.572 -0.5142  0.1331 -0.1746
19248THY    HA464787   8.338   1.138   2.672 -2.5709 -0.1281  1.6347
19248THY    CA564788   8.269   0.965   2.548 -0.6269  0.5599 -1.0387
19248THY    CM164789   8.248   0.874   2.674  0.1896 -0.4102  0.3150
19248THY    HM164790   8.153   0.819   2.679 -0.4243 -0.3523  1.3655
19248THY    HM264791   8.250   0.928   2.769  0.7530 -0.8304  1.0482
19248THY    HM364792   8.324   0.795   2.672  0.4079  0.3021  0.5044
19248THY    CA664793   8.239   0.920   2.417 -1.2279 -0.5059  0.0440
19248THY    HA664794   8.205   0.818   2.403  0.1414  0.9126 -0.6522
19249THY      O64795   5.558   0.566   5.114  0.4102  0.2950 -0.1894
19249THY     HO64796   5.555   0.490   5.175 -0.7863 -1.6046 -1.7558
19249THY    CA164797   5.672   0.552   5.041 -0.4616 -0.3327 -0.4343
19249THY    CA264798   5.678   0.582   4.907 -0.1428 -0.0974 -0.6792
19249THY    CP164799   5.555   0.647   4.838 -0.0077 -0.2710 -0.1676
19249THY    HP164800   5.459   0.614   4.879  0.0671 -0.6251 -0.8460
19249THY    CP264801   5.545   0.621   4.689  0.1157 -0.6393 -0.2249
19249THY    HP264802   5.443   0.622   4.649 -0.4193  0.5969 -1.3784
19249THY    HP364803   5.570   0.515   4.673 -1.7660 -1.3278 -0.6001
19249THY    HP464804   5.618   0.682   4.635  1.0161  0.6488 -0.1354
19249THY    CP364805   5.560   0.800   4.870  0.0406  0.1937 -0.5355
19249THY    HP564806   5.547   0.808   4.979 -0.8993  0.3515 -3.0555
19249THY    HP664807   5.476   0.841   4.812  0.3776  0.9989  1.4076
19249THY    HP764808   5.646   0.857   4.835 -0.6925  0.3262  0.6874
19249THY    CA364809   5.804   0.583   4.844  0.4664 -0.2152  0.8767
19249THY    HA364810   5.813   0.609   4.739 -3.4933 -1.2687 -1.2372
19249THY    CA464811   5.922   0.550   4.920  0.0429 -0.0933  0.1275
19249THY    HA464812   6.018   0.548   4.871 -0.0492 -0.2830  0.3881
19249THY    CA564813   5.906   0.497   5.051 -0.2396  0.4027  0.0099
19249THY    CM164814   6.018   0.438   5.129  0.7524 -0.9122  0.0173
19249THY    HM164815   6.062   0.354   5.075  0.3097 -0.3199 -0.6062
19249THY    HM264816   5.984   0.412   5.231 -2.2077 -1.0315  2.7633
19249THY    HM364817   6.096   0.514   5.135  0.9521 -4.4609  0.2266
19249THY    CA664818   5.782   0.506   5.110  0.1056 -0.6276  0.1556
19249THY    HA664819   5.773   0.478   5.214  1.4870  0.3085  2.8177
19250THY      O64820   2.310   7.859   5.733  0.1843  0.2027  0.0031
19250THY     HO64821   2.247   7.786   5.746  0.4129  0.5079 -0.1420
19250THY    CA164822   2.371   7.820   5.620 -0.8689  0.3041 -0.6108
19250THY    CA264823   2.504   7.870   5.580  0.9436 -0.4247  0.5267
19250THY    CP164824   2.583   7.971   5.661 -0.0062 -0.2199 -0.7222
19250THY    HP164825   2.514   8.054   5.681  1.7377 -0.5749  0.8773
19250THY    CP264826   2.700   8.040   5.582  0.5773 -0.3863 -0.5974
19250THY    HP264827   2.731   8.120   5.650  1.2820 -0.6536 -0.6432
19250THY    HP364828   2.659   8.077   5.488 -0.8866 -0.0752 -1.3239
19250THY    HP464829   2.785   7.976   5.559  1.2841 -1.6252  0.7340
19250THY    CP364830   2.640   7.912   5.787 -0.2847 -0.3209 -0.0051
19250THY    HP564831   2.687   7.817   5.759 -0.5605  2.1570 -0.9412
19250THY    HP664832   2.563   7.905   5.865  0.8849  0.8158 -0.9257
19250THY    HP764833   2.708   7.980   5.839 -0.4884 -0.1660  0.0808
19250THY    CA364834   2.562   7.806   5.465 -0.8173 -0.1144  0.8086
19250THY    HA364835   2.661   7.838   5.435 -0.7933  0.1004  0.9397
19250THY    CA464836   2.491   7.711   5.385 -0.1215 -0.7414 -0.1736
19250THY    HA464837   2.529   7.677   5.289 -0.6269 -1.9075  2.2652
19250THY    CA564838   2.365   7.669   5.429  1.0478  0.0473 -0.1618
19250THY    CM164839   2.303   7.557   5.352 -0.4293 -0.4705  0.0997
19250THY    HM164840   2.325   7.468   5.413 -1.1528 -0.8392 -0.3386
19250THY    HM264841   2.341   7.549   5.250 -1.0507 -0.5562 -3.1067
19250THY    HM364842   2.195   7.571   5.366 -0.1760  1.7684  0.2376
19250THY    CA664843   2.308   7.726   5.544 -0.4669  0.3572 -0.1458
19250THY    HA664844   2.207   7.696   5.572 -1.3723  0.1707  2.4901
19251THY      O64845   4.085   7.546   6.163 -0.3749  1.0964  0.0904
19251THY     HO64846   4.161   7.491   6.188 -1.1151  0.4497 -1.2612
19251THY    CA164847   4.086   7.663   6.230  0.3289  0.2218  0.2550
19251THY    CA264848   4.006   7.777   6.190  0.8070 -0.2737  0.4017
19251THY    CP164849   3.939   7.770   6.048 -0.0990  0.1335  0.3131
19251THY    HP164850   3.949   7.674   5.996 -2.1638  2.4573 -1.2766
19251THY    CP264851   4.000   7.874   5.957 -0.1768 -0.0960  0.2350
19251THY    HP264852   4.092   7.840   5.908 -0.4149 -0.8520  0.6805
19251THY    HP364853   4.030   7.969   6.004  2.3924 -1.0509 -0.0126
19251THY    HP464854   3.938   7.888   5.868  0.9895 -1.3078 -1.8236
19251THY    CP364855   3.796   7.794   6.055  0.1619 -0.2695  0.1423
19251THY    HP564856   3.774   7.898   6.081  0.5933  0.7492 -0.0133
19251THY    HP664857   3.745   7.730   6.127 -0.3377 -2.5440 -2.1879
19251THY    HP764858   3.759   7.765   5.956  1.7489 -0.9833  0.4418
19251THY    CA364859   3.997   7.883   6.286 -0.6820 -0.1598  0.5194
19251THY    HA364860   3.944   7.973   6.256 -1.8754 -2.0849 -0.7574
19251THY    CA464861   4.074   7.882   6.406 -0.4757 -0.6198  0.0995
19251THY    HA464862   4.064   7.962   6.479  0.2225  0.9042 -1.1404
19251THY    CA564863   4.149   7.773   6.440 -0.1910  0.5020 -0.1097
19251THY    CM164864   4.202   7.777   6.579 -0.4374  0.3596 -0.1582
19251THY    HM164865   4.278   7.701   6.602 -1.1343 -0.4850 -1.1377
19251THY    HM264866   4.121   7.760   6.650 -1.0648 -0.1923  0.4812
19251THY    HM364867   4.238   7.877   6.606 -2.6614  0.3659  0.6970
19251THY    CA664868   4.162   7.666   6.351 -0.1387 -0.1913  0.9081
19251THY    HA664869   4.218   7.577   6.379  1.1416  3.0029  2.5708
19252THY      O64870   8.765   1.004   7.371  0.6303  0.2605  0.4993
19252THY     HO64871   8.761   0.907   7.379 -0.2400  1.7813  0.6329
19252THY    CA164872   8.790   1.029   7.497  0.4107 -0.1032 -0.3216
19252THY    CA264873   8.853   1.150   7.535  0.1198 -0.0307  0.4836
19252THY    CP164874   8.902   1.244   7.428 -0.2487 -0.1623 -0.5009
19252THY    HP164875   8.894   1.210   7.324  1.9808 -1.6119  2.8378
19252THY    CP264876   9.048   1.297   7.439  0.1377  0.2242  0.1026
19252THY    HP264877   9.115   1.216   7.472  1.3504 -1.4215  0.3610
19252THY    HP364878   9.054   1.377   7.513  1.3036  0.2803 -0.0140
19252THY    HP464879   9.081   1.335   7.341  2.5447  0.2417 -1.6935
19252THY    CP364880   8.806   1.368   7.414 -0.4247  0.6344  0.0284
19252THY    HP564881   8.813   1.443   7.493  1.3274  0.0455  0.5198
19252THY    HP664882   8.705   1.325   7.417  0.3965  3.3894 -1.9633
19252THY    HP764883   8.821   1.412   7.315 -0.3771 -0.2680 -1.8772
19252THY    CA364884   8.880   1.170   7.665 -0.2344 -0.2714  0.4200
19252THY    HA364885   8.911   1.267   7.704 -1.6007  1.9887  0.0250
19252THY    CA464886   8.854   1.066   7.757 -0.1502  1.1935  0.1416
19252THY    HA464887   8.876   1.077   7.863  0.5044  1.0211  0.5776
19252THY    CA564888   8.797   0.941   7.721  0.6564  0.0528 -0.3070
19252THY    CM164889   8.780   0.829   7.815  0.2252  0.3983 -0.4187
19252THY    HM164890   8.675   0.820   7.846 -0.1181 -0.0658  1.6391
19252THY    HM264891   8.836   0.844   7.908 -0.0738  0.4898  0.1528
19252THY    HM364892   8.816   0.733   7.776  1.7795  2.8623 -0.9329
19252THY    CA664893   8.767   0.926   7.587  0.1720 -0.6589  0.3524
19252THY    HA664894   8.712   0.835   7.566  0.0063 -2.3429  0.8144
19253THY      O64895   1.053   2.427   2.640  0.4032  0.5134 -0.1945
19253THY     HO64896   0.999   2.364   2.590 -0.8906  0.3338  1.0001
19253THY    CA164897   0.959   2.511   2.689 -0.5731  0.2934  0.2636
19253THY    CA264898   0.971   2.539   2.829  0.2484  0.1695  0.7109
19253THY    CP164899   1.071   2.462   2.915  0.3328  0.1914 -0.2409
19253THY    HP164900   1.158   2.428   2.857  0.4067  0.5235 -0.6363
19253THY    CP264901   1.014   2.346   2.983 -0.1013 -0.3237 -0.4796
19253THY    HP264902   0.954   2.283   2.916  1.6219 -1.0002 -1.4679
19253THY    HP364903   0.960   2.384   3.071 -0.0787 -0.6669  0.3592
19253THY    HP464904   1.093   2.277   3.016 -0.9720 -2.0072 -2.3973
19253THY    CP364905   1.130   2.562   3.024 -0.6520 -0.0248 -0.0913
19253THY    HP564906   1.197   2.516   3.098  0.3875  0.1961  1.7022
19253THY    HP664907   1.054   2.607   3.089 -2.5086  0.5414 -3.6410
19253THY    HP764908   1.194   2.637   2.978  2.0119  0.6998 -1.7710
19253THY    CA364909   0.875   2.629   2.879  0.1963 -0.3202  0.4242
19253THY    HA364910   0.872   2.652   2.985 -2.2461  0.2055 -1.8943
19253THY    CA464911   0.776   2.689   2.797  0.1492  0.0577  0.5015
19253THY    HA464912   0.690   2.739   2.840 -1.5230 -0.3162 -1.8766
19253THY    CA564913   0.777   2.664   2.661  0.5547  0.6602  0.3193
19253THY    CM164914   0.679   2.726   2.570 -0.3949  1.0776  0.5475
19253THY    HM164915   0.705   2.723   2.464 -1.5363  0.8064 -0.8515
19253THY    HM264916   0.655   2.828   2.602 -0.3292  1.4305  0.4561
19253THY    HM364917   0.584   2.672   2.581 -0.5016 -0.9023  0.2761
19253THY    CA664918   0.870   2.574   2.610 -0.5560 -0.3239 -0.9822
19253THY    HA664919   0.865   2.562   2.502 -0.2348 -0.4839  0.1708
19254THY      O64920   2.511   5.992   5.841 -0.0510 -0.4185  0.4159
19254THY     HO64921   2.465   5.995   5.755 -0.3425 -0.2363  1.5190
19254THY    CA164922   2.441   6.057   5.934  0.0142 -0.3904 -0.1705
19254THY    CA264923   2.473   6.050   6.074 -0.0065  0.0396 -0.5859
19254THY    CP164924   2.587   5.957   6.118 -0.5812  0.2261 -0.4690
19254THY    HP164925   2.659   5.952   6.036 -0.9902 -0.1026 -1.1098
19254THY    CP264926   2.543   5.814   6.147  0.2336 -0.5582  0.4121
19254THY    HP264927   2.451   5.820   6.205  1.0420  0.8991 -0.7338
19254THY    HP364928   2.626   5.768   6.201 -0.5184 -0.4049 -0.8111
19254THY    HP464929   2.517   5.756   6.058 -0.9742 -0.0955  0.2080
19254THY    CP364930   2.656   6.015   6.238 -0.5639  0.5383 -0.2004
19254THY    HP564931   2.716   5.937   6.286  0.1491  1.7335  1.0361
19254THY    HP664932   2.596   6.042   6.326 -1.5321  0.2288 -1.3073
19254THY    HP764933   2.743   6.076   6.207  0.0537 -2.0707 -2.2230
19254THY    CA364934   2.388   6.123   6.164 -0.7114  0.1360  0.2894
19254THY    HA364935   2.404   6.106   6.270 -0.1971 -0.2598 -1.9654
19254THY    CA464936   2.291   6.208   6.113  0.5169 -0.2026  0.2814
19254THY    HA464937   2.239   6.268   6.187  0.2882  0.1735 -0.3779
19254THY    CA564938   2.282   6.227   5.982  0.4334 -0.0370 -0.6793
19254THY    CM164939   2.182   6.337   5.937  0.0192  0.7220 -0.3843
19254THY    HM164940   2.082   6.292   5.929  0.4381 -0.4774 -1.1403
19254THY    HM264941   2.208   6.378   5.839 -1.2591  0.2358 -0.6808
19254THY    HM364942   2.176   6.419   6.009 -2.5074  0.3871 -0.1744
19254THY    CA664943   2.344   6.149   5.890 -0.2212  0.3949 -0.4695
19254THY    HA664944   2.335   6.182   5.787  0.0327  0.6554  0.4376
19255THY      O64945   3.219   6.835   2.435 -0.8109 -0.0077 -0.4889
19255THY     HO64946   3.165   6.910   2.407 -2.7800  0.3943 -1.6959
19255THY    CA164947   3.282   6.796   2.317  0.1580 -0.3027 -0.2223
19255THY    CA264948   3.382   6.697   2.321 -0.5036 -0.4983 -0.5427
19255THY    CP164949   3.404   6.604   2.440 -0.4692 -0.5450 -0.9202
19255THY    HP164950   3.355   6.648   2.528 -0.2893 -1.1022  0.4439
19255THY    CP264951   3.544   6.580   2.483 -0.7075  0.2046 -0.6707
19255THY    HP264952   3.609   6.668   2.493 -2.3000  1.2033  0.4375
19255THY    HP364953   3.594   6.524   2.402 -2.3433 -2.6782  1.7725
19255THY    HP464954   3.541   6.524   2.577  1.0464  0.1328 -0.9534
19255THY    CP364955   3.327   6.477   2.407 -0.1172  0.4174  0.0703
19255THY    HP564956   3.226   6.493   2.368  0.4759 -1.2708 -0.0783
19255THY    HP664957   3.322   6.428   2.505 -2.7713  1.6825  2.5663
19255THY    HP764958   3.397   6.430   2.336  0.1719 -1.0046  2.5165
19255THY    CA364959   3.450   6.677   2.201 -0.4847 -0.3647  0.9790
19255THY    HA364960   3.525   6.601   2.188 -1.5484  0.0366 -0.1730
19255THY    CA464961   3.410   6.750   2.092 -0.3765  0.2690  0.0827
19255THY    HA464962   3.456   6.730   1.996  1.1292  0.6438  1.5540
19255THY    CA564963   3.325   6.860   2.097  0.5817  0.3759  0.7945
19255THY    CM164964   3.300   6.942   1.968  0.2333 -0.1716 -0.4787
19255THY    HM164965   3.386   7.009   1.957 -0.9039 -0.7539  0.9543
19255THY    HM264966   3.207   7.000   1.977  0.0769  0.7178 -0.8564
19255THY    HM364967   3.297   6.882   1.876  1.2952 -0.2139 -0.4850
19255THY    CA664968   3.260   6.880   2.214 -0.2219 -0.8115 -0.2819
19255THY    HA664969   3.180   6.953   2.224  0.0570 -0.4908 -0.0123
19256THY      O64970   2.524   1.360   5.238 -0.3000  0.4948  0.0031
19256THY     HO64971   2.570   1.380   5.322  0.7576  0.2739 -1.3628
19256THY    CA164972   2.488   1.225   5.245  0.2552 -0.3697 -0.3142
19256THY    CA264973   2.521   1.141   5.137  0.6462  0.3710  0.2550
19256THY    CP164974   2.589   1.195   5.017  0.5856  0.8077 -0.0222
19256THY    HP164975   2.631   1.294   5.038  1.8228 -2.5557  0.3077
19256THY    CP264976   2.502   1.211   4.893 -0.5530  0.7333  0.4479
19256THY    HP264977   2.427   1.291   4.903 -0.6900  0.4142  0.3622
19256THY    HP364978   2.447   1.121   4.862  0.1480 -0.3992  0.3916
19256THY    HP464979   2.558   1.231   4.801 -1.2165  0.6604  2.1718
19256THY    CP364980   2.708   1.118   4.975  0.4390  0.0372  0.6280
19256THY    HP564981   2.792   1.180   4.943 -0.1211 -1.0694  0.8480
19256THY    HP664982   2.676   1.041   4.904 -1.6111  1.6875 -0.1511
19256THY    HP764983   2.736   1.067   5.068 -2.8287 -0.2408 -2.0810
19256THY    CA364984   2.475   1.005   5.137  0.2033 -0.3210  0.5654
19256THY    HA364985   2.482   0.938   5.052 -2.0624 -0.2278  0.1402
19256THY    CA464986   2.415   0.955   5.253 -0.4046  0.3208 -0.0239
19256THY    HA464987   2.383   0.852   5.269 -2.4553 -0.3312  0.4640
19256THY    CA564988   2.384   1.044   5.367 -0.3665  0.1751  0.2200
19256THY    CM164989   2.332   0.982   5.494 -0.4559  0.1603 -0.3406
19256THY    HM164990   2.290   0.882   5.485 -0.4291  1.6531 -0.5041
19256THY    HM264991   2.253   1.044   5.538 -1.3393 -3.1274  1.1401
19256THY    HM364992   2.414   0.950   5.560 -0.9440  0.4957 -0.9119
19256THY    CA664993   2.428   1.178   5.359 -0.3377 -0.4148  0.3269
19256THY    HA664994   2.410   1.243   5.444 -0.4617  0.5448 -0.9340
19257THY      O64995   1.906   6.463   3.060  0.0240  0.3338 -0.6411
19257THY     HO64996   1.893   6.445   2.965  3.0100 -0.8379  2.3668
19257THY    CA164997   1.987   6.361   3.103 -0.3432  0.3457 -0.7237
19257THY    CA264998   2.052   6.360   3.227  0.3758  0.4716  0.1797
19257THY    CP164999   2.017   6.464   3.339 -0.3591 -0.4402  0.2959
19257THY    HP165000   1.916   6.507   3.338  0.1624 -1.2139  1.5645
19257THY    CP265001   2.106   6.577   3.324  0.1531  0.4787 -0.7164
19257THY    HP265002   2.066   6.660   3.383  1.1712  1.3970 -0.8492
19257THY    HP365003   2.121   6.607   3.219  0.5311  0.5541 -0.6337
19257THY    HP465004   2.208   6.556   3.359  0.4649  0.9252  1.3478
19257THY    CP365005   2.034   6.420   3.485  0.1348  0.4280  0.0968
19257THY    HP565006   2.140   6.405   3.508  0.3472 -0.6559 -0.1721
19257THY    HP665007   1.975   6.331   3.509  0.3061  2.2543  0.4411
19257THY    HP765008   1.998   6.500   3.550  0.4145  0.7748 -0.0547
19257THY    CA365009   2.150   6.257   3.251  0.5341  0.1182  0.4692
19257THY    HA365010   2.212   6.247   3.340  1.4709 -0.3103  2.1679
19257THY    CA465011   2.163   6.159   3.156 -0.2588  0.5398  0.0991
19257THY    HA465012   2.214   6.064   3.164 -1.0306  0.5048 -0.3225
19257THY    CA565013   2.103   6.162   3.037 -0.2070 -0.0292 -0.1817
19257THY    CM165014   2.138   6.060   2.931  0.3101  0.0129  0.2232
19257THY    HM165015   2.082   5.966   2.939 -2.8128 -3.6347  1.5062
19257THY    HM265016   2.244   6.031   2.938  0.5970  0.0360  1.2584
19257THY    HM365017   2.125   6.089   2.826  0.0000 -0.3764 -1.2468
19257THY    CA665018   2.027   6.268   3.003  0.3170  0.4125 -0.4853
19257THY    HA665019   1.987   6.276   2.902  0.4427  0.4446  0.7803
19258THY      O65020   4.015   1.625   5.521  0.5154 -0.0887 -0.1545
19258THY     HO65021   3.977   1.705   5.480 -1.3435 -0.6261 -1.2548
19258THY    CA165022   4.086   1.561   5.425  0.0279  0.3892 -0.5205
19258THY    CA265023   4.209   1.500   5.452 -0.1237  0.2389 -0.5451
19258THY    CP165024   4.262   1.493   5.596 -1.0840  0.2422 -0.1104
19258THY    HP165025   4.175   1.491   5.663 -0.9644  0.3981 -0.2228
19258THY    CP265026   4.361   1.612   5.629 -0.1120  0.0132 -0.3374
19258THY    HP265027   4.459   1.596   5.583  0.2616  1.1870 -1.6164
19258THY    HP365028   4.382   1.621   5.736  0.7636  0.1132 -2.8447
19258THY    HP465029   4.311   1.702   5.590 -1.5251  2.1043 -0.1504
19258THY    CP365030   4.333   1.370   5.640  0.0206 -0.4285  0.6359
19258THY    HP565031   4.434   1.362   5.599  0.0669 -0.0926 -0.7273
19258THY    HP665032   4.285   1.279   5.601  1.5425  0.1640 -0.4611
19258THY    HP765033   4.332   1.362   5.749  0.9239 -0.3575  1.3917
19258THY    CA365034   4.284   1.448   5.344  0.6043  0.0082  0.2891
19258THY    HA365035   4.385   1.412   5.366  0.2359 -0.2576 -0.9570
19258THY    CA465036   4.233   1.445   5.214 -0.1908 -0.1436 -0.6339
19258THY    HA465037   4.298   1.415   5.132  0.8789  1.3922 -2.8167
19258THY    CA565038   4.113   1.508   5.190  0.4369  0.3650  0.0234
19258THY    CM165039   4.066   1.528   5.056  0.6359  0.7128  0.9034
19258THY    HM165040   4.031   1.436   5.007  0.4360 -0.6476  1.6703
19258THY    HM265041   4.139   1.586   4.999  0.2519 -0.3416  0.3748
19258THY    HM365042   3.978   1.593   5.043 -0.4156  1.3882 -0.3256
19258THY    CA665043   4.039   1.572   5.295 -0.2455  0.0201  0.4006
19258THY    HA665044   3.944   1.622   5.278  0.4077  0.1343  1.6948
19259THY      O65045   1.188   3.230   4.055 -0.6601  0.2227 -0.3404
19259THY     HO65046   1.212   3.321   4.081 -4.2621  4.4185 -0.2419
19259THY    CA165047   1.054   3.238   4.083  0.0707  0.1022  0.0577
19259THY    CA265048   0.998   3.143   4.170 -0.1974  0.1371  0.2746
19259THY    CP165049   1.079   3.026   4.232 -0.8006 -0.0748 -0.0901
19259THY    HP165050   1.181   3.038   4.194 -0.8253  0.2418  1.2381
19259THY    CP265051   1.033   2.889   4.195  0.2514  0.0180  0.6387
19259THY    HP265052   1.040   2.872   4.086 -0.9943  0.2765 -2.0810
19259THY    HP365053   0.926   2.885   4.219  0.2362  0.0369  1.0760
19259THY    HP465054   1.091   2.817   4.253 -0.1766  0.3658  0.5696
19259THY    CP365055   1.069   3.034   4.393 -0.5982  0.3317  0.1272
19259THY    HP565056   1.112   3.131   4.421  1.1075 -1.0097 -0.2150
19259THY    HP665057   1.136   2.967   4.448  1.9347 -0.2626  2.0106
19259THY    HP765058   0.963   3.025   4.420 -0.7821 -0.6309 -0.6624
19259THY    CA365059   0.860   3.151   4.202  0.3001  0.2664  0.6347
19259THY    HA365060   0.815   3.072   4.262 -1.9653 -1.4492  0.5051
19259THY    CA465061   0.781   3.256   4.150 -0.0991 -0.5656 -0.3058
19259THY    HA465062   0.673   3.257   4.163 -0.0925 -0.4265 -0.8962
19259THY    CA565063   0.843   3.357   4.070  0.0277  0.4715  0.1927
19259THY    CM165064   0.757   3.476   4.022 -0.3920 -0.7092  0.1022
19259THY    HM165065   0.822   3.565   4.022 -0.0508  0.5200 -0.1346
19259THY    HM265066   0.687   3.509   4.099 -0.0978  0.0578 -0.9889
19259THY    HM365067   0.714   3.442   3.927 -0.8383 -0.1872 -0.8334
19259THY    CA665068   0.975   3.337   4.031  0.0605  0.0825  0.2461
19259THY    HA665069   1.033   3.399   3.963 -0.5052 -1.0246 -0.4150
19260THY      O65070   0.752   4.559   6.131  0.2572 -0.1777  0.2897
19260THY     HO65071   0.809   4.616   6.077  2.8645  1.0345 -0.9684
19260THY    CA165072   0.636   4.528   6.067  0.3407  0.2996  0.4776
19260THY    CA265073   0.546   4.431   6.126 -0.6837  0.1994 -0.0261
19260THY    CP165074   0.574   4.361   6.262  0.6370  1.0944 -0.4700
19260THY    HP165075   0.679   4.379   6.287  0.6459 -0.1335  1.5134
19260THY    CP265076   0.566   4.211   6.246  0.4299 -0.1866 -0.4658
19260THY    HP265077   0.653   4.173   6.190  0.7245  1.0669 -1.6860
19260THY    HP365078   0.474   4.181   6.194  1.3145 -0.3169 -3.2463
19260THY    HP465079   0.570   4.169   6.347 -0.5681 -0.5617 -1.5028
19260THY    CP365080   0.485   4.415   6.375  0.7710 -0.0812 -0.3574
19260THY    HP565081   0.535   4.373   6.463  0.9519  0.4855  0.9991
19260THY    HP665082   0.379   4.385   6.371  0.5907 -0.1978  0.2953
19260THY    HP765083   0.495   4.524   6.375  0.2742 -1.7395 -0.2900
19260THY    CA365084   0.411   4.420   6.070  0.2847 -0.7508 -0.2712
19260THY    HA365085   0.340   4.375   6.139 -0.6259 -0.4636  1.5191
19260THY    CA465086   0.369   4.499   5.953 -0.3031 -0.3659  0.1841
19260THY    HA465087   0.265   4.489   5.923 -0.5936  0.4244  0.7039
19260THY    CA565088   0.467   4.585   5.896  0.3362 -0.4053  0.0301
19260THY    CM165089   0.425   4.661   5.769  0.1439 -0.4125  0.6996
19260THY    HM165090   0.340   4.727   5.789  0.5355  0.7334  0.8792
19260THY    HM265091   0.401   4.587   5.692 -0.2300  0.9293 -0.6109
19260THY    HM365092   0.507   4.717   5.721  2.2754 -0.1949 -2.0432
19260THY    CA665093   0.597   4.602   5.957  0.3083 -0.4393 -0.8131
19260THY    HA665094   0.662   4.674   5.907  0.2702 -1.2863 -1.3499
19261THY      O65095   1.593   3.161   5.384  0.4833 -0.0094 -0.4826
19261THY     HO65096   1.605   3.201   5.296  0.0196  0.4259  0.6537
19261THY    CA165097   1.710   3.171   5.455  0.0956 -0.0599 -0.3084
19261THY    CA265098   1.723   3.112   5.583  0.0558  0.4319  0.5398
19261THY    CP165099   1.614   3.033   5.654 -0.3794 -0.0668 -0.6781
19261THY    HP165100   1.523   3.035   5.592 -1.5928  1.6602  0.7076
19261THY    CP265101   1.567   3.119   5.773  0.6357  0.5024 -0.4096
19261THY    HP265102   1.458   3.105   5.772  1.0108 -0.2236 -4.5223
19261THY    HP365103   1.598   3.224   5.770  1.0999 -0.4854 -0.5579
19261THY    HP465104   1.596   3.089   5.874 -0.5337  1.7833  2.4349
19261THY    CP365105   1.658   2.890   5.695  0.7579 -0.0733 -0.6863
19261THY    HP565106   1.566   2.841   5.729 -1.4382  0.2365  3.2368
19261THY    HP665107   1.722   2.903   5.782  1.1314 -0.2148 -1.5644
19261THY    HP765108   1.698   2.842   5.605  0.3116 -0.4812 -0.3076
19261THY    CA365109   1.846   3.137   5.650 -0.3044 -0.4443 -1.0119
19261THY    HA365110   1.866   3.101   5.750  0.5671 -0.1554  0.2262
19261THY    CA465111   1.949   3.212   5.592  0.4024  0.7992  0.1348
19261THY    HA465112   2.032   3.240   5.655  1.0682 -0.2909  0.7000
19261THY    CA565113   1.930   3.272   5.466 -0.2171  0.3430 -0.1029
19261THY    CM165114   2.028   3.364   5.408 -0.8115  0.1263  0.1978
19261THY    HM165115   2.108   3.364   5.483 -1.8332  1.2481 -0.0344
19261THY    HM265116   1.992   3.466   5.395 -0.7159 -2.5161 -0.0358
19261THY    HM365117   2.071   3.332   5.312 -0.7654  0.1719  0.1236
19261THY    CA665118   1.809   3.252   5.399  0.2070 -0.1068 -0.6942
19261THY    HA665119   1.796   3.298   5.302 -0.3435 -0.6632 -1.9711
19262THY      O65120   4.303   5.512   4.868 -0.4134 -0.2380  0.1749
19262THY     HO65121   4.396   5.538   4.882 -0.6126  1.5677  0.0552
19262THY    CA165122   4.282   5.461   4.744 -0.4715 -0.1665  0.5051
19262THY    CA265123   4.182   5.507   4.663  0.4685  0.0325 -0.0410
19262THY    CP165124   4.071   5.603   4.725  0.2765 -0.4154  0.2936
19262THY    HP165125   4.117   5.651   4.812  0.7019 -0.1291 -0.6031
19262THY    CP265126   3.939   5.529   4.767 -0.4641 -0.2617 -0.2661
19262THY    HP265127   3.904   5.468   4.683  0.3068  1.4090 -3.1625
19262THY    HP365128   3.863   5.600   4.802  0.6488 -0.2739  0.9599
19262THY    HP465129   3.961   5.468   4.855  2.8736 -0.9728 -0.2590
19262THY    CP365130   4.023   5.712   4.626 -0.0945  0.0111  0.0109
19262THY    HP565131   3.961   5.796   4.658  1.9328  0.7874  1.2825
19262THY    HP665132   3.965   5.668   4.544 -0.1223  0.2579 -0.4120
19262THY    HP765133   4.112   5.758   4.582  0.4382  2.0613  1.0177
19262THY    CA365134   4.181   5.444   4.538 -0.0329  0.5443 -0.4654
19262THY    HA365135   4.093   5.467   4.478  0.4444  0.1815  0.4670
19262THY    CA465136   4.273   5.349   4.494  0.1072  0.2773  0.4798
19262THY    HA465137   4.249   5.291   4.405 -2.6946  0.3896  1.3099
19262THY    CA565138   4.375   5.310   4.580 -0.0897 -0.2948 -0.4960
19262THY    CM165139   4.485   5.213   4.548  0.0206 -0.1263 -0.8202
19262THY    HM165140   4.550   5.247   4.466 -0.5716 -0.4356 -0.4214
19262THY    HM265141   4.445   5.115   4.519  1.9706 -0.1471 -1.6632
19262THY    HM365142   4.555   5.195   4.630  2.1951 -2.0185 -1.4673
19262THY    CA665143   4.380   5.372   4.704  0.5801  0.3545 -1.0109
19262THY    HA665144   4.455   5.343   4.778  2.2699 -0.9015 -0.0474
19263THY      O65145   0.106   7.038   7.326 -0.0933  0.0240 -0.9291
19263THY     HO65146   0.107   6.947   7.361 -2.8477  0.5383 -0.8604
19263THY    CA165147   0.222   7.093   7.362 -0.1642  0.3604 -0.2988
19263THY    CA265148   0.235   7.235   7.366  0.9367 -0.2564 -0.5533
19263THY    CP165149   0.119   7.336   7.320  0.1438  0.3257  0.1254
19263THY    HP165150   0.029   7.279   7.295 -0.6572 -1.4204  2.0139
19263THY    CP265151   0.161   7.428   7.207  0.0407 -0.6729 -0.2734
19263THY    HP265152   0.074   7.476   7.160  1.4098 -1.8318  1.1454
19263THY    HP365153   0.208   7.364   7.132 -0.2155  0.2319 -1.5588
19263THY    HP465154   0.232   7.498   7.253 -1.6800  1.6976  0.0654
19263THY    CP365155   0.071   7.429   7.430 -0.1198  0.0209 -0.1455
19263THY    HP565156   0.017   7.364   7.500 -1.5975 -2.2198 -1.4656
19263THY    HP665157   0.013   7.511   7.386  3.4879 -3.6388  0.7894
19263THY    HP765158   0.151   7.477   7.488  0.3850 -0.2380 -0.6726
19263THY    CA365159   0.353   7.292   7.409  0.0073  0.5320  0.0163
19263THY    HA365160   0.370   7.400   7.402  1.1177 -3.1495 -0.2522
19263THY    CA465161   0.465   7.211   7.447 -0.0764  0.3331 -0.0680
19263THY    HA465162   0.554   7.260   7.485 -0.0679 -0.7134  0.7806
19263THY    CA565163   0.444   7.073   7.444 -0.7611  0.1560  0.0463
19263THY    CM165164   0.551   6.983   7.480  0.2707 -0.6410  0.5984
19263THY    HM165165   0.583   6.924   7.393  1.7990  0.9748 -1.0908
19263THY    HM265166   0.522   6.931   7.572  0.4929 -0.3252  1.0228
19263THY    HM365167   0.636   7.047   7.507  1.7147  0.5783 -1.6864
19263THY    CA665168   0.324   7.016   7.404 -0.1552  0.1622  0.3686
19263THY    HA665169   0.308   6.909   7.411  0.6179 -2.8771 -0.0418
19264THY      O65170   2.681   4.987   5.865  0.3172 -0.4615  0.1705
19264THY     HO65171   2.692   5.081   5.844  0.3711 -0.6750  0.1177
19264THY    CA165172   2.769   4.919   5.788  0.9374  0.8995 -0.2243
19264THY    CA265173   2.801   4.785   5.811  0.1887 -0.6299 -0.4818
19264THY    CP165174   2.744   4.712   5.936  0.1634 -0.1291  0.5332
19264THY    HP165175   2.642   4.745   5.958 -0.0081 -1.0101  0.6373
19264THY    CP265176   2.820   4.745   6.058 -0.6662 -0.6694 -0.3913
19264THY    HP265177   2.779   4.686   6.141 -0.5366  1.8081  2.7636
19264THY    HP365178   2.802   4.848   6.090  0.0867  1.1267 -0.7817
19264THY    HP465179   2.928   4.724   6.056 -0.8362 -3.1264 -1.3879
19264THY    CP365180   2.740   4.558   5.933  0.0523 -0.0415  0.1678
19264THY    HP565181   2.674   4.530   5.850 -1.1963  0.6192  1.0490
19264THY    HP665182   2.698   4.516   6.025 -1.2167 -0.0446  1.3593
19264THY    HP765183   2.835   4.503   5.926 -0.3544  0.4006 -0.6103
19264THY    CA365184   2.907   4.726   5.738  0.0723  0.6919 -0.2617
19264THY    HA365185   2.937   4.623   5.752  0.5750 -0.0777 -0.2282
19264THY    CA465186   2.973   4.802   5.644  0.1566  0.3355  0.1331
19264THY    HA465187   3.049   4.748   5.588 -1.6857 -1.9788 -0.2071
19264THY    CA565188   2.944   4.935   5.622 -0.2178 -0.2520  0.0677
19264THY    CM165189   3.018   5.022   5.516  0.9328  0.3187 -0.0465
19264THY    HM165190   3.100   4.973   5.464  1.9904  0.1437  1.8376
19264THY    HM265191   3.052   5.119   5.555 -0.8536  1.3519  0.2206
19264THY    HM365192   2.944   5.039   5.437 -2.2505  3.3185  1.4434
19264THY    CA665193   2.838   4.995   5.698 -1.1226 -0.7797 -0.4537
19264THY    HA665194   2.814   5.101   5.687 -2.0186  1.2308 -0.4051
19265THY      O65195   6.397   7.275   4.036  0.4658 -0.4606  0.6866
19265THY     HO65196   6.386   7.181   4.015  1.0524 -0.7183  0.6721
19265THY    CA165197   6.279   7.322   4.069  0.4933 -0.1349  0.0951
19265THY    CA265198   6.263   7.435   4.159 -0.3164  0.4956  0.0322
19265THY    CP165199   6.386   7.505   4.217  0.0467 -0.6411 -0.4426
19265THY    HP165200   6.483   7.485   4.169  1.1810 -0.0685  2.9471
19265THY    CP265201   6.403   7.469   4.362  0.3552 -0.1238  0.8219
19265THY    HP265202   6.428   7.364   4.378 -1.5414  0.8906  0.4781
19265THY    HP365203   6.311   7.494   4.418 -0.8494 -2.4372  1.9398
19265THY    HP465204   6.484   7.532   4.399  0.3855  0.0444  0.6844
19265THY    CP365205   6.373   7.658   4.196 -0.1205 -0.4307  0.3604
19265THY    HP565206   6.466   7.714   4.211 -1.2052  0.0439  2.1134
19265THY    HP665207   6.292   7.705   4.253 -1.3318 -1.5036 -0.3628
19265THY    HP765208   6.337   7.674   4.093 -0.6807 -0.2115  0.5544
19265THY    CA365209   6.133   7.474   4.190 -1.0360 -0.1568 -0.3390
19265THY    HA365210   6.108   7.559   4.253 -2.0893  0.0338 -0.7832
19265THY    CA465211   6.027   7.415   4.124  0.3648  0.1407  0.4508
19265THY    HA465212   5.926   7.437   4.158  0.8048  0.2972  2.3677
19265THY    CA565213   6.041   7.310   4.034 -0.1927 -0.5463  0.8228
19265THY    CM165214   5.930   7.257   3.965  0.0322  0.8657  0.1302
19265THY    HM165215   5.950   7.154   3.933 -0.5109  1.3233 -0.1312
19265THY    HM265216   5.902   7.313   3.875 -0.5424  1.6440  1.1308
19265THY    HM365217   5.843   7.245   4.031  0.7239  1.9500  0.9259
19265THY    CA665218   6.168   7.262   4.011 -0.2656  0.2054 -0.2388
19265THY    HA665219   6.187   7.177   3.946  4.4159 -0.5874  1.1615
19266THY      O65220   2.929   1.701   6.411 -0.2500 -0.3242  0.0950
19266THY     HO65221   2.960   1.677   6.322 -1.2236 -0.8684  0.7947
19266THY    CA165222   2.814   1.634   6.421  0.5733  1.1083 -0.3040
19266THY    CA265223   2.720   1.644   6.523  0.2534 -0.3277 -0.0335
19266THY    CP165224   2.756   1.734   6.653 -0.1463  0.4114  0.5001
19266THY    HP165225   2.808   1.826   6.622 -0.7083 -2.6309 -0.0948
19266THY    CP265226   2.848   1.656   6.753 -0.3215  0.7980 -0.3307
19266THY    HP265227   2.843   1.711   6.848  0.0492  1.3782 -1.2850
19266THY    HP365228   2.948   1.645   6.709 -0.3822  0.1704  1.2896
19266THY    HP465229   2.810   1.556   6.776 -0.3731  0.1799 -0.4535
19266THY    CP365230   2.631   1.778   6.731  0.1556 -0.0139 -0.3720
19266THY    HP565231   2.583   1.690   6.777 -0.4548  0.3766  0.1569
19266THY    HP665232   2.565   1.818   6.654  0.3164 -1.2993 -2.4147
19266THY    HP765233   2.653   1.851   6.811 -2.2375  3.2638 -2.9107
19266THY    CA365234   2.604   1.566   6.526 -0.2243  0.6709 -0.1051
19266THY    HA365235   2.525   1.571   6.601 -1.5770 -0.7640  1.0397
19266THY    CA465236   2.579   1.482   6.413  0.3114  0.8761 -0.4415
19266THY    HA465237   2.486   1.427   6.403 -0.6877  1.3817  1.1011
19266THY    CA565238   2.675   1.468   6.314  0.0437 -0.3090 -0.4161
19266THY    CM165239   2.664   1.377   6.196  0.7821 -0.2607  0.2036
19266THY    HM165240   2.759   1.329   6.170 -0.3507 -1.3601 -1.5382
19266THY    HM265241   2.623   1.431   6.110  1.0348 -0.4166  0.1488
19266THY    HM365242   2.592   1.297   6.214 -0.4418  2.2379  1.7275
19266THY    CA665243   2.790   1.547   6.314 -0.3212 -0.6484 -0.3244
19266THY    HA665244   2.855   1.543   6.227  0.9202  0.2881 -1.2948
19267THY      O65245   0.113   6.629   2.343 -0.0417 -0.3163  0.4964
19267THY     HO65246   0.021   6.598   2.342  0.1925 -0.8405 -0.2039
19267THY    CA165247   0.178   6.522   2.393 -0.6088 -0.0947 -0.3944
19267THY    CA265248   0.305   6.534   2.454 -0.0555 -0.5044  0.2433
19267THY    CP165249   0.364   6.673   2.480  0.1639  0.1350 -0.4913
19267THY    HP165250   0.306   6.748   2.424 -1.2744 -0.9513 -2.3336
19267THY    CP265251   0.510   6.681   2.441 -0.7649  0.4390  0.8361
19267THY    HP265252   0.517   6.654   2.335  1.9124  0.0011  2.8790
19267THY    HP365253   0.570   6.600   2.484 -1.6085  0.7838  0.3800
19267THY    HP465254   0.555   6.780   2.434 -2.5813 -2.0154  1.5871
19267THY    CP365255   0.353   6.709   2.625  0.1591  0.2202  0.2851
19267THY    HP565256   0.266   6.773   2.640 -0.9341 -2.2750 -0.4837
19267THY    HP665257   0.444   6.761   2.659 -0.0397 -0.4882  1.1265
19267THY    HP765258   0.346   6.622   2.691  2.8635  0.3073  0.0394
19267THY    CA365259   0.369   6.430   2.519  0.0077 -0.6073 -0.2416
19267THY    HA365260   0.461   6.441   2.577 -0.7498  0.1305  3.4008
19267THY    CA465261   0.307   6.304   2.502  1.1742 -0.7465 -0.3416
19267THY    HA465262   0.358   6.220   2.548  2.2497  0.5481  0.9591
19267THY    CA565263   0.181   6.284   2.433 -0.1294  0.4055 -0.8909
19267THY    CM165264   0.111   6.154   2.438  0.1813 -0.3299  0.0659
19267THY    HM165265   0.094   6.110   2.339 -0.0816  0.3227 -1.3664
19267THY    HM265266   0.013   6.176   2.482 -0.2542 -1.0591 -0.3743
19267THY    HM365267   0.156   6.081   2.506  1.0004 -0.1689  0.7031
19267THY    CA665268   0.119   6.396   2.377 -0.0298  0.5921 -0.4341
19267THY    HA665269   0.022   6.392   2.327  1.1539 -2.0902  1.0879
19268THY      O65270   2.806   8.749   7.096  0.6282  0.6637  0.7532
19268THY     HO65271   2.826   8.834   7.053 -0.0055  1.4159  1.3091
19268THY    CA165272   2.914   8.712   7.164 -0.2952  0.2695  0.0729
19268THY    CA265273   2.919   8.605   7.256 -0.1354 -0.4809 -0.1324
19268THY    CP165274   2.803   8.509   7.279 -1.0352 -0.6237 -0.1197
19268THY    HP165275   2.728   8.528   7.201  0.2824 -1.9122 -0.0190
19268THY    CP265276   2.748   8.527   7.415  0.3804 -0.9835 -0.3043
19268THY    HP265277   2.677   8.450   7.449  1.7301 -1.8231 -1.9927
19268THY    HP365278   2.704   8.627   7.421  0.2026  1.3033 -0.4721
19268THY    HP465279   2.831   8.528   7.486 -0.7729  0.4562  1.7976
19268THY    CP365280   2.836   8.363   7.247  0.2558  0.1113 -0.4835
19268THY    HP565281   2.739   8.314   7.229  0.8263 -1.6465 -1.0542
19268THY    HP665282   2.892   8.317   7.329  0.4948 -0.7441 -1.7846
19268THY    HP765283   2.902   8.358   7.159  0.8200  0.5450 -0.7527
19268THY    CA365284   3.037   8.583   7.331  0.4056 -0.7063 -0.1492
19268THY    HA365285   3.029   8.509   7.410 -0.2024  0.2105  0.8692
19268THY    CA465286   3.147   8.670   7.326  0.1102 -0.4716 -0.2971
19268THY    HA465287   3.232   8.647   7.389  0.4137 -0.5840  0.5090
19268THY    CA565288   3.149   8.769   7.226 -0.8582  0.4236  0.0786
19268THY    CM165289   3.268   8.856   7.219 -0.0757 -0.3512  0.1957
19268THY    HM165290   3.329   8.845   7.128  0.3081 -0.0358 -0.3572
19268THY    HM265291   3.332   8.851   7.307  0.0248 -0.4009  0.5356
19268THY    HM365292   3.237   8.961   7.217 -2.2766  0.5759 -0.3923
19268THY    CA665293   3.029   8.797   7.155  0.3642 -0.4767  0.2138
19268THY    HA665294   3.024   8.884   7.090 -0.7112 -0.7237 -0.0193
19269THY      O65295   2.188   2.801   7.763 -0.0537 -0.2739  0.5443
19269THY     HO65296   2.222   2.724   7.811  1.3356 -1.1563  0.5645
19269THY    CA165297   2.164   2.749   7.640  0.4664 -0.3316  0.5311
19269THY    CA265298   2.132   2.826   7.528 -0.5618  0.1775  0.2745
19269THY    CP165299   2.118   2.975   7.529  0.2941  0.0952 -0.3453
19269THY    HP165300   2.158   3.021   7.620 -1.4211  0.1588  1.1500
19269THY    CP265301   1.967   3.006   7.526 -0.3657 -0.3282 -0.6028
19269THY    HP265302   1.930   2.937   7.602  0.0764  0.7039  0.2477
19269THY    HP365303   1.925   2.989   7.426  0.5775 -0.6829 -0.9142
19269THY    HP465304   1.944   3.108   7.561 -0.1921 -1.1227 -0.2797
19269THY    CP365305   2.185   3.038   7.406 -0.0193  0.0879 -0.1126
19269THY    HP565306   2.124   3.034   7.315  0.1165  0.0361 -2.6396
19269THY    HP665307   2.282   3.001   7.373 -0.6499 -0.9124 -0.9468
19269THY    HP765308   2.211   3.141   7.435  2.1557  2.0633 -1.1534
19269THY    CA365309   2.098   2.764   7.404 -0.0316 -0.3723  0.5053
19269THY    HA365310   2.053   2.821   7.323 -1.3342 -0.5748 -0.7628
19269THY    CA465311   2.117   2.628   7.391  0.1690 -0.1490 -0.2139
19269THY    HA465312   2.089   2.583   7.297  1.5121 -0.0840 -1.2550
19269THY    CA565313   2.157   2.550   7.502  0.5120  0.0729  0.4250
19269THY    CM165314   2.187   2.402   7.486 -0.2081 -0.0017 -0.3729
19269THY    HM165315   2.211   2.342   7.575  0.1749 -0.5295 -1.0163
19269THY    HM265316   2.268   2.384   7.415  1.5234  1.1481  2.2385
19269THY    HM365317   2.098   2.355   7.442 -0.4733 -0.4333  0.5161
19269THY    CA665318   2.181   2.611   7.625  0.8762 -0.2727  0.0047
19269THY    HA665319   2.213   2.547   7.707  0.9840 -0.9753 -0.8604
19270THY      O65320   5.552   2.553   2.648  0.1962  0.0860 -0.0936
19270THY     HO65321   5.633   2.543   2.701 -1.6166  2.8939 -0.7926
19270THY    CA165322   5.461   2.514   2.735 -0.1811  0.2606  0.1215
19270THY    CA265323   5.330   2.501   2.684  0.3001 -0.0684  0.1409
19270THY    CP165324   5.288   2.518   2.542 -0.1415 -0.0900 -0.7591
19270THY    HP165325   5.380   2.515   2.483 -0.2987 -0.3468 -0.5624
19270THY    CP265326   5.205   2.645   2.537 -0.1602  0.4572 -0.8856
19270THY    HP265327   5.175   2.686   2.440  0.4181  1.0350  1.0099
19270THY    HP365328   5.265   2.734   2.561 -1.2135 -3.4426  1.1185
19270THY    HP465329   5.109   2.652   2.590 -0.9015 -1.0184  1.1145
19270THY    CP365330   5.212   2.394   2.500  0.0766 -0.3589 -0.1822
19270THY    HP565331   5.256   2.298   2.528 -0.4125 -0.6071 -0.4761
19270THY    HP665332   5.209   2.384   2.391  0.5144 -0.2154 -2.3288
19270THY    HP765333   5.110   2.403   2.538 -0.5312 -2.2718  1.9376
19270THY    CA365334   5.232   2.476   2.784  0.2540  0.1611  0.5335
19270THY    HA365335   5.127   2.458   2.763  0.4586 -0.7242  0.3274
19270THY    CA465336   5.269   2.468   2.916  0.6868 -0.3774 -0.2119
19270THY    HA465337   5.194   2.462   2.994  0.1970 -0.1534  4.9113
19270THY    CA565338   5.400   2.487   2.959 -0.2559  0.3614  0.8582
19270THY    CM165339   5.432   2.484   3.108 -0.1984  0.4007  0.0753
19270THY    HM165340   5.349   2.436   3.161  1.1890  1.8266 -0.8401
19270THY    HM265341   5.444   2.583   3.154 -0.7864 -1.2790  0.9616
19270THY    HM365342   5.512   2.415   3.137 -0.4503  0.2347 -0.2923
19270THY    CA665343   5.493   2.509   2.867 -0.3577 -0.1124 -0.1233
19270THY    HA665344   5.592   2.536   2.902 -0.1254 -1.4678  0.8954
19271THY      O65345   8.397   8.665   7.658  0.1510 -0.0903  0.5178
19271THY     HO65346   8.425   8.705   7.742  1.5534 -0.7050  0.8733
19271THY    CA165347   8.414   8.757   7.570  0.1361 -0.1468 -0.7818
19271THY    CA265348   8.382   8.734   7.432  0.9056 -0.8798 -0.7100
19271THY    CP165349   8.342   8.605   7.371  0.5800  0.0076 -0.0943
19271THY    HP165350   8.350   8.534   7.453  0.0691  2.4901  2.5272
19271THY    CP265351   8.418   8.564   7.247 -0.6336  0.6083  0.3007
19271THY    HP265352   8.391   8.630   7.163  2.0274  1.2870  2.3969
19271THY    HP365353   8.402   8.456   7.236 -1.4376  0.9051  0.3786
19271THY    HP465354   8.527   8.571   7.248 -0.3870 -0.4441 -2.1127
19271THY    CP365355   8.197   8.588   7.335  0.2270 -0.3843  0.0346
19271THY    HP565356   8.179   8.485   7.302 -0.8683 -1.2126  0.4701
19271THY    HP665357   8.159   8.664   7.265 -2.7745  2.5173  1.4652
19271THY    HP765358   8.137   8.611   7.423  1.1801  0.8315 -1.9103
19271THY    CA365359   8.396   8.846   7.346 -0.1743  0.2914  0.2469
19271THY    HA365360   8.363   8.844   7.243  1.6910 -0.3223 -0.4507
19271THY    CA465361   8.430   8.975   7.395 -0.6386  0.5857  0.2155
19271THY    HA465362   8.444   9.061   7.331  1.4648  0.6588 -0.0222
19271THY    CA565363   8.466   8.992   7.529  0.0137  0.1802  0.7113
19271THY    CM165364   8.481   9.134   7.578 -0.2424  0.2598  0.1017
19271THY    HM165365   8.553   9.188   7.515 -0.9881 -0.1462  0.6544
19271THY    HM265366   8.530   9.150   7.675  1.0944 -0.3580 -0.1277
19271THY    HM365367   8.385   9.187   7.571  0.9232  1.8026  2.5912
19271THY    CA665368   8.454   8.887   7.615 -0.7288 -0.3059  0.0566
19271THY    HA665369   8.465   8.911   7.721  1.8051 -0.5676  0.3058
19272THY      O65370   2.241   9.080   2.255 -0.2879  0.1033  0.1051
19272THY     HO65371   2.275   9.171   2.257  2.3804  1.8941 -0.8243
19272THY    CA165372   2.112   9.089   2.291 -0.4749  0.9603  0.6120
19272THY    CA265373   2.038   8.979   2.327  0.5178 -0.6008  0.6121
19272THY    CP165374   2.106   8.841   2.324 -0.0469  0.0439 -0.5545
19272THY    HP165375   2.214   8.840   2.341  0.1493 -0.9957 -2.3608
19272THY    CP265376   2.086   8.771   2.190  0.3120  0.2143  0.5321
19272THY    HP265377   2.098   8.837   2.103 -1.0502 -0.6898 -0.3496
19272THY    HP365378   1.985   8.729   2.179  1.3941  2.3929 -3.1916
19272THY    HP465379   2.155   8.686   2.184 -1.3751 -1.7209 -0.8029
19272THY    CP365380   2.041   8.748   2.429  0.3061 -0.1761  0.8899
19272THY    HP565381   2.107   8.661   2.444  1.8175  0.9491  2.1497
19272THY    HP665382   1.942   8.708   2.407 -0.1241 -0.5696  2.1341
19272THY    HP765383   2.041   8.807   2.522 -0.3587  1.3510 -1.3786
19272THY    CA365384   1.904   8.991   2.362  0.6060 -0.1511 -1.0253
19272THY    HA365385   1.843   8.905   2.386 -1.4769  0.0519  0.4289
19272THY    CA465386   1.840   9.120   2.352  0.2386 -0.2799  0.1101
19272THY    HA465387   1.734   9.138   2.366  0.0034  0.6451 -1.6977
19272THY    CA565388   1.919   9.235   2.317  0.2718  0.0309  0.0768
19272THY    CM165389   1.857   9.374   2.297  0.5496 -0.2143  0.6977
19272THY    HM165390   1.867   9.438   2.385  1.3842 -0.9118  1.5784
19272THY    HM265391   1.752   9.368   2.266  0.2366  0.9671 -0.1475
19272THY    HM365392   1.903   9.430   2.213  3.1184 -0.2970 -1.3306
19272THY    CA665393   2.058   9.217   2.289 -0.0303 -0.7761  0.0317
19272THY    HA665394   2.119   9.297   2.249 -1.7872 -1.4762  1.0701
19273THY      O65395   2.533   0.927   5.987 -0.0284 -0.1239  0.1768
19273THY     HO65396   2.578   0.845   5.960  0.3656  2.3866 -0.5097
19273THY    CA165397   2.406   0.913   5.941  0.2712  0.5686  0.0905
19273THY    CA265398   2.312   1.014   5.945  1.2890 -0.2443 -0.8541
19273THY    CP165399   2.351   1.153   5.994  0.3586  0.3133 -0.0082
19273THY    HP165400   2.458   1.148   6.022 -0.0849  1.9555 -2.4656
19273THY    CP265401   2.268   1.197   6.115  0.3343 -0.0739  0.0492
19273THY    HP265402   2.299   1.137   6.202  0.3566 -0.7455 -0.9427
19273THY    HP365403   2.164   1.178   6.087 -0.0347  1.9506 -1.2189
19273THY    HP465404   2.284   1.304   6.130  0.0698 -3.6401  0.7307
19273THY    CP365405   2.353   1.251   5.872 -1.0088  0.6548 -0.8241
19273THY    HP565406   2.406   1.199   5.792  0.5044  2.3106 -1.9699
19273THY    HP665407   2.398   1.348   5.895 -0.0530  2.1796 -1.5839
19273THY    HP765408   2.251   1.269   5.835  0.1368 -2.6392 -0.4621
19273THY    CA365409   2.190   0.996   5.876  1.0069 -0.8955 -0.2304
19273THY    HA365410   2.125   1.081   5.857  0.4478 -0.5301 -0.5740
19273THY    CA465411   2.166   0.881   5.809  0.1598 -0.9261  0.0679
19273THY    HA465412   2.080   0.883   5.743  0.9269 -1.9934  2.4230
19273THY    CA565413   2.257   0.778   5.808  0.3527  0.1249  0.5064
19273THY    CM165414   2.241   0.637   5.732 -0.4980  0.0254 -0.4382
19273THY    HM165415   2.149   0.637   5.673 -1.3032  1.2330  0.7763
19273THY    HM265416   2.245   0.557   5.808  1.7920  0.1451 -0.2990
19273THY    HM365417   2.315   0.623   5.652 -1.0704 -0.5878 -0.0313
19273THY    CA665418   2.378   0.795   5.881  0.5592 -0.1865 -1.0237
19273THY    HA665419   2.454   0.718   5.871  0.9184 -1.9482 -0.4664
19274THY      O65420   6.770   7.689   7.157 -0.5752  0.2466 -0.6540
19274THY     HO65421   6.772   7.743   7.238  3.1538  0.3226 -0.6899
19274THY    CA165422   6.841   7.583   7.205  0.4066  0.0174 -0.3059
19274THY    CA265423   6.837   7.458   7.152 -0.5348  0.4885 -0.0573
19274THY    CP165424   6.739   7.418   7.038 -0.0007 -0.2298  0.1473
19274THY    HP165425   6.724   7.500   6.966 -1.0232 -0.0412  0.1407
19274THY    CP265426   6.603   7.387   7.086  0.1222 -0.1485  0.4354
19274THY    HP265427   6.593   7.288   7.132  1.5331 -2.8932 -1.1156
19274THY    HP365428   6.546   7.371   6.994 -1.0318  0.7895 -1.0461
19274THY    HP465429   6.564   7.456   7.162  1.2070  1.2646 -0.4379
19274THY    CP365430   6.794   7.302   6.954  0.0847 -0.1432 -0.1571
19274THY    HP565431   6.890   7.323   6.907  0.9777  2.3352  1.7858
19274THY    HP665432   6.716   7.285   6.878 -0.8098  0.7611 -0.2215
19274THY    HP765433   6.801   7.210   7.013 -1.0972 -2.1520 -1.6012
19274THY    CA365434   6.925   7.359   7.212 -0.2623  0.1918 -0.2463
19274THY    HA365435   6.919   7.254   7.184 -0.3183  0.7576 -0.3981
19274THY    CA465436   7.008   7.389   7.317  0.7129  0.3606 -0.2454
19274THY    HA465437   7.077   7.323   7.367  1.2360 -0.6375 -0.4707
19274THY    CA565438   7.005   7.518   7.372 -0.0951 -1.3766  0.2962
19274THY    CM165439   7.072   7.561   7.499 -0.2762 -0.0621 -0.1984
19274THY    HM165440   7.161   7.501   7.522  0.0244 -1.8489 -0.4848
19274THY    HM265441   7.007   7.546   7.587  1.0052  1.0700  0.6267
19274THY    HM365442   7.112   7.662   7.500  1.9172 -0.3166 -1.0108
19274THY    CA665443   6.921   7.609   7.311  0.3282 -0.2990 -0.3154
19274THY    HA665444   6.920   7.710   7.353  1.6995 -1.0962  0.0618
19275THY      O65445   3.399   8.468   2.229 -0.4940  0.1122  0.0899
19275THY     HO65446   3.365   8.398   2.287 -0.2292 -0.9447 -0.9603
19275THY    CA165447   3.396   8.419   2.101  0.2328 -0.4033 -0.4684
19275THY    CA265448   3.451   8.504   1.997  0.1357 -0.2630  0.5170
19275THY    CP165449   3.523   8.631   2.020  0.5490 -0.3519  0.0491
19275THY    HP165450   3.552   8.628   2.125 -1.6542  0.3719  1.2306
19275THY    CP265451   3.419   8.748   2.033  0.1982 -0.0214  0.5100
19275THY    HP265452   3.352   8.726   2.116  2.4944  1.2753 -2.2480
19275THY    HP365453   3.375   8.772   1.936  0.6560  0.2726  2.7849
19275THY    HP465454   3.473   8.836   2.070  3.0869  0.4450 -1.3088
19275THY    CP365455   3.645   8.675   1.938 -0.1559 -1.1375  0.0664
19275THY    HP565456   3.627   8.706   1.834  0.9546 -0.9673  1.3651
19275THY    HP665457   3.714   8.590   1.941  0.7064 -0.0147  0.7816
19275THY    HP765458   3.681   8.764   1.990 -1.1813 -0.5150  0.1373
19275THY    CA365459   3.437   8.445   1.868  0.0407  0.1977  0.4801
19275THY    HA365460   3.495   8.495   1.792  0.5283  2.1961  3.1787
19275THY    CA465461   3.377   8.320   1.845  0.0616  0.6333  0.4238
19275THY    HA465462   3.382   8.270   1.749 -4.1296  0.2054  0.4674
19275THY    CA565463   3.332   8.249   1.950  0.7439  0.5505  0.5439
19275THY    CM165464   3.268   8.115   1.924  0.0558 -0.2481 -0.8497
19275THY    HM165465   3.248   8.060   2.017  2.7534 -0.2602 -2.0231
19275THY    HM265466   3.346   8.054   1.877  0.2486  0.6463 -1.3192
19275THY    HM365467   3.179   8.135   1.864  0.7136 -0.5368  1.5841
19275THY    CA665468   3.340   8.295   2.080 -0.0120 -0.9427  0.5224
19275THY    HA665469   3.301   8.239   2.164 -0.4424 -0.4764  1.4967
19276THY      O65470   3.812   7.284   3.370 -0.6366 -0.1485 -0.2127
19276THY     HO65471   3.796   7.228   3.448  2.9640  0.0753 -1.1612
19276THY    CA165472   3.813   7.407   3.427 -0.0035 -0.2187  0.5720
19276THY    CA265473   3.852   7.526   3.355  0.2727  0.1333  0.0569
19276THY    CP165474   3.874   7.524   3.203 -0.1553  0.3511  0.6111
19276THY    HP165475   3.906   7.421   3.183 -2.0227 -1.0830  0.2546
19276THY    CP265476   3.986   7.623   3.152 -0.0941 -0.0378  0.2498
19276THY    HP265477   4.069   7.632   3.223  0.1579 -0.1590 -0.9400
19276THY    HP365478   3.949   7.725   3.132  2.0098 -0.8193  0.9044
19276THY    HP465479   4.036   7.595   3.059  0.6150  0.9451 -1.9583
19276THY    CP365480   3.749   7.537   3.116  0.9798  0.1044  0.5100
19276THY    HP565481   3.774   7.523   3.010 -0.1679 -0.1624  0.3624
19276THY    HP665482   3.700   7.635   3.123 -0.6551  0.9439 -0.3285
19276THY    HP765483   3.677   7.460   3.148  0.1171 -0.9348  0.8502
19276THY    CA365484   3.854   7.656   3.422 -0.2710 -0.2385 -0.1397
19276THY    HA365485   3.878   7.747   3.367  1.0553  0.3348 -0.1166
19276THY    CA465486   3.824   7.654   3.556  0.3512 -0.4437 -0.0870
19276THY    HA465487   3.820   7.743   3.618  1.4099  2.3173 -1.8519
19276THY    CA565488   3.773   7.536   3.620 -0.6281  0.4755 -0.2723
19276THY    CM165489   3.704   7.553   3.755  0.3961  0.3647  0.3414
19276THY    HM165490   3.719   7.466   3.820  0.5461 -0.5676 -0.3522
19276THY    HM265491   3.596   7.563   3.745  0.1641 -0.2154 -1.9777
19276THY    HM365492   3.733   7.645   3.807  0.1077  0.2486  0.4981
19276THY    CA665493   3.776   7.413   3.560 -0.1946 -0.1149  0.8735
19276THY    HA665494   3.744   7.321   3.609  0.1711 -1.5211 -0.0476
19277THY      O65495   7.394   5.086   4.627  0.0240  0.2814 -0.0398
19277THY     HO65496   7.412   5.159   4.690  0.2391 -1.4365  1.4592
19277THY    CA165497   7.462   5.131   4.517 -0.0678 -0.5102 -1.0115
19277THY    CA265498   7.432   5.096   4.385 -0.3225 -0.1674  0.0169
19277THY    CP165499   7.303   5.017   4.364  0.0667 -0.4557 -0.2340
19277THY    HP165500   7.231   5.046   4.441 -0.8974 -1.4151 -0.0177
19277THY    CP265501   7.343   4.870   4.384  0.0853  0.4559  0.6702
19277THY    HP265502   7.419   4.841   4.311 -0.4060  0.1714  0.0818
19277THY    HP365503   7.256   4.807   4.362  1.7122  0.7825 -1.8087
19277THY    HP465504   7.368   4.850   4.489 -1.3441  0.1638 -3.6797
19277THY    CP365505   7.238   5.027   4.220  0.5467 -0.5876 -0.8011
19277THY    HP565506   7.199   5.128   4.199  2.1980 -0.0603 -0.0079
19277THY    HP665507   7.151   4.961   4.213 -0.7756 -0.7487  0.8986
19277THY    HP765508   7.316   5.002   4.147  0.4570 -1.2166  0.6290
19277THY    CA365509   7.506   5.151   4.276  0.3846 -0.5629 -0.1331
19277THY    HA365510   7.474   5.131   4.174 -0.2229 -0.8304  2.0250
19277THY    CA465511   7.618   5.231   4.307 -0.3648 -0.5154 -0.2901
19277THY    HA465512   7.664   5.277   4.220 -0.3535 -0.7166 -0.6747
19277THY    CA565513   7.650   5.263   4.441  0.1069 -0.0770  0.3475
19277THY    CM165514   7.783   5.328   4.471  0.2600 -0.0770  0.7339
19277THY    HM165515   7.827   5.361   4.376  0.3445 -0.7305 -1.1542
19277THY    HM265516   7.849   5.254   4.517 -0.2545 -1.7690 -0.8609
19277THY    HM365517   7.758   5.411   4.539 -1.7639  1.9068 -1.3437
19277THY    CA665518   7.572   5.209   4.542  0.2409  0.2575  0.2216
19277THY    HA665519   7.601   5.226   4.645 -1.9110  0.8689  0.5440
19278THY      O65520   2.010   9.169   2.641 -0.3739 -0.2321  0.0478
19278THY     HO65521   1.930   9.132   2.599 -1.6577  3.2081 -1.5497
19278THY    CA165522   1.968   9.284   2.688 -0.8056  0.5581  0.7138
19278THY    CA265523   2.055   9.361   2.761  0.5039  0.0265 -0.7106
19278THY    CP165524   2.192   9.317   2.802 -0.0548  0.3764  0.4934
19278THY    HP165525   2.218   9.216   2.771 -0.0903 -0.4890  0.7412
19278THY    CP265526   2.209   9.328   2.957 -0.3456  0.6240  0.0167
19278THY    HP265527   2.151   9.248   3.004 -2.2125  0.4748  1.2174
19278THY    HP365528   2.183   9.423   3.004  0.2704  1.0758 -0.0313
19278THY    HP465529   2.316   9.313   2.978 -0.0892 -0.7851 -0.2739
19278THY    CP365530   2.292   9.409   2.746 -0.3398  0.1623 -0.5246
19278THY    HP565531   2.303   9.510   2.789 -0.3601 -3.4939  1.2173
19278THY    HP665532   2.290   9.425   2.637  1.1627  0.4207  2.0752
19278THY    HP765533   2.392   9.364   2.749  0.5109 -2.2347  0.9668
19278THY    CA365534   2.007   9.486   2.810 -0.1810 -0.5243 -0.0000
19278THY    HA365535   2.072   9.553   2.865 -0.6296 -0.7537  0.6351
19278THY    CA465536   1.877   9.515   2.788  0.1705 -1.3099  0.4336
19278THY    HA465537   1.830   9.601   2.834  0.1561  2.4320 -1.3574
19278THY    CA565538   1.800   9.441   2.704  0.3506  1.0304  0.3834
19278THY    CM165539   1.650   9.485   2.685 -0.6084  0.2033  0.2103
19278THY    HM165540   1.625   9.490   2.579  4.3181 -1.1705  0.9616
19278THY    HM265541   1.637   9.583   2.733  0.9014 -0.4077  0.7395
19278THY    HM365542   1.601   9.413   2.751 -1.8844  1.6521  2.2847
19278THY    CA665543   1.844   9.321   2.653 -0.2985  0.3745  0.5077
19278THY    HA665544   1.779   9.267   2.584 -1.0548 -0.6170  2.5506
19279THY      O65545   0.574   7.552   7.597 -0.5223  0.3166 -0.7702
19279THY     HO65546   0.536   7.539   7.686 -0.7840  0.4583  0.7730
19279THY    CA165547   0.476   7.624   7.521 -0.0962 -0.2085 -0.4218
19279THY    CA265548   0.488   7.630   7.381 -0.2825 -0.3561 -0.3061
19279THY    CP165549   0.613   7.578   7.308  0.4392  0.6481 -0.4807
19279THY    HP165550   0.648   7.484   7.352  0.6256  0.2780 -0.5828
19279THY    CP265551   0.718   7.691   7.288  1.1350 -0.7413  0.2996
19279THY    HP265552   0.766   7.725   7.380  0.6566 -0.7428  1.0143
19279THY    HP365553   0.676   7.780   7.239 -0.5834  1.8966  1.0700
19279THY    HP465554   0.803   7.638   7.245  1.8504  1.4153 -0.3940
19279THY    CP365555   0.567   7.534   7.164  0.2256  0.4833 -0.0535
19279THY    HP565556   0.646   7.479   7.110 -0.8758 -4.2052  2.4399
19279THY    HP665557   0.545   7.616   7.094  0.5788 -0.1044 -0.4500
19279THY    HP765558   0.479   7.471   7.179 -0.6418 -0.5494  0.8809
19279THY    CA365559   0.402   7.721   7.315  0.1339 -0.6884 -0.1334
19279THY    HA365560   0.413   7.740   7.209 -2.7055 -1.1403 -0.5578
19279THY    CA465561   0.300   7.779   7.384  0.1626 -0.3462  0.0023
19279THY    HA465562   0.239   7.853   7.333  0.4855  0.7785  1.0955
19279THY    CA565563   0.267   7.745   7.518  0.5339 -0.0369  0.4804
19279THY    CM165564   0.147   7.807   7.589 -0.0815 -0.4921 -0.0874
19279THY    HM165565   0.109   7.897   7.539 -1.0066 -0.5209 -0.4833
19279THY    HM265566   0.181   7.837   7.688  1.5124 -1.5407  1.7976
19279THY    HM365567   0.065   7.734   7.591 -2.4943  0.0756  2.5016
19279THY    CA665568   0.362   7.663   7.584 -0.4348 -0.1409 -0.1014
19279THY    HA665569   0.353   7.642   7.690  3.4838  0.4066  0.1646
19280THY      O65570   0.440   4.475   4.787  0.0823 -0.6868 -0.0674
19280THY     HO65571   0.475   4.385   4.799 -0.5459 -0.8287 -0.3331
19280THY    CA165572   0.407   4.477   4.655  0.3435  0.4068  0.5196
19280THY    CA265573   0.344   4.588   4.596 -0.6378 -0.0460 -0.4325
19280THY    CP165574   0.309   4.710   4.679 -0.0505  1.1733  0.7195
19280THY    HP165575   0.371   4.710   4.769  1.5232  0.1653 -0.8907
19280THY    CP265576   0.172   4.710   4.739  0.7639  0.2517 -0.5634
19280THY    HP265577   0.132   4.812   4.739 -0.6332  1.3584 -1.0664
19280THY    HP365578   0.162   4.671   4.841  1.3407  0.7988  0.7010
19280THY    HP465579   0.095   4.654   4.684 -0.1932  1.4989 -0.5349
19280THY    CP365580   0.328   4.842   4.601 -0.2674 -0.5697  0.3596
19280THY    HP565581   0.250   4.859   4.525 -0.6244 -0.3656 -0.3443
19280THY    HP665582   0.429   4.835   4.558 -0.0647  0.1620 -2.7046
19280THY    HP765583   0.324   4.929   4.667 -0.7880 -0.2657  0.1061
19280THY    CA365584   0.287   4.581   4.472  0.2889 -0.0480  0.1899
19280THY    HA365585   0.231   4.667   4.436 -0.0558  1.8748  0.8210
19280THY    CA465586   0.314   4.467   4.396 -0.6689 -0.2375  0.2787
19280THY    HA465587   0.266   4.453   4.300  0.6896 -0.7063 -1.4504
19280THY    CA565588   0.385   4.357   4.445  0.1953 -0.6701  0.2835
19280THY    CM165589   0.407   4.230   4.356  0.9134 -0.9431  0.0717
19280THY    HM165590   0.504   4.238   4.305  0.9859 -0.7297  0.5618
19280THY    HM265591   0.331   4.225   4.278 -0.9346  0.6048  1.9369
19280THY    HM365592   0.411   4.138   4.417 -0.8671 -0.5168  0.2402
19280THY    CA665593   0.436   4.360   4.581  0.2198 -0.1350  0.1022
19280THY    HA665594   0.496   4.280   4.624 -0.7464  1.9109  0.4422
19281THY      O65595   0.894   4.919   4.271 -0.1021 -0.1560 -0.0771
19281THY     HO65596   0.870   4.957   4.185  1.5538 -0.4681  0.3426
19281THY    CA165597   0.934   5.021   4.349  0.0417  0.0010 -0.1155
19281THY    CA265598   0.847   5.074   4.450  0.4706 -0.1927  0.3393
19281THY    CP165599   0.716   5.003   4.483 -0.4015 -0.2515 -0.4533
19281THY    HP165600   0.679   4.939   4.401 -0.4214 -0.4054 -0.2451
19281THY    CP265601   0.604   5.100   4.509 -0.7884  0.3932  0.4405
19281THY    HP265602   0.506   5.067   4.475 -0.9370  1.4878 -0.2909
19281THY    HP365603   0.616   5.191   4.449 -2.6620 -2.5392 -1.1185
19281THY    HP465604   0.590   5.130   4.614  0.4383  0.1326  2.0507
19281THY    CP365605   0.723   4.928   4.617  0.1604  0.5151  0.3614
19281THY    HP565606   0.777   4.991   4.689 -0.2519 -0.0254  1.3509
19281THY    HP665607   0.780   4.838   4.591  1.0734 -2.0072  1.5526
19281THY    HP765608   0.630   4.897   4.666  0.8547  1.9617  0.4684
19281THY    CA365609   0.906   5.176   4.532 -0.4071  0.2806 -0.2763
19281THY    HA365610   0.849   5.213   4.617  0.9677 -0.3778  3.7807
19281THY    CA465611   1.030   5.236   4.503  0.0934  0.0289  0.0093
19281THY    HA465612   1.067   5.317   4.564  1.2487 -0.6451  0.0059
19281THY    CA565613   1.100   5.190   4.390 -0.0065  0.6661 -0.8069
19281THY    CM165614   1.228   5.253   4.352  0.1528 -0.7800 -0.5051
19281THY    HM165615   1.249   5.337   4.419 -0.2257 -0.5204 -0.6095
19281THY    HM265616   1.225   5.284   4.247 -0.9386 -1.0414 -1.4397
19281THY    HM365617   1.313   5.187   4.372 -0.6212  0.1329 -1.2552
19281THY    CA665618   1.057   5.081   4.314  0.0965  0.4877 -0.6489
19281THY    HA665619   1.117   5.036   4.236  1.9320  2.8786 -2.6154
19282THY      O65620   4.919   4.717   5.055 -1.0385 -0.4553  0.7862
19282THY     HO65621   4.949   4.804   5.087 -2.8520  4.9749 -0.2387
19282THY    CA165622   4.994   4.627   5.127 -0.4512  0.5438 -0.1825
19282THY    CA265623   4.968   4.494   5.102  0.0386 -0.4389  0.2946
19282THY    CP165624   4.852   4.442   5.021  0.5991 -0.1100 -0.0596
19282THY    HP165625   4.771   4.517   5.026 -0.8728 -1.8190 -1.4446
19282THY    CP265626   4.786   4.314   5.068 -0.0195  0.1092 -0.6807
19282THY    HP265627   4.691   4.304   5.014 -0.1070  0.2694 -0.7223
19282THY    HP365628   4.769   4.321   5.176 -2.4052 -0.2990  0.9802
19282THY    HP465629   4.850   4.227   5.047 -1.5960  0.7732 -2.0803
19282THY    CP365630   4.892   4.449   4.871 -0.3038  0.0182 -0.7095
19282THY    HP565631   4.946   4.542   4.851  0.8155 -2.4513 -1.7951
19282THY    HP665632   4.807   4.438   4.803  1.4181 -2.8961  2.2043
19282THY    HP765633   4.966   4.376   4.834 -0.4435 -4.0163  0.9601
19282THY    CA365634   5.063   4.401   5.161 -0.1496  0.1658  0.3751
19282THY    HA365635   5.061   4.296   5.131 -0.6163  0.7000  0.2273
19282THY    CA465636   5.175   4.444   5.236 -0.1635 -0.8856  0.1625
19282THY    HA465637   5.242   4.365   5.269 -0.7330  0.0283  0.0431
19282THY    CA565638   5.187   4.582   5.268 -0.1249 -0.3162 -0.0571
19282THY    CM165639   5.307   4.621   5.353  0.3199 -0.0991  0.2519
19282THY    HM165640   5.378   4.537   5.356 -2.1276  2.6420 -1.9182
19282THY    HM265641   5.281   4.640   5.457  0.9849  0.5169 -1.9336
19282THY    HM365642   5.362   4.708   5.314  1.8905  1.1014 -0.1652
19282THY    CA665643   5.096   4.674   5.210  0.0090 -0.0746  0.0881
19282THY    HA665644   5.116   4.780   5.221  0.0933  0.4662  0.0191
19283THY      O65645   7.320   7.680   3.118 -0.1911 -0.4652  0.3215
19283THY     HO65646   7.353   7.669   3.209 -0.1246 -0.4678  0.5034
19283THY    CA165647   7.435   7.646   3.056 -0.1201  0.3758  0.0177
19283THY    CA265648   7.426   7.567   2.934 -0.2110 -0.0895 -0.4858
19283THY    CP165649   7.296   7.502   2.880  0.6447 -0.2337 -0.2346
19283THY    HP165650   7.208   7.526   2.941  1.2223  0.4631  0.1773
19283THY    CP265651   7.310   7.352   2.858  0.5118 -0.2417 -0.1846
19283THY    HP265652   7.390   7.327   2.787  2.8681  2.0446  0.4555
19283THY    HP365653   7.212   7.324   2.816  0.4367  0.2957 -0.7559
19283THY    HP465654   7.315   7.306   2.957 -0.3959 -0.1237 -0.0470
19283THY    CP365655   7.264   7.570   2.740 -0.4689  0.2640  0.2902
19283THY    HP565656   7.160   7.550   2.713 -0.6383  1.8780 -1.2926
19283THY    HP665657   7.338   7.521   2.674 -0.3480  0.9639 -0.4994
19283THY    HP765658   7.274   7.679   2.733  1.5668 -0.1140  0.1301
19283THY    CA365659   7.544   7.536   2.869  0.4398 -0.0834  0.2346
19283THY    HA365660   7.548   7.471   2.782 -0.3797  1.1344 -1.5137
19283THY    CA465661   7.662   7.585   2.919 -0.8836 -0.3008  0.1987
19283THY    HA465662   7.750   7.570   2.858 -0.3518  0.2302  1.0373
19283THY    CA565663   7.670   7.665   3.028 -0.5916 -0.4838 -0.3070
19283THY    CM165664   7.804   7.722   3.069 -0.3476 -0.3876  0.1036
19283THY    HM165665   7.788   7.816   3.123 -0.7091  1.2533 -0.8709
19283THY    HM265666   7.879   7.723   2.989  0.2590  0.0295 -2.7403
19283THY    HM365667   7.831   7.651   3.148  0.0684  0.7931  1.5420
19283THY    CA665668   7.550   7.705   3.104  0.1487  0.3703 -0.1382
19283THY    HA665669   7.549   7.779   3.183 -0.7307 -0.4325  0.7290
19284THY      O65670   3.109   0.526   5.767  0.2326 -0.2206  0.3996
19284THY     HO65671   3.118   0.544   5.672 -1.2530 -0.4769 -0.0273
19284THY    CA165672   3.234   0.510   5.818 -0.0362 -0.1320  0.0463
19284THY    CA265673   3.259   0.434   5.935  0.6061 -0.0181  0.1469
19284THY    CP165674   3.145   0.375   6.016  0.0938  0.5165  0.4105
19284THY    HP165675   3.049   0.396   5.966 -0.0546  0.3340 -0.6131
19284THY    CP265676   3.118   0.436   6.160 -0.4717 -0.3459 -0.2371
19284THY    HP265677   3.204   0.409   6.222  1.9325 -3.3896 -0.0766
19284THY    HP365678   3.034   0.387   6.211  0.5253 -0.5675 -2.2802
19284THY    HP465679   3.093   0.543   6.154  1.2905 -1.8415  0.1413
19284THY    CP365680   3.152   0.220   6.039  1.2612  0.0099  0.0230
19284THY    HP565681   3.174   0.168   5.945  0.6176 -0.1381  0.0121
19284THY    HP665682   3.054   0.183   6.070  0.9382  0.1890  1.0027
19284THY    HP765683   3.223   0.198   6.120 -0.4487  1.3375 -0.8081
19284THY    CA365684   3.397   0.419   5.975 -0.7092  0.1632 -0.3685
19284THY    HA365685   3.422   0.376   6.071 -0.4655  0.2837  0.0362
19284THY    CA465686   3.502   0.477   5.900 -0.3726 -0.0160 -0.4438
19284THY    HA465687   3.606   0.466   5.930 -0.3442  0.2245  0.4194
19284THY    CA565688   3.468   0.554   5.786 -0.5079 -0.3534  0.0091
19284THY    CM165689   3.577   0.613   5.708 -1.5435 -0.2416 -0.1439
19284THY    HM165690   3.638   0.678   5.771  1.3466 -0.4736 -2.4232
19284THY    HM265691   3.546   0.668   5.619 -0.2355 -0.8937 -0.4403
19284THY    HM365692   3.640   0.533   5.667  0.7852  0.0372  1.4565
19284THY    CA665693   3.337   0.559   5.733  0.0328 -0.6390 -0.2382
19284THY    HA665694   3.321   0.615   5.641  1.5944 -0.3440  0.7489
19285THY      O65695   5.435   3.377   4.801  0.1574  0.4008  0.3066
19285THY     HO65696   5.419   3.450   4.864  0.8165  1.3723 -0.3665
19285THY    CA165697   5.565   3.349   4.814  0.9902 -0.0480 -0.0489
19285THY    CA265698   5.630   3.265   4.720 -0.3945  0.5367  0.1304
19285THY    CP165699   5.545   3.218   4.597  0.0573 -0.4398 -0.1297
19285THY    HP165700   5.455   3.276   4.577  1.7317  0.5232  3.0447
19285THY    CP265701   5.494   3.081   4.626 -0.7418  0.2876 -0.4460
19285THY    HP265702   5.446   3.043   4.536  0.2156 -1.1171  1.5048
19285THY    HP365703   5.424   3.093   4.710  0.7713  1.6968 -1.0316
19285THY    HP465704   5.573   3.011   4.656 -0.6090 -0.9138 -0.8345
19285THY    CP365705   5.628   3.225   4.467 -0.6283 -0.0999  0.0528
19285THY    HP565706   5.563   3.211   4.379 -0.1055 -0.1496 -2.4451
19285THY    HP665707   5.699   3.142   4.459 -2.1037 -3.4837 -1.0771
19285THY    HP765708   5.685   3.318   4.453 -0.8856 -0.0265  0.2248
19285THY    CA365709   5.767   3.231   4.736  0.2773 -0.4565  0.1651
19285THY    HA365710   5.813   3.158   4.670  0.7071 -0.3599  0.3482
19285THY    CA465711   5.835   3.283   4.852  0.5563 -0.3008 -0.3190
19285THY    HA465712   5.937   3.258   4.878  0.7244 -1.4813 -0.9692
19285THY    CA565713   5.761   3.367   4.943 -1.1069  0.6525 -0.4947
19285THY    CM165714   5.835   3.410   5.066  0.1364  0.1230 -0.1668
19285THY    HM165715   5.835   3.519   5.074 -1.8017  0.7669 -0.1839
19285THY    HM265716   5.940   3.379   5.071 -0.2604  4.4012 -1.4848
19285THY    HM365717   5.788   3.384   5.161 -0.1530 -0.2582 -1.0964
19285THY    CA665718   5.626   3.400   4.924 -0.3836 -0.3990  0.3366
19285THY    HA665719   5.576   3.467   4.993  1.6963  0.7632  0.8041
19286THY      O65720   2.766   6.489   3.864 -0.0048  0.3781 -0.2069
19286THY     HO65721   2.804   6.491   3.954  3.0358 -0.7935  0.6068
19286THY    CA165722   2.636   6.540   3.871 -1.0310  0.4276 -0.1307
19286THY    CA265723   2.527   6.512   3.779 -0.5408  0.0257 -0.6637
19286THY    CP165724   2.554   6.427   3.651  0.4219 -0.5151  0.4211
19286THY    HP165725   2.661   6.411   3.630  1.0142  2.3021  0.2951
19286THY    CP265726   2.495   6.496   3.526  0.2999 -0.3464  0.2520
19286THY    HP265727   2.387   6.493   3.546  0.5187  0.9049 -2.1315
19286THY    HP365728   2.513   6.434   3.437 -2.2449 -1.0743  0.4564
19286THY    HP465729   2.529   6.600   3.529 -0.8862  0.2000  0.6419
19286THY    CP365730   2.509   6.281   3.673 -0.3159 -0.7183 -0.0320
19286THY    HP565731   2.494   6.231   3.577  1.3412 -0.2695 -1.4882
19286THY    HP665732   2.416   6.280   3.732  0.4015  0.4418 -0.0290
19286THY    HP765733   2.589   6.224   3.722 -0.2871 -2.4452 -1.5418
19286THY    CA365734   2.398   6.562   3.811  0.1171 -0.4295 -0.5996
19286THY    HA365735   2.316   6.544   3.743 -0.2754  0.2223 -1.3680
19286THY    CA465736   2.379   6.645   3.923  0.2913  0.7397  0.6399
19286THY    HA465737   2.281   6.684   3.949 -0.3109 -0.5599  0.0421
19286THY    CA565738   2.487   6.673   4.005 -0.1048  0.1022  0.6672
19286THY    CM165739   2.475   6.759   4.130  0.1034  0.2290 -0.8979
19286THY    HM165740   2.483   6.866   4.108  1.2201  1.8598 -0.6142
19286THY    HM265741   2.550   6.731   4.205  1.5078 -0.5248  0.7246
19286THY    HM365742   2.382   6.746   4.187 -0.0478 -0.0539 -1.0718
19286THY    CA665743   2.610   6.622   3.976 -1.2138  0.2052 -0.0979
19286THY    HA665744   2.694   6.649   4.040  1.4896 -1.7455 -3.0784
19287THY      O65745   6.633   3.005   4.770 -0.1988  0.3244 -0.4869
19287THY     HO65746   6.550   2.998   4.820 -1.3693 -1.5294 -0.4298
19287THY    CA165747   6.597   3.054   4.652  0.1813  0.1308 -0.2390
19287THY    CA265748   6.684   3.124   4.555 -0.0179 -1.3174  0.2146
19287THY    CP165749   6.820   3.165   4.606 -0.2183  0.0749 -0.0516
19287THY    HP165750   6.841   3.107   4.696  1.1324  1.3332  2.2224
19287THY    CP265751   6.813   3.312   4.654 -0.0724 -0.0234  0.7852
19287THY    HP265752   6.724   3.333   4.715 -0.6887 -0.8560  0.6389
19287THY    HP365753   6.808   3.376   4.565  1.6727 -1.1989 -0.6214
19287THY    HP465754   6.898   3.342   4.717  0.6302 -1.5162  2.0886
19287THY    CP365755   6.935   3.138   4.504 -0.0528 -0.0359 -0.2729
19287THY    HP565756   6.918   3.198   4.413  1.2361 -0.6495 -0.8113
19287THY    HP665757   6.943   3.034   4.474 -0.4603  1.3307 -0.7227
19287THY    HP765758   7.030   3.170   4.548  0.2513  0.3390 -1.6702
19287THY    CA365759   6.631   3.169   4.437 -0.0998 -0.4367 -0.2558
19287THY    HA365760   6.679   3.238   4.369 -0.6076  1.4342  2.0832
19287THY    CA465761   6.504   3.127   4.402 -0.1764 -0.3154  0.1081
19287THY    HA465762   6.464   3.158   4.305  1.9468 -1.1068  0.5787
19287THY    CA565763   6.426   3.048   4.487 -0.0282 -0.3795 -0.4865
19287THY    CM165764   6.284   3.011   4.453 -0.2829 -0.3232 -0.4576
19287THY    HM165765   6.270   2.902   4.448  1.1374 -1.2508 -0.6212
19287THY    HM265766   6.259   3.053   4.355 -0.9669  0.7923  1.9407
19287THY    HM365767   6.208   3.041   4.528  1.0178  0.5502  0.7857
19287THY    CA665768   6.472   3.017   4.616 -0.1773 -0.5859 -0.0647
19287THY    HA665769   6.407   2.960   4.682 -1.1961 -1.3341  0.1948
19288THY      O65770   4.296   0.932   2.457  0.1772  0.0952 -0.3102
19288THY     HO65771   4.250   1.015   2.435 -0.3624 -0.1247 -0.6661
19288THY    CA165772   4.430   0.951   2.450 -0.2059 -0.1464 -0.5398
19288THY    CA265773   4.518   0.848   2.482 -0.0638 -0.2109  0.6474
19288THY    CP165774   4.468   0.715   2.540 -0.8987  0.0746 -0.4957
19288THY    HP165775   4.369   0.693   2.498 -0.6778  0.3482 -2.1644
19288THY    CP265776   4.443   0.724   2.691  0.2872 -0.0922 -0.0727
19288THY    HP265777   4.446   0.621   2.730  1.8252  2.8106  0.9800
19288THY    HP365778   4.347   0.767   2.724 -0.8557 -0.8291 -1.9082
19288THY    HP465779   4.519   0.784   2.740 -1.2055  1.2415  0.8110
19288THY    CP365780   4.566   0.600   2.510  0.2894 -0.3397 -0.4779
19288THY    HP565781   4.660   0.617   2.565 -0.0740 -0.2536  1.4790
19288THY    HP665782   4.594   0.587   2.404  0.9378 -0.4285  1.3965
19288THY    HP765783   4.530   0.508   2.557 -1.7464  2.0633  1.3969
19288THY    CA365784   4.657   0.885   2.470  0.1250  0.5169  0.3347
19288THY    HA365785   4.729   0.810   2.501  0.4609  1.1229  0.8946
19288THY    CA465786   4.696   1.014   2.421 -0.3225 -0.0010 -0.2972
19288THY    HA465787   4.802   1.035   2.413 -0.5535  0.6604  1.3386
19288THY    CA565788   4.603   1.120   2.399  0.7088  0.6737 -1.0525
19288THY    CM165789   4.650   1.266   2.374  0.2822 -0.0169  0.0879
19288THY    HM165790   4.556   1.322   2.364 -0.2709 -1.9005 -1.0823
19288THY    HM265791   4.698   1.262   2.275 -0.2925 -0.2971 -3.4905
19288THY    HM365792   4.724   1.308   2.444  1.8818 -0.0752 -2.3933
19288THY    CA665793   4.464   1.086   2.409  0.1637 -0.0866 -0.5171
19288THY    HA665794   4.391   1.166   2.402  0.0590 -1.3691 -0.7061
19289THY      O65795   2.763   7.701   7.565  0.3073  0.0403 -0.1091
19289THY     HO65796   2.844   7.649   7.550  0.2841  1.1380 -0.4949
19289THY    CA165797   2.802   7.829   7.561  0.5915  0.6034 -1.5932
19289THY    CA265798   2.717   7.923   7.499  0.0784 -0.3299  0.3241
19289THY    CP165799   2.591   7.872   7.426 -0.3707 -0.3440 -0.1637
19289THY    HP165800   2.612   7.778   7.373 -2.5506 -1.6151 -0.0004
19289THY    CP265801   2.548   7.960   7.304 -0.2409 -0.4241 -0.3038
19289THY    HP265802   2.524   8.062   7.335  2.1272 -1.6174  0.6718
19289THY    HP365803   2.464   7.915   7.249  0.9796 -2.3062 -0.3802
19289THY    HP465804   2.625   7.962   7.227  0.9582  0.7528 -0.0983
19289THY    CP365805   2.470   7.851   7.522  0.8778  0.2352  0.2103
19289THY    HP565806   2.447   7.934   7.589  0.8365  1.2257 -0.5839
19289THY    HP665807   2.475   7.763   7.587  0.1237 -2.1792 -1.7530
19289THY    HP765808   2.382   7.830   7.460  0.8062  0.2528  0.4571
19289THY    CA365809   2.754   8.063   7.506 -0.0752 -0.0078  0.3488
19289THY    HA365810   2.688   8.141   7.469 -0.7401  0.6395  0.1020
19289THY    CA465811   2.876   8.099   7.563  0.2976 -0.2168 -0.1893
19289THY    HA465812   2.912   8.201   7.559 -1.3041 -1.4441  0.3675
19289THY    CA565813   2.962   8.004   7.619  0.1630  0.4227 -0.3433
19289THY    CM165814   3.106   8.046   7.667  0.0015 -0.3674 -0.0141
19289THY    HM165815   3.170   7.958   7.659 -1.9913 -3.4825 -1.3302
19289THY    HM265816   3.100   8.082   7.771 -0.0150  0.8873 -3.3412
19289THY    HM365817   3.160   8.122   7.609  1.6182  0.5735 -0.3841
19289THY    CA665818   2.924   7.866   7.618  0.5116  0.0230 -0.2690
19289THY    HA665819   2.987   7.788   7.659 -0.3166 -1.6186 -1.8902
19290THY      O65820   1.580   5.365   5.393  0.1945 -0.6059  0.1464
19290THY     HO65821   1.571   5.358   5.489  2.0129 -0.5187 -2.1688
19290THY    CA165822   1.636   5.485   5.383 -0.3471  0.1540  0.4397
19290THY    CA265823   1.606   5.574   5.277  0.3840  0.2581  0.6451
19290THY    CP165824   1.504   5.529   5.169 -0.0066 -0.4907  0.1671
19290THY    HP165825   1.461   5.430   5.186  0.1453  0.3351  0.2377
19290THY    CP265826   1.580   5.511   5.037 -0.6224  0.3242 -0.3119
19290THY    HP265827   1.509   5.463   4.969 -0.8411  0.1309  0.2807
19290THY    HP365828   1.674   5.458   5.056 -0.0140  2.0497  1.2565
19290THY    HP465829   1.619   5.609   5.006  0.4798 -0.1393 -0.8799
19290THY    CP365830   1.385   5.627   5.164 -0.3311 -0.0250  0.1492
19290THY    HP565831   1.409   5.734   5.155 -1.9066 -0.0243  0.5309
19290THY    HP665832   1.330   5.624   5.259 -0.0123  0.1655  0.3452
19290THY    HP765833   1.309   5.597   5.091 -2.9039  1.6377  2.1818
19290THY    CA365834   1.661   5.703   5.281  0.0509  0.5824  0.5055
19290THY    HA365835   1.635   5.768   5.198 -0.0430 -0.0740 -0.3589
19290THY    CA465836   1.751   5.730   5.381 -0.2501  0.5527 -0.1207
19290THY    HA465837   1.793   5.830   5.390  1.1202  0.6084 -0.6890
19290THY    CA565838   1.767   5.646   5.489 -0.5594  0.5840  0.4255
19290THY    CM165839   1.834   5.710   5.599  0.4526  0.6803 -0.1317
19290THY    HM165840   1.820   5.819   5.603  2.1171 -3.3553  0.4189
19290THY    HM265841   1.941   5.699   5.578  0.3945 -0.3823  1.0572
19290THY    HM365842   1.814   5.655   5.691 -2.1863 -0.0049 -0.4602
19290THY    CA665843   1.711   5.518   5.494  0.0517  0.7048  0.4037
19290THY    HA665844   1.726   5.470   5.591  1.7461 -0.5221 -1.7038
19291THY      O65845   6.668   8.174   7.337  0.2253 -0.2038 -0.1153
19291THY     HO65846   6.759   8.207   7.340  0.3551  0.1262 -0.4859
19291THY    CA165847   6.658   8.052   7.396  0.1226 -0.4060 -1.2475
19291THY    CA265848   6.557   7.964   7.367  0.5999 -0.2989  0.0337
19291THY    CP165849   6.444   8.012   7.275 -0.1433 -0.6754  0.1042
19291THY    HP165850   6.423   8.118   7.289 -1.3478  0.3203 -0.2460
19291THY    CP265851   6.314   7.941   7.313 -0.0014  0.5357 -0.0073
19291THY    HP265852   6.308   7.923   7.421  2.3313  0.4744 -1.5901
19291THY    HP365853   6.292   7.847   7.261 -4.2740 -0.7936  1.4849
19291THY    HP465854   6.230   8.003   7.279  0.0408 -0.1623 -0.3273
19291THY    CP365855   6.479   7.985   7.133  0.1779 -0.9129  0.1071
19291THY    HP565856   6.561   8.049   7.097 -0.7991  1.8379  3.1486
19291THY    HP665857   6.398   8.013   7.066  2.7830 -3.4043  2.3452
19291THY    HP765858   6.511   7.881   7.117 -0.1485 -1.3323  0.0722
19291THY    CA365859   6.568   7.836   7.419  0.0617 -0.9594 -0.3935
19291THY    HA365860   6.501   7.756   7.389 -0.5910  0.3511 -0.3703
19291THY    CA465861   6.677   7.812   7.509 -0.2259  0.6260  0.3783
19291THY    HA465862   6.683   7.714   7.557 -1.8327 -1.9205 -1.0750
19291THY    CA565863   6.764   7.914   7.550 -0.1948  0.2672  0.2425
19291THY    CM165864   6.868   7.885   7.652 -0.3211  0.0557  0.3486
19291THY    HM165865   6.847   7.928   7.751 -0.8096  0.3526 -0.5451
19291THY    HM265866   6.964   7.934   7.632 -0.1100 -0.6710 -0.3363
19291THY    HM365867   6.894   7.781   7.671  1.2604 -1.7138  0.3839
19291THY    CA665868   6.759   8.037   7.496 -0.1730  1.0143 -0.0902
19291THY    HA665869   6.837   8.111   7.511  0.8712 -2.2460 -0.4042
19292THY      O65870   8.322   7.742   4.598  0.0438 -0.3869 -0.5474
19292THY     HO65871   8.316   7.779   4.508 -3.8576  0.0225  0.3122
19292THY    CA165872   8.244   7.627   4.584  0.0338 -0.1792 -0.0422
19292THY    CA265873   8.183   7.568   4.698 -0.0514 -0.1375  0.0178
19292THY    CP165874   8.196   7.635   4.829  0.5548  0.5796 -0.0700
19292THY    HP165875   8.231   7.737   4.809  0.3050  1.0952  0.1191
19292THY    CP265876   8.282   7.557   4.924 -0.3881  0.0523 -0.0332
19292THY    HP265877   8.259   7.576   5.029 -0.3967  0.0477 -0.0199
19292THY    HP365878   8.387   7.584   4.904  0.1541  1.5043 -0.9669
19292THY    HP465879   8.267   7.450   4.909 -0.2630  3.1059 -0.5693
19292THY    CP365880   8.062   7.656   4.905 -0.1616 -0.4226 -1.0523
19292THY    HP565881   8.074   7.737   4.979  0.4678 -1.0445 -0.5655
19292THY    HP665882   8.036   7.561   4.954 -2.6530  1.0724  0.2896
19292THY    HP765883   7.970   7.681   4.851  0.3783 -1.4829 -1.3376
19292THY    CA365884   8.125   7.447   4.688  0.1387  0.4286  1.3573
19292THY    HA365885   8.066   7.391   4.760  1.1674  0.7652  0.6654
19292THY    CA465886   8.120   7.389   4.555  0.7772  0.1882 -0.4269
19292THY    HA465887   8.071   7.294   4.535  0.9111 -0.6719 -0.3295
19292THY    CA565888   8.174   7.451   4.444  0.1853  0.5805  0.8969
19292THY    CM165889   8.175   7.385   4.306 -0.3889 -0.1705  0.6487
19292THY    HM165890   8.238   7.443   4.237  0.7511  0.3019  0.0176
19292THY    HM265891   8.075   7.366   4.267  0.1805 -1.1278 -0.5431
19292THY    HM365892   8.236   7.293   4.310 -0.4964 -0.3492  0.5688
19292THY    CA665893   8.232   7.570   4.459  0.2016 -0.2509 -0.9352
19292THY    HA665894   8.277   7.622   4.375  0.5539  1.4258  1.6413
19293THY      O65895   1.356   2.254   2.433  0.3807  0.8506  0.2866
19293THY     HO65896   1.353   2.340   2.479 -1.1702  2.5726 -0.6197
19293THY    CA165897   1.412   2.176   2.533 -0.5967  0.0969  0.5446
19293THY    CA265898   1.500   2.069   2.500 -0.1397 -0.3262 -0.0421
19293THY    CP165899   1.522   2.032   2.348  0.0756  0.1021  0.3052
19293THY    HP165900   1.449   2.091   2.291 -1.6825  3.0448  1.1605
19293THY    CP265901   1.492   1.884   2.310 -0.4360 -0.5901  0.4823
19293THY    HP265902   1.517   1.809   2.386  0.6037  1.0460  2.3865
19293THY    HP365903   1.548   1.863   2.218  1.4452  0.6418 -0.1873
19293THY    HP465904   1.388   1.860   2.285 -0.6538  0.2842  0.4830
19293THY    CP365905   1.669   2.063   2.301  0.1521  0.3220 -0.5900
19293THY    HP565906   1.672   2.172   2.309  2.5569  1.7475 -0.7001
19293THY    HP665907   1.696   2.045   2.196  0.6616  0.1565  1.0373
19293THY    HP765908   1.745   2.023   2.369  0.8854 -0.1027  0.0653
19293THY    CA365909   1.558   1.996   2.605  0.6197  0.2050  0.6133
19293THY    HA365910   1.619   1.906   2.592  0.3442  0.7805  0.3375
19293THY    CA465911   1.521   2.030   2.738 -0.5672 -0.3929 -0.0250
19293THY    HA465912   1.576   1.978   2.816  1.3247 -1.2317  0.6766
19293THY    CA565913   1.432   2.136   2.768 -0.6641  0.5873 -0.2693
19293THY    CM165914   1.393   2.150   2.911  0.3128 -0.2759  0.1244
19293THY    HM165915   1.400   2.055   2.964 -1.3955 -0.8747 -0.3829
19293THY    HM265916   1.292   2.194   2.911  0.6563 -1.1142  0.9465
19293THY    HM365917   1.458   2.220   2.965 -1.3310  1.9280  0.0400
19293THY    CA665918   1.375   2.211   2.666 -0.0975  0.2928 -0.1042
19293THY    HA665919   1.300   2.286   2.694  0.0743  1.8208 -0.4636
19294THY      O65920   8.616   5.257   2.268  1.0260  0.4690 -0.2629
19294THY     HO65921   8.527   5.237   2.300 -0.1297 -2.1474  0.2196
19294THY    CA165922   8.642   5.188   2.156 -0.5467  0.3066  0.5855
19294THY    CA265923   8.700   5.252   2.036  0.0751 -0.3939  0.4722
19294THY    CP165924   8.741   5.400   2.026  0.2089  0.4893 -0.1382
19294THY    HP165925   8.724   5.463   2.115  0.9472  1.5952 -1.4493
19294THY    CP265926   8.671   5.479   1.912  0.2197  0.1132 -0.5500
19294THY    HP265927   8.672   5.428   1.815  1.5182 -0.0948 -0.1585
19294THY    HP365928   8.719   5.578   1.912 -0.8644 -1.1733  0.0091
19294THY    HP465929   8.565   5.496   1.938  0.4601  0.7425  0.0526
19294THY    CP365930   8.894   5.418   1.994  0.8546  0.0316 -0.4227
19294THY    HP565931   8.917   5.365   1.901 -1.4026 -1.1064  0.4779
19294THY    HP665932   8.952   5.381   2.080  1.0050 -0.5945 -1.7121
19294THY    HP765933   8.918   5.522   1.970 -1.5601 -0.6354  0.0197
19294THY    CA365934   8.733   5.166   1.928  0.2470  0.1212 -0.1978
19294THY    HA365935   8.775   5.209   1.838 -0.2956 -0.4636 -0.8755
19294THY    CA465936   8.716   5.028   1.941  0.7569 -0.4300  0.1751
19294THY    HA465937   8.741   4.962   1.858  0.3413  0.4753 -1.1741
19294THY    CA565938   8.658   4.976   2.057  0.1523 -0.2312  0.3588
19294THY    CM165939   8.665   4.820   2.071 -0.2488  0.4665 -0.5093
19294THY    HM165940   8.585   4.787   2.138  1.5597  1.4255 -3.2479
19294THY    HM265941   8.754   4.791   2.128 -1.0247  1.8088 -0.3249
19294THY    HM365942   8.664   4.768   1.974  1.1978  0.4958 -0.6241
19294THY    CA665943   8.627   5.053   2.167  0.3874  0.4152  0.4850
19294THY    HA665944   8.605   5.008   2.263  0.6897  0.8928  1.3497
19295THY      O65945   1.410   5.080   2.607 -0.2502 -0.4752  0.2658
19295THY     HO65946   1.500   5.090   2.641  0.4941 -2.2680 -0.0811
19295THY    CA165947   1.402   4.951   2.583 -0.1190 -0.3876 -0.5874
19295THY    CA265948   1.280   4.890   2.552  0.4348  0.7892  0.4987
19295THY    CP165949   1.149   4.977   2.540 -0.0123 -0.0928 -0.5795
19295THY    HP165950   1.176   5.083   2.548 -1.2580 -1.5876 -0.1003
19295THY    CP265951   1.070   4.951   2.670 -0.2999 -0.1808 -0.7273
19295THY    HP265952   1.015   4.856   2.663 -1.3322 -0.0080 -0.1587
19295THY    HP365953   0.993   5.028   2.680 -0.4912  1.7386 -1.1207
19295THY    HP465954   1.127   4.952   2.763 -0.7664  0.1508 -2.2396
19295THY    CP365955   1.073   4.960   2.405 -0.4060  0.5284 -0.6931
19295THY    HP565956   1.149   4.940   2.328 -0.1904 -0.1201  2.1493
19295THY    HP665957   1.009   5.044   2.377  1.0436 -2.0882 -0.3594
19295THY    HP765958   1.011   4.870   2.416 -1.0596  2.9496 -0.0310
19295THY    CA365959   1.279   4.752   2.525  0.0773 -0.1899 -0.2255
19295THY    HA365960   1.179   4.717   2.499  0.2920 -2.2896  0.5855
19295THY    CA465961   1.394   4.680   2.527  0.7891  0.0454 -0.1029
19295THY    HA465962   1.397   4.576   2.498 -0.0084  0.7767 -0.3463
19295THY    CA565963   1.515   4.745   2.558 -0.2628  0.2205 -0.6615
19295THY    CM165964   1.644   4.658   2.548  0.4337 -0.6225 -0.0804
19295THY    HM165965   1.688   4.650   2.648  0.5029 -0.5449  1.1089
19295THY    HM265966   1.711   4.701   2.473 -1.7656 -1.3180  2.3745
19295THY    HM365967   1.627   4.552   2.528 -0.1103  1.9516 -0.5645
19295THY    CA665968   1.519   4.877   2.596 -0.7035  0.3286 -0.4542
19295THY    HA665969   1.610   4.922   2.636 -1.3587  1.2595  0.0701
19296THY      O65970   6.023   4.180   5.741 -0.0382  0.3378  0.2312
19296THY     HO65971   6.050   4.123   5.815 -1.5718  1.3987  0.8149
19296THY    CA165972   5.919   4.251   5.794 -0.5501  0.3428  0.1254
19296THY    CA265973   5.902   4.388   5.761  0.4751  0.0327 -0.2582
19296THY    CP165974   5.987   4.456   5.656 -0.3507 -0.3981 -0.3007
19296THY    HP165975   6.060   4.386   5.613 -0.7395  1.3410 -1.8510
19296THY    CP265976   6.071   4.571   5.719  0.0779 -0.4484 -0.5814
19296THY    HP265977   6.135   4.532   5.799  0.1949 -0.3537 -0.2077
19296THY    HP365978   6.017   4.656   5.762 -0.1078  0.3028 -1.0711
19296THY    HP465979   6.137   4.611   5.641  2.0896  0.9429 -1.0063
19296THY    CP365980   5.896   4.514   5.550  0.2697 -0.5881 -0.2083
19296THY    HP565981   5.820   4.441   5.518  0.8022  2.2379 -2.1263
19296THY    HP665982   5.961   4.546   5.467 -0.0947 -1.4913 -1.7095
19296THY    HP765983   5.833   4.590   5.599 -1.9316  1.2273 -3.0189
19296THY    CA365984   5.800   4.459   5.836 -0.0547 -0.3049  0.3110
19296THY    HA365985   5.804   4.567   5.832 -0.7579  1.1982  0.4211
19296THY    CA465986   5.721   4.395   5.934 -0.4077 -0.4892 -0.1224
19296THY    HA465987   5.644   4.449   5.988 -0.8125 -0.1389 -1.0270
19296THY    CA565988   5.730   4.258   5.945  0.4000 -0.5464  0.0701
19296THY    CM165989   5.624   4.185   6.029  0.1255 -0.5508 -0.0893
19296THY    HM165990   5.520   4.209   6.003 -0.5848  2.3876  0.3838
19296THY    HM265991   5.623   4.224   6.131 -0.9210 -0.4779 -0.2771
19296THY    HM365992   5.625   4.076   6.019  0.4855 -3.1423  0.0670
19296THY    CA665993   5.834   4.184   5.885  0.6268  0.1623 -0.1212
19296THY    HA665994   5.844   4.077   5.902  1.5400 -2.8504 -0.6057
19297THY      O65995   6.904   7.918   3.177  0.0037 -0.2004 -0.3743
19297THY     HO65996   6.977   7.947   3.120  2.1202  0.1148 -4.3854
19297THY    CA165997   6.855   8.030   3.242 -0.3250  0.4654 -0.1586
19297THY    CA265998   6.717   8.038   3.277 -1.1423 -0.3716  0.8669
19297THY    CP165999   6.633   7.905   3.269  0.1878 -0.6065  0.3894
19297THY    HP166000   6.536   7.919   3.319  1.2115  1.4498  0.5375
19297THY    CP266001   6.685   7.792   3.361 -0.5987  0.3759 -0.0275
19297THY    HP266002   6.734   7.832   3.451 -1.4664  0.8564 -0.0241
19297THY    HP366003   6.749   7.720   3.310  0.5612 -2.6507  2.9357
19297THY    HP466004   6.603   7.723   3.383 -1.5032  0.3647  1.0169
19297THY    CP366005   6.607   7.850   3.127 -0.0494  0.7243  0.4287
19297THY    HP566006   6.553   7.756   3.143  2.1832  2.0186 -0.7099
19297THY    HP666007   6.699   7.841   3.067 -0.6240  0.0154 -0.9580
19297THY    HP766008   6.551   7.922   3.066  0.5173  0.2215  0.4612
19297THY    CA366009   6.667   8.167   3.323  0.5605  0.8729 -0.2320
19297THY    HA366010   6.564   8.173   3.357 -0.4674 -1.0592 -3.7834
19297THY    CA466011   6.752   8.276   3.333  0.2714  0.0444 -0.6792
19297THY    HA466012   6.707   8.368   3.370  1.9091  0.3336  0.0433
19297THY    CA566013   6.889   8.266   3.290 -0.2794 -0.1409  0.2173
19297THY    CM166014   6.988   8.378   3.313  0.0742  1.0115 -1.1584
19297THY    HM166015   7.083   8.332   3.342 -0.7407  2.5556 -1.9356
19297THY    HM266016   6.963   8.445   3.397  1.2059 -0.6106  1.4594
19297THY    HM366017   6.999   8.444   3.226  1.8612  0.9475 -1.4952
19297THY    CA666018   6.941   8.142   3.242  0.5879 -0.2362  0.3488
19297THY    HA666019   7.046   8.136   3.217  0.6635  0.1727 -0.0144
19298THY      O66020   4.634   1.158   6.309  0.2048 -0.0684  0.1693
19298THY     HO66021   4.639   1.099   6.232 -0.3373 -0.7996  1.0394
19298THY    CA166022   4.511   1.217   6.305  0.4638 -0.2467  0.4118
19298THY    CA266023   4.470   1.329   6.382  0.1463  0.1601  0.5133
19298THY    CP166024   4.569   1.380   6.491  0.7469  0.2687 -0.3580
19298THY    HP166025   4.671   1.346   6.472  0.5218 -1.9008  0.0757
19298THY    CP266026   4.521   1.330   6.630 -0.0340  0.3942 -0.6525
19298THY    HP266027   4.536   1.222   6.629 -2.3652  3.0920 -1.1009
19298THY    HP366028   4.414   1.348   6.645 -0.4196 -2.7728  0.4541
19298THY    HP466029   4.587   1.380   6.702 -2.5232  1.0236  2.0081
19298THY    CP366030   4.570   1.537   6.494  0.4347 -0.5914 -0.1796
19298THY    HP566031   4.471   1.576   6.519  0.4761  2.3586 -1.6618
19298THY    HP666032   4.606   1.592   6.406  0.7214  0.2560  1.0255
19298THY    HP766033   4.636   1.561   6.578  2.6306 -2.3988  0.5077
19298THY    CA366034   4.339   1.382   6.356 -0.0176 -0.0410  0.3238
19298THY    HA366035   4.320   1.465   6.424 -1.0877 -1.8337  1.6046
19298THY    CA466036   4.256   1.330   6.257  0.2384 -0.2836 -0.1033
19298THY    HA466037   4.160   1.376   6.234 -0.1385  1.0730 -0.1786
19298THY    CA566038   4.299   1.217   6.188 -0.3039  0.4222  0.3302
19298THY    CM166039   4.219   1.165   6.077  0.4845 -0.2609  0.2536
19298THY    HM166040   4.247   1.195   5.975 -1.9723 -1.2692 -0.6388
19298THY    HM266041   4.115   1.200   6.086  0.0115 -0.4830 -1.0392
19298THY    HM366042   4.220   1.055   6.081  1.0426  0.3497  0.2784
19298THY    CA666043   4.421   1.161   6.207  0.4307 -0.0473 -0.0973
19298THY    HA666044   4.462   1.079   6.148  0.6704  0.8994 -0.6739
19299THY      O66045   8.224   4.210   6.819 -0.0047 -0.9030  0.7384
19299THY     HO66046   8.187   4.295   6.790  1.1140  0.4782  1.7398
19299THY    CA166047   8.359   4.224   6.833  0.1880 -0.6100  0.5511
19299THY    CA266048   8.438   4.132   6.904  0.3409 -0.2382 -0.1946
19299THY    CP166049   8.384   4.037   7.007 -0.1033  0.0452 -0.1453
19299THY    HP166050   8.275   4.041   6.995 -0.1312  0.6470  1.2599
19299THY    CP266051   8.413   4.084   7.143 -0.2782 -0.0282  0.2885
19299THY    HP266052   8.367   4.179   7.172  0.2623  0.2076  0.4850
19299THY    HP366053   8.518   4.111   7.161  0.6615  0.1591 -3.0720
19299THY    HP466054   8.403   4.006   7.219  0.0176 -2.5863 -2.4211
19299THY    CP366055   8.430   3.889   6.978 -0.7420  0.6160  0.5894
19299THY    HP566056   8.416   3.857   6.874 -0.5923  0.6935  0.2756
19299THY    HP666057   8.359   3.816   7.019  0.7674 -0.1144 -1.3870
19299THY    HP766058   8.533   3.875   7.012 -0.3569 -0.7143  0.0721
19299THY    CA366059   8.579   4.144   6.905  0.0908 -0.3777  0.0187
19299THY    HA366060   8.639   4.082   6.970 -0.1199 -2.1657 -2.1839
19299THY    CA466061   8.640   4.250   6.836  0.3074 -0.1615  0.3280
19299THY    HA466062   8.747   4.262   6.829  0.2575 -1.6149  0.1178
19299THY    CA566063   8.559   4.340   6.763  1.4567  0.0418  0.1229
19299THY    CM166064   8.622   4.440   6.672 -0.4669 -0.0212  0.0864
19299THY    HM166065   8.553   4.523   6.691  0.7016  0.9141  0.8844
19299THY    HM266066   8.599   4.406   6.571  0.5347  0.8628 -3.5967
19299THY    HM366067   8.731   4.452   6.676 -0.5507 -0.9081  1.3695
19299THY    CA666068   8.417   4.323   6.765  0.1052 -0.0245 -0.2107
19299THY    HA666069   8.358   4.396   6.710  1.9925  0.3420  1.6813
19300THY      O66070   3.913   8.504   7.491 -0.1784  0.0842  0.0300
19300THY     HO66071   3.830   8.505   7.440  0.7490 -1.5687 -1.6112
19300THY    CA166072   3.961   8.378   7.472  0.1513  1.0421 -0.5287
19300THY    CA266073   4.038   8.310   7.565  0.0716  0.9424 -0.3813
19300THY    CP166074   4.046   8.381   7.703  0.3665  0.5464 -0.4161
19300THY    HP166075   4.048   8.490   7.694  1.1974 -1.2777 -0.5620
19300THY    CP266076   4.164   8.343   7.791 -0.9294  0.2268 -0.4072
19300THY    HP266077   4.251   8.341   7.725 -0.5794  0.6932 -0.8494
19300THY    HP366078   4.145   8.238   7.819 -1.1473  0.3437 -0.3387
19300THY    HP466079   4.169   8.416   7.873  0.3883 -1.0603  1.0171
19300THY    CP366080   3.929   8.351   7.795  0.7998  0.1644  0.0045
19300THY    HP566081   3.946   8.246   7.822  1.6496 -3.2721 -0.8867
19300THY    HP666082   3.838   8.358   7.733 -0.2278  1.7482  1.3311
19300THY    HP766083   3.927   8.427   7.873  0.3905  0.4886 -0.3323
19300THY    CA366084   4.098   8.185   7.535  0.9914  0.3197  0.2554
19300THY    HA366085   4.157   8.140   7.615  1.3869 -0.1357 -0.0392
19300THY    CA466086   4.079   8.134   7.406  0.2667  0.2781 -0.0632
19300THY    HA466087   4.134   8.049   7.367  0.8369 -1.7487  1.1690
19300THY    CA566088   3.985   8.190   7.319  0.3739 -0.3100 -1.0620
19300THY    CM166089   3.937   8.123   7.184  0.2445 -0.4633 -0.0375
19300THY    HM166090   3.829   8.112   7.198 -0.1086 -1.9695  1.1775
19300THY    HM266091   3.977   8.021   7.177 -1.4429  3.0427 -1.0996
19300THY    HM366092   3.960   8.178   7.092 -4.2851 -0.1765  2.8060
19300THY    CA666093   3.930   8.309   7.357 -0.7765 -0.4741  0.2167
19300THY    HA666094   3.857   8.347   7.286 -1.3869  0.4044  0.7325
19301THY      O66095   1.598   4.197   2.407 -0.4701 -0.2194  0.7030
19301THY     HO66096   1.564   4.135   2.473 -1.7757 -0.9017  0.6691
19301THY    CA166097   1.716   4.133   2.357  0.3560  0.1251 -0.6965
19301THY    CA266098   1.773   4.160   2.232 -0.3378 -0.1311  0.0633
19301THY    CP166099   1.704   4.259   2.133 -0.1388 -0.2380 -0.4896
19301THY    HP166100   1.599   4.272   2.158  0.2105  2.4940 -2.1357
19301THY    CP266101   1.719   4.232   1.987  0.1768  0.5537 -0.4574
19301THY    HP266102   1.670   4.312   1.930 -1.4249  0.9213 -1.1288
19301THY    HP366103   1.681   4.132   1.960  3.3148  1.1124 -1.9434
19301THY    HP466104   1.821   4.228   1.947  0.3261  0.8270  0.4230
19301THY    CP366105   1.756   4.399   2.176 -0.5356  0.2715  0.4469
19301THY    HP566106   1.749   4.407   2.285  0.8869  0.3643  0.7857
19301THY    HP666107   1.687   4.474   2.136 -1.4721 -0.6844 -0.8785
19301THY    HP766108   1.861   4.419   2.150 -0.4966  0.9207  1.1122
19301THY    CA366109   1.896   4.097   2.196  0.2287  0.4034  0.3545
19301THY    HA366110   1.942   4.098   2.098 -0.0310  0.2770  0.0779
19301THY    CA466111   1.950   4.001   2.288  0.0003 -0.2342 -0.0736
19301THY    HA466112   2.042   3.948   2.266 -1.1421 -2.0998 -1.3832
19301THY    CA566113   1.891   3.973   2.412 -0.6936  0.3676  0.5552
19301THY    CM166114   1.957   3.884   2.515 -0.3581 -0.2354  0.2296
19301THY    HM166115   2.057   3.850   2.484 -0.9800  0.6955 -2.7086
19301THY    HM266116   1.894   3.799   2.545 -2.5362 -1.5299  1.3091
19301THY    HM366117   1.969   3.942   2.607 -1.4569  1.1576 -1.6215
19301THY    CA666118   1.772   4.039   2.450  0.7965  0.4891  0.4829
19301THY    HA666119   1.729   4.025   2.548 -3.1212 -0.6430  2.8943
19302THY      O66120   7.982   4.532   2.567  0.2789  0.5727  0.9571
19302THY     HO66121   7.922   4.579   2.627  1.1062  0.2481  2.4831
19302THY    CA166122   7.917   4.529   2.449  0.7216 -0.0280 -0.6700
19302THY    CA266123   7.941   4.423   2.355 -0.9608 -0.3198 -0.2813
19302THY    CP166124   8.019   4.299   2.407  0.0247 -0.7175 -0.0521
19302THY    HP166125   8.041   4.302   2.514  1.5942 -0.9968 -0.7820
19302THY    CP266126   8.156   4.280   2.337 -0.0741 -0.6331 -0.1652
19302THY    HP266127   8.202   4.379   2.338  0.7129 -0.4184 -0.5265
19302THY    HP366128   8.126   4.260   2.233  2.0648 -0.9950 -1.8708
19302THY    HP466129   8.214   4.200   2.385  0.6645  3.5934  2.6011
19302THY    CP366130   7.934   4.167   2.388 -0.7275 -0.0725 -0.5068
19302THY    HP566131   7.959   4.145   2.283  4.2577  0.7702 -0.1418
19302THY    HP666132   7.827   4.165   2.413 -0.7291  0.1960  1.3416
19302THY    HP766133   7.985   4.086   2.441  1.7940 -0.0706  0.9877
19302THY    CA366134   7.899   4.441   2.221 -1.0259  0.1357  0.1258
19302THY    HA366135   7.913   4.363   2.147  1.5247 -0.1797  0.7716
19302THY    CA466136   7.827   4.556   2.189 -0.5529  0.4778 -0.0501
19302THY    HA466137   7.792   4.570   2.087 -1.9814  0.9909  0.2859
19302THY    CA566138   7.799   4.658   2.277 -1.1230 -0.3973  0.9509
19302THY    CM166139   7.725   4.782   2.230 -0.7082  0.1191  0.1093
19302THY    HM166140   7.796   4.864   2.218  1.6671  3.6181 -1.1998
19302THY    HM266141   7.671   4.812   2.321 -1.7137 -0.3094 -0.3197
19302THY    HM366142   7.651   4.764   2.151 -0.8829  0.3721 -0.3140
19302THY    CA666143   7.855   4.646   2.405  0.5428  0.5901  0.1598
19302THY    HA666144   7.841   4.728   2.475  1.0941 -0.5834  1.2995
19303THY      O66145   5.811   3.351   6.182  0.3603 -0.0293  0.4496
19303THY     HO66146   5.716   3.344   6.161  0.8666 -3.2511  1.7688
19303THY    CA166147   5.850   3.452   6.108 -0.0982 -0.8706 -0.5802
19303THY    CA266148   5.952   3.435   6.016  0.0341  0.6338 -0.6324
19303THY    CP166149   6.014   3.297   5.983 -0.2690  0.4467  0.1280
19303THY    HP166150   6.019   3.242   6.078  0.3213 -0.9943 -2.4555
19303THY    CP266151   6.154   3.292   5.919 -0.5554  0.0923  0.9080
19303THY    HP266152   6.148   3.304   5.810 -0.2712 -0.1512 -0.8837
19303THY    HP366153   6.202   3.196   5.941 -0.3589 -0.9980  0.7495
19303THY    HP466154   6.216   3.371   5.963  0.9352  0.6768 -0.5289
19303THY    CP366155   5.926   3.232   5.881 -0.0098 -0.9102  0.3145
19303THY    HP566156   5.826   3.205   5.916  0.6577  0.2196 -0.7302
19303THY    HP666157   5.967   3.141   5.837  1.4740 -1.6694  1.3078
19303THY    HP766158   5.924   3.303   5.797  2.5697 -0.8173  0.5838
19303THY    CA366159   5.993   3.550   5.941 -0.3716 -0.6302  0.0469
19303THY    HA366160   6.074   3.546   5.869  0.1118 -0.0344 -1.3648
19303THY    CA466161   5.934   3.670   5.967 -0.1886 -0.1051  0.2746
19303THY    HA466162   5.968   3.753   5.906 -0.6329 -1.4287 -0.4668
19303THY    CA566163   5.821   3.677   6.052  0.0424 -0.0396 -0.5973
19303THY    CM166164   5.738   3.805   6.051  0.6644 -0.1534  0.5071
19303THY    HM166165   5.788   3.897   6.084 -0.3417  1.0673  0.6409
19303THY    HM266166   5.644   3.800   6.108  0.8973  0.3724  1.6367
19303THY    HM366167   5.703   3.824   5.949 -3.0639  0.9933  0.5698
19303THY    CA666168   5.774   3.569   6.121  0.2912  0.4851  0.2291
19303THY    HA666169   5.687   3.569   6.187 -0.5437 -0.5670 -1.0936
19304THY      O66170   6.743   2.561   3.777 -0.3464 -0.0739 -0.0696
19304THY     HO66171   6.779   2.623   3.844 -0.0436 -0.5599  0.2922
19304THY    CA166172   6.636   2.614   3.719 -0.2558 -0.2456 -0.0219
19304THY    CA266173   6.579   2.555   3.607  0.1617 -0.1002  0.4313
19304THY    CP166174   6.640   2.427   3.540  0.0293  0.2406  0.6201
19304THY    HP166175   6.702   2.375   3.615  1.1309 -0.8119  0.3715
19304THY    CP266176   6.709   2.447   3.406 -0.2305 -0.2178  0.0234
19304THY    HP266177   6.752   2.351   3.377  1.9858  0.4147  0.7489
19304THY    HP366178   6.790   2.520   3.422  0.4328 -0.3711 -0.6636
19304THY    HP466179   6.643   2.486   3.328  0.9769  0.1697  3.2044
19304THY    CP366180   6.523   2.330   3.505 -0.1182  0.8323 -0.5927
19304THY    HP566181   6.559   2.226   3.508  0.4176  0.1288 -0.4382
19304THY    HP666182   6.472   2.343   3.409  0.9555  0.4565  1.1089
19304THY    HP766183   6.446   2.328   3.583 -2.1137 -1.0390 -2.6825
19304THY    CA366184   6.463   2.619   3.551 -0.4209 -0.3931  0.1805
19304THY    HA366185   6.416   2.571   3.466 -0.1005 -0.4605 -0.0101
19304THY    CA466186   6.409   2.741   3.607  0.4112 -0.1114  0.3736
19304THY    HA466187   6.317   2.783   3.568  1.2653 -1.0993  1.4270
19304THY    CA566188   6.475   2.796   3.720 -0.4672  0.4511  0.1050
19304THY    CM166189   6.424   2.915   3.784  1.0241  0.1644 -0.2286
19304THY    HM166190   6.491   3.000   3.765 -0.1676 -0.5483  0.5647
19304THY    HM266191   6.411   2.895   3.891 -0.9709 -0.0133 -0.0637
19304THY    HM366192   6.324   2.937   3.747  1.2550 -0.2296  0.1687
19304THY    CA666193   6.587   2.736   3.772  0.3763  0.5858 -0.3918
19304THY    HA666194   6.635   2.780   3.859 -0.7060  0.9622  0.0837
19305THY      O66195   1.564   8.259   7.137 -0.0888 -0.9312 -0.3934
19305THY     HO66196   1.519   8.222   7.059 -1.9869  0.8842 -2.1502
19305THY    CA166197   1.538   8.386   7.147  0.7487  0.2369 -0.3069
19305THY    CA266198   1.643   8.473   7.175  0.4363  0.2943 -0.3547
19305THY    CP166199   1.797   8.430   7.181  0.5854 -0.0666 -0.9746
19305THY    HP166200   1.812   8.323   7.162  0.6454  0.3509 -1.0418
19305THY    CP266201   1.850   8.463   7.320 -0.4925  0.7994 -0.1109
19305THY    HP266202   1.776   8.457   7.401  1.4355  2.6300 -0.3743
19305THY    HP366203   1.886   8.567   7.318  0.6780  0.5248 -0.5153
19305THY    HP466204   1.941   8.405   7.337 -1.5969  1.1945 -1.8127
19305THY    CP366205   1.869   8.506   7.073 -0.2541 -0.2256 -0.6352
19305THY    HP566206   1.852   8.614   7.070  0.2768 -1.4898 -0.5614
19305THY    HP666207   1.832   8.461   6.980  2.5425 -1.3872 -0.7289
19305THY    HP766208   1.976   8.480   7.073  0.1368 -1.5257  0.8284
19305THY    CA366209   1.601   8.605   7.198  0.1943 -0.0332 -0.2628
19305THY    HA366210   1.678   8.673   7.232  0.0839  0.8318 -0.5521
19305THY    CA466211   1.472   8.647   7.168  0.0502  0.0914  0.3191
19305THY    HA466212   1.443   8.751   7.181  0.0346 -1.2176  0.4878
19305THY    CA566213   1.376   8.560   7.122 -0.7368 -0.0999  1.1719
19305THY    CM166214   1.237   8.603   7.098 -0.0979  0.5535 -0.8693
19305THY    HM166215   1.174   8.611   7.188  0.0251  0.7014 -1.5314
19305THY    HM266216   1.179   8.536   7.033 -2.4661  0.5406  1.0363
19305THY    HM366217   1.248   8.696   7.042  0.0955 -0.2267 -1.3579
19305THY    CA666218   1.410   8.424   7.124 -0.5661  1.3609 -0.5511
19305THY    HA666219   1.333   8.355   7.091 -1.8521  2.9032  0.0712
19306THY      O66220   9.265   2.925   2.534 -0.3292  0.2461  0.1600
19306THY     HO66221   9.206   2.849   2.543 -1.0519 -0.5153  0.6146
19306THY    CA166222   9.204   3.016   2.616 -0.1345 -0.1165  0.5556
19306THY    CA266223   9.270   3.127   2.660 -0.9683  0.2665 -0.2967
19306THY    CP166224   9.405   3.162   2.603 -0.2202  0.4407 -0.3073
19306THY    HP166225   9.443   3.082   2.538  1.9124  1.9817 -0.6490
19306THY    CP266226   9.512   3.174   2.715  0.2317  0.0175  0.1843
19306THY    HP266227   9.531   3.081   2.769  0.4917 -1.6279 -0.7698
19306THY    HP366228   9.500   3.261   2.781 -1.8742  2.2069 -1.6439
19306THY    HP466229   9.600   3.188   2.652  0.3082  0.3722  1.4949
19306THY    CP366230   9.408   3.284   2.516 -0.2801 -1.2123 -0.8313
19306THY    HP566231   9.337   3.285   2.433  0.0321 -1.5574  2.3589
19306THY    HP666232   9.508   3.293   2.471  0.4718  0.1149 -2.0180
19306THY    HP766233   9.394   3.374   2.577 -0.8352 -3.2837  0.5760
19306THY    CA366234   9.207   3.212   2.758 -0.1502 -0.6359 -0.1475
19306THY    HA366235   9.247   3.306   2.793  1.5644  1.6303 -1.6170
19306THY    CA466236   9.077   3.175   2.793 -0.2235 -0.4202 -0.7290
19306THY    HA466237   9.025   3.248   2.854 -0.0105 -1.7980  0.6246
19306THY    CA566238   9.020   3.062   2.750  0.1367 -0.2519  0.3730
19306THY    CM166239   8.877   3.035   2.792 -0.2725 -0.0362 -0.2425
19306THY    HM166240   8.822   2.968   2.725 -1.4618 -0.2356  0.8736
19306THY    HM266241   8.816   3.126   2.802  1.7325  1.1640  1.0354
19306THY    HM366242   8.863   2.989   2.890  0.2516  0.5966  0.9119
19306THY    CA666243   9.088   2.970   2.671 -0.0503  0.1340  0.0942
19306THY    HA666244   9.048   2.872   2.648  2.4299  1.7653 -1.4319
19307THY      O66245   0.320   6.591   5.650 -0.2270  0.0321 -0.2694
19307THY     HO66246   0.330   6.507   5.699 -0.3646 -1.7520 -1.3715
19307THY    CA166247   0.317   6.703   5.733 -0.0417 -0.6944  0.0848
19307THY    CA266248   0.305   6.837   5.696  0.3031  0.1070  0.2105
19307THY    CP166249   0.291   6.879   5.548  0.2182 -0.1460 -0.2296
19307THY    HP166250   0.301   6.795   5.479 -0.7520 -0.4802 -0.0829
19307THY    CP266251   0.406   6.975   5.500  1.0213  0.7343  0.1690
19307THY    HP266252   0.390   7.011   5.398  0.9328  0.9016  0.6147
19307THY    HP366253   0.502   6.925   5.517  1.6758  2.8216  1.9484
19307THY    HP466254   0.412   7.059   5.570  1.1345  1.6110 -0.5508
19307THY    CP366255   0.153   6.942   5.528 -0.3186  0.1248  0.3577
19307THY    HP566256   0.152   7.049   5.552  0.4738  1.1848  0.1362
19307THY    HP666257   0.081   6.891   5.591  0.7079  0.8662 -0.2019
19307THY    HP766258   0.127   6.922   5.423  0.1409  0.0183  0.3017
19307THY    CA366259   0.337   6.932   5.794  0.2326  0.1062  0.0275
19307THY    HA366260   0.336   7.039   5.775 -1.2017 -0.8335 -0.1202
19307THY    CA466261   0.362   6.896   5.926 -0.7172 -0.4650 -0.3111
19307THY    HA466262   0.374   6.967   6.007  1.2672  1.0513 -2.2123
19307THY    CA566263   0.348   6.758   5.965 -0.5844  0.2899 -1.0516
19307THY    CM166264   0.343   6.728   6.109 -0.2853 -0.2987 -0.5009
19307THY    HM166265   0.368   6.624   6.134 -0.3152 -0.2875 -0.5055
19307THY    HM266266   0.250   6.754   6.162  0.1013  0.2110 -0.1304
19307THY    HM366267   0.422   6.780   6.166 -1.3833 -0.7745  1.8383
19307THY    CA666268   0.333   6.659   5.869  0.6694  0.5923  0.1927
19307THY    HA666269   0.339   6.553   5.894  0.0305  0.4732  0.1262
19308THY      O66270   3.649   8.563   7.352  0.0801  0.2148  0.3365
19308THY     HO66271   3.644   8.643   7.297  1.5525 -1.7210 -0.8140
19308THY    CA166272   3.625   8.456   7.273 -0.4539 -1.0882  0.2471
19308THY    CA266273   3.553   8.347   7.322  0.0004 -0.6179 -0.9978
19308THY    CP166274   3.494   8.345   7.462 -0.3351 -0.1814 -0.3223
19308THY    HP166275   3.502   8.440   7.515  1.0547 -1.6196  0.4107
19308THY    CP266276   3.580   8.257   7.553 -0.3585 -0.3300 -0.8632
19308THY    HP266277   3.553   8.282   7.656  1.3694 -0.3885  1.5936
19308THY    HP366278   3.679   8.303   7.556 -0.7281 -0.4085 -0.0490
19308THY    HP466279   3.574   8.149   7.531 -0.7764  2.5502 -1.5045
19308THY    CP366280   3.342   8.306   7.459 -0.7599  0.0205 -0.2136
19308THY    HP566281   3.294   8.382   7.396  1.0231 -1.1993 -0.0181
19308THY    HP666282   3.306   8.317   7.561 -0.8459 -0.1635  1.4602
19308THY    HP766283   3.317   8.205   7.425 -0.3015  1.3580 -0.7956
19308THY    CA366284   3.522   8.249   7.232  0.0146 -0.6474 -0.1038
19308THY    HA366285   3.453   8.171   7.264  0.5652 -0.2167 -0.4270
19308THY    CA466286   3.569   8.245   7.105  0.3883 -0.4814  0.1305
19308THY    HA466287   3.530   8.172   7.035 -0.7860 -0.6903  0.9271
19308THY    CA566288   3.653   8.348   7.060 -0.6150  0.2011 -0.3980
19308THY    CM166289   3.707   8.338   6.916  0.1243 -1.2906 -0.3371
19308THY    HM166290   3.769   8.418   6.875  2.0809 -1.4511 -1.8607
19308THY    HM266291   3.616   8.332   6.857 -0.8187 -0.0362  0.8660
19308THY    HM366292   3.763   8.244   6.915 -0.7634  4.2557 -1.2862
19308THY    CA666293   3.687   8.457   7.146  0.7688  0.0276 -0.2822
19308THY    HA666294   3.738   8.546   7.110  0.3769 -0.0683 -0.0943
19309THY      O66295   6.962   8.289   7.366 -0.8009  0.0802  0.4200
19309THY     HO66296   6.966   8.376   7.409  1.9059 -0.6134  0.7515
19309THY    CA166297   7.073   8.291   7.284 -0.5505 -0.7780 -0.1889
19309THY    CA266298   7.129   8.170   7.239 -0.2590  0.5087  0.3438
19309THY    CP166299   7.070   8.032   7.280 -0.3222 -0.6671 -0.2744
19309THY    HP166300   7.019   8.049   7.376  0.7088 -0.5849  3.2636
19309THY    CP266301   7.179   7.934   7.301  0.0502  0.1262 -0.2430
19309THY    HP266302   7.220   7.903   7.204 -1.3255  0.0714 -2.0374
19309THY    HP366303   7.126   7.852   7.350 -0.3948  1.0020  0.5562
19309THY    HP466304   7.260   7.985   7.354 -0.4965 -0.3969  1.2228
19309THY    CP366305   6.967   7.980   7.185 -0.1378 -0.3066  0.2906
19309THY    HP566306   6.920   7.887   7.222 -0.8464  1.3261  1.2479
19309THY    HP666307   7.016   7.960   7.089 -1.0764 -0.9663  1.0697
19309THY    HP766308   6.888   8.055   7.181 -0.4844  1.5656  0.0853
19309THY    CA366309   7.241   8.178   7.159  0.7630 -0.7638  0.7211
19309THY    HA366310   7.301   8.091   7.134  1.6697 -2.2349  1.7115
19309THY    CA466311   7.302   8.297   7.133  0.0252  0.4372  0.3313
19309THY    HA466312   7.394   8.296   7.075  0.3785  0.9727  0.9612
19309THY    CA566313   7.246   8.414   7.176  0.0298  0.3212  0.1815
19309THY    CM166314   7.318   8.544   7.148  0.6545 -0.0030  0.4890
19309THY    HM166315   7.348   8.558   7.043 -0.6411 -0.5157 -0.4168
19309THY    HM266316   7.409   8.544   7.210 -0.0557  1.0663 -0.5591
19309THY    HM366317   7.256   8.630   7.173 -0.7203  1.4765 -0.8698
19309THY    CA666318   7.123   8.417   7.246  0.3662 -0.4001 -0.2077
19309THY    HA666319   7.084   8.511   7.283  5.4308 -0.9153  2.4246
19310THY      O66320   4.989   2.606   3.890  0.0538  0.1276  0.4974
19310THY     HO66321   4.927   2.538   3.921 -3.2687  0.0961  3.2332
19310THY    CA166322   5.109   2.560   3.915  0.1713 -0.1335  0.2412
19310THY    CA266323   5.214   2.643   3.942  0.5341 -0.2940 -0.0207
19310THY    CP166324   5.186   2.788   3.936 -0.3436 -0.1303  0.2495
19310THY    HP166325   5.121   2.821   3.854 -1.9165  1.4545  1.2769
19310THY    CP266326   5.312   2.869   3.896  0.2204  0.5320  0.3954
19310THY    HP266327   5.290   2.975   3.879 -1.9777  1.6057  0.1805
19310THY    HP366328   5.353   2.839   3.800  1.0253  1.6762 -2.5074
19310THY    HP466329   5.391   2.867   3.971  3.3800 -2.5426  1.1949
19310THY    CP366330   5.136   2.842   4.070  0.6419 -0.3799  0.0057
19310THY    HP566331   5.043   2.792   4.100  0.0217 -1.2128  0.6261
19310THY    HP666332   5.123   2.951   4.071  1.7630 -0.8273  0.1641
19310THY    HP766333   5.215   2.825   4.144 -0.7021  1.0000 -0.3419
19310THY    CA366334   5.338   2.593   3.973  0.1898 -0.1271  0.0651
19310THY    HA366335   5.418   2.655   4.011 -1.4848 -0.0373  2.2602
19310THY    CA466336   5.353   2.453   3.980 -0.0559 -0.6769  0.2289
19310THY    HA466337   5.442   2.415   4.030 -0.4513 -0.5657 -0.5713
19310THY    CA566338   5.241   2.370   3.950  0.5488 -0.2372 -0.4981
19310THY    CM166339   5.256   2.219   3.962 -0.2516  0.0744 -0.2265
19310THY    HM166340   5.183   2.181   4.035  1.5035  1.6776 -0.6923
19310THY    HM266341   5.355   2.190   3.998 -0.3570  1.4701  1.0020
19310THY    HM366342   5.246   2.184   3.859  1.4178 -0.5165  0.9110
19310THY    CA666343   5.125   2.420   3.908 -0.8406  0.0284 -0.1441
19310THY    HA666344   5.043   2.353   3.883 -0.0589  0.7446 -1.4049
19311THY      O66345   6.396   1.710   4.697  0.1800  0.7882  0.2579
19311THY     HO66346   6.468   1.773   4.683  0.9248  1.4526 -0.4238
19311THY    CA166347   6.462   1.598   4.729 -0.3015 -0.4399  0.3943
19311THY    CA266348   6.411   1.473   4.698  0.8542  0.8375  0.5209
19311THY    CP166349   6.259   1.455   4.643 -0.1735 -0.5889 -0.0160
19311THY    HP166350   6.204   1.548   4.623 -0.4363 -0.9441 -0.2464
19311THY    CP266351   6.165   1.376   4.732 -0.5715 -0.6093 -0.6186
19311THY    HP266352   6.149   1.429   4.827  0.4965 -0.8498  0.1700
19311THY    HP366353   6.203   1.275   4.755 -0.0866 -0.6608 -0.4492
19311THY    HP466354   6.070   1.373   4.678 -1.0280  0.1276  0.3815
19311THY    CP366355   6.252   1.395   4.503  0.4866 -0.1695  0.0290
19311THY    HP566356   6.289   1.292   4.497  1.8298 -3.1421  0.5629
19311THY    HP666357   6.301   1.470   4.439 -1.4478  0.8132  2.2763
19311THY    HP766358   6.145   1.400   4.476  0.3562  0.5167  1.4166
19311THY    CA366359   6.481   1.358   4.730  0.0031 -0.2215  0.0830
19311THY    HA366360   6.442   1.258   4.714  1.4032  2.1700 -0.9179
19311THY    CA466361   6.600   1.367   4.800  0.4428  0.0712  0.0313
19311THY    HA466362   6.660   1.280   4.824  1.3616 -0.0557  0.6089
19311THY    CA566363   6.653   1.498   4.823  0.1040 -0.1075  0.3567
19311THY    CM166364   6.794   1.520   4.875 -0.2733 -0.5191 -0.2023
19311THY    HM166365   6.869   1.444   4.850  1.5783 -2.1582  1.9994
19311THY    HM266366   6.788   1.527   4.985 -0.1533 -0.5880  1.2947
19311THY    HM366367   6.840   1.615   4.844  0.4949  1.0207 -0.0348
19311THY    CA666368   6.587   1.615   4.781 -0.3016 -0.5477 -0.1185
19311THY    HA666369   6.628   1.712   4.807  0.6389 -0.0387 -0.6411
19312THY      O66370   8.206   6.210   5.860  0.0839  0.4122 -0.2138
19312THY     HO66371   8.249   6.241   5.942 -2.8411  1.1693  2.3740
19312THY    CA166372   8.244   6.302   5.765 -0.0472 -0.4735 -1.0673
19312THY    CA266373   8.272   6.277   5.631 -1.0739 -0.4135  0.0997
19312THY    CP166374   8.256   6.134   5.579  0.0912  0.9103  0.0537
19312THY    HP166375   8.221   6.069   5.660  1.8932  0.3245 -1.7481
19312THY    CP266376   8.387   6.064   5.540 -0.0551 -0.6393  0.0527
19312THY    HP266377   8.364   5.965   5.497 -0.8453 -0.8682  0.3341
19312THY    HP366378   8.435   6.045   5.637 -2.3786  0.2257 -2.0076
19312THY    HP466379   8.445   6.134   5.479  0.4447  2.8362  2.9508
19312THY    CP366380   8.140   6.128   5.475 -0.9756  0.3685 -0.2109
19312THY    HP566381   8.121   6.023   5.452  0.9847  0.3683 -0.5986
19312THY    HP666382   8.163   6.168   5.375 -3.6738 -0.7288 -1.1640
19312THY    HP766383   8.058   6.192   5.509 -1.2782 -1.2058  0.2878
19312THY    CA366384   8.310   6.385   5.543 -0.1559 -0.0882 -0.3586
19312THY    HA366385   8.315   6.366   5.436  1.0549 -0.0690 -0.2296
19312THY    CA466386   8.317   6.512   5.592 -0.2699  0.8441  0.3687
19312THY    HA466387   8.342   6.591   5.522 -1.2610 -0.0473 -0.0746
19312THY    CA566388   8.301   6.538   5.723  0.5541 -0.7794  0.0396
19312THY    CM166389   8.314   6.682   5.773 -0.0809  0.1988 -0.3824
19312THY    HM166390   8.213   6.706   5.809 -0.2695  0.3509 -1.3550
19312THY    HM266391   8.338   6.751   5.692 -1.2348  1.3083  1.4110
19312THY    HM366392   8.384   6.696   5.856 -1.9914  1.6561  1.0495
19312THY    CA666393   8.258   6.438   5.809 -0.5641 -0.1360  0.1678
19312THY    HA666394   8.237   6.457   5.914 -2.6194  0.0469 -2.4637
19313THY      O66395   8.294   6.580   2.746  0.2376  0.3170 -0.3703
19313THY     HO66396   8.240   6.541   2.675 -0.6479  1.8883 -2.1936
19313THY    CA166397   8.310   6.714   2.737 -0.3533 -0.5402  0.1501
19313THY    CA266398   8.379   6.796   2.829  0.3923 -0.4480  0.1692
19313THY    CP166399   8.452   6.720   2.939  0.3021 -0.4852 -0.5346
19313THY    HP166400   8.383   6.638   2.963 -2.0058 -1.5365  0.9879
19313THY    CP266401   8.472   6.808   3.068  0.6411  0.0722 -0.1362
19313THY    HP266402   8.379   6.863   3.089 -0.9540 -0.0051 -2.6488
19313THY    HP366403   8.554   6.880   3.065  0.8796 -0.2789 -0.4199
19313THY    HP466404   8.497   6.754   3.161 -0.0947  1.3334  1.6012
19313THY    CP366405   8.588   6.670   2.895  0.2253  0.3408 -0.6360
19313THY    HP566406   8.613   6.587   2.962  4.2272 -0.2240 -0.1120
19313THY    HP666407   8.653   6.757   2.902  0.1176  0.6057 -0.5755
19313THY    HP766408   8.594   6.637   2.790  0.6893  0.4145 -0.7969
19313THY    CA366409   8.369   6.932   2.819  0.0008 -0.4122 -0.0770
19313THY    HA366410   8.427   6.998   2.883 -0.2645  1.1942 -1.3333
19313THY    CA466411   8.293   6.991   2.713  0.1959 -0.4236  0.5296
19313THY    HA466412   8.287   7.100   2.711  2.2306 -2.4344  0.6867
19313THY    CA566413   8.238   6.909   2.612 -0.1650  0.4464 -0.0278
19313THY    CM166414   8.165   6.968   2.498  0.6536  1.0766 -0.2277
19313THY    HM166415   8.244   6.983   2.423  0.7699  1.3478  0.6036
19313THY    HM266416   8.131   7.068   2.530  0.1161 -0.4978  0.1144
19313THY    HM366417   8.085   6.906   2.458 -0.3140  0.8423  1.1176
19313THY    CA666418   8.240   6.774   2.631 -0.2962  0.2319  0.6414
19313THY    HA666419   8.192   6.702   2.565 -0.8413  1.4686 -0.1698
19314THY      O66420   3.052   2.432   2.583  0.3649  0.2083 -0.4651
19314THY     HO66421   3.047   2.404   2.676 -1.5209  1.0817  2.3481
19314THY    CA166422   3.185   2.432   2.557 -0.0895 -1.0479  0.1052
19314THY    CA266423   3.245   2.509   2.453  0.7512  0.1656 -0.2083
19314THY    CP166424   3.158   2.588   2.353 -0.1261  0.7707 -0.2887
19314THY    HP166425   3.056   2.603   2.391 -0.7005 -1.1207  0.9179
19314THY    CP266426   3.144   2.522   2.212 -0.0124 -0.6867 -0.6227
19314THY    HP266427   3.074   2.439   2.221  0.7978 -1.2305 -1.3796
19314THY    HP366428   3.235   2.482   2.166  0.5391 -0.7793  0.6864
19314THY    HP466429   3.090   2.590   2.144 -1.1981  0.8957  0.0763
19314THY    CP366430   3.214   2.733   2.332  0.1110  0.6256  0.3872
19314THY    HP566431   3.223   2.766   2.436 -0.4989  0.8741 -0.2159
19314THY    HP666432   3.147   2.791   2.266 -0.3457 -0.5800 -1.4249
19314THY    HP766433   3.318   2.735   2.297 -0.5528 -1.4876  0.4911
19314THY    CA366434   3.389   2.516   2.446 -0.2768  0.1902  0.0188
19314THY    HA366435   3.445   2.569   2.369  0.9144 -0.5922 -2.2587
19314THY    CA466436   3.461   2.442   2.542 -0.2436 -0.3800 -0.1736
19314THY    HA466437   3.569   2.450   2.540 -0.1738 -0.4894 -1.0659
19314THY    CA566438   3.403   2.364   2.645 -0.0912  0.1336  0.0695
19314THY    CM166439   3.481   2.272   2.734 -0.0919  0.5046  0.3364
19314THY    HM166440   3.443   2.169   2.727  0.8797 -0.5450  0.0356
19314THY    HM266441   3.483   2.299   2.841  1.0939  0.9648 -1.4261
19314THY    HM366442   3.589   2.270   2.713 -0.2353 -0.2178 -0.1501
19314THY    CA666443   3.263   2.366   2.653  0.5906  0.3174  0.2868
19314THY    HA666444   3.220   2.304   2.732  0.5982  0.3071  0.2684
19315THY      O66445   3.078   6.589   5.677 -0.0086  0.5243 -0.6132
19315THY     HO66446   3.000   6.536   5.653  0.3451  0.2796 -1.0244
19315THY    CA166447   3.055   6.635   5.803  0.1799 -0.1689  0.4078
19315THY    CA266448   3.164   6.669   5.893 -0.6215  0.2141 -0.7140
19315THY    CP166449   3.301   6.646   5.840  0.3918 -0.8048  0.3112
19315THY    HP166450   3.301   6.569   5.762 -0.3455  1.0805 -1.7061
19315THY    CP266451   3.394   6.572   5.951 -0.1533 -0.6261 -0.1904
19315THY    HP266452   3.343   6.478   5.976 -0.6125 -2.0137 -0.3342
19315THY    HP366453   3.409   6.640   6.036  1.5901 -0.2155 -1.0655
19315THY    HP466454   3.491   6.550   5.906  0.8964  0.6055  1.6649
19315THY    CP366455   3.359   6.783   5.806  0.3707  0.2599  0.4792
19315THY    HP566456   3.332   6.856   5.884 -0.3521  1.2144 -0.7526
19315THY    HP666457   3.308   6.818   5.716  0.9365 -0.4085 -0.4040
19315THY    HP766458   3.465   6.773   5.781  0.0769 -0.7188 -0.2824
19315THY    CA366459   3.135   6.735   6.011 -0.4116 -0.1388  0.2783
19315THY    HA366460   3.206   6.747   6.093 -1.8638  1.0264  1.3626
19315THY    CA466461   3.007   6.768   6.050  0.2924 -0.4815 -0.2401
19315THY    HA466462   2.988   6.820   6.143 -1.5013 -1.0010  0.0903
19315THY    CA566463   2.901   6.731   5.961 -0.3644 -0.1232  0.0965
19315THY    CM166464   2.763   6.745   6.011  0.2700 -0.5256 -0.9994
19315THY    HM166465   2.738   6.646   6.053  2.2037 -0.1161 -1.3682
19315THY    HM266466   2.691   6.772   5.934  0.3614 -0.0843  0.6208
19315THY    HM366467   2.742   6.821   6.087 -0.8623 -0.1030 -1.7070
19315THY    CA666468   2.922   6.669   5.840 -0.2250 -0.0168  0.0589
19315THY    HA666469   2.838   6.650   5.775 -1.8665  2.3316 -1.3785
19316THY      O66470   1.687   0.391   6.474  0.6426  0.1024  0.3365
19316THY     HO66471   1.767   0.424   6.429  1.6242  1.2213 -0.4292
19316THY    CA166472   1.662   0.480   6.572 -0.4450 -0.4546  0.8780
19316THY    CA266473   1.576   0.446   6.678  0.0722  0.4667 -0.0797
19316THY    CP166474   1.486   0.324   6.679  0.7235  0.6386 -0.6964
19316THY    HP166475   1.514   0.257   6.597  0.9901 -1.4145  1.7636
19316THY    CP266476   1.336   0.372   6.658 -0.4701 -0.3100 -0.4398
19316THY    HP266477   1.309   0.463   6.712 -2.3805 -1.6685 -0.1314
19316THY    HP366478   1.270   0.291   6.688 -0.6623  0.2346 -0.0857
19316THY    HP466479   1.319   0.392   6.551 -1.7846 -0.1757 -0.7259
19316THY    CP366480   1.508   0.251   6.814 -0.8427 -0.4556 -0.2232
19316THY    HP566481   1.603   0.197   6.821 -0.4987  1.6410  0.5327
19316THY    HP666482   1.426   0.178   6.825 -1.0562  1.0745  0.2105
19316THY    HP766483   1.512   0.314   6.904 -0.6651 -0.1354 -0.6832
19316THY    CA366484   1.559   0.532   6.783 -0.1727  0.4000 -0.1427
19316THY    HA366485   1.490   0.517   6.866  0.4524  0.4172 -3.6682
19316THY    CA466486   1.655   0.638   6.789  0.3505 -0.5204 -0.7576
19316THY    HA466487   1.655   0.701   6.877 -4.5000  0.9781 -2.3382
19316THY    CA566488   1.748   0.665   6.683 -0.0745 -0.2280  0.0579
19316THY    CM166489   1.853   0.779   6.699 -0.2018  0.1263  0.6394
19316THY    HM166490   1.848   0.814   6.803 -2.6543 -0.6292  2.8801
19316THY    HM266491   1.812   0.861   6.639  0.8541  0.4210  1.4044
19316THY    HM366492   1.948   0.743   6.659 -0.3061 -1.3808  1.9474
19316THY    CA666493   1.747   0.588   6.568  0.6557  0.3021 -0.0953
19316THY    HA666494   1.815   0.607   6.486 -0.7452 -0.4111  2.1189
19317THY      O66495   7.331   5.121   2.201 -0.5171 -0.5332 -0.3879
19317THY     HO66496   7.358   5.164   2.284  1.3882 -1.7696  0.9640
19317THY    CA166497   7.400   5.203   2.109 -0.0264  0.6851  0.2122
19317THY    CA266498   7.457   5.154   1.982  0.0893 -0.1959 -0.9445
19317THY    CP166499   7.423   5.008   1.933  1.3875  0.2666  0.8030
19317THY    HP166500   7.349   4.964   2.001 -1.9707 -1.3701  3.5166
19317THY    CP266501   7.543   4.917   1.942  0.2211  0.5417 -0.6452
19317THY    HP266502   7.612   4.949   1.863 -2.4326 -2.0063 -0.8478
19317THY    HP366503   7.514   4.814   1.919 -2.2848 -1.7926  0.4632
19317THY    HP466504   7.584   4.926   2.043  0.1565  0.4427  1.1802
19317THY    CP366505   7.378   5.009   1.792 -0.1472  0.3572 -0.2711
19317THY    HP566506   7.336   4.908   1.777 -1.0623 -0.7942  0.2629
19317THY    HP666507   7.462   5.038   1.728 -0.1660  0.1883 -0.5832
19317THY    HP766508   7.290   5.073   1.778 -2.2801 -0.1403 -3.0969
19317THY    CA366509   7.533   5.250   1.910 -1.3384  0.6164 -0.4930
19317THY    HA366510   7.590   5.218   1.823 -2.9447 -0.5767 -0.2350
19317THY    CA466511   7.555   5.383   1.957  0.2650  0.1863  0.0687
19317THY    HA466512   7.615   5.457   1.905  0.7667  0.2265 -0.3007
19317THY    CA566513   7.510   5.421   2.082 -0.1066 -0.7592 -0.1662
19317THY    CM166514   7.562   5.553   2.138  0.3498 -0.0522 -0.1743
19317THY    HM166515   7.530   5.639   2.079  0.1002 -2.0404 -1.5821
19317THY    HM266516   7.671   5.561   2.125  0.3437  0.5531  1.0557
19317THY    HM366517   7.546   5.555   2.247 -1.0195 -0.2505  1.0184
19317THY    CA666518   7.432   5.327   2.154  0.3807 -0.5673 -0.1512
19317THY    HA666519   7.402   5.352   2.255  0.6844 -0.0586 -1.6964
19318THY      O66520   8.169   0.592   4.191  0.3325  0.7133  0.1941
19318THY     HO66521   8.091   0.650   4.187 -0.1271 -0.9288 -0.4968
19318THY    CA166522   8.274   0.663   4.147 -0.4144 -0.4273 -1.2085
19318THY    CA266523   8.411   0.618   4.159  0.5312  0.7864  0.1140
19318THY    CP166524   8.432   0.480   4.225 -0.1344  0.1961 -0.1123
19318THY    HP166525   8.354   0.441   4.291 -0.6295 -0.1514  0.2866
19318THY    CP266526   8.546   0.488   4.328 -0.2170 -0.2103 -0.2501
19318THY    HP266527   8.569   0.397   4.385 -0.3203 -0.1632 -0.2458
19318THY    HP366528   8.544   0.574   4.396 -2.7565 -0.8118  0.2392
19318THY    HP466529   8.639   0.501   4.270 -0.5301 -1.1197 -1.8058
19318THY    CP366530   8.461   0.361   4.125 -0.4203 -0.6997  0.2477
19318THY    HP566531   8.384   0.331   4.053 -2.2369  0.3010  2.2491
19318THY    HP666532   8.491   0.280   4.193 -1.8180  1.7883  1.6993
19318THY    HP766533   8.548   0.391   4.066  0.3718 -0.2157 -1.0377
19318THY    CA366534   8.517   0.702   4.100 -0.2545  0.5591  0.1369
19318THY    HA366535   8.614   0.655   4.093 -0.5980  0.5625 -0.5937
19318THY    CA466536   8.485   0.824   4.045 -0.2715 -0.2396  0.4329
19318THY    HA466537   8.566   0.879   3.997  1.7955  1.6440 -0.7701
19318THY    CA566538   8.350   0.863   4.042 -0.8111 -0.1566 -0.0592
19318THY    CM166539   8.324   1.005   3.998  0.3681 -0.2372 -0.4349
19318THY    HM166540   8.367   1.085   4.060 -0.4251 -0.1051 -0.1034
19318THY    HM266541   8.216   1.020   3.988  0.3115  0.9814  0.0440
19318THY    HM366542   8.363   1.015   3.896  0.9969  0.1966  2.5931
19318THY    CA666543   8.248   0.790   4.101 -0.4838  0.4143 -0.2762
19318THY    HA666544   8.151   0.837   4.111  0.4628  1.6395  1.5557
19319THY      O66545   3.589   3.524   3.625 -0.3138 -0.7407 -0.1158
19319THY     HO66546   3.671   3.503   3.578  2.0565  2.6353  0.7217
19319THY    CA166547   3.494   3.437   3.580  0.1954  0.0321  0.1634
19319THY    CA266548   3.371   3.443   3.641 -0.7917  0.6174  0.5896
19319THY    CP166549   3.347   3.538   3.763 -0.4682  0.5028 -0.3052
19319THY    HP166550   3.409   3.628   3.748 -1.0027 -0.3339 -0.0672
19319THY    CP266551   3.392   3.461   3.888  0.0089  0.2662 -0.1747
19319THY    HP266552   3.495   3.424   3.877 -0.4962 -1.6446 -1.1176
19319THY    HP366553   3.332   3.373   3.912 -1.8092  1.7723  1.3836
19319THY    HP466554   3.388   3.529   3.974  1.1113 -0.0808  0.3537
19319THY    CP366555   3.200   3.575   3.774  0.0248  0.0947  0.1314
19319THY    HP566556   3.151   3.487   3.817  0.9125  1.7061  0.4044
19319THY    HP666557   3.151   3.597   3.678 -1.7158  0.8343 -0.3382
19319THY    HP766558   3.177   3.661   3.838  0.1446  1.8441 -1.1047
19319THY    CA366559   3.273   3.359   3.605  0.1885  0.2457  0.6369
19319THY    HA366560   3.176   3.354   3.654  0.3016  0.6561  2.0937
19319THY    CA466561   3.296   3.267   3.504 -0.5236  0.4208 -0.7835
19319THY    HA466562   3.222   3.194   3.475  2.1737 -3.0551 -2.4322
19319THY    CA566563   3.411   3.264   3.434 -0.1905 -0.1260 -0.2063
19319THY    CM166564   3.427   3.155   3.325  0.0847 -0.4892 -0.4743
19319THY    HM166565   3.486   3.072   3.367  1.0007 -1.6688 -0.4363
19319THY    HM266566   3.459   3.196   3.229 -3.1833  0.3973  5.2454
19319THY    HM366567   3.333   3.104   3.300  0.4941  1.3272 -2.2278
19319THY    CA666568   3.522   3.340   3.480  0.4471  0.1449 -0.5041
19319THY    HA666569   3.623   3.327   3.443  1.3372  1.3110  2.2890
19320THY      O66570   9.521   8.434   5.771 -0.5344 -0.1553  0.0475
19320THY     HO66571   9.539   8.530   5.764  0.7284  1.9887  0.0072
19320THY    CA166572   9.399   8.416   5.816  0.1064  0.3179 -0.9862
19320THY    CA266573   9.329   8.304   5.782 -0.0714 -0.0817  0.0254
19320THY    CP166574   9.393   8.186   5.704 -0.2135 -0.5160 -0.5532
19320THY    HP166575   9.480   8.228   5.653 -0.3639 -0.0109  0.4079
19320THY    CP266576   9.291   8.121   5.601 -0.3777 -0.1004 -0.4345
19320THY    HP266577   9.341   8.053   5.531 -1.6365  1.4347 -3.1032
19320THY    HP366578   9.230   8.196   5.550 -1.9000 -0.8301 -2.1001
19320THY    HP466579   9.221   8.059   5.659 -2.6373  0.2741  2.2801
19320THY    CP366580   9.421   8.088   5.812 -0.0803 -0.6535  0.1793
19320THY    HP566581   9.468   7.994   5.782 -2.3955  0.2095 -1.3490
19320THY    HP666582   9.325   8.064   5.859  1.0267  1.7905  0.1496
19320THY    HP766583   9.501   8.132   5.873  1.3846 -1.1466 -1.6825
19320THY    CA366584   9.194   8.295   5.832  0.7605 -0.2157  0.1498
19320THY    HA366585   9.132   8.208   5.816  0.1670  0.5446  0.4242
19320THY    CA466586   9.134   8.399   5.901 -0.0683 -0.2747  0.2517
19320THY    HA466587   9.033   8.384   5.939 -0.1528  0.5166  2.4240
19320THY    CA566588   9.203   8.517   5.932  0.2274  0.0387  0.0449
19320THY    CM166589   9.144   8.635   6.005  0.4134  0.0692  0.2343
19320THY    HM166590   9.061   8.678   5.947 -1.7993  2.6716 -0.2426
19320THY    HM266591   9.220   8.711   6.026 -2.9097 -0.3512  4.0439
19320THY    HM366592   9.112   8.596   6.103 -0.5193  0.5632  2.1173
19320THY    CA666593   9.336   8.522   5.884  0.2367 -0.6182  0.0862
19320THY    HA666594   9.395   8.610   5.909  1.3027  1.5940 -1.1663
19321THY      O66595   1.200   2.247   7.615  0.5755  0.1657  0.0476
19321THY     HO66596   1.264   2.303   7.662  1.0891 -0.3954 -0.0521
19321THY    CA166597   1.159   2.173   7.720 -0.1521  1.0132 -1.6833
19321THY    CA266598   1.077   2.060   7.713  0.4781  0.0684  0.7866
19321THY    CP166599   1.013   2.016   7.581 -0.3680  0.2941  0.0996
19321THY    HP166600   1.048   2.075   7.495  0.6710  0.1074 -0.7673
19321THY    CP266601   0.860   2.032   7.590  0.4143 -0.1801 -0.3739
19321THY    HP266602   0.813   1.995   7.682 -1.2096 -0.9930 -0.3812
19321THY    HP366603   0.817   1.963   7.517 -0.7797  1.8011 -1.8483
19321THY    HP466604   0.823   2.134   7.581  1.1585  0.0637 -0.0695
19321THY    CP366605   1.056   1.869   7.545 -0.6986 -0.0321  0.0258
19321THY    HP566606   1.024   1.846   7.443  0.1574 -0.1093 -0.8992
19321THY    HP666607   0.999   1.793   7.600 -0.2543 -0.9912 -1.0342
19321THY    HP766608   1.163   1.846   7.554 -1.0803  1.6698 -1.2779
19321THY    CA366609   1.053   1.978   7.828  0.4349 -0.9102 -0.6565
19321THY    HA366610   0.985   1.893   7.823  0.8478 -1.2619 -0.9698
19321THY    CA466611   1.112   2.018   7.951 -0.8466  0.1796  0.0491
19321THY    HA466612   1.091   1.961   8.040  0.6676 -0.6147 -1.8701
19321THY    CA566613   1.195   2.125   7.957  0.2609 -0.1874  0.0057
19321THY    CM166614   1.245   2.178   8.088 -0.1724 -0.5060  0.0334
19321THY    HM166615   1.248   2.103   8.167  0.1821  1.0742  1.6342
19321THY    HM266616   1.186   2.261   8.128 -1.7354  1.8166 -2.0470
19321THY    HM366617   1.347   2.217   8.079  0.2253  1.6017 -0.3996
19321THY    CA666618   1.217   2.207   7.845  0.7274  0.1096 -0.1839
19321THY    HA666619   1.284   2.292   7.857  1.5456 -0.3999 -0.7303
19322THY      O66620   2.702   3.430   7.233 -0.4319  0.1583 -0.4995
19322THY     HO66621   2.750   3.381   7.302  0.7875  2.0840  3.0441
19322THY    CA166622   2.757   3.552   7.221  0.6461  0.6338 -0.2505
19322THY    CA266623   2.715   3.634   7.110 -0.0602 -0.3863 -0.2193
19322THY    CP166624   2.630   3.579   6.992 -0.8723  0.3283 -0.7252
19322THY    HP166625   2.628   3.470   6.991 -1.3310 -0.4603 -0.7109
19322THY    CP266626   2.701   3.608   6.864  0.1630  0.2226  0.3217
19322THY    HP266627   2.645   3.579   6.775  0.3550  0.3908 -0.5864
19322THY    HP366628   2.800   3.561   6.860 -0.8805  0.7064 -2.0531
19322THY    HP466629   2.723   3.715   6.856 -0.2356 -3.4648  0.2579
19322THY    CP366630   2.498   3.647   6.986 -0.3203 -0.0805  0.2424
19322THY    HP566631   2.497   3.755   6.969 -1.5185 -1.7112  0.0199
19322THY    HP666632   2.442   3.617   7.075 -1.2725 -1.1751 -1.4352
19322THY    HP766633   2.446   3.603   6.900 -1.8339 -0.0537  1.8677
19322THY    CA366634   2.757   3.770   7.110  0.0626  1.0601 -0.0355
19322THY    HA366635   2.707   3.836   7.040  1.7370  0.8235  1.0404
19322THY    CA466636   2.852   3.808   7.203 -0.2104  0.3968  0.5860
19322THY    HA466637   2.885   3.911   7.193  1.2421 -1.6699 -0.0208
19322THY    CA566638   2.901   3.725   7.309 -0.6387  0.3397  0.1819
19322THY    CM166639   3.007   3.766   7.411  0.3455 -0.4846 -0.2876
19322THY    HM166640   2.975   3.869   7.425  1.2116 -0.9347  0.0552
19322THY    HM266641   3.110   3.757   7.373  0.0383 -1.8482  1.5264
19322THY    HM366642   2.987   3.703   7.499 -0.6250 -0.4172  0.1025
19322THY    CA666643   2.843   3.598   7.321 -0.3716 -0.1094 -0.2714
19322THY    HA666644   2.880   3.528   7.396 -2.3052  0.0163 -1.2101
19323THY      O66645   4.368   3.880   2.662 -0.7795 -0.2680 -0.4572
19323THY     HO66646   4.455   3.838   2.658  0.6634  0.5408  2.2580
19323THY    CA166647   4.386   3.985   2.747  0.2482 -0.6664  1.5618
19323THY    CA266648   4.280   4.077   2.771  0.1100 -0.1064 -0.6673
19323THY    CP166649   4.149   4.046   2.705 -0.2527 -0.1269  0.3331
19323THY    HP166650   4.144   3.943   2.669  2.6975  0.7263 -0.1883
19323THY    CP266651   4.138   4.137   2.584  0.3123 -0.0072  0.3461
19323THY    HP266652   4.040   4.122   2.537 -0.4795  2.0607 -1.5879
19323THY    HP366653   4.215   4.104   2.514 -0.9335 -1.0898 -0.3547
19323THY    HP466654   4.157   4.243   2.604  0.5865 -1.1333  0.5206
19323THY    CP366655   4.036   4.069   2.806 -0.1230 -0.3435 -0.2623
19323THY    HP566656   4.042   4.175   2.833  0.7014 -1.0508 -0.1159
19323THY    HP666657   4.050   4.011   2.897  0.9386  1.2207  2.2672
19323THY    HP766658   3.945   4.052   2.748 -0.0572 -0.8539  0.9589
19323THY    CA366659   4.315   4.195   2.846  0.1683  0.1708  0.3659
19323THY    HA366660   4.242   4.274   2.860  1.1031 -2.4643  1.8066
19323THY    CA466661   4.449   4.212   2.890  0.1549 -0.0560  0.1465
19323THY    HA466662   4.479   4.298   2.948 -1.3031  0.3439  0.4140
19323THY    CA566663   4.545   4.111   2.870 -0.2907 -0.3918 -0.0289
19323THY    CM166664   4.678   4.126   2.930 -0.6657 -0.1362  0.4251
19323THY    HM166665   4.752   4.046   2.913 -1.1667 -1.9384  0.2939
19323THY    HM266666   4.683   4.165   3.032 -0.5214 -0.3836  1.0610
19323THY    HM366667   4.724   4.198   2.862 -2.6062 -1.6932  0.2754
19323THY    CA666668   4.509   3.994   2.808 -0.2802 -1.0073  0.2934
19323THY    HA666669   4.588   3.921   2.793  0.4710 -1.9220  1.2561
19324THY      O66670   5.468   8.965   6.999 -0.0696 -0.0146 -0.0741
19324THY     HO66671   5.532   9.024   7.040  2.5268 -1.0517 -1.9818
19324THY    CA166672   5.421   8.878   7.089 -0.7619  0.1661  0.5927
19324THY    CA266673   5.401   8.746   7.048  0.4685 -0.3043  0.2524
19324THY    CP166674   5.418   8.699   6.907  0.2727  1.0896  0.1649
19324THY    HP166675   5.423   8.788   6.843 -0.2306 -0.8690 -1.1376
19324THY    CP266676   5.289   8.616   6.864 -0.6550 -0.4656 -0.3692
19324THY    HP266677   5.296   8.519   6.915  1.1051  2.8812  1.3269
19324THY    HP366678   5.285   8.603   6.755  2.3509 -0.7048 -0.0799
19324THY    HP466679   5.199   8.659   6.907 -1.0436 -0.1513 -1.4495
19324THY    CP366680   5.538   8.610   6.882 -0.2141  0.1282  0.6752
19324THY    HP566681   5.534   8.529   6.957  0.1710  0.0169  0.5529
19324THY    HP666682   5.632   8.665   6.889  0.8070  0.7067 -1.0582
19324THY    HP766683   5.541   8.569   6.781  1.0591 -0.2267  1.5809
19324THY    CA366684   5.344   8.662   7.154 -0.1262  0.2208 -0.0050
19324THY    HA366685   5.322   8.557   7.136 -0.0287  2.6040 -0.4858
19324THY    CA466686   5.313   8.711   7.274 -0.7319 -0.2568 -0.8169
19324THY    HA466687   5.247   8.648   7.333 -0.2046 -0.3615 -1.4731
19324THY    CA566688   5.341   8.843   7.310 -0.7925 -0.1690 -0.0385
19324THY    CM166689   5.294   8.886   7.449 -0.1210  0.1717 -0.0444
19324THY    HM166690   5.313   8.809   7.524  2.2724 -0.5365 -0.2213
19324THY    HM266691   5.193   8.918   7.422  0.3182 -1.2076  0.2195
19324THY    HM366692   5.348   8.973   7.490 -2.1374 -1.2621  2.0065
19324THY    CA666693   5.406   8.924   7.219 -0.1343 -0.1032  0.1079
19324THY    HA666694   5.437   9.024   7.249  2.6952  3.5007 -1.6058
19325THY      O66695   7.471   6.127   6.391 -0.0320 -0.7948 -0.0397
19325THY     HO66696   7.506   6.190   6.325 -0.6983 -0.6948  0.4517
19325THY    CA166697   7.471   6.009   6.324  0.1037 -0.4923 -0.6609
19325THY    CA266698   7.359   5.921   6.331 -0.4631  0.3893 -0.1332
19325THY    CP166699   7.231   5.957   6.409  0.5681 -0.1483  0.8768
19325THY    HP166700   7.232   6.061   6.444  2.2674  0.7112  0.6111
19325THY    CP266701   7.239   5.881   6.541 -0.6330 -0.8506  0.1892
19325THY    HP266702   7.150   5.906   6.601  0.9689 -0.1982  5.4289
19325THY    HP366703   7.332   5.898   6.597  0.4972 -2.4429 -0.4895
19325THY    HP466704   7.255   5.773   6.529  2.0246  1.1674  0.2379
19325THY    CP366705   7.110   5.915   6.334  0.4750 -0.2217  0.1158
19325THY    HP566706   7.128   5.921   6.226 -1.8088 -0.6939 -0.5012
19325THY    HP666707   7.025   5.980   6.357 -0.2770 -0.0608 -0.8990
19325THY    HP766708   7.076   5.815   6.361  0.2278  2.1348  0.7744
19325THY    CA366709   7.359   5.800   6.250  0.7244 -0.8976 -0.2020
19325THY    HA366710   7.283   5.723   6.249  2.7038 -1.5511 -2.2704
19325THY    CA466711   7.468   5.771   6.176 -0.0485  0.6893 -0.0715
19325THY    HA466712   7.470   5.684   6.111 -1.0399  0.8272 -0.2110
19325THY    CA566713   7.575   5.851   6.180 -0.1472  0.0571 -0.2426
19325THY    CM166714   7.696   5.811   6.111  0.1918  0.6157 -0.2019
19325THY    HM166715   7.688   5.716   6.057 -2.3532 -0.9134  0.7905
19325THY    HM266716   7.792   5.815   6.165  0.7372 -0.3599  0.5647
19325THY    HM366717   7.706   5.888   6.033 -0.8157  1.1204  0.4612
19325THY    CA666718   7.584   5.967   6.260 -0.0200  0.2237 -0.2335
19325THY    HA666719   7.672   6.030   6.255 -0.3602 -0.4425  0.1937
19326THY      O66720   1.967   2.663   6.521 -0.4217 -0.6166  0.4673
19326THY     HO66721   1.998   2.715   6.597  1.3423 -1.9611  1.4887
19326THY    CA166722   1.934   2.757   6.427 -0.6152 -0.0696  0.1384
19326THY    CA266723   1.912   2.718   6.298  0.4574  0.1448 -0.3489
19326THY    CP166724   1.944   2.574   6.252  0.2776 -0.6379  0.2132
19326THY    HP166725   1.992   2.518   6.333  1.2198 -1.3494 -0.0291
19326THY    CP266726   2.046   2.562   6.144 -0.8785  0.5647  0.5018
19326THY    HP266727   2.141   2.608   6.174 -0.7928 -1.8083  2.0762
19326THY    HP366728   2.015   2.625   6.059 -0.8045 -1.5944 -2.1809
19326THY    HP466729   2.065   2.461   6.107  0.7764 -1.8693  1.5889
19326THY    CP366730   1.813   2.521   6.216 -0.1307 -0.0463 -0.2413
19326THY    HP566731   1.814   2.413   6.195  1.4904 -0.0769 -0.2432
19326THY    HP666732   1.773   2.565   6.123 -0.9671  0.1234 -0.6281
19326THY    HP766733   1.741   2.544   6.295  0.0837 -0.2299  1.1294
19326THY    CA366734   1.864   2.814   6.202  0.2184  0.1817  0.3077
19326THY    HA366735   1.836   2.785   6.101  0.7719  0.4143 -1.1120
19326THY    CA466736   1.855   2.951   6.242 -0.0447 -0.5264  0.1202
19326THY    HA466737   1.819   3.028   6.174 -0.7291 -0.9864 -0.5964
19326THY    CA566738   1.885   2.989   6.374 -0.3061  1.2225 -0.6400
19326THY    CM166739   1.852   3.127   6.423  0.3989  0.3098 -0.7387
19326THY    HM166740   1.869   3.208   6.352 -1.8438  0.0916 -0.3799
19326THY    HM266741   1.907   3.137   6.517  0.8310  0.3455 -2.9443
19326THY    HM366742   1.743   3.136   6.437  0.3449 -1.1635  1.5904
19326THY    CA666743   1.918   2.889   6.466 -0.4901  0.0408  0.3519
19326THY    HA666744   1.934   2.909   6.572  0.4856  0.3103 -1.5829
19327THY      O66745   5.064   5.174   3.126  0.4763  0.1575 -0.1032
19327THY     HO66746   5.048   5.115   3.050 -1.6381  0.5930 -0.1923
19327THY    CA166747   4.952   5.169   3.205  0.0503  0.5558 -0.0720
19327THY    CA266748   4.955   5.207   3.340 -0.0405 -0.2638  0.3475
19327THY    CP166749   5.075   5.284   3.393 -0.5939  0.5023 -0.4097
19327THY    HP166750   5.155   5.285   3.318 -1.3742 -0.3591  0.0707
19327THY    CP266751   5.138   5.232   3.528 -0.2919 -0.0480 -0.3057
19327THY    HP266752   5.179   5.131   3.513 -0.2831  0.8531 -0.4420
19327THY    HP366753   5.062   5.236   3.607 -1.6121 -1.2751 -0.2445
19327THY    HP466754   5.218   5.302   3.555 -0.1693 -0.9825 -0.0732
19327THY    CP366755   5.033   5.429   3.399 -0.6144 -0.2979  0.0418
19327THY    HP566756   4.938   5.446   3.450  0.0662  0.4632  1.8420
19327THY    HP666757   5.023   5.477   3.301 -0.3800 -1.9074 -2.9503
19327THY    HP766758   5.106   5.483   3.461 -1.2633  1.8594 -1.4398
19327THY    CA366759   4.840   5.177   3.426 -0.0762 -0.5174 -0.6870
19327THY    HA366760   4.845   5.201   3.532 -0.7708 -0.8299  0.9330
19327THY    CA466761   4.736   5.108   3.366 -0.3248  0.4918 -0.3035
19327THY    HA466762   4.644   5.092   3.421 -0.7768 -0.6185 -1.7887
19327THY    CA566763   4.731   5.072   3.230  0.4247 -0.2293 -0.0710
19327THY    CM166764   4.616   5.002   3.165  0.1767  0.7717 -0.2822
19327THY    HM166765   4.522   5.008   3.221 -0.3702 -0.1056 -0.4410
19327THY    HM266766   4.637   4.894   3.157  0.3942  0.1509 -0.2000
19327THY    HM366767   4.597   5.033   3.062 -0.5926  0.4344 -1.7770
19327THY    CA666768   4.838   5.111   3.152  0.1200  0.0447  0.3156
19327THY    HA666769   4.833   5.104   3.043  0.4706 -0.0502  1.3937
19328THY      O66770   0.609   1.414   2.314 -0.0433 -0.0503  0.0833
19328THY     HO66771   0.625   1.462   2.398  0.9206  0.2050 -0.6562
19328THY    CA166772   0.595   1.516   2.226 -0.2190 -0.1343  0.6111
19328THY    CA266773   0.662   1.517   2.094  0.1665 -0.0591  1.0823
19328THY    CP166774   0.737   1.395   2.043  0.5200 -0.3195 -0.0798
19328THY    HP166775   0.695   1.311   2.099 -3.2942  0.1460  1.9047
19328THY    CP266776   0.886   1.407   2.070 -0.3507 -0.6179 -0.1919
19328THY    HP266777   0.924   1.485   2.003 -1.7282  0.9539  1.9338
19328THY    HP366778   0.942   1.318   2.039  0.8533 -0.2853  0.4226
19328THY    HP466779   0.906   1.423   2.177 -1.0071 -0.9089  3.3801
19328THY    CP366780   0.716   1.364   1.894  0.4525 -0.4633 -0.5174
19328THY    HP566781   0.736   1.457   1.838 -3.1245 -1.3133 -0.1246
19328THY    HP666782   0.615   1.331   1.867  0.1140  1.0244 -0.7477
19328THY    HP766783   0.789   1.290   1.859 -0.7137 -0.5515 -1.6639
19328THY    CA366784   0.652   1.635   2.014 -0.3944 -0.2013 -0.2152
19328THY    HA366785   0.708   1.637   1.921  0.1074  0.0045 -2.6410
19328THY    CA466786   0.569   1.744   2.059 -0.3499  0.0260  0.1896
19328THY    HA466787   0.551   1.830   1.996 -0.9290  0.0785  0.1083
19328THY    CA566788   0.503   1.735   2.182 -0.3702 -0.4262 -0.1488
19328THY    CM166789   0.406   1.842   2.223 -0.3087  0.2895  0.1983
19328THY    HM166790   0.463   1.934   2.240  3.2350 -0.2134 -1.7161
19328THY    HM266791   0.338   1.831   2.308 -0.1400  0.8455  2.7937
19328THY    HM366792   0.335   1.861   2.141  0.1170  0.1320  1.1337
19328THY    CA666793   0.533   1.627   2.267  1.0263 -0.3217  0.4844
19328THY    HA666794   0.482   1.624   2.364  0.1084 -0.8027 -2.3910
19329THY      O66795   7.318   7.985   1.928  0.4244 -0.8945 -0.5154
19329THY     HO66796   7.401   7.943   1.958  1.3215 -0.3133  1.5555
19329THY    CA166797   7.360   8.109   1.915  0.8503 -0.4447 -0.4076
19329THY    CA266798   7.262   8.208   1.907  0.3153  0.4095  1.0291
19329THY    CP166799   7.110   8.178   1.925 -0.1517  0.2160 -0.4027
19329THY    HP166800   7.077   8.080   1.888  0.5689 -2.2177  0.2245
19329THY    CP266801   7.019   8.265   1.839  0.0029  0.0692  0.5469
19329THY    HP266802   7.054   8.289   1.738  1.0503  0.8908  2.8110
19329THY    HP366803   6.998   8.365   1.880  0.0445  1.4264  0.0210
19329THY    HP466804   6.921   8.216   1.845 -0.8513 -1.1636  2.0143
19329THY    CP366805   7.076   8.182   2.076  0.0891  0.3506  0.0392
19329THY    HP566806   7.112   8.088   2.120  1.5238  0.1636  0.4708
19329THY    HP666807   6.968   8.193   2.092  0.0671 -0.8743  2.1317
19329THY    HP766808   7.137   8.257   2.127  1.7386 -0.9238 -0.3805
19329THY    CA366809   7.304   8.329   1.853 -0.2706  0.5667 -0.3499
19329THY    HA366810   7.231   8.406   1.828  2.3162  2.3395  2.9583
19329THY    CA466811   7.439   8.364   1.845 -0.1810  0.6312  0.0907
19329THY    HA466812   7.467   8.465   1.815 -1.2999  0.3365  0.3287
19329THY    CA566813   7.536   8.267   1.870  0.0276  0.3197  0.7757
19329THY    CM166814   7.681   8.292   1.853  1.1915 -0.0928 -0.2668
19329THY    HM166815   7.742   8.201   1.862  0.0422  0.4472 -1.0012
19329THY    HM266816   7.714   8.374   1.918 -1.3599  3.9107 -2.0988
19329THY    HM366817   7.689   8.326   1.749 -1.6290  0.0271  1.1123
19329THY    CA666818   7.496   8.132   1.895  0.2279  0.5539 -0.0854
19329THY    HA666819   7.559   8.044   1.892 -2.9457 -3.0240 -2.5490
19330THY      O66820   3.908   4.630   6.288  0.0618 -0.0603  0.7787
19330THY     HO66821   3.906   4.695   6.215  1.5034 -1.0751 -0.2359
19330THY    CA166822   3.947   4.512   6.216 -0.2745 -1.0441  0.4922
19330THY    CA266823   3.867   4.396   6.203 -0.0600 -0.2314 -0.2158
19330THY    CP166824   3.729   4.397   6.271 -0.5282 -0.6233 -0.8164
19330THY    HP166825   3.695   4.500   6.283  1.5239 -0.0894 -0.1508
19330THY    CP266826   3.737   4.342   6.417 -0.4539  0.1834 -0.3820
19330THY    HP266827   3.633   4.334   6.452 -0.8803 -1.1303 -0.9651
19330THY    HP366828   3.778   4.411   6.491  0.2863 -0.8077  0.2667
19330THY    HP466829   3.786   4.244   6.421 -1.1836  2.4021 -0.7043
19330THY    CP366830   3.620   4.329   6.186  0.6255  0.3782  0.0158
19330THY    HP566831   3.620   4.220   6.199 -1.1406  1.0060  0.0528
19330THY    HP666832   3.637   4.355   6.081  2.3496  0.3679 -0.9578
19330THY    HP766833   3.532   4.367   6.240  1.4008  0.7489  1.3332
19330THY    CA366834   3.922   4.282   6.139  0.2617  0.6381 -0.0825
19330THY    HA366835   3.872   4.186   6.139 -0.8331 -1.4243  0.4502
19330THY    CA466836   4.050   4.284   6.085  0.1196  0.4683 -0.1632
19330THY    HA466837   4.095   4.197   6.037 -2.9617 -0.8009 -1.2233
19330THY    CA566838   4.125   4.399   6.092 -0.1261 -0.7337  0.3028
19330THY    CM166839   4.273   4.394   6.046 -0.4755  0.7585  0.1952
19330THY    HM166840   4.344   4.349   6.115  1.4398 -1.3013 -0.1338
19330THY    HM266841   4.313   4.493   6.020 -0.7319  0.6402  0.2711
19330THY    HM366842   4.292   4.333   5.957 -1.5851  0.1369  0.7193
19330THY    CA666843   4.072   4.509   6.155 -0.5244  0.2272 -0.3143
19330THY    HA666844   4.139   4.594   6.163  0.6662 -2.4435 -0.8899
19331THY      O66845   8.625   5.494   7.055 -0.1379 -0.2252 -0.0758
19331THY     HO66846   8.625   5.567   6.990 -0.5767 -1.5062 -1.1630
19331THY    CA166847   8.538   5.412   7.004 -0.2065  0.4247  0.1880
19331THY    CA266848   8.566   5.274   7.008 -0.1620  0.0113 -0.4118
19331THY    CP166849   8.652   5.218   7.120  1.1309 -0.0246  0.3888
19331THY    HP166850   8.669   5.300   7.191  0.2542  0.6226  0.0282
19331THY    CP266851   8.796   5.183   7.064 -0.0062 -0.4123 -0.7283
19331THY    HP266852   8.852   5.123   7.137  0.6828  0.1758  0.5962
19331THY    HP366853   8.852   5.276   7.047 -0.2104  2.3898 -0.0127
19331THY    HP466854   8.795   5.125   6.971 -0.3205  0.0109 -1.4175
19331THY    CP366855   8.596   5.102   7.201 -0.0047 -0.3792 -0.0009
19331THY    HP566856   8.667   5.078   7.281  1.4167 -1.0174  1.8621
19331THY    HP666857   8.582   5.007   7.148  0.6403 -0.8939  0.1844
19331THY    HP766858   8.494   5.132   7.230  0.3963 -0.0798  1.1108
19331THY    CA366859   8.489   5.188   6.940 -0.3083 -0.0778 -0.8377
19331THY    HA366860   8.507   5.081   6.945  0.9971  0.2673 -0.6234
19331THY    CA466861   8.388   5.243   6.852 -0.4678  0.1451 -0.1642
19331THY    HA466862   8.325   5.172   6.798  0.6383 -1.0301 -0.2929
19331THY    CA566863   8.360   5.379   6.836 -0.2703  0.1914 -0.6872
19331THY    CM166864   8.245   5.437   6.762 -0.6188  0.3046 -0.7448
19331THY    HM166865   8.286   5.532   6.725  0.5489  0.6109 -1.1152
19331THY    HM266866   8.155   5.451   6.824 -0.8489  0.1475 -1.4806
19331THY    HM366867   8.209   5.375   6.679 -1.3108  0.1923 -0.2148
19331THY    CA666868   8.441   5.465   6.918  0.2172 -0.1905  0.5064
19331THY    HA666869   8.420   5.571   6.914 -0.4820  2.3548  0.5526
19332THY      O66870   0.579   8.821   3.789 -0.6660 -0.0162 -0.0387
19332THY     HO66871   0.573   8.858   3.699  0.5286  0.7956  2.3402
19332THY    CA166872   0.511   8.912   3.867 -0.5272  0.1159 -0.3195
19332THY    CA266873   0.509   8.893   4.005 -0.5482  0.1665 -0.0036
19332THY    CP166874   0.570   8.763   4.067 -0.1508  0.6550 -0.1009
19332THY    HP166875   0.648   8.723   4.001 -0.4677  0.0231  0.3045
19332THY    CP266876   0.471   8.643   4.080 -0.1914 -0.1140 -0.1395
19332THY    HP266877   0.442   8.616   4.182 -1.7176  0.2739  2.5927
19332THY    HP366878   0.534   8.560   4.047  0.2571  0.7224 -0.1387
19332THY    HP466879   0.390   8.653   4.006  1.2725 -1.7174  0.3452
19332THY    CP366880   0.635   8.790   4.200  0.2111 -0.7976 -0.0799
19332THY    HP566881   0.720   8.721   4.205  0.0998 -0.9499 -0.2260
19332THY    HP666882   0.569   8.768   4.285 -0.4220 -1.5668 -1.2140
19332THY    HP766883   0.683   8.888   4.210  1.9364  0.5721 -0.9957
19332THY    CA366884   0.447   8.999   4.086  0.3558  0.5418 -0.1554
19332THY    HA366885   0.448   8.999   4.195  1.4531  0.5490  0.6726
19332THY    CA466886   0.380   9.100   4.023  0.8818  0.9300 -0.2477
19332THY    HA466887   0.331   9.176   4.084 -1.1550 -0.8433 -0.0194
19332THY    CA566888   0.388   9.114   3.884  0.5660  0.5667  0.6349
19332THY    CM166889   0.324   9.235   3.825  0.9472 -0.1420 -0.2002
19332THY    HM166890   0.218   9.249   3.848  0.2959 -2.3862 -0.9858
19332THY    HM266891   0.329   9.246   3.717  0.3371 -0.1327  0.1798
19332THY    HM366892   0.377   9.318   3.873 -2.1606  0.8477  1.3770
19332THY    CA666893   0.459   9.025   3.804  0.4498 -0.1278  0.3365
19332THY    HA666894   0.469   9.040   3.697  0.5437 -0.6171 -2.6194
19333THY      O66895   7.076   5.836   1.507  0.3879  0.3291  0.3855
19333THY     HO66896   7.130   5.771   1.459  1.9187  1.4932  0.7471
19333THY    CA166897   7.157   5.901   1.593  0.3144  0.2278  0.6023
19333THY    CA266898   7.115   5.949   1.724  0.3774 -0.0461  0.2681
19333THY    CP166899   6.975   5.919   1.769 -0.1108  0.3348 -0.7944
19333THY    HP166900   6.943   5.857   1.685  2.0962 -1.5300  0.3966
19333THY    CP266901   6.903   6.049   1.773  0.7445  0.1885 -0.9846
19333THY    HP266902   6.936   6.122   1.848 -0.9199 -2.3563  2.7313
19333THY    HP366903   6.796   6.026   1.778  0.7612 -2.2732 -1.8153
19333THY    HP466904   6.909   6.103   1.678 -1.5416  0.5582  0.0582
19333THY    CP366905   6.959   5.842   1.898 -0.7320  0.1795 -0.2373
19333THY    HP566906   6.959   5.904   1.988  0.1534 -0.7723  1.2057
19333THY    HP666907   7.038   5.766   1.904 -2.7384  0.4258 -2.4277
19333THY    HP766908   6.867   5.784   1.889 -1.2155 -0.4511  0.6059
19333THY    CA366909   7.208   6.000   1.808  0.0395  0.1654  0.0634
19333THY    HA366910   7.173   6.035   1.904 -1.7551 -1.5704  3.5367
19333THY    CA466911   7.340   6.014   1.762 -0.3405  0.2589 -0.1742
19333THY    HA466912   7.413   6.053   1.832 -0.8829  2.0688 -2.2047
19333THY    CA566913   7.382   5.974   1.631  0.9709 -0.4627  0.3762
19333THY    CM166914   7.525   5.975   1.595 -1.1624 -0.1442 -0.0903
19333THY    HM166915   7.540   6.047   1.514  0.7499  2.2709  2.4363
19333THY    HM266916   7.545   5.871   1.566 -2.1505  0.9319 -0.6069
19333THY    HM366917   7.582   6.005   1.683 -1.6503 -0.6396  2.5361
19333THY    CA666918   7.285   5.922   1.548  0.0704  1.1842 -0.3962
19333THY    HA666919   7.319   5.892   1.449  1.4435  1.6363 -0.3648
19334THY      O66920   6.108   3.828   4.482 -0.4589 -0.0712 -0.0541
19334THY     HO66921   6.169   3.836   4.558 -1.7364  0.9404  0.4717
19334THY    CA166922   6.084   3.695   4.467  1.0499  0.0694  0.4622
19334THY    CA266923   5.957   3.639   4.500 -0.5197 -0.2337 -0.0322
19334THY    CP166924   5.836   3.727   4.516 -0.5797 -0.1516  0.1258
19334THY    HP166925   5.855   3.818   4.458 -1.9743 -0.2238  0.3940
19334THY    CP266926   5.805   3.757   4.661 -0.6094 -0.4603 -0.0376
19334THY    HP266927   5.808   3.668   4.724  2.5347  0.4312  0.5549
19334THY    HP366928   5.707   3.806   4.662 -1.0392  0.3193 -0.8925
19334THY    HP466929   5.886   3.823   4.694 -0.6645 -0.0685 -0.1674
19334THY    CP366930   5.711   3.670   4.448 -0.2486 -0.2306 -0.0805
19334THY    HP566931   5.641   3.754   4.435 -0.3375 -1.0304 -0.2717
19334THY    HP666932   5.681   3.568   4.475  3.5763  0.1857 -1.2310
19334THY    HP766933   5.732   3.652   4.342  1.2957  0.2029 -0.9423
19334THY    CA366934   5.952   3.496   4.515  0.0145 -0.1387  0.1005
19334THY    HA366935   5.862   3.449   4.554 -0.3427  1.7911  2.2255
19334THY    CA466936   6.068   3.418   4.482  1.0823  0.0340  0.3489
19334THY    HA466937   6.066   3.310   4.497  0.0876  1.5226  0.5369
19334THY    CA566938   6.186   3.483   4.448  0.8316  0.6189 -0.3149
19334THY    CM166939   6.311   3.406   4.407  0.3728  0.0234  0.5873
19334THY    HM166940   6.298   3.385   4.300 -1.1394  0.4025 -0.6252
19334THY    HM266941   6.314   3.308   4.456 -0.1929 -1.7534 -0.3772
19334THY    HM366942   6.408   3.453   4.427  1.0202 -2.3869  0.4040
19334THY    CA666943   6.193   3.618   4.437  0.8875  0.0071 -0.2669
19334THY    HA666944   6.289   3.668   4.434  1.0539  0.5574 -0.5428
19335THY      O66945   0.176   7.117   4.894 -0.1028  0.4181  0.1530
19335THY     HO66946   0.148   7.051   4.960 -0.9915 -2.4608 -2.5780
19335THY    CA166947   0.223   7.228   4.961 -0.3943  0.7050  0.3811
19335THY    CA266948   0.277   7.338   4.894 -0.2953  0.1260  0.0171
19335THY    CP166949   0.310   7.340   4.746  0.7614  0.0362  0.0943
19335THY    HP166950   0.253   7.261   4.697  2.9781 -0.0174 -1.5798
19335THY    CP266951   0.458   7.299   4.734  0.5925 -0.2693 -0.1789
19335THY    HP266952   0.470   7.196   4.768 -2.5896  2.9127  0.2680
19335THY    HP366953   0.518   7.370   4.792  1.7376  0.2328 -1.5135
19335THY    HP466954   0.490   7.315   4.631 -1.6838 -1.1656 -0.9917
19335THY    CP366955   0.287   7.478   4.679  0.1188 -0.2087 -0.1226
19335THY    HP566956   0.384   7.529   4.687 -0.1805 -0.7186  0.5399
19335THY    HP666957   0.197   7.523   4.722  1.3412  2.4580 -0.0244
19335THY    HP766958   0.260   7.470   4.573  0.1493 -0.1585 -1.0204
19335THY    CA366959   0.321   7.446   4.969 -0.2581  0.1158 -0.0220
19335THY    HA366960   0.368   7.534   4.926 -0.7279 -0.5057 -0.0699
19335THY    CA466961   0.301   7.450   5.107 -0.1059  0.7501  0.0896
19335THY    HA466962   0.326   7.529   5.176  0.9037  1.3945 -0.7623
19335THY    CA566963   0.238   7.343   5.164 -0.4549 -0.2883  0.7793
19335THY    CM166964   0.213   7.332   5.311 -0.6536  0.4459  0.4385
19335THY    HM166965   0.126   7.393   5.338 -0.9847 -0.0784  0.2087
19335THY    HM266966   0.294   7.377   5.370  0.3571 -2.5141  2.8753
19335THY    HM366967   0.181   7.232   5.343  1.2462 -0.7279 -0.5971
19335THY    CA666968   0.196   7.232   5.093  0.7860  0.7025  0.2931
19335THY    HA666969   0.159   7.138   5.131 -1.4192 -0.4390  0.6313
19336THY      O66970   5.599   2.733   5.315  0.3852 -0.0929 -0.7588
19336THY     HO66971   5.646   2.694   5.391 -1.3688  1.7768  0.5646
19336THY    CA166972   5.602   2.863   5.342  0.4212  0.1522 -0.4942
19336THY    CA266973   5.598   2.974   5.247 -0.2170 -0.0024  0.3535
19336THY    CP166974   5.598   2.934   5.094  0.1606  0.0758  0.3569
19336THY    HP166975   5.524   2.855   5.083  0.6026  0.9000 -0.1798
19336THY    CP266976   5.738   2.888   5.050 -0.2507 -0.3408 -0.0316
19336THY    HP266977   5.784   2.811   5.113 -0.7339 -2.3120 -2.0251
19336THY    HP366978   5.802   2.976   5.061  1.2815  2.3292 -1.3394
19336THY    HP466979   5.728   2.843   4.951 -1.1152  0.4320 -1.6618
19336THY    CP366980   5.558   3.043   5.002 -0.2793 -0.3895 -0.2238
19336THY    HP566981   5.544   3.002   4.902 -3.1006 -1.3113  2.5761
19336THY    HP666982   5.629   3.124   4.982 -0.1406  0.8609 -0.0051
19336THY    HP766983   5.457   3.077   5.031 -0.1092  1.4773 -1.1959
19336THY    CA366984   5.606   3.107   5.288 -0.1102  0.3098 -0.1092
19336THY    HA366985   5.613   3.191   5.219  2.3043  0.9499  0.3043
19336THY    CA466986   5.623   3.130   5.429  0.7776 -0.4685 -0.1987
19336THY    HA466987   5.629   3.231   5.467 -1.8817 -0.1402 -0.0704
19336THY    CA566988   5.620   3.025   5.522 -0.3620 -0.3652 -0.2412
19336THY    CM166989   5.614   3.065   5.667  0.1367 -0.1028  0.0075
19336THY    HM166990   5.697   3.025   5.726 -0.3533 -0.4162 -1.5463
19336THY    HM266991   5.523   3.018   5.706 -1.0118 -3.4152 -0.7874
19336THY    HM366992   5.593   3.171   5.685 -0.3322  1.9731 -0.3995
19336THY    CA666993   5.613   2.891   5.481  0.6604 -0.7831  0.1993
19336THY    HA666994   5.624   2.815   5.558 -0.3330 -1.5636 -0.7661
19337THY      O66995   4.441   9.189   5.755  0.3167 -0.2935  0.3033
19337THY     HO66996   4.443   9.279   5.793  0.4307  1.2178 -0.3151
19337THY    CA166997   4.491   9.198   5.635 -0.0678  0.2588 -0.2698
19337THY    CA266998   4.463   9.105   5.534  0.2087  0.1513  0.4559
19337THY    CP166999   4.362   8.983   5.556 -0.0365 -0.5167  0.2705
19337THY    HP167000   4.324   8.999   5.657 -1.7679 -0.8992 -1.1295
19337THY    CP267001   4.445   8.845   5.560 -0.2163  0.4107 -0.2457
19337THY    HP267002   4.369   8.766   5.556  0.2181  1.4125 -0.7317
19337THY    HP367003   4.518   8.833   5.641  1.8930 -1.6421 -2.5266
19337THY    HP467004   4.500   8.824   5.467 -1.5661 -1.0362  2.1053
19337THY    CP367005   4.242   8.980   5.460  0.3980  0.6395  0.4915
19337THY    HP567006   4.251   8.901   5.384  0.6646 -1.5646  2.5048
19337THY    HP667007   4.232   9.076   5.408  0.6547 -1.5497 -0.6094
19337THY    HP767008   4.154   8.956   5.520  1.0327  0.8157 -1.5887
19337THY    CA367009   4.523   9.118   5.407  0.0188  0.0274  0.3700
19337THY    HA367010   4.505   9.057   5.320 -1.0110 -1.8972  3.1954
19337THY    CA467011   4.606   9.228   5.388 -0.2900  0.0262  0.1937
19337THY    HA467012   4.649   9.239   5.289  1.3620  0.9469  2.7309
19337THY    CA567013   4.645   9.312   5.486 -0.4443 -0.4180  0.1423
19337THY    CM167014   4.755   9.403   5.465 -0.9078  0.1812  0.1740
19337THY    HM167015   4.844   9.363   5.514 -0.3274 -0.7800  0.2397
19337THY    HM267016   4.725   9.493   5.521 -0.8125 -0.6064  0.7067
19337THY    HM367017   4.784   9.430   5.363 -0.5316  0.8619  2.6122
19337THY    CA667018   4.582   9.300   5.609 -0.5486 -0.4472 -0.1271
19337THY    HA667019   4.622   9.376   5.675  2.6852 -1.6501 -0.6208
19338THY      O67020   5.209   7.213   6.415 -0.2016 -0.1886 -0.1185
19338THY     HO67021   5.138   7.274   6.440  0.4298  0.3641  0.4111
19338THY    CA167022   5.161   7.137   6.319 -0.2147 -0.3796 -0.6499
19338THY    CA267023   5.230   7.032   6.265  0.6727 -0.3340  0.7592
19338THY    CP167024   5.371   7.000   6.306 -0.1950 -0.6567 -0.4418
19338THY    HP167025   5.399   7.063   6.390  1.3102 -0.5276 -1.2227
19338THY    CP267026   5.479   7.037   6.200 -0.4337  0.5953  0.5331
19338THY    HP267027   5.573   7.007   6.247  0.6975 -0.8349  1.7080
19338THY    HP367028   5.476   7.145   6.185  0.2671  1.0943  0.6324
19338THY    HP467029   5.465   6.974   6.112  1.0088  1.6850 -1.4251
19338THY    CP367030   5.379   6.856   6.363  0.4884 -0.7250 -0.1161
19338THY    HP567031   5.426   6.864   6.462 -2.3539  0.7973 -0.7608
19338THY    HP667032   5.425   6.783   6.296 -1.4730 -0.8697 -1.2816
19338THY    HP767033   5.277   6.822   6.383 -0.4566  2.2835  3.7197
19338THY    CA367034   5.168   6.933   6.180 -1.1888  0.1105  0.2708
19338THY    HA367035   5.226   6.849   6.144  1.6160  0.0830  2.0686
19338THY    CA467036   5.037   6.952   6.150  0.3658 -0.0418  0.1114
19338THY    HA467037   4.989   6.879   6.085  0.4572 -0.6072  0.5503
19338THY    CA567038   4.967   7.063   6.203  0.4287 -0.2660  0.4777
19338THY    CM167039   4.818   7.083   6.182 -0.0263 -0.5828  0.2274
19338THY    HM167040   4.812   7.151   6.097  0.7609 -0.8822 -0.0724
19338THY    HM267041   4.765   7.124   6.269 -0.0438  0.1041 -1.1764
19338THY    HM367042   4.764   6.992   6.152 -2.0799 -0.1371  1.2371
19338THY    CA667043   5.028   7.158   6.287 -0.7666  0.5304 -0.0860
19338THY    HA667044   4.968   7.238   6.330  1.6487 -0.7005  2.5692
19339THY      O67045   5.732   7.768   7.005  0.6876 -0.4081  0.3276
19339THY     HO67046   5.816   7.799   7.045 -0.2663  1.4671  0.6293
19339THY    CA167047   5.695   7.662   7.084 -0.0071  0.5189 -0.7128
19339THY    CA267048   5.558   7.619   7.115  0.3251 -0.1769 -0.1986
19339THY    CP167049   5.438   7.685   7.039  0.1386 -0.1238 -0.4617
19339THY    HP167050   5.458   7.793   7.034  1.6336  0.8983 -0.6583
19339THY    CP267051   5.306   7.674   7.118 -0.3700  0.0031 -0.0216
19339THY    HP267052   5.306   7.732   7.211  2.1294  1.3461 -1.9520
19339THY    HP367053   5.274   7.574   7.152 -1.1935  0.9459  0.5398
19339THY    HP467054   5.218   7.704   7.060 -1.6168  1.8467  0.0778
19339THY    CP367055   5.426   7.617   6.896 -0.7677 -0.5879  0.1238
19339THY    HP567056   5.321   7.592   6.876 -0.5425 -0.0353 -1.3909
19339THY    HP667057   5.478   7.522   6.878 -0.6273 -0.7648  0.2356
19339THY    HP767058   5.462   7.686   6.819 -0.8236 -1.0517 -0.3584
19339THY    CA367059   5.535   7.512   7.201  0.0199 -0.3638 -0.4486
19339THY    HA367060   5.438   7.478   7.238 -0.4434  0.3923  1.5336
19339THY    CA467061   5.642   7.450   7.259 -0.4541 -0.6956 -0.0324
19339THY    HA467062   5.635   7.381   7.342 -0.3893  1.1164  2.0534
19339THY    CA567063   5.770   7.490   7.234 -0.3785  0.2954  0.5057
19339THY    CM167064   5.893   7.419   7.292  0.1117 -0.3093  0.1390
19339THY    HM167065   5.957   7.379   7.212 -0.3385 -0.8042  0.3871
19339THY    HM267066   5.858   7.330   7.346  1.4651  1.3993  0.6003
19339THY    HM367067   5.940   7.474   7.374  0.7933  1.5541 -2.9916
19339THY    CA667068   5.800   7.603   7.152  0.6287 -0.0189  0.5354
19339THY    HA667069   5.904   7.631   7.140  0.7849 -0.1926 -0.0934
19340THY      O67070   3.101   7.074   6.182 -0.7353 -0.5554  0.0705
19340THY     HO67071   3.110   6.996   6.238 -1.7734 -0.9885 -0.3766
19340THY    CA167072   3.221   7.087   6.110 -0.0682  0.5870  0.7874
19340THY    CA267073   3.244   7.180   6.007 -0.0944 -0.3182  0.2530
19340THY    CP167074   3.136   7.281   5.976 -0.6324  0.3133  0.5535
19340THY    HP167075   3.035   7.241   5.989 -1.0533  0.3383  1.5958
19340THY    CP267076   3.137   7.319   5.825 -0.2709  0.3698 -0.4558
19340THY    HP267077   3.051   7.383   5.801 -0.4069 -0.2514 -0.8706
19340THY    HP367078   3.139   7.235   5.754  0.3465  0.1647 -0.2712
19340THY    HP467079   3.221   7.386   5.806 -1.0445  1.1397  0.7697
19340THY    CP367080   3.155   7.396   6.066  0.5110  0.6654  0.4728
19340THY    HP567081   3.261   7.422   6.077  0.4848 -1.2367  1.5684
19340THY    HP667082   3.122   7.351   6.160  0.3538 -0.0309 -0.9401
19340THY    HP767083   3.080   7.469   6.032 -2.6674  1.0346 -2.3762
19340THY    CA367084   3.367   7.181   5.940  0.2446  0.0527 -0.9564
19340THY    HA367085   3.387   7.256   5.864 -1.5215 -1.8126 -2.2664
19340THY    CA467086   3.469   7.100   5.986 -0.0521 -0.1225  0.3618
19340THY    HA467087   3.570   7.105   5.947 -0.0487 -0.0861  0.5714
19340THY    CA567088   3.449   7.002   6.085 -0.0878 -0.0832 -0.5254
19340THY    CM167089   3.568   6.907   6.110 -0.6049 -0.6233  0.0308
19340THY    HM167090   3.532   6.823   6.170  1.0146 -1.5733 -1.4098
19340THY    HM267091   3.654   6.962   6.150 -0.4899 -1.0665  0.1751
19340THY    HM367092   3.602   6.867   6.014 -0.0372 -0.3204 -0.2189
19340THY    CA667093   3.323   6.996   6.146 -0.4708 -0.5707 -0.4835
19340THY    HA667094   3.310   6.923   6.226 -1.5261 -0.4325 -0.1612
19341THY      O67095   3.059   2.533   6.812 -0.8196 -0.8733  0.4038
19341THY     HO67096   3.089   2.487   6.732  0.5702 -0.7703  1.0653
19341THY    CA167097   2.934   2.581   6.795  0.4317 -0.5389 -0.4470
19341THY    CA267098   2.889   2.700   6.856 -0.1715  0.2668  0.9477
19341THY    CP167099   2.977   2.772   6.952  0.0691 -0.3742  0.4809
19341THY    HP167100   3.075   2.726   6.971  0.6248 -0.4000  1.6151
19341THY    CP267101   2.926   2.782   7.094  0.0563 -0.4557 -0.4371
19341THY    HP267102   2.994   2.826   7.167 -2.7864  0.3180  3.2266
19341THY    HP367103   2.888   2.685   7.129 -2.1313  1.3583  0.9736
19341THY    HP467104   2.833   2.841   7.100 -0.0787 -1.5083 -0.5177
19341THY    CP367105   2.995   2.915   6.901 -0.9248  0.1926 -0.7791
19341THY    HP567106   3.055   2.979   6.966 -0.4615 -2.8715  2.1990
19341THY    HP667107   2.900   2.962   6.874 -1.3612  1.9550 -0.5988
19341THY    HP767108   3.056   2.910   6.809 -0.3674  0.5518 -0.6690
19341THY    CA367109   2.751   2.740   6.824  0.3570  0.4638 -0.3726
19341THY    HA367110   2.714   2.817   6.891  0.3454  1.6654 -1.4013
19341THY    CA467111   2.671   2.665   6.740  0.0349 -0.6094 -0.7085
19341THY    HA467112   2.571   2.700   6.716  0.7005 -2.1488  0.2233
19341THY    CA567113   2.719   2.548   6.689  0.6408  0.5084  0.2973
19341THY    CM167114   2.631   2.462   6.599  0.4083  0.3641  0.5147
19341THY    HM167115   2.522   2.458   6.609  0.2004 -1.7702 -0.9297
19341THY    HM267116   2.662   2.357   6.608 -0.0981  1.8348  0.4668
19341THY    HM367117   2.645   2.493   6.495 -0.6270 -0.2816 -1.0622
19341THY    CA667118   2.856   2.511   6.706 -0.7025 -0.1107  0.9648
19341THY    HA667119   2.898   2.421   6.662  1.1467  0.3432  1.5760
19342THY      O67120   7.046   3.192   7.890  0.2516  0.2037  0.1288
19342THY     HO67121   6.973   3.139   7.925  0.9457  1.9841  0.2748
19342THY    CA167122   7.143   3.101   7.866 -0.2691 -0.4963 -0.2253
19342THY    CA267123   7.269   3.142   7.822 -0.3991  0.6460  0.6050
19342THY    CP167124   7.294   3.294   7.809 -0.4026 -0.0247 -0.3326
19342THY    HP167125   7.262   3.342   7.902 -0.3510  0.0033 -0.3514
19342THY    CP267126   7.226   3.352   7.689 -0.4679  0.9658  0.2694
19342THY    HP267127   7.282   3.323   7.599 -0.8554  0.7817  0.0898
19342THY    HP367128   7.236   3.461   7.702 -1.0071  0.0051  0.4476
19342THY    HP467129   7.121   3.326   7.674 -0.2356  0.3815 -0.3423
19342THY    CP367130   7.440   3.344   7.811  0.2574 -0.6263  0.2603
19342THY    HP567131   7.498   3.288   7.737  1.5081  0.1546  0.4757
19342THY    HP667132   7.485   3.320   7.909  2.1113 -1.7881 -1.2694
19342THY    HP767133   7.457   3.449   7.784  1.9871  2.6213  0.9455
19342THY    CA367134   7.355   3.046   7.767 -0.1488  0.2986 -0.0309
19342THY    HA367135   7.451   3.075   7.727  0.6367  0.7656 -1.8477
19342THY    CA467136   7.317   2.913   7.776 -0.1287  0.0173  0.4005
19342THY    HA467137   7.387   2.837   7.742 -0.9365  2.3586 -1.5480
19342THY    CA567138   7.193   2.877   7.833  0.2494 -0.0175  0.5732
19342THY    CM167139   7.143   2.733   7.855 -0.3655 -0.4755 -0.3008
19342THY    HM167140   7.198   2.657   7.799  0.7283  2.3838 -1.7639
19342THY    HM267141   7.036   2.729   7.832 -0.2862 -0.6762 -1.5055
19342THY    HM367142   7.159   2.709   7.961  0.5820 -0.1459  1.5730
19342THY    CA667143   7.102   2.971   7.875 -1.2318 -0.4636 -0.5212
19342THY    HA667144   7.003   2.954   7.916 -1.6423 -0.0908  2.3462
19343THY      O67145   0.695   7.964   6.688 -0.0412  0.8598 -0.5806
19343THY     HO67146   0.643   8.033   6.644  0.5820  0.8582 -0.0967
19343THY    CA167147   0.746   8.001   6.803 -0.6005 -0.0558 -0.4037
19343THY    CA267148   0.833   7.921   6.879 -0.3020 -0.6815  0.0188
19343THY    CP167149   0.885   7.786   6.811  0.7365  0.0950 -0.6403
19343THY    HP167150   0.814   7.747   6.737 -0.4441  1.2099 -0.7106
19343THY    CP267151   0.902   7.670   6.910  0.2461  0.0872  0.0333
19343THY    HP267152   0.975   7.705   6.984  2.1568 -2.2811  1.3895
19343THY    HP367153   0.943   7.582   6.860  0.3515  0.2724 -0.0221
19343THY    HP467154   0.800   7.645   6.942  0.4981  0.9281  0.0638
19343THY    CP367155   1.026   7.800   6.743 -0.2556  0.0487 -0.0078
19343THY    HP567156   1.046   7.709   6.685  0.4993  2.1495 -1.2442
19343THY    HP667157   1.116   7.811   6.805  0.4379 -0.9215 -0.0362
19343THY    HP767158   1.034   7.881   6.669  1.1819 -0.3114 -0.4383
19343THY    CA367159   0.874   7.964   7.009 -0.0163 -0.3009 -0.3766
19343THY    HA367160   0.944   7.903   7.065 -2.5693 -0.5677 -3.8532
19343THY    CA467161   0.832   8.092   7.049 -0.0840 -0.0596  0.1971
19343THY    HA467162   0.859   8.138   7.144 -0.1776 -0.2272  0.5984
19343THY    CA567163   0.743   8.171   6.972 -0.1048  0.3027  0.0865
19343THY    CM167164   0.706   8.310   7.014 -0.5652 -0.1264 -0.7378
19343THY    HM167165   0.783   8.381   6.981 -0.1103  1.1619 -0.6062
19343THY    HM267166   0.691   8.317   7.122 -1.8102 -0.3881  1.6618
19343THY    HM367167   0.614   8.343   6.965  0.7551 -1.4911  1.1784
19343THY    CA667168   0.706   8.126   6.850  0.0589  0.3652 -0.3350
19343THY    HA667169   0.649   8.191   6.785  0.6391 -0.4846 -0.6498
19344THY      O67170   2.547   4.068   5.121  0.2680 -0.1801 -0.2124
19344THY     HO67171   2.600   4.145   5.146  2.7558 -0.4518 -1.6878
19344THY    CA167172   2.514   4.007   5.233 -0.3719  0.0556  0.6093
19344THY    CA267173   2.386   3.974   5.260  0.8230 -0.0232  0.5141
19344THY    CP167174   2.282   3.983   5.151  0.3736  0.3351  0.3501
19344THY    HP167175   2.312   4.042   5.063 -1.3158  1.0747  2.4626
19344THY    CP267176   2.156   4.055   5.204 -0.4971  0.3695  0.0105
19344THY    HP267177   2.094   4.070   5.115  0.1022 -0.3719 -1.6606
19344THY    HP367178   2.180   4.152   5.249 -0.7063 -0.0750  0.2736
19344THY    HP467179   2.091   3.988   5.263 -2.6243  0.4637  2.0353
19344THY    CP367180   2.252   3.847   5.110  0.8564  0.0590  0.2164
19344THY    HP567181   2.343   3.809   5.062 -0.3132 -0.8651 -1.5356
19344THY    HP667182   2.178   3.844   5.029  0.7163  0.1502  0.9468
19344THY    HP767183   2.218   3.777   5.188 -0.6423 -1.8400 -1.2835
19344THY    CA367184   2.353   3.922   5.388  0.2087 -0.7214 -0.3846
19344THY    HA367185   2.248   3.895   5.394 -0.4775 -1.2187  1.9083
19344THY    CA467186   2.447   3.916   5.490  0.5837  0.0520 -0.3840
19344THY    HA467187   2.413   3.887   5.589  0.3411  0.3306  0.7650
19344THY    CA567188   2.578   3.948   5.456 -0.0229  0.4998 -0.6495
19344THY    CM167189   2.687   3.949   5.560 -0.3463  0.1440 -0.0009
19344THY    HM167190   2.732   4.049   5.552 -1.1291 -3.5350  0.1882
19344THY    HM267191   2.763   3.873   5.539  0.1300 -0.5212  0.6425
19344THY    HM367192   2.648   3.922   5.659  0.5269  0.8084  1.0734
19344THY    CA667193   2.613   3.978   5.323 -0.1976 -0.6215 -0.6135
19344THY    HA667194   2.714   4.003   5.290 -0.8307 -2.0709  0.1978
   9.60500   9.60500   9.60500
